<LesHouchesEvents version="3.0">
<header>
<!--
#*********************************************************************
#                                                                    *
#                        MadGraph5_aMC@NLO                           *
#                                                                    *
#                           Going Beyond                             *
#                                                                    *
#                   http://madgraph.hep.uiuc.edu                     *
#                   http://madgraph.phys.ucl.ac.be                   *
#                   http://amcatnlo.cern.ch                          *
#                                                                    *
#                     The MadGraph5_aMC@NLO team                     *
#                                                                    *
#....................................................................*
#                                                                    *
# This file contains all the information necessary to reproduce      *
# the events generated:                                              *
#                                                                    *
# 1. software version                                                *
# 2. proc_card          : code generation info including model       *
# 3. param_card         : model primary parameters in the LH format  *
# 4. run_card           : running parameters (collider and cuts)     *
# 5. pythia_card        : present only if pythia has been run        *
# 6. pgs_card           : present only if pgs has been run           *
# 7. delphes_cards      : present only if delphes has been run       *
#                                                                    *
#                                                                    *
#*********************************************************************
-->
<MGVersion>
#5.2.2.3
</MGVersion>
<MG5ProcCard>
#************************************************************
#*                     MadGraph5_aMC@NLO                    *
#*                                                          *
#*                *                       *                 *
#*                  *        * *        *                   *
#*                    * * * * 5 * * * *                     *
#*                  *        * *        *                   *
#*                *                       *                 *
#*                                                          *
#*                                                          *
#*         VERSION 2.2.3                 2015-02-10         *
#*                                                          *
#*    The MadGraph5_aMC@NLO Development Team - Find us at   *
#*    https://server06.fynu.ucl.ac.be/projects/madgraph     *
#*                                                          *
#************************************************************
#*                                                          *
#*               Command File for MadGraph5_aMC@NLO         *
#*                                                          *
#*     run as ./bin/mg5_aMC  filename                       *
#*                                                          *
#************************************************************
set group_subprocesses Auto
set ignore_six_quark_processes False
set loop_optimized_output True
set gauge unitary
set complex_mass_scheme False
import model sm
define p = g u c d s u~ c~ d~ s~
define j = g u c d s u~ c~ d~ s~
define l+ = e+ mu+
define l- = e- mu-
define vl = ve vm vt
define vl~ = ve~ vm~ vt~
import model Zprime_UFO
generate p p > zph, zph > j j
add process p p > zph, zph > b b~
output Dijet_signal
</MG5ProcCard>
<MGProcCard>
#*********************************************************************
#                        MadGraph/MadEvent                           *
#                   http://madgraph.hep.uiuc.edu                     *
#                                                                    *
#                          proc_card.dat                             *
#*********************************************************************
#                                                                    *
#            This Files is generated by MADGRAPH 5                   *
#                                                                    *
# WARNING: This Files is generated for MADEVENT (compatibility issue)*
#          This files is NOT a valid MG4 proc_card.dat               *
#          Running this in MG4 will NEVER reproduce the result of MG5*
#                                                                    *
#*********************************************************************
#*********************************************************************
# Process(es) requested : mg2 input                                  *
#*********************************************************************
# Begin PROCESS # This is TAG. Do not modify this line
p p > zph , zph > j j           #Process
# Be carefull the coupling are here in MG5 convention
          
end_coup           # End the couplings input

done               # this tells MG there are no more procs
# End PROCESS  # This is TAG. Do not modify this line
#*********************************************************************
# Model information                                                  *
#*********************************************************************
# Begin MODEL  # This is TAG. Do not modify this line
Zprime_UFO
# End   MODEL  # This is TAG. Do not modify this line
#*********************************************************************
# Start multiparticle definitions                                    *
#*********************************************************************
# Begin MULTIPARTICLES # This is TAG. Do not modify this line

# End  MULTIPARTICLES # This is TAG. Do not modify this line
</MGProcCard>
<MGRunCard>
#*********************************************************************
#                       MadGraph5_aMC@NLO                            *
#                                                                    *
#                     run_card.dat MadEvent                          *
#                                                                    *
#  This file is used to set the parameters of the run.               *
#                                                                    *
#  Some notation/conventions:                                        *
#                                                                    *
#   Lines starting with a '# ' are info or comments                  *
#                                                                    *
#   mind the format:   value    = variable     ! comment             *
#*********************************************************************
#
#*******************                                                 
# Running parameters
#*******************                                                 
#                                                                    
#*********************************************************************
# Tag name for the run (one word)                                    *
#*********************************************************************
  tag_1     = run_tag ! name of the run 
#*********************************************************************
# Run to generate the grid pack                                      *
#*********************************************************************
  .false.     = gridpack  !True = setting up the grid pack
#*********************************************************************
# Number of events and rnd seed                                      *
# Warning: Do not generate more than 1M events in a single run       *
# If you want to run Pythia, avoid more than 50k events in a run.    *
#*********************************************************************
  2000 = nevents ! Number of unweighted events requested 
 1731 = iseed   ! rnd seed (0=assigned automatically=default))
#*********************************************************************
# Collider type and energy                                           *
# lpp: 0=No PDF, 1=proton, -1=antiproton, 2=photon from proton,      *
#                                         3=photon from electron     *
#*********************************************************************
        1     = lpp1    ! beam 1 type 
        1     = lpp2    ! beam 2 type
     4000     = ebeam1  ! beam 1 total energy in GeV
     4000     = ebeam2  ! beam 2 total energy in GeV
#*********************************************************************
# Beam polarization from -100 (left-handed) to 100 (right-handed)    *
#*********************************************************************
        0     = polbeam1 ! beam polarization for beam 1
        0     = polbeam2 ! beam polarization for beam 2
#*********************************************************************
# PDF CHOICE: this automatically fixes also alpha_s and its evol.    *
#*********************************************************************
 'nn23lo1'    = pdlabel     ! PDF set                                     
 230000    = lhaid     ! if pdlabel=lhapdf, this is the lhapdf number
#*********************************************************************
# Renormalization and factorization scales                           *
#*********************************************************************
 F        = fixed_ren_scale  ! if .true. use fixed ren scale
 F        = fixed_fac_scale  ! if .true. use fixed fac scale
 91.1880  = scale            ! fixed ren scale
 91.1880  = dsqrt_q2fact1    ! fixed fact scale for pdf1
 91.1880  = dsqrt_q2fact2    ! fixed fact scale for pdf2
 1        = scalefact        ! scale factor for event-by-event scales
#*********************************************************************
# Matching - Warning! ickkw > 1 is still beta
#*********************************************************************
 0        = ickkw            ! 0 no matching, 1 MLM, 2 CKKW matching
 1        = highestmult      ! for ickkw=2, highest mult group
 1        = ktscheme         ! for ickkw=1, 1 Durham kT, 2 Pythia pTE
 1        = alpsfact         ! scale factor for QCD emission vx
 F        = chcluster        ! cluster only according to channel diag
 T        = pdfwgt           ! for ickkw=1, perform pdf reweighting
 5        = asrwgtflavor     ! highest quark flavor for a_s reweight
 T        = clusinfo         ! include clustering tag in output
 3.0      = lhe_version       ! Change the way clustering information pass to shower.        
#*********************************************************************
#**********************************************************
#
#**********************************************************
# Automatic ptj and mjj cuts if xqcut > 0
# (turn off for VBF and single top processes)
#**********************************************************
   T  = auto_ptj_mjj  ! Automatic setting of ptj and mjj
#**********************************************************
#                                                                    
#**********************************
# BW cutoff (M+/-bwcutoff*Gamma)
#**********************************
  15  = bwcutoff      ! (M+/-bwcutoff*Gamma)
#**********************************************************
# Apply pt/E/eta/dr/mij cuts on decay products or not
# (note that etmiss/ptll/ptheavy/ht/sorted cuts always apply)
#**********************************************************
   T  = cut_decays    ! Cut decay products 
#*************************************************************
# Number of helicities to sum per event (0 = all helicities)
# 0 gives more stable result, but longer run time (needed for
# long decay chains e.g.).
# Use >=2 if most helicities contribute, e.g. pure QCD.
#*************************************************************
   0  = nhel          ! Number of helicities used per event
#*******************                                                 
# Standard Cuts
#*******************                                                 
#                                                                    
#*********************************************************************
# Minimum and maximum pt's (for max, -1 means no cut)                *
#*********************************************************************
 20  = ptj       ! minimum pt for the jets 
  0  = ptb       ! minimum pt for the b 
 10  = pta       ! minimum pt for the photons 
 10  = ptl       ! minimum pt for the charged leptons 
  0  = misset    ! minimum missing Et (sum of neutrino's momenta)
  0  = ptheavy   ! minimum pt for one heavy final state
 1.0 = ptonium   ! minimum pt for the quarkonium states
 -1  = ptjmax    ! maximum pt for the jets
 -1  = ptbmax    ! maximum pt for the b
 -1  = ptamax    ! maximum pt for the photons
 -1  = ptlmax    ! maximum pt for the charged leptons
 -1  = missetmax ! maximum missing Et (sum of neutrino's momenta)
#*********************************************************************
# Minimum and maximum E's (in the center of mass frame)              *
#*********************************************************************
  0  = ej     ! minimum E for the jets 
  0  = eb     ! minimum E for the b 
  0  = ea     ! minimum E for the photons 
  0  = el     ! minimum E for the charged leptons 
 -1   = ejmax ! maximum E for the jets
 -1   = ebmax ! maximum E for the b
 -1   = eamax ! maximum E for the photons
 -1   = elmax ! maximum E for the charged leptons
#*********************************************************************
# Maximum and minimum absolute rapidity (for max, -1 means no cut)   *
#*********************************************************************
   5  = etaj    ! max rap for the jets 
  -1  = etab    ! max rap for the b
 2.5  = etaa    ! max rap for the photons 
 2.5  = etal    ! max rap for the charged leptons 
 0.6  = etaonium ! max rap for the quarkonium states
   0  = etajmin ! min rap for the jets
   0  = etabmin ! min rap for the b
   0  = etaamin ! min rap for the photons
   0  = etalmin ! main rap for the charged leptons
#*********************************************************************
# Minimum and maximum DeltaR distance                                *
#*********************************************************************
 0.4 = drjj    ! min distance between jets 
 0   = drbb    ! min distance between b's 
 0.4 = drll    ! min distance between leptons 
 0.4 = draa    ! min distance between gammas 
 0   = drbj    ! min distance between b and jet 
 0.4 = draj    ! min distance between gamma and jet 
 0.4 = drjl    ! min distance between jet and lepton 
 0   = drab    ! min distance between gamma and b 
 0   = drbl    ! min distance between b and lepton 
 0.4 = dral    ! min distance between gamma and lepton 
 -1  = drjjmax ! max distance between jets
 -1  = drbbmax ! max distance between b's
 -1  = drllmax ! max distance between leptons
 -1  = draamax ! max distance between gammas
 -1  = drbjmax ! max distance between b and jet
 -1  = drajmax ! max distance between gamma and jet
 -1  = drjlmax ! max distance between jet and lepton
 -1  = drabmax ! max distance between gamma and b
 -1  = drblmax ! max distance between b and lepton
 -1  = dralmax ! maxdistance between gamma and lepton
#*********************************************************************
# Minimum and maximum invariant mass for pairs                       *
# WARNING: for four lepton final state mmll cut require to have      *
#          different lepton masses for each flavor!                  *           
#*********************************************************************
 0   = mmjj    ! min invariant mass of a jet pair 
 0   = mmbb    ! min invariant mass of a b pair 
 0   = mmaa    ! min invariant mass of gamma gamma pair
 0   = mmll    ! min invariant mass of l+l- (same flavour) lepton pair
 -1  = mmjjmax ! max invariant mass of a jet pair
 -1  = mmbbmax ! max invariant mass of a b pair
 -1  = mmaamax ! max invariant mass of gamma gamma pair
 -1  = mmllmax ! max invariant mass of l+l- (same flavour) lepton pair
#*********************************************************************
# Minimum and maximum invariant mass for all letpons                 *
#*********************************************************************
 0   = mmnl    ! min invariant mass for all letpons (l+- and vl) 
 -1  = mmnlmax ! max invariant mass for all letpons (l+- and vl) 
#*********************************************************************
# Minimum and maximum pt for 4-momenta sum of leptons                *
#*********************************************************************
 0   = ptllmin  ! Minimum pt for 4-momenta sum of leptons(l and vl)
 -1  = ptllmax  ! Maximum pt for 4-momenta sum of leptons(l and vl)
#*********************************************************************
# Inclusive cuts                                                     *
#*********************************************************************
 0  = xptj ! minimum pt for at least one jet  
 0  = xptb ! minimum pt for at least one b 
 0  = xpta ! minimum pt for at least one photon 
 0  = xptl ! minimum pt for at least one charged lepton 
#*********************************************************************
# Control the pt's of the jets sorted by pt                          *
#*********************************************************************
 0   = ptj1min ! minimum pt for the leading jet in pt
 0   = ptj2min ! minimum pt for the second jet in pt
 0   = ptj3min ! minimum pt for the third jet in pt
 0   = ptj4min ! minimum pt for the fourth jet in pt
 -1  = ptj1max ! maximum pt for the leading jet in pt 
 -1  = ptj2max ! maximum pt for the second jet in pt
 -1  = ptj3max ! maximum pt for the third jet in pt
 -1  = ptj4max ! maximum pt for the fourth jet in pt
 0   = cutuse  ! reject event if fails any (0) / all (1) jet pt cuts
#*********************************************************************
# Control the pt's of leptons sorted by pt                           *
#*********************************************************************
 0   = ptl1min ! minimum pt for the leading lepton in pt
 0   = ptl2min ! minimum pt for the second lepton in pt
 0   = ptl3min ! minimum pt for the third lepton in pt
 0   = ptl4min ! minimum pt for the fourth lepton in pt
 -1  = ptl1max ! maximum pt for the leading lepton in pt 
 -1  = ptl2max ! maximum pt for the second lepton in pt
 -1  = ptl3max ! maximum pt for the third lepton in pt
 -1  = ptl4max ! maximum pt for the fourth lepton in pt
#*********************************************************************
# Control the Ht(k)=Sum of k leading jets                            *
#*********************************************************************
 0   = htjmin ! minimum jet HT=Sum(jet pt)
 -1  = htjmax ! maximum jet HT=Sum(jet pt)
 0   = ihtmin  !inclusive Ht for all partons (including b)
 -1  = ihtmax  !inclusive Ht for all partons (including b)
 0   = ht2min ! minimum Ht for the two leading jets
 0   = ht3min ! minimum Ht for the three leading jets
 0   = ht4min ! minimum Ht for the four leading jets
 -1  = ht2max ! maximum Ht for the two leading jets
 -1  = ht3max ! maximum Ht for the three leading jets
 -1  = ht4max ! maximum Ht for the four leading jets
#***********************************************************************
# Photon-isolation cuts, according to hep-ph/9801442                   *
# When ptgmin=0, all the other parameters are ignored                  *
# When ptgmin>0, pta and draj are not going to be used                 *
#***********************************************************************
   0 = ptgmin ! Min photon transverse momentum
 0.4 = R0gamma ! Radius of isolation code
 1.0 = xn ! n parameter of eq.(3.4) in hep-ph/9801442
 1.0 = epsgamma ! epsilon_gamma parameter of eq.(3.4) in hep-ph/9801442
 .true. = isoEM ! isolate photons from EM energy (photons and leptons)
#*********************************************************************
# WBF cuts                                                           *
#*********************************************************************
 0   = xetamin ! minimum rapidity for two jets in the WBF case  
 0   = deltaeta ! minimum rapidity for two jets in the WBF case 
#*********************************************************************
# KT DURHAM CUT                                                      *
#*********************************************************************
 -1    =  ktdurham        
 0.4  =  dparameter 
#*********************************************************************
# maximal pdg code for quark to be considered as a light jet         *
# (otherwise b cuts are applied)                                     *
#*********************************************************************
 4 = maxjetflavor    ! Maximum jet pdg code
#*********************************************************************
# Jet measure cuts                                                   *
#*********************************************************************
 0   = xqcut   ! minimum kt jet measure between partons
#*********************************************************************
#
#*********************************************************************
# Store info for systematics studies                                 *
# WARNING: If use_syst is T, matched Pythia output is                *
#          meaningful ONLY if plotted taking matchscale              *
#          reweighting into account!                                 *
#*********************************************************************
   F  = use_syst      ! Enable systematics studies
#
#**************************************
# Parameter of the systematics study
#  will be used by SysCalc (if installed)
#**************************************                                  
#
0.5 1 2 = sys_scalefact  # factorization/renormalization scale factor
0.5 1 2 = sys_alpsfact  # \alpha_s emission scale factors
30 50 = sys_matchscale # variation of merging scale
# PDF sets and number of members (0 or none for all members).
CT10nlo.LHgrid = sys_pdf # matching scales
# MSTW2008nlo68cl.LHgrid 1  = sys_pdf
</MGRunCard>
<slha>
######################################################################
## PARAM_CARD AUTOMATICALY GENERATED BY MG5 FOLLOWING UFO MODEL   ####
######################################################################
##                                                                  ##
##  Width set on Auto will be computed following the information    ##
##        present in the decay.py files of the model.               ##
##        See  arXiv:1402.1178 for more details.                    ##
##                                                                  ##
######################################################################

###################################
## INFORMATION FOR CKMBLOCK
###################################
Block ckmblock 
    1 2.277360e-01 # cabi 

###################################
## INFORMATION FOR FRBLOCK
###################################
Block frblock 
    1 8.000000e-01 # gz 

###################################
## INFORMATION FOR MASS
###################################
Block mass 
    1 5.040000e-03 # MD 
    2 2.550000e-03 # MU 
    3 1.010000e-01 # MS 
    4 1.270000e+00 # MC 
    5 4.700000e+00 # MB 
    6 1.720000e+02 # MT 
   11 5.110000e-04 # Me 
   13 1.056600e-01 # MM 
   15 1.777000e+00 # MTA 
   23 9.118760e+01 # MZ 
   25 1.200000e+02 # MH 
  10030 3.400000e+03 # MZph 
  10031 3.000000e+02 # MZpl 
## Dependent parameters, given by model restrictions.
## Those values should be edited following the 
## analytical expression. MG5 ignores those values 
## but they are important for interfacing the output of MG5
## to external program such as Pythia.
  12 0.000000 # ve : 0.0 
  14 0.000000 # vm : 0.0 
  16 0.000000 # vt : 0.0 
  21 0.000000 # g : 0.0 
  22 0.000000 # a : 0.0 
  24 79.824360 # w+ : cmath.sqrt(MZ__exp__2/2. + cmath.sqrt(MZ__exp__4/4. - (aEW*cmath.pi*MZ__exp__2)/(Gf*sqrt__2))) 

###################################
## INFORMATION FOR SMINPUTS
###################################
Block sminputs 
    1 1.279000e+02 # aEWM1 
    2 1.166370e-05 # Gf 
    3 1.184000e-01 # aS 

###################################
## INFORMATION FOR YUKAWA
###################################
Block yukawa 
    1 5.040000e-03 # ymdo 
    2 2.550000e-03 # ymup 
    3 1.010000e-01 # yms 
    4 1.270000e+00 # ymc 
    5 4.700000e+00 # ymb 
    6 1.720000e+02 # ymt 
   11 5.110000e-04 # yme 
   13 1.056600e-01 # ymm 
   15 1.777000e+00 # ymtau 

###################################
## INFORMATION FOR DECAY
###################################
DECAY   6 1.508336e+00 # WT 
DECAY  23 2.495200e+00 # WZ 
DECAY  24 2.085000e+00 # WW 
DECAY  25 5.753088e-03 # WH 
## Dependent parameters, given by model restrictions.
## Those values should be edited following the 
## analytical expression. MG5 ignores those values 
## but they are important for interfacing the output of MG5
## to external program such as Pythia.
DECAY  1 0.000000 # d : 0.0 
DECAY  2 0.000000 # u : 0.0 
DECAY  3 0.000000 # s : 0.0 
DECAY  4 0.000000 # c : 0.0 
DECAY  5 0.000000 # b : 0.0 
DECAY  11 0.000000 # e- : 0.0 
DECAY  12 0.000000 # ve : 0.0 
DECAY  13 0.000000 # mu- : 0.0 
DECAY  14 0.000000 # vm : 0.0 
DECAY  15 0.000000 # ta- : 0.0 
DECAY  16 0.000000 # vt : 0.0 
DECAY  21 0.000000 # g : 0.0 
DECAY  22 0.000000 # a : 0.0 
DECAY  10030 0.308725 # zph : (gz__exp__2*MZph*(5 + cmath.sqrt(1 - (4*MT__exp__2)/MZph__exp__2)))/(144.*cmath.pi) 
DECAY  10031 0.132629 # zpl : (5*gz__exp__2*MZpl)/(144.*cmath.pi) 
#===========================================================
# QUANTUM NUMBERS OF NEW STATE(S) (NON SM PDG CODE)
#===========================================================

Block QNUMBERS 10030  # zph 
        1 0  # 3 times electric charge
        2 3  # number of spin states (2S+1)
        3 1  # colour rep (1: singlet, 3: triplet, 8: octet)
        4 0  # Particle/Antiparticle distinction (0=own anti)
Block QNUMBERS 10031  # zpl 
        1 0  # 3 times electric charge
        2 3  # number of spin states (2S+1)
        3 1  # colour rep (1: singlet, 3: triplet, 8: octet)
        4 0  # Particle/Antiparticle distinction (0=own anti)
</slha>
## END BANNER##
<MGGenerationInfo>
#  Number of Events        :         3932
#  Integrated weight (pb)  :  0.20426E-03
#  Max wgt                 :  0.84892E-07
#  Average wgt             :  0.51948E-07
</MGGenerationInfo>
</header>
<init>
     2212     2212  0.40000000000E+04  0.40000000000E+04 0 0  247000  247000 2   1
  0.20431397235E-03  0.49682124217E-06  0.84892280000E-07   0
</init>
<event>
 5   0  0.7838333E-07  0.3442104E+04  0.7818609E-02  0.8127649E-01
        2   -1    0    0  501    0  0.00000000000E+00  0.00000000000E+00  0.18568287362E+04  0.18568287362E+04  0.25500000920E-02 0. -1.
       -2   -1    0    0    0  501  0.00000000000E+00  0.00000000000E+00 -0.15952036993E+04  0.15952036993E+04  0.25500000920E-02 0.  1.
    10030    2    1    2    0    0  0.00000000000E+00  0.00000000000E+00  0.26162503691E+03  0.34520324354E+04  0.34421040477E+04 0.  0.
        1    1    3    3  502    0 -0.96323383043E+03 -0.11165373917E+04 -0.75918447204E+03  0.16585645063E+04  0.50400001928E-02 0. -1.
       -1    1    3    3    0  502  0.96323383043E+03  0.11165373917E+04  0.10208095089E+04  0.17934679291E+04  0.50400001928E-02 0.  1.
</event>
<event>
 5   0  0.7838333E-07  0.3452579E+04  0.7818609E-02  0.8125121E-01
        2   -1    0    0  501    0  0.00000000000E+00  0.00000000000E+00  0.18705502353E+04  0.18705502353E+04  0.25500000920E-02 0. -1.
       -2   -1    0    0    0  501  0.00000000000E+00  0.00000000000E+00 -0.15931547260E+04  0.15931547260E+04  0.25500000920E-02 0.  1.
    10030    2    1    2    0    0  0.00000000000E+00  0.00000000000E+00  0.27739550927E+03  0.34637049614E+04  0.34525792954E+04 0.  0.
        1    1    3    3  502    0  0.12703165472E+04 -0.73610849685E+03  0.10496524940E+04  0.18048075264E+04  0.50400001928E-02 0. -1.
       -1    1    3    3    0  502 -0.12703165472E+04  0.73610849685E+03 -0.77225698472E+03  0.16588974350E+04  0.50400001928E-02 0.  1.
</event>
<event>
 5   0  0.8489228E-07  0.3395558E+04  0.7818609E-02  0.8138997E-01
        2   -1    0    0  501    0  0.00000000000E+00  0.00000000000E+00  0.21659821638E+04  0.21659821638E+04  0.25500000920E-02 0.  1.
       -2   -1    0    0    0  501  0.00000000000E+00  0.00000000000E+00 -0.13307833328E+04  0.13307833328E+04  0.25500000920E-02 0. -1.
    10030    2    1    2    0    0  0.00000000000E+00  0.00000000000E+00  0.83519883099E+03  0.34967654966E+04  0.33955576642E+04 0.  0.
        3    1    3    3  502    0 -0.74975906151E+03  0.68013909913E+03  0.18212083483E+04  0.20836332937E+04  0.10100000352E+00 0.  1.
       -3    1    3    3    0  502  0.74975906151E+03 -0.68013909913E+03 -0.98600951729E+03  0.14131322029E+04  0.10100000352E+00 0. -1.
</event>
<event>
 5   0  0.7838333E-07  0.3389633E+04  0.7818609E-02  0.8140455E-01
       -2   -1    0    0    0  501  0.00000000000E+00  0.00000000000E+00  0.11885930822E+04  0.11885930822E+04  0.25500000920E-02 0. -1.
        2   -1    0    0  501    0  0.00000000000E+00  0.00000000000E+00 -0.24166416161E+04  0.24166416161E+04  0.25500000920E-02 0.  1.
    10030    2    1    2    0    0  0.00000000000E+00  0.00000000000E+00 -0.12280485339E+04  0.36052346983E+04  0.33896333176E+04 0.  0.
        1    1    3    3  502    0  0.13647102604E+03 -0.88879047627E+03 -0.21420049080E+04  0.23230923093E+04  0.50400001928E-02 0.  1.
       -1    1    3    3    0  502 -0.13647102604E+03  0.88879047627E+03  0.91395637410E+03  0.12821423889E+04  0.50400001928E-02 0. -1.
</event>
<event>
 5   0  0.8489228E-07  0.3435660E+04  0.7818609E-02  0.8129209E-01
        2   -1    0    0  501    0  0.00000000000E+00  0.00000000000E+00  0.16899075919E+04  0.16899075919E+04  0.25500000920E-02 0. -1.
       -2   -1    0    0    0  501  0.00000000000E+00  0.00000000000E+00 -0.17462139589E+04  0.17462139589E+04  0.25500000920E-02 0.  1.
    10030    2    1    2    0    0  0.00000000000E+00  0.00000000000E+00 -0.56306367037E+02  0.34361215508E+04  0.34356601847E+04 0.  0.
        3    1    3    3  502    0 -0.82744093615E+02 -0.46710556341E+03 -0.16794067021E+04  0.17451192148E+04  0.10100000352E+00 0.  1.
       -3    1    3    3    0  502  0.82744093615E+02  0.46710556341E+03  0.16231003351E+04  0.16910023360E+04  0.10100000352E+00 0. -1.
</event>
<event>
 5   0  0.2641442E-07  0.3553075E+04  0.7818609E-02  0.8101326E-01
        1   -1    0    0  501    0  0.00000000000E+00  0.00000000000E+00  0.20064754626E+04  0.20064754626E+04  0.50400001928E-02 0. -1.
       -1   -1    0    0    0  501  0.00000000000E+00  0.00000000000E+00 -0.15729495721E+04  0.15729495721E+04  0.50400001928E-02 0.  1.
    10030    2    1    2    0    0  0.00000000000E+00  0.00000000000E+00  0.43352589052E+03  0.35794250347E+04  0.35530745674E+04 0.  0.
        1    1    3    3  502    0  0.59322797762E+03  0.80279291145E+03 -0.12637238566E+04  0.16104017753E+04  0.50400001928E-02 0.  1.
       -1    1    3    3    0  502 -0.59322797762E+03 -0.80279291145E+03  0.16972497471E+04  0.19690232594E+04  0.50400001928E-02 0. -1.
</event>
<event>
 5   0  0.2622205E-07  0.3398864E+04  0.7818609E-02  0.8138185E-01
        1   -1    0    0  501    0  0.00000000000E+00  0.00000000000E+00  0.11895479403E+04  0.11895479403E+04  0.50400001928E-02 0.  1.
       -1   -1    0    0    0  501  0.00000000000E+00  0.00000000000E+00 -0.24278710174E+04  0.24278710174E+04  0.50400001928E-02 0. -1.
    10030    2    1    2    0    0  0.00000000000E+00  0.00000000000E+00 -0.12383230771E+04  0.36174189576E+04  0.33988639090E+04 0.  0.
        3    1    3    3  502    0  0.12932383832E+04  0.10486371694E+04 -0.25673019751E+03  0.16846411586E+04  0.10100000352E+00 0.  1.
       -3    1    3    3    0  502 -0.12932383832E+04 -0.10486371694E+04 -0.98159287958E+03  0.19327777990E+04  0.10100000352E+00 0. -1.
</event>
<event>
 5   0  0.7838333E-07  0.3424974E+04  0.7818609E-02  0.8131804E-01
        2   -1    0    0  501    0  0.00000000000E+00  0.00000000000E+00  0.28824620038E+04  0.28824620038E+04  0.25500000920E-02 0. -1.
       -2   -1    0    0    0  501  0.00000000000E+00  0.00000000000E+00 -0.10173981969E+04  0.10173981969E+04  0.25500000920E-02 0.  1.
    10030    2    1    2    0    0  0.00000000000E+00  0.00000000000E+00  0.18650638069E+04  0.38998602008E+04  0.34249739534E+04 0.  0.
        1    1    3    3  502    0 -0.18478692665E+03  0.10455660762E+04  0.24624257115E+04  0.26815844220E+04  0.50400001928E-02 0. -1.
       -1    1    3    3    0  502  0.18478692665E+03 -0.10455660762E+04 -0.59736190462E+03  0.12182757787E+04  0.50400001928E-02 0.  1.
</event>
<event>
 5   0  0.2599367E-07  0.3421117E+04  0.7818609E-02  0.8132743E-01
       -1   -1    0    0    0  501  0.00000000000E+00  0.00000000000E+00  0.11543669487E+04  0.11543669487E+04  0.50400001928E-02 0. -1.
        1   -1    0    0  501    0  0.00000000000E+00  0.00000000000E+00 -0.25347316577E+04  0.25347316577E+04  0.50400001928E-02 0.  1.
    10030    2    1    2    0    0  0.00000000000E+00  0.00000000000E+00 -0.13803647090E+04  0.36890986064E+04  0.34211170395E+04 0.  0.
        2    1    3    3  502    0  0.12173946869E+04 -0.11191236746E+04 -0.21826863542E+03  0.16679714686E+04  0.25500000920E-02 0. -1.
       -2    1    3    3    0  502 -0.12173946869E+04  0.11191236746E+04 -0.11620960736E+04  0.20211271378E+04  0.25500000920E-02 0.  1.
</event>
<event>
 5   0  0.7838333E-07  0.3373529E+04  0.7818609E-02  0.8144434E-01
        2   -1    0    0  501    0  0.00000000000E+00  0.00000000000E+00  0.14021801984E+04  0.14021801984E+04  0.25500000920E-02 0. -1.
       -2   -1    0    0    0  501  0.00000000000E+00  0.00000000000E+00 -0.20291074147E+04  0.20291074147E+04  0.25500000920E-02 0.  1.
    10030    2    1    2    0    0  0.00000000000E+00  0.00000000000E+00 -0.62692721629E+03  0.34312876130E+04  0.33735288570E+04 0.  0.
        1    1    3    3  502    0 -0.28427890339E+03 -0.14549276120E+04  0.50501587924E+03  0.15661002169E+04  0.50400001928E-02 0. -1.
       -1    1    3    3    0  502  0.28427890339E+03  0.14549276120E+04 -0.11319430955E+04  0.18651873961E+04  0.50400001928E-02 0.  1.
</event>
<event>
 5   0  0.2553250E-07  0.3345411E+04  0.7818609E-02  0.8151436E-01
       -4   -1    0    0    0  501  0.00000000000E+00  0.00000000000E+00  0.22854698769E+04  0.22854702298E+04  0.12699999809E+01 0. -1.
        4   -1    0    0  501    0  0.00000000000E+00  0.00000000000E+00 -0.12242304583E+04  0.12242311170E+04  0.12699999809E+01 0.  1.
    10030    2    1    2    0    0  0.00000000000E+00  0.00000000000E+00  0.10612394187E+04  0.35097013468E+04  0.33454109524E+04 0.  0.
        3    1    3    3  502    0 -0.87270536418E+03 -0.25454119180E+03  0.20036891981E+04  0.22002673210E+04  0.10100000352E+00 0. -1.
       -3    1    3    3    0  502  0.87270536418E+03  0.25454119180E+03 -0.94244977945E+03  0.13094340258E+04  0.10100000352E+00 0.  1.
</event>
<event>
 5   0  0.7822003E-07  0.3396381E+04  0.7818609E-02  0.8138795E-01
       -2   -1    0    0    0  501  0.00000000000E+00  0.00000000000E+00  0.10134572977E+04  0.10134572977E+04  0.25500000920E-02 0. -1.
        2   -1    0    0  501    0  0.00000000000E+00  0.00000000000E+00 -0.28455570025E+04  0.28455570025E+04  0.25500000920E-02 0.  1.
    10030    2    1    2    0    0  0.00000000000E+00  0.00000000000E+00 -0.18320997047E+04  0.38590143002E+04  0.33963807267E+04 0.  0.
        5    1    3    3  502    0 -0.15926779900E+04 -0.14134928441E+03 -0.15660054224E+04  0.22380790587E+04  0.46999998093E+01 0.  1.
       -5    1    3    3    0  502  0.15926779900E+04  0.14134928441E+03 -0.26609428231E+03  0.16209352415E+04  0.46999998093E+01 0. -1.
</event>
<event>
 5   0  0.2553250E-07  0.3406011E+04  0.7818609E-02  0.8136432E-01
        1   -1    0    0  501    0  0.00000000000E+00  0.00000000000E+00  0.14842539441E+04  0.14842539441E+04  0.50400001928E-02 0.  1.
       -1   -1    0    0    0  501  0.00000000000E+00  0.00000000000E+00 -0.19539974840E+04  0.19539974840E+04  0.50400001928E-02 0. -1.
    10030    2    1    2    0    0  0.00000000000E+00  0.00000000000E+00 -0.46974353986E+03  0.34382514281E+04  0.34060114342E+04 0.  0.
        5    1    3    3  502    0  0.12457891337E+04  0.11608262405E+04 -0.26154643070E+03  0.17227700809E+04  0.46999998093E+01 0. -1.
       -5    1    3    3    0  502 -0.12457891337E+04 -0.11608262405E+04 -0.20819710916E+03  0.17154813472E+04  0.46999998093E+01 0.  1.
</event>
<event>
 5   0  0.2641442E-07  0.3220370E+04  0.7818609E-02  0.8183458E-01
        1   -1    0    0  501    0  0.00000000000E+00  0.00000000000E+00  0.18212426474E+04  0.18212426474E+04  0.50400001928E-02 0. -1.
       -1   -1    0    0    0  501  0.00000000000E+00  0.00000000000E+00 -0.14235859892E+04  0.14235859892E+04  0.50400001928E-02 0.  1.
    10030    2    1    2    0    0  0.00000000000E+00  0.00000000000E+00  0.39765665819E+03  0.32448286366E+04  0.32203698643E+04 0.  0.
        1    1    3    3  502    0 -0.66925805530E+03  0.13433032764E+04  0.78663328607E+03  0.16944503427E+04  0.50400001928E-02 0. -1.
       -1    1    3    3    0  502  0.66925805530E+03 -0.13433032764E+04 -0.38897662787E+03  0.15503782939E+04  0.50400001928E-02 0.  1.
</event>
<event>
 5   0  0.2622205E-07  0.3410172E+04  0.7818609E-02  0.8135414E-01
       -1   -1    0    0    0  501  0.00000000000E+00  0.00000000000E+00  0.11083055962E+04  0.11083055962E+04  0.50400001928E-02 0. -1.
        1   -1    0    0  501    0  0.00000000000E+00  0.00000000000E+00 -0.26232100167E+04  0.26232100167E+04  0.50400001928E-02 0.  1.
    10030    2    1    2    0    0  0.00000000000E+00  0.00000000000E+00 -0.15149044205E+04  0.37315156129E+04  0.34101720434E+04 0.  0.
        3    1    3    3  502    0 -0.49300499189E+03 -0.15335527025E+04 -0.14577761075E+03  0.16174328225E+04  0.10100000352E+00 0. -1.
       -3    1    3    3    0  502  0.49300499189E+03  0.15335527025E+04 -0.13691268098E+04  0.21140827904E+04  0.10100000352E+00 0.  1.
</event>
<event>
 5   0  0.2622205E-07  0.3419374E+04  0.7818609E-02  0.8133168E-01
       -1   -1    0    0    0  501  0.00000000000E+00  0.00000000000E+00  0.15320039893E+04  0.15320039893E+04  0.50400001928E-02 0. -1.
        1   -1    0    0  501    0  0.00000000000E+00  0.00000000000E+00 -0.19079782126E+04  0.19079782126E+04  0.50400001928E-02 0.  1.
    10030    2    1    2    0    0  0.00000000000E+00  0.00000000000E+00 -0.37597422331E+03  0.34399822019E+04  0.34193743482E+04 0.  0.
        3    1    3    3  502    0 -0.16917834252E+04 -0.11891834900E+03  0.29550896688E+02  0.16962151978E+04  0.10100000352E+00 0. -1.
       -3    1    3    3    0  502  0.16917834252E+04  0.11891834900E+03 -0.40552512000E+03  0.17437670041E+04  0.10100000352E+00 0.  1.
</event>
<event>
 5   0  0.7838333E-07  0.3396383E+04  0.7818609E-02  0.8138795E-01
       -2   -1    0    0    0  501  0.00000000000E+00  0.00000000000E+00  0.17157506382E+04  0.17157506382E+04  0.25500000920E-02 0.  1.
        2   -1    0    0  501    0  0.00000000000E+00  0.00000000000E+00 -0.16808120285E+04  0.16808120285E+04  0.25500000920E-02 0. -1.
    10030    2    1    2    0    0  0.00000000000E+00  0.00000000000E+00  0.34938609665E+02  0.33965626667E+04  0.33963829646E+04 0.  0.
        1    1    3    3  502    0  0.94736820163E+03  0.14083621983E+04  0.70985868355E+02  0.16988318294E+04  0.50400001928E-02 0.  1.
       -1    1    3    3    0  502 -0.94736820163E+03 -0.14083621983E+04 -0.36047258689E+02  0.16977308373E+04  0.50400001928E-02 0. -1.
</event>
<event>
 5   0  0.2592200E-07  0.3419288E+04  0.7818609E-02  0.8133189E-01
        1   -1    0    0  501    0  0.00000000000E+00  0.00000000000E+00  0.13039738840E+04  0.13039738840E+04  0.50400001928E-02 0.  1.
       -1   -1    0    0    0  501  0.00000000000E+00  0.00000000000E+00 -0.22415196192E+04  0.22415196192E+04  0.50400001928E-02 0. -1.
    10030    2    1    2    0    0  0.00000000000E+00  0.00000000000E+00 -0.93754573522E+03  0.35454935032E+04  0.34192882557E+04 0.  0.
        4    1    3    3  502    0  0.15183635871E+04  0.29049374753E+03  0.28828976302E+03  0.15725543552E+04  0.12699999809E+01 0.  1.
       -4    1    3    3    0  502 -0.15183635871E+04 -0.29049374753E+03 -0.12258354982E+04  0.19729391479E+04  0.12699999809E+01 0. -1.
</event>
<event>
 5   0  0.2641442E-07  0.3435256E+04  0.7818609E-02  0.8129307E-01
       -1   -1    0    0    0  501  0.00000000000E+00  0.00000000000E+00  0.13360950256E+04  0.13360950257E+04  0.50400001928E-02 0. -1.
        1   -1    0    0  501    0  0.00000000000E+00  0.00000000000E+00 -0.22081106451E+04  0.22081106451E+04  0.50400001928E-02 0.  1.
    10030    2    1    2    0    0  0.00000000000E+00  0.00000000000E+00 -0.87201561945E+03  0.35442056708E+04  0.34352558269E+04 0.  0.
        1    1    3    3  502    0  0.13144532527E+04 -0.11044441332E+04 -0.48923323652E+03  0.17851984082E+04  0.50400001928E-02 0. -1.
       -1    1    3    3    0  502 -0.13144532527E+04  0.11044441332E+04 -0.38278238293E+03  0.17590072625E+04  0.50400001928E-02 0.  1.
</event>
<event>
 5   0  0.7899402E-07  0.3312638E+04  0.7818609E-02  0.8159687E-01
       -2   -1    0    0    0  501  0.00000000000E+00  0.00000000000E+00  0.14753142830E+04  0.14753142830E+04  0.25500000920E-02 0. -1.
        2   -1    0    0  501    0  0.00000000000E+00  0.00000000000E+00 -0.18595313526E+04  0.18595313526E+04  0.25500000920E-02 0.  1.
    10030    2    1    2    0    0  0.00000000000E+00  0.00000000000E+00 -0.38421706954E+03  0.33348456356E+04  0.33126383227E+04 0.  0.
        2    1    3    3  502    0 -0.10804227638E+04  0.95372996391E+03 -0.10139630394E+04  0.17621110175E+04  0.25500000920E-02 0.  1.
       -2    1    3    3    0  502  0.10804227638E+04 -0.95372996391E+03  0.62974596990E+03  0.15727346181E+04  0.25500000920E-02 0. -1.
</event>
<event>
 5   0  0.2622205E-07  0.3397767E+04  0.7818609E-02  0.8138454E-01
       -1   -1    0    0    0  501  0.00000000000E+00  0.00000000000E+00  0.15746627898E+04  0.15746627898E+04  0.50400001928E-02 0.  1.
        1   -1    0    0  501    0  0.00000000000E+00  0.00000000000E+00 -0.18329041148E+04  0.18329041149E+04  0.50400001928E-02 0. -1.
    10030    2    1    2    0    0  0.00000000000E+00  0.00000000000E+00 -0.25824132504E+03  0.34075669047E+04  0.33977674476E+04 0.  0.
        3    1    3    3  502    0  0.14167732649E+03  0.87804666921E+03  0.13225233010E+04  0.15937710971E+04  0.10100000352E+00 0.  1.
       -3    1    3    3    0  502 -0.14167732649E+03 -0.87804666921E+03 -0.15807646261E+04  0.18137958075E+04  0.10100000352E+00 0. -1.
</event>
<event>
 5   0  0.8489228E-07  0.3294634E+04  0.7818609E-02  0.8164262E-01
       -2   -1    0    0    0  501  0.00000000000E+00  0.00000000000E+00  0.24731321999E+04  0.24731321999E+04  0.25500000920E-02 0.  1.
        2   -1    0    0  501    0  0.00000000000E+00  0.00000000000E+00 -0.10972536324E+04  0.10972536324E+04  0.25500000920E-02 0. -1.
    10030    2    1    2    0    0  0.00000000000E+00  0.00000000000E+00  0.13758785675E+04  0.35703858323E+04  0.32946339947E+04 0.  0.
        3    1    3    3  502    0  0.13293704009E+04  0.60813736866E+03 -0.13495490975E+03  0.14680836352E+04  0.10100000352E+00 0.  1.
       -3    1    3    3    0  502 -0.13293704009E+04 -0.60813736866E+03  0.15108334772E+04  0.21023021972E+04  0.10100000352E+00 0. -1.
</event>
<event>
 5   0  0.2641442E-07  0.3388587E+04  0.7818609E-02  0.8140713E-01
       -1   -1    0    0    0  501  0.00000000000E+00  0.00000000000E+00  0.12838340764E+04  0.12838340764E+04  0.50400001928E-02 0.  1.
        1   -1    0    0  501    0  0.00000000000E+00  0.00000000000E+00 -0.22359828706E+04  0.22359828706E+04  0.50400001928E-02 0. -1.
    10030    2    1    2    0    0  0.00000000000E+00  0.00000000000E+00 -0.95214879425E+03  0.35198169470E+04  0.33885873184E+04 0.  0.
        1    1    3    3  502    0 -0.11044033178E+04  0.47097516253E+03 -0.17178231319E+04  0.20958150216E+04  0.50400001928E-02 0. -1.
       -1    1    3    3    0  502  0.11044033178E+04 -0.47097516253E+03  0.76567433769E+03  0.14240019254E+04  0.50400001928E-02 0.  1.
</event>
<event>
 5   0  0.7899402E-07  0.3047715E+04  0.7818609E-02  0.8230235E-01
        2   -1    0    0  501    0  0.00000000000E+00  0.00000000000E+00  0.27292577478E+04  0.27292577478E+04  0.25500000920E-02 0. -1.
       -2   -1    0    0    0  501  0.00000000000E+00  0.00000000000E+00 -0.85083288301E+03  0.85083288301E+03  0.25500000920E-02 0.  1.
    10030    2    1    2    0    0  0.00000000000E+00  0.00000000000E+00  0.18784248648E+04  0.35800906308E+04  0.30477153660E+04 0.  0.
        2    1    3    3  502    0 -0.14043601072E+04 -0.35743664816E+03  0.14928769036E+04  0.20805455336E+04  0.25500000920E-02 0.  1.
       -2    1    3    3    0  502  0.14043601072E+04  0.35743664816E+03  0.38554796114E+03  0.14995450972E+04  0.25500000920E-02 0. -1.
</event>
<event>
 5   0  0.2599367E-07  0.3390615E+04  0.7818609E-02  0.8140214E-01
       -1   -1    0    0    0  501  0.00000000000E+00  0.00000000000E+00  0.26000228421E+04  0.26000228421E+04  0.50400001928E-02 0.  1.
        1   -1    0    0  501    0  0.00000000000E+00  0.00000000000E+00 -0.11054009548E+04  0.11054009548E+04  0.50400001928E-02 0. -1.
    10030    2    1    2    0    0  0.00000000000E+00  0.00000000000E+00  0.14946218873E+04  0.37054237969E+04  0.33906151254E+04 0.  0.
        2    1    3    3  502    0 -0.10427398867E+04 -0.53417438158E+03  0.20864027221E+04  0.23928487332E+04  0.25500000920E-02 0.  1.
       -2    1    3    3    0  502  0.10427398867E+04  0.53417438158E+03 -0.59178083484E+03  0.13125750637E+04  0.25500000920E-02 0. -1.
</event>
<event>
 5   0  0.8489228E-07  0.3352638E+04  0.7818609E-02  0.8149629E-01
       -2   -1    0    0    0  501  0.00000000000E+00  0.00000000000E+00  0.19576786178E+04  0.19576786178E+04  0.25500000920E-02 0. -1.
        2   -1    0    0  501    0  0.00000000000E+00  0.00000000000E+00 -0.14353969424E+04  0.14353969424E+04  0.25500000920E-02 0.  1.
    10030    2    1    2    0    0  0.00000000000E+00  0.00000000000E+00  0.52228167539E+03  0.33930755603E+04  0.33526383058E+04 0.  0.
        3    1    3    3  502    0 -0.50038124601E+03  0.10515246417E+04 -0.95920555491E+03  0.15086950554E+04  0.10100000352E+00 0.  1.
       -3    1    3    3    0  502  0.50038124601E+03 -0.10515246417E+04  0.14814872303E+04  0.18843805049E+04  0.10100000352E+00 0. -1.
</event>
<event>
 5   0  0.7822003E-07  0.3399551E+04  0.7818609E-02  0.8138017E-01
        2   -1    0    0  501    0  0.00000000000E+00  0.00000000000E+00  0.90856419519E+03  0.90856419519E+03  0.25500000920E-02 0.  1.
       -2   -1    0    0    0  501  0.00000000000E+00  0.00000000000E+00 -0.31800029799E+04  0.31800029799E+04  0.25500000920E-02 0. -1.
    10030    2    1    2    0    0  0.00000000000E+00  0.00000000000E+00 -0.22714387847E+04  0.40885671751E+04  0.33995510575E+04 0.  0.
        5    1    3    3  502    0 -0.22569942014E+02 -0.10416996128E+04  0.47944132102E+03  0.11469671119E+04  0.46999998093E+01 0.  1.
       -5    1    3    3    0  502  0.22569942014E+02  0.10416996128E+04 -0.27508801058E+04  0.29416000632E+04  0.46999998093E+01 0. -1.
</event>
<event>
 5   0  0.2599367E-07  0.3382346E+04  0.7818609E-02  0.8142253E-01
        1   -1    0    0  501    0  0.00000000000E+00  0.00000000000E+00  0.21592286176E+04  0.21592286176E+04  0.50400001928E-02 0. -1.
       -1   -1    0    0    0  501  0.00000000000E+00  0.00000000000E+00 -0.13245780628E+04  0.13245780628E+04  0.50400001928E-02 0.  1.
    10030    2    1    2    0    0  0.00000000000E+00  0.00000000000E+00  0.83465055478E+03  0.34838066805E+04  0.33823464397E+04 0.  0.
        2    1    3    3  502    0  0.13156598657E+04  0.10412293297E+04  0.63569304692E+03  0.17942198999E+04  0.25500000920E-02 0. -1.
       -2    1    3    3    0  502 -0.13156598657E+04 -0.10412293297E+04  0.19895750785E+03  0.16895867806E+04  0.25500000920E-02 0.  1.
</event>
<event>
 5   0  0.8489228E-07  0.3407230E+04  0.7818609E-02  0.8136134E-01
        2   -1    0    0  501    0  0.00000000000E+00  0.00000000000E+00  0.27413398030E+04  0.27413398030E+04  0.25500000920E-02 0. -1.
       -2   -1    0    0    0  501  0.00000000000E+00  0.00000000000E+00 -0.10587171568E+04  0.10587171568E+04  0.25500000920E-02 0.  1.
    10030    2    1    2    0    0  0.00000000000E+00  0.00000000000E+00  0.16826226463E+04  0.38000569598E+04  0.34072296559E+04 0.  0.
        3    1    3    3  502    0 -0.14392090751E+04  0.85779739919E+03  0.49725796537E+03  0.17476855078E+04  0.10100000352E+00 0.  1.
       -3    1    3    3    0  502  0.14392090751E+04 -0.85779739919E+03  0.11853646809E+04  0.20523714520E+04  0.10100000352E+00 0. -1.
</event>
<event>
 5   0  0.7838333E-07  0.3378464E+04  0.7818609E-02  0.8143212E-01
       -2   -1    0    0    0  501  0.00000000000E+00  0.00000000000E+00  0.18145942064E+04  0.18145942064E+04  0.25500000920E-02 0. -1.
        2   -1    0    0  501    0  0.00000000000E+00  0.00000000000E+00 -0.15725302800E+04  0.15725302800E+04  0.25500000920E-02 0.  1.
    10030    2    1    2    0    0  0.00000000000E+00  0.00000000000E+00  0.24206392639E+03  0.33871244864E+04  0.33784637547E+04 0.  0.
        1    1    3    3  502    0 -0.70978999265E+03  0.15328339497E+04  0.13213212907E+03  0.16943555266E+04  0.50400001928E-02 0.  1.
       -1    1    3    3    0  502  0.70978999265E+03 -0.15328339497E+04  0.10993179731E+03  0.16927689598E+04  0.50400001928E-02 0. -1.
</event>
<event>
 5   0  0.2553250E-07  0.3424170E+04  0.7818609E-02  0.8131999E-01
       -1   -1    0    0    0  501  0.00000000000E+00  0.00000000000E+00  0.16557203840E+04  0.16557203841E+04  0.50400001928E-02 0. -1.
        1   -1    0    0  501    0  0.00000000000E+00  0.00000000000E+00 -0.17703688257E+04  0.17703688257E+04  0.50400001928E-02 0.  1.
    10030    2    1    2    0    0  0.00000000000E+00  0.00000000000E+00 -0.11464844167E+03  0.34260892098E+04  0.34241704117E+04 0.  0.
        5    1    3    3  502    0 -0.57170409318E+03 -0.94262634902E+03  0.12533043248E+04  0.16691865758E+04  0.46999998093E+01 0. -1.
       -5    1    3    3    0  502  0.57170409318E+03  0.94262634902E+03 -0.13679527665E+04  0.17569026340E+04  0.46999998093E+01 0.  1.
</event>
<event>
 5   0  0.8489228E-07  0.3392900E+04  0.7818609E-02  0.8139651E-01
        2   -1    0    0  501    0  0.00000000000E+00  0.00000000000E+00  0.24111102307E+04  0.24111102307E+04  0.25500000920E-02 0.  1.
       -2   -1    0    0    0  501  0.00000000000E+00  0.00000000000E+00 -0.11936168601E+04  0.11936168601E+04  0.25500000920E-02 0. -1.
    10030    2    1    2    0    0  0.00000000000E+00  0.00000000000E+00  0.12174933705E+04  0.36047270908E+04  0.33928995405E+04 0.  0.
        3    1    3    3  502    0  0.15833372926E+02 -0.15429215871E+04  0.13578061956E+04  0.20553577292E+04  0.10100000352E+00 0. -1.
       -3    1    3    3    0  502 -0.15833372926E+02  0.15429215871E+04 -0.14031282513E+03  0.15493693616E+04  0.10100000352E+00 0.  1.
</event>
<event>
 5   0  0.2592200E-07  0.3384560E+04  0.7818609E-02  0.8141706E-01
        1   -1    0    0  501    0  0.00000000000E+00  0.00000000000E+00  0.22389181975E+04  0.22389181975E+04  0.50400001928E-02 0.  1.
       -1   -1    0    0    0  501  0.00000000000E+00  0.00000000000E+00 -0.12791053261E+04  0.12791053261E+04  0.50400001928E-02 0. -1.
    10030    2    1    2    0    0  0.00000000000E+00  0.00000000000E+00  0.95981287142E+03  0.35180235236E+04  0.33845603503E+04 0.  0.
        4    1    3    3  502    0 -0.11366008410E+03 -0.40436859293E+02  0.22344424017E+04  0.22376970782E+04  0.12699999809E+01 0.  1.
       -4    1    3    3    0  502  0.11366008410E+03  0.40436859293E+02 -0.12746295303E+04  0.12803264454E+04  0.12699999809E+01 0. -1.
</event>
<event>
 5   0  0.2641442E-07  0.3389778E+04  0.7818609E-02  0.8140420E-01
        1   -1    0    0  501    0  0.00000000000E+00  0.00000000000E+00  0.10119924768E+04  0.10119924768E+04  0.50400001928E-02 0. -1.
       -1   -1    0    0    0  501  0.00000000000E+00  0.00000000000E+00 -0.28386072451E+04  0.28386072451E+04  0.50400001928E-02 0.  1.
    10030    2    1    2    0    0  0.00000000000E+00  0.00000000000E+00 -0.18266147682E+04  0.38505997219E+04  0.33897782681E+04 0.  0.
        1    1    3    3  502    0  0.62838734732E+03 -0.10506588736E+04  0.41816992168E+03  0.12936849734E+04  0.50400001928E-02 0. -1.
       -1    1    3    3    0  502 -0.62838734732E+03  0.10506588736E+04 -0.22447846899E+04  0.25569147485E+04  0.50400001928E-02 0.  1.
</event>
<event>
 5   0  0.2622205E-07  0.3447513E+04  0.7818609E-02  0.8126343E-01
        1   -1    0    0  501    0  0.00000000000E+00  0.00000000000E+00  0.16051163406E+04  0.16051163406E+04  0.50400001928E-02 0.  1.
       -1   -1    0    0    0  501  0.00000000000E+00  0.00000000000E+00 -0.18511654332E+04  0.18511654332E+04  0.50400001928E-02 0. -1.
    10030    2    1    2    0    0  0.00000000000E+00  0.00000000000E+00 -0.24604909264E+03  0.34562817738E+04  0.34475126604E+04 0.  0.
        3    1    3    3  502    0  0.54422762495E+03  0.24234816635E+03 -0.17446739358E+04  0.18435844146E+04  0.10100000352E+00 0. -1.
       -3    1    3    3    0  502 -0.54422762495E+03 -0.24234816635E+03  0.14986248432E+04  0.16126973591E+04  0.10100000352E+00 0.  1.
</event>
<event>
 5   0  0.7610412E-07  0.3399367E+04  0.7818609E-02  0.8138062E-01
       -2   -1    0    0    0  501  0.00000000000E+00  0.00000000000E+00  0.18306158398E+04  0.18306158398E+04  0.25500000920E-02 0.  1.
        2   -1    0    0  501    0  0.00000000000E+00  0.00000000000E+00 -0.15781156128E+04  0.15781156128E+04  0.25500000920E-02 0. -1.
    10030    2    1    2    0    0  0.00000000000E+00  0.00000000000E+00  0.25250022706E+03  0.34087314526E+04  0.33993666691E+04 0.  0.
        4    1    3    3  502    0 -0.76787945189E+03  0.12407596213E+04 -0.74781543314E+03  0.16396197197E+04  0.12699999809E+01 0. -1.
       -4    1    3    3    0  502  0.76787945189E+03 -0.12407596213E+04  0.10003156602E+04  0.17691117328E+04  0.12699999809E+01 0.  1.
</event>
<event>
 5   0  0.7610412E-07  0.3432713E+04  0.7818609E-02  0.8129924E-01
        2   -1    0    0  501    0  0.00000000000E+00  0.00000000000E+00  0.19207469767E+04  0.19207469767E+04  0.25500000920E-02 0.  1.
       -2   -1    0    0    0  501  0.00000000000E+00  0.00000000000E+00 -0.15337156860E+04  0.15337156860E+04  0.25500000920E-02 0. -1.
    10030    2    1    2    0    0  0.00000000000E+00  0.00000000000E+00  0.38703129077E+03  0.34544626627E+04  0.34327130768E+04 0.  0.
        4    1    3    3  502    0  0.65081962556E+03  0.12159832631E+04  0.12216033093E+04  0.18424162774E+04  0.12699999809E+01 0.  1.
       -4    1    3    3    0  502 -0.65081962556E+03 -0.12159832631E+04 -0.83457201851E+03  0.16120463853E+04  0.12699999809E+01 0. -1.
</event>
<event>
 5   0  0.2599367E-07  0.3084720E+04  0.7818609E-02  0.8219944E-01
       -1   -1    0    0    0  501  0.00000000000E+00  0.00000000000E+00  0.10586218318E+04  0.10586218319E+04  0.50400001928E-02 0.  1.
        1   -1    0    0  501    0  0.00000000000E+00  0.00000000000E+00 -0.22471420851E+04  0.22471420851E+04  0.50400001928E-02 0. -1.
    10030    2    1    2    0    0  0.00000000000E+00  0.00000000000E+00 -0.11885202532E+04  0.33057639169E+04  0.30847195468E+04 0.  0.
        2    1    3    3  502    0  0.27990801489E+03 -0.86308244129E+03  0.74235709757E+03  0.11723283915E+04  0.25500000920E-02 0.  1.
       -2    1    3    3    0  502 -0.27990801489E+03  0.86308244129E+03 -0.19308773508E+04  0.21334355254E+04  0.25500000920E-02 0. -1.
</event>
<event>
 5   0  0.2622205E-07  0.3353251E+04  0.7818609E-02  0.8149476E-01
        1   -1    0    0  501    0  0.00000000000E+00  0.00000000000E+00  0.17966734557E+04  0.17966734557E+04  0.50400001928E-02 0. -1.
       -1   -1    0    0    0  501  0.00000000000E+00  0.00000000000E+00 -0.15645983178E+04  0.15645983178E+04  0.50400001928E-02 0.  1.
    10030    2    1    2    0    0  0.00000000000E+00  0.00000000000E+00  0.23207513790E+03  0.33612717735E+04  0.33532505223E+04 0.  0.
        3    1    3    3  502    0 -0.62296012742E+02  0.12338562622E+04 -0.10201596791E+04  0.16021884565E+04  0.10100000352E+00 0.  1.
       -3    1    3    3    0  502  0.62296012742E+02 -0.12338562622E+04  0.12522348170E+04  0.17590833170E+04  0.10100000352E+00 0. -1.
</event>
<event>
 5   0  0.2553250E-07  0.3444488E+04  0.7818609E-02  0.8127073E-01
       -1   -1    0    0    0  501  0.00000000000E+00  0.00000000000E+00  0.18176835645E+04  0.18176835645E+04  0.50400001928E-02 0. -1.
        1   -1    0    0  501    0  0.00000000000E+00  0.00000000000E+00 -0.16318154971E+04  0.16318154971E+04  0.50400001928E-02 0.  1.
    10030    2    1    2    0    0  0.00000000000E+00  0.00000000000E+00  0.18586806742E+03  0.34494990616E+04  0.34444878919E+04 0.  0.
        5    1    3    3  502    0  0.14066134974E+04 -0.55817587766E+03 -0.73044230268E+03  0.16803838517E+04  0.46999998093E+01 0.  1.
       -5    1    3    3    0  502 -0.14066134974E+04  0.55817587766E+03  0.91631037010E+03  0.17691152099E+04  0.46999998093E+01 0. -1.
</event>
<event>
 5   0  0.7899402E-07  0.3396946E+04  0.7818609E-02  0.8138656E-01
       -2   -1    0    0    0  501  0.00000000000E+00  0.00000000000E+00  0.10350601228E+04  0.10350601228E+04  0.25500000920E-02 0. -1.
        2   -1    0    0  501    0  0.00000000000E+00  0.00000000000E+00 -0.27870938823E+04  0.27870938823E+04  0.25500000920E-02 0.  1.
    10030    2    1    2    0    0  0.00000000000E+00  0.00000000000E+00 -0.17520337595E+04  0.38221540051E+04  0.33969455315E+04 0.  0.
        2    1    3    3  502    0  0.15329496424E+04 -0.60698133778E+03 -0.13350667978E+04  0.21215004843E+04  0.25500000920E-02 0.  1.
       -2    1    3    3    0  502 -0.15329496424E+04  0.60698133778E+03 -0.41696696173E+03  0.17006535208E+04  0.25500000920E-02 0. -1.
</event>
<event>
 5   0  0.8489228E-07  0.3400320E+04  0.7818609E-02  0.8137828E-01
        2   -1    0    0  501    0  0.00000000000E+00  0.00000000000E+00  0.22973431340E+04  0.22973431340E+04  0.25500000920E-02 0.  1.
       -2   -1    0    0    0  501  0.00000000000E+00  0.00000000000E+00 -0.12582115018E+04  0.12582115018E+04  0.25500000920E-02 0. -1.
    10030    2    1    2    0    0  0.00000000000E+00  0.00000000000E+00  0.10391316323E+04  0.35555546358E+04  0.34003197230E+04 0.  0.
        3    1    3    3  502    0 -0.38384730057E+03  0.39848600694E+03 -0.11614376891E+04  0.12864942144E+04  0.10100000352E+00 0. -1.
       -3    1    3    3    0  502  0.38384730057E+03 -0.39848600694E+03  0.22005693213E+04  0.22690604214E+04  0.10100000352E+00 0.  1.
</event>
<event>
 5   0  0.7838333E-07  0.3224170E+04  0.7818609E-02  0.8182463E-01
       -2   -1    0    0    0  501  0.00000000000E+00  0.00000000000E+00  0.98600778123E+03  0.98600778123E+03  0.25500000920E-02 0. -1.
        2   -1    0    0  501    0  0.00000000000E+00  0.00000000000E+00 -0.26356976771E+04  0.26356976771E+04  0.25500000920E-02 0.  1.
    10030    2    1    2    0    0  0.00000000000E+00  0.00000000000E+00 -0.16496898958E+04  0.36217054583E+04  0.32241702303E+04 0.  0.
        1    1    3    3  502    0  0.15405852191E+04 -0.35119298762E+03 -0.46595313475E+03  0.16473772051E+04  0.50400001928E-02 0.  1.
       -1    1    3    3    0  502 -0.15405852191E+04  0.35119298762E+03 -0.11837367611E+04  0.19743282532E+04  0.50400001928E-02 0. -1.
</event>
<event>
 5   0  0.7899402E-07  0.3391984E+04  0.7818609E-02  0.8139877E-01
        2   -1    0    0  501    0  0.00000000000E+00  0.00000000000E+00  0.15177115464E+04  0.15177115464E+04  0.25500000920E-02 0. -1.
       -2   -1    0    0    0  501  0.00000000000E+00  0.00000000000E+00 -0.18952143089E+04  0.18952143089E+04  0.25500000920E-02 0.  1.
    10030    2    1    2    0    0  0.00000000000E+00  0.00000000000E+00 -0.37750276251E+03  0.34129258553E+04  0.33919838676E+04 0.  0.
        2    1    3    3  502    0  0.23613519459E+03 -0.15307219594E+04 -0.88404532366E+03  0.17833691938E+04  0.25500000920E-02 0.  1.
       -2    1    3    3    0  502 -0.23613519459E+03  0.15307219594E+04  0.50654256115E+03  0.16295566616E+04  0.25500000920E-02 0. -1.
</event>
<event>
 5   0  0.8489228E-07  0.3308026E+04  0.7818609E-02  0.8160856E-01
       -2   -1    0    0    0  501  0.00000000000E+00  0.00000000000E+00  0.17839482481E+04  0.17839482481E+04  0.25500000920E-02 0. -1.
        2   -1    0    0  501    0  0.00000000000E+00  0.00000000000E+00 -0.15335414370E+04  0.15335414370E+04  0.25500000920E-02 0.  1.
    10030    2    1    2    0    0  0.00000000000E+00  0.00000000000E+00  0.25040681110E+03  0.33174896851E+04  0.33080257314E+04 0.  0.
        3    1    3    3  502    0 -0.78688493090E+03  0.13200025505E+04  0.73864279180E+03  0.17050477448E+04  0.10100000352E+00 0. -1.
       -3    1    3    3    0  502  0.78688493090E+03 -0.13200025505E+04 -0.48823598070E+03  0.16124419403E+04  0.10100000352E+00 0.  1.
</event>
<event>
 5   0  0.2622205E-07  0.3368679E+04  0.7818609E-02  0.8145637E-01
        1   -1    0    0  501    0  0.00000000000E+00  0.00000000000E+00  0.15251913039E+04  0.15251913039E+04  0.50400001928E-02 0.  1.
       -1   -1    0    0    0  501  0.00000000000E+00  0.00000000000E+00 -0.18600940062E+04  0.18600940062E+04  0.50400001928E-02 0. -1.
    10030    2    1    2    0    0  0.00000000000E+00  0.00000000000E+00 -0.33490270227E+03  0.33852853101E+04  0.33686787930E+04 0.  0.
        3    1    3    3  502    0  0.84697004667E+03 -0.21300400606E+03  0.12798812374E+04  0.15494595698E+04  0.10100000352E+00 0.  1.
       -3    1    3    3    0  502 -0.84697004667E+03  0.21300400606E+03 -0.16147839397E+04  0.18358257402E+04  0.10100000352E+00 0. -1.
</event>
<event>
 5   0  0.7822003E-07  0.3342934E+04  0.7818609E-02  0.8152056E-01
       -2   -1    0    0    0  501  0.00000000000E+00  0.00000000000E+00  0.10397874202E+04  0.10397874202E+04  0.25500000920E-02 0. -1.
        2   -1    0    0  501    0  0.00000000000E+00  0.00000000000E+00 -0.26868965982E+04  0.26868965982E+04  0.25500000920E-02 0.  1.
    10030    2    1    2    0    0  0.00000000000E+00  0.00000000000E+00 -0.16471091780E+04  0.37266840184E+04  0.33429336111E+04 0.  0.
        5    1    3    3  502    0 -0.95412293527E+03  0.86331693715E+03 -0.20128436175E+04  0.23889805834E+04  0.46999998093E+01 0.  1.
       -5    1    3    3    0  502  0.95412293527E+03 -0.86331693715E+03  0.36573443950E+03  0.13377034349E+04  0.46999998093E+01 0. -1.
</event>
<event>
 5   0  0.2553250E-07  0.3426594E+04  0.7818609E-02  0.8131410E-01
        1   -1    0    0  501    0  0.00000000000E+00  0.00000000000E+00  0.21246554672E+04  0.21246554672E+04  0.50400001928E-02 0.  1.
       -1   -1    0    0    0  501  0.00000000000E+00  0.00000000000E+00 -0.13815822209E+04  0.13815822209E+04  0.50400001928E-02 0. -1.
    10030    2    1    2    0    0  0.00000000000E+00  0.00000000000E+00  0.74307324631E+03  0.35062376881E+04  0.34265937717E+04 0.  0.
        5    1    3    3  502    0  0.89406849336E+03  0.34791489546E+03  0.18240229148E+04  0.20609427282E+04  0.46999998093E+01 0.  1.
       -5    1    3    3    0  502 -0.89406849336E+03 -0.34791489546E+03 -0.10809496685E+04  0.14452949599E+04  0.46999998093E+01 0. -1.
</event>
<event>
 5   0  0.2622205E-07  0.3407987E+04  0.7818609E-02  0.8135949E-01
       -1   -1    0    0    0  501  0.00000000000E+00  0.00000000000E+00  0.13965675597E+04  0.13965675597E+04  0.50400001928E-02 0. -1.
        1   -1    0    0  501    0  0.00000000000E+00  0.00000000000E+00 -0.20790929523E+04  0.20790929523E+04  0.50400001928E-02 0.  1.
    10030    2    1    2    0    0  0.00000000000E+00  0.00000000000E+00 -0.68252539264E+03  0.34756605120E+04  0.34079869547E+04 0.  0.
        3    1    3    3  502    0 -0.66897474576E+03  0.10269827804E+03  0.12536062474E+04  0.14246412814E+04  0.10100000352E+00 0. -1.
       -3    1    3    3    0  502  0.66897474576E+03 -0.10269827804E+03 -0.19361316401E+04  0.20510192307E+04  0.10100000352E+00 0.  1.
</event>
<event>
 5   0  0.8489228E-07  0.3426344E+04  0.7818609E-02  0.8131471E-01
        2   -1    0    0  501    0  0.00000000000E+00  0.00000000000E+00  0.99608830059E+03  0.99608830059E+03  0.25500000920E-02 0. -1.
       -2   -1    0    0    0  501  0.00000000000E+00  0.00000000000E+00 -0.29464847392E+04  0.29464847392E+04  0.25500000920E-02 0.  1.
    10030    2    1    2    0    0  0.00000000000E+00  0.00000000000E+00 -0.19503964386E+04  0.39425730398E+04  0.34263443940E+04 0.  0.
        3    1    3    3  502    0  0.13010465366E+04  0.11122155426E+04 -0.89211527643E+03  0.19301852710E+04  0.10100000352E+00 0. -1.
       -3    1    3    3    0  502 -0.13010465366E+04 -0.11122155426E+04 -0.10582811622E+04  0.20123877688E+04  0.10100000352E+00 0.  1.
</event>
<event>
 5   0  0.2641442E-07  0.3410180E+04  0.7818609E-02  0.8135412E-01
       -1   -1    0    0    0  501  0.00000000000E+00  0.00000000000E+00  0.13335057062E+04  0.13335057062E+04  0.50400001928E-02 0.  1.
        1   -1    0    0  501    0  0.00000000000E+00  0.00000000000E+00 -0.21802175110E+04  0.21802175110E+04  0.50400001928E-02 0. -1.
    10030    2    1    2    0    0  0.00000000000E+00  0.00000000000E+00 -0.84671180477E+03  0.35137232172E+04  0.34101803423E+04 0.  0.
        1    1    3    3  502    0  0.41418156739E+03  0.11456482278E+03  0.12767931146E+04  0.13471718995E+04  0.50400001928E-02 0.  1.
       -1    1    3    3    0  502 -0.41418156739E+03 -0.11456482278E+03 -0.21235049194E+04  0.21665513177E+04  0.50400001928E-02 0. -1.
</event>
<event>
 5   0  0.2622205E-07  0.3280370E+04  0.7818609E-02  0.8167908E-01
       -1   -1    0    0    0  501  0.00000000000E+00  0.00000000000E+00  0.12819882362E+04  0.12819882362E+04  0.50400001928E-02 0.  1.
        1   -1    0    0  501    0  0.00000000000E+00  0.00000000000E+00 -0.20984643623E+04  0.20984643623E+04  0.50400001928E-02 0. -1.
    10030    2    1    2    0    0  0.00000000000E+00  0.00000000000E+00 -0.81647612604E+03  0.33804525985E+04  0.32803698734E+04 0.  0.
        3    1    3    3  502    0 -0.15549640966E+04 -0.51789411007E+03 -0.47405339032E+03  0.17061225859E+04  0.10100000352E+00 0. -1.
       -3    1    3    3    0  502  0.15549640966E+04  0.51789411007E+03 -0.34242273572E+03  0.16743300126E+04  0.10100000352E+00 0.  1.
</event>
<event>
 5   0  0.2592200E-07  0.3377337E+04  0.7818609E-02  0.8143491E-01
       -1   -1    0    0    0  501  0.00000000000E+00  0.00000000000E+00  0.26215123431E+04  0.26215123431E+04  0.50400001928E-02 0.  1.
        1   -1    0    0  501    0  0.00000000000E+00  0.00000000000E+00 -0.10877695462E+04  0.10877695462E+04  0.50400001928E-02 0. -1.
    10030    2    1    2    0    0  0.00000000000E+00  0.00000000000E+00  0.15337427969E+04  0.37092818893E+04  0.33773369934E+04 0.  0.
        4    1    3    3  502    0  0.13815653768E+04  0.38011695342E+03 -0.21447517992E+03  0.14488661099E+04  0.12699999809E+01 0. -1.
       -4    1    3    3    0  502 -0.13815653768E+04 -0.38011695342E+03  0.17482179768E+04  0.22604157794E+04  0.12699999809E+01 0.  1.
</event>
<event>
 5   0  0.2553250E-07  0.3401898E+04  0.7818609E-02  0.8137441E-01
        1   -1    0    0  501    0  0.00000000000E+00  0.00000000000E+00  0.18621008484E+04  0.18621008484E+04  0.50400001928E-02 0. -1.
       -1   -1    0    0    0  501  0.00000000000E+00  0.00000000000E+00 -0.15537434950E+04  0.15537434950E+04  0.50400001928E-02 0.  1.
    10030    2    1    2    0    0  0.00000000000E+00  0.00000000000E+00  0.30835735340E+03  0.34158443434E+04  0.34018977529E+04 0.  0.
        5    1    3    3  502    0  0.74421392008E+03 -0.42856541325E+03  0.16284220879E+04  0.18410060452E+04  0.46999998093E+01 0. -1.
       -5    1    3    3    0  502 -0.74421392008E+03  0.42856541325E+03 -0.13200647345E+04  0.15748382982E+04  0.46999998093E+01 0.  1.
</event>
<event>
 5   0  0.7610412E-07  0.3401483E+04  0.7818609E-02  0.8137542E-01
        2   -1    0    0  501    0  0.00000000000E+00  0.00000000000E+00  0.32553514361E+04  0.32553514361E+04  0.25500000920E-02 0. -1.
       -2   -1    0    0    0  501  0.00000000000E+00  0.00000000000E+00 -0.88854374373E+03  0.88854374374E+03  0.25500000920E-02 0.  1.
    10030    2    1    2    0    0  0.00000000000E+00  0.00000000000E+00  0.23668076924E+04  0.41438951799E+04  0.34014832954E+04 0.  0.
        4    1    3    3  502    0  0.50005246033E+03  0.54478179183E+03  0.30492459218E+04  0.31376331794E+04  0.12699999809E+01 0. -1.
       -4    1    3    3    0  502 -0.50005246033E+03 -0.54478179183E+03 -0.68243822940E+03  0.10062620005E+04  0.12699999809E+01 0.  1.
</event>
<event>
 5   0  0.7838333E-07  0.3328600E+04  0.7818609E-02  0.8155656E-01
       -2   -1    0    0    0  501  0.00000000000E+00  0.00000000000E+00  0.11999396083E+04  0.11999396083E+04  0.25500000920E-02 0.  1.
        2   -1    0    0  501    0  0.00000000000E+00  0.00000000000E+00 -0.23083620238E+04  0.23083620238E+04  0.25500000920E-02 0. -1.
    10030    2    1    2    0    0  0.00000000000E+00  0.00000000000E+00 -0.11084224155E+04  0.35083016322E+04  0.33286003201E+04 0.  0.
        1    1    3    3  502    0  0.11106434898E+04 -0.11535124660E+04 -0.10323253996E+04  0.19052075219E+04  0.50400001928E-02 0.  1.
       -1    1    3    3    0  502 -0.11106434898E+04  0.11535124660E+04 -0.76097015877E+02  0.16030941103E+04  0.50400001928E-02 0. -1.
</event>
<event>
 5   0  0.2592200E-07  0.3441460E+04  0.7818609E-02  0.8127805E-01
        1   -1    0    0  501    0  0.00000000000E+00  0.00000000000E+00  0.17022735540E+04  0.17022735540E+04  0.50400001928E-02 0.  1.
       -1   -1    0    0    0  501  0.00000000000E+00  0.00000000000E+00 -0.17393869141E+04  0.17393869141E+04  0.50400001928E-02 0. -1.
    10030    2    1    2    0    0  0.00000000000E+00  0.00000000000E+00 -0.37113360073E+02  0.34416604682E+04  0.34414603552E+04 0.  0.
        4    1    3    3  502    0 -0.61658254881E+03 -0.12400630071E+04 -0.10398801976E+04  0.17318437399E+04  0.12699999809E+01 0. -1.
       -4    1    3    3    0  502  0.61658254881E+03  0.12400630071E+04  0.10027668376E+04  0.17098167283E+04  0.12699999809E+01 0.  1.
</event>
<event>
 5   0  0.7899402E-07  0.3285065E+04  0.7818609E-02  0.8166706E-01
        2   -1    0    0  501    0  0.00000000000E+00  0.00000000000E+00  0.28022926995E+04  0.28022926995E+04  0.25500000920E-02 0. -1.
       -2   -1    0    0    0  501  0.00000000000E+00  0.00000000000E+00 -0.96275184405E+03  0.96275184406E+03  0.25500000920E-02 0.  1.
    10030    2    1    2    0    0  0.00000000000E+00  0.00000000000E+00  0.18395408554E+04  0.37650445435E+04  0.32850646654E+04 0.  0.
        2    1    3    3  502    0  0.32965917104E+03  0.18674142746E+03  0.27515266165E+04  0.27774891991E+04  0.25500000920E-02 0. -1.
       -2    1    3    3    0  502 -0.32965917104E+03 -0.18674142746E+03 -0.91198576111E+03  0.98755534440E+03  0.25500000920E-02 0.  1.
</event>
<event>
 5   0  0.2553250E-07  0.3375783E+04  0.7818609E-02  0.8143876E-01
       -1   -1    0    0    0  501  0.00000000000E+00  0.00000000000E+00  0.17095023541E+04  0.17095023541E+04  0.50400001928E-02 0. -1.
        1   -1    0    0  501    0  0.00000000000E+00  0.00000000000E+00 -0.16665534954E+04  0.16665534954E+04  0.50400001928E-02 0.  1.
    10030    2    1    2    0    0  0.00000000000E+00  0.00000000000E+00  0.42948858720E+02  0.33760558495E+04  0.33757826491E+04 0.  0.
        5    1    3    3  502    0 -0.47694086223E+03  0.78951590886E+03 -0.13921982726E+04  0.16700437349E+04  0.46999998093E+01 0.  1.
       -5    1    3    3    0  502  0.47694086223E+03 -0.78951590886E+03  0.14351471313E+04  0.17060121145E+04  0.46999998093E+01 0. -1.
</event>
<event>
 5   0  0.7899402E-07  0.3308763E+04  0.7818609E-02  0.8160669E-01
       -2   -1    0    0    0  501  0.00000000000E+00  0.00000000000E+00  0.14466476115E+04  0.14466476115E+04  0.25500000920E-02 0. -1.
        2   -1    0    0  501    0  0.00000000000E+00  0.00000000000E+00 -0.18919456831E+04  0.18919456831E+04  0.25500000920E-02 0.  1.
    10030    2    1    2    0    0  0.00000000000E+00  0.00000000000E+00 -0.44529807157E+03  0.33385932946E+04  0.33087633361E+04 0.  0.
        2    1    3    3  502    0 -0.80701849386E+03 -0.13815358651E+04 -0.64722578902E+03  0.17259262493E+04  0.25500000920E-02 0. -1.
       -2    1    3    3    0  502  0.80701849386E+03  0.13815358651E+04  0.20192771745E+03  0.16126670453E+04  0.25500000920E-02 0.  1.
</event>
<event>
 5   0  0.2592200E-07  0.3422008E+04  0.7818609E-02  0.8132526E-01
       -1   -1    0    0    0  501  0.00000000000E+00  0.00000000000E+00  0.16884820435E+04  0.16884820435E+04  0.50400001928E-02 0. -1.
        1   -1    0    0  501    0  0.00000000000E+00  0.00000000000E+00 -0.17338260601E+04  0.17338260601E+04  0.50400001928E-02 0.  1.
    10030    2    1    2    0    0  0.00000000000E+00  0.00000000000E+00 -0.45344016596E+02  0.34223081037E+04  0.34220076968E+04 0.  0.
        4    1    3    3  502    0  0.50704939197E+03  0.59527084064E+03  0.14993308688E+04  0.16909882101E+04  0.12699999809E+01 0. -1.
       -4    1    3    3    0  502 -0.50704939197E+03 -0.59527084064E+03 -0.15446748854E+04  0.17313198936E+04  0.12699999809E+01 0.  1.
</event>
<event>
 5   0  0.2592200E-07  0.3403341E+04  0.7818609E-02  0.8137087E-01
        1   -1    0    0  501    0  0.00000000000E+00  0.00000000000E+00  0.13529231712E+04  0.13529231712E+04  0.50400001928E-02 0.  1.
       -1   -1    0    0    0  501  0.00000000000E+00  0.00000000000E+00 -0.21403157403E+04  0.21403157403E+04  0.50400001928E-02 0. -1.
    10030    2    1    2    0    0  0.00000000000E+00  0.00000000000E+00 -0.78739256910E+03  0.34932389115E+04  0.34033411576E+04 0.  0.
        4    1    3    3  502    0 -0.82208599529E+03 -0.60239908860E+03  0.10050062950E+04  0.14313452803E+04  0.12699999809E+01 0.  1.
       -4    1    3    3    0  502  0.82208599529E+03  0.60239908860E+03 -0.17923988641E+04  0.20618936312E+04  0.12699999809E+01 0. -1.
</event>
<event>
 5   0  0.2599367E-07  0.3387144E+04  0.7818609E-02  0.8141069E-01
        1   -1    0    0  501    0  0.00000000000E+00  0.00000000000E+00  0.93170815087E+03  0.93170815089E+03  0.50400001928E-02 0.  1.
       -1   -1    0    0    0  501  0.00000000000E+00  0.00000000000E+00 -0.30784162998E+04  0.30784162998E+04  0.50400001928E-02 0. -1.
    10030    2    1    2    0    0  0.00000000000E+00  0.00000000000E+00 -0.21467081489E+04  0.40101244507E+04  0.33871436688E+04 0.  0.
        2    1    3    3  502    0 -0.10790959530E+04 -0.22512498061E+03  0.44883305496E+03  0.11902018500E+04  0.25500000920E-02 0.  1.
       -2    1    3    3    0  502  0.10790959530E+04  0.22512498061E+03 -0.25955412039E+04  0.28199226006E+04  0.25500000920E-02 0. -1.
</event>
<event>
 5   0  0.7899402E-07  0.3359249E+04  0.7818609E-02  0.8147981E-01
       -2   -1    0    0    0  501  0.00000000000E+00  0.00000000000E+00  0.33617926535E+04  0.33617926535E+04  0.25500000920E-02 0.  1.
        2   -1    0    0  501    0  0.00000000000E+00  0.00000000000E+00 -0.83917704459E+03  0.83917704459E+03  0.25500000920E-02 0. -1.
    10030    2    1    2    0    0  0.00000000000E+00  0.00000000000E+00  0.25226156089E+04  0.42009696981E+04  0.33592494539E+04 0.  0.
        2    1    3    3  502    0 -0.13356165021E+04 -0.92501195224E+03  0.72835355209E+03  0.17804542817E+04  0.25500000920E-02 0. -1.
       -2    1    3    3    0  502  0.13356165021E+04  0.92501195224E+03  0.17942620568E+04  0.24205154164E+04  0.25500000920E-02 0.  1.
</event>
<event>
 5   0  0.2553250E-07  0.3468063E+04  0.7818609E-02  0.8121401E-01
        3   -1    0    0  501    0  0.00000000000E+00  0.00000000000E+00  0.18896052287E+04  0.18896052314E+04  0.10100000352E+00 0. -1.
       -3   -1    0    0    0  501  0.00000000000E+00  0.00000000000E+00 -0.15912663150E+04  0.15912663182E+04  0.10100000352E+00 0.  1.
    10030    2    1    2    0    0  0.00000000000E+00  0.00000000000E+00  0.29833891377E+03  0.34808715496E+04  0.34680629517E+04 0.  0.
        2    1    3    3  502    0 -0.15807488934E+04 -0.65659511955E+03  0.42764857990E+03  0.17643036935E+04  0.25500000920E-02 0.  1.
       -2    1    3    3    0  502  0.15807488934E+04  0.65659511955E+03 -0.12930966613E+03  0.17165678561E+04  0.25500000920E-02 0. -1.
</event>
<event>
 5   0  0.7822003E-07  0.3428184E+04  0.7818609E-02  0.8131023E-01
       -2   -1    0    0    0  501  0.00000000000E+00  0.00000000000E+00  0.13943036780E+04  0.13943036780E+04  0.25500000920E-02 0. -1.
        2   -1    0    0  501    0  0.00000000000E+00  0.00000000000E+00 -0.21072248845E+04  0.21072248845E+04  0.25500000920E-02 0.  1.
    10030    2    1    2    0    0  0.00000000000E+00  0.00000000000E+00 -0.71292120649E+03  0.35015285624E+04  0.34281840130E+04 0.  0.
        5    1    3    3  502    0  0.33929549868E+03 -0.54031682865E+03 -0.19814173951E+04  0.20816101207E+04  0.46999998093E+01 0.  1.
       -5    1    3    3    0  502 -0.33929549868E+03  0.54031682865E+03  0.12684961886E+04  0.14199184418E+04  0.46999998093E+01 0. -1.
</event>
<event>
 5   0  0.7822003E-07  0.3368579E+04  0.7818609E-02  0.8145661E-01
        2   -1    0    0  501    0  0.00000000000E+00  0.00000000000E+00  0.19539594326E+04  0.19539594326E+04  0.25500000920E-02 0.  1.
       -2   -1    0    0    0  501  0.00000000000E+00  0.00000000000E+00 -0.14518371040E+04  0.14518371040E+04  0.25500000920E-02 0. -1.
    10030    2    1    2    0    0  0.00000000000E+00  0.00000000000E+00  0.50212232861E+03  0.34057965366E+04  0.33685788125E+04 0.  0.
        5    1    3    3  502    0 -0.14331984868E+04 -0.79598560218E+03  0.64153763852E+03  0.17604668736E+04  0.46999998093E+01 0.  1.
       -5    1    3    3    0  502  0.14331984868E+04  0.79598560218E+03 -0.13941530991E+03  0.16453296630E+04  0.46999998093E+01 0. -1.
</event>
<event>
 5   0  0.7610412E-07  0.3387591E+04  0.7818609E-02  0.8140959E-01
        2   -1    0    0  501    0  0.00000000000E+00  0.00000000000E+00  0.10969257576E+04  0.10969257576E+04  0.25500000920E-02 0. -1.
       -2   -1    0    0    0  501  0.00000000000E+00  0.00000000000E+00 -0.26154393042E+04  0.26154393042E+04  0.25500000920E-02 0.  1.
    10030    2    1    2    0    0  0.00000000000E+00  0.00000000000E+00 -0.15185135466E+04  0.37123650617E+04  0.33875907310E+04 0.  0.
        4    1    3    3  502    0  0.15663144133E+04 -0.60522515281E+03 -0.10025867050E+04  0.19557147136E+04  0.12699999809E+01 0. -1.
       -4    1    3    3    0  502 -0.15663144133E+04  0.60522515281E+03 -0.51592684155E+03  0.17566503482E+04  0.12699999809E+01 0.  1.
</event>
<event>
 5   0  0.2592200E-07  0.3284350E+04  0.7818609E-02  0.8166889E-01
        1   -1    0    0  501    0  0.00000000000E+00  0.00000000000E+00  0.16773514201E+04  0.16773514201E+04  0.50400001928E-02 0.  1.
       -1   -1    0    0    0  501  0.00000000000E+00  0.00000000000E+00 -0.16077364268E+04  0.16077364268E+04  0.50400001928E-02 0. -1.
    10030    2    1    2    0    0  0.00000000000E+00  0.00000000000E+00  0.69614993296E+02  0.32850878470E+04  0.32843501511E+04 0.  0.
        4    1    3    3  502    0 -0.40841824557E+03 -0.12727842043E+04 -0.91932094621E+03  0.16223247853E+04  0.12699999809E+01 0. -1.
       -4    1    3    3    0  502  0.40841824557E+03  0.12727842043E+04  0.98893593951E+03  0.16627630617E+04  0.12699999809E+01 0.  1.
</event>
<event>
 5   0  0.2599367E-07  0.3430529E+04  0.7818609E-02  0.8130454E-01
        1   -1    0    0  501    0  0.00000000000E+00  0.00000000000E+00  0.23062820370E+04  0.23062820370E+04  0.50400001928E-02 0. -1.
       -1   -1    0    0    0  501  0.00000000000E+00  0.00000000000E+00 -0.12757034498E+04  0.12757034499E+04  0.50400001928E-02 0.  1.
    10030    2    1    2    0    0  0.00000000000E+00  0.00000000000E+00  0.10305785871E+04  0.35819854868E+04  0.34305287936E+04 0.  0.
        2    1    3    3  502    0 -0.46010172125E+03 -0.14727347873E+04  0.12976985852E+04  0.20161009314E+04  0.25500000920E-02 0. -1.
       -2    1    3    3    0  502  0.46010172125E+03  0.14727347873E+04 -0.26711999808E+03  0.15658845554E+04  0.25500000920E-02 0.  1.
</event>
<event>
 5   0  0.7899402E-07  0.3408785E+04  0.7818609E-02  0.8135753E-01
        2   -1    0    0  501    0  0.00000000000E+00  0.00000000000E+00  0.17412040780E+04  0.17412040780E+04  0.25500000920E-02 0.  1.
       -2   -1    0    0    0  501  0.00000000000E+00  0.00000000000E+00 -0.16683595318E+04  0.16683595318E+04  0.25500000920E-02 0. -1.
    10030    2    1    2    0    0  0.00000000000E+00  0.00000000000E+00  0.72844546205E+02  0.34095636098E+04  0.34087853675E+04 0.  0.
        2    1    3    3  502    0 -0.94516435256E+03  0.10600043616E+04  0.97897998511E+03  0.17249193347E+04  0.25500000920E-02 0. -1.
       -2    1    3    3    0  502  0.94516435256E+03 -0.10600043616E+04 -0.90613543891E+03  0.16846442751E+04  0.25500000920E-02 0.  1.
</event>
<event>
 5   0  0.2599367E-07  0.3402941E+04  0.7818609E-02  0.8137185E-01
        1   -1    0    0  501    0  0.00000000000E+00  0.00000000000E+00  0.20860013509E+04  0.20860013509E+04  0.50400001928E-02 0. -1.
       -1   -1    0    0    0  501  0.00000000000E+00  0.00000000000E+00 -0.13878236687E+04  0.13878236687E+04  0.50400001928E-02 0.  1.
    10030    2    1    2    0    0  0.00000000000E+00  0.00000000000E+00  0.69817768222E+03  0.34738250196E+04  0.34029411089E+04 0.  0.
        2    1    3    3  502    0 -0.95406596841E+03  0.12324660502E+04 -0.34761382396E+03  0.15968875375E+04  0.25500000920E-02 0. -1.
       -2    1    3    3    0  502  0.95406596841E+03 -0.12324660502E+04  0.10457915062E+04  0.18769374820E+04  0.25500000920E-02 0.  1.
</event>
<event>
 5   0  0.8489228E-07  0.3238978E+04  0.7818609E-02  0.8178598E-01
       -2   -1    0    0    0  501  0.00000000000E+00  0.00000000000E+00  0.14917920991E+04  0.14917920991E+04  0.25500000920E-02 0.  1.
        2   -1    0    0  501    0  0.00000000000E+00  0.00000000000E+00 -0.17581172436E+04  0.17581172436E+04  0.25500000920E-02 0. -1.
    10030    2    1    2    0    0  0.00000000000E+00  0.00000000000E+00 -0.26632514454E+03  0.32499093427E+04  0.32389784892E+04 0.  0.
        3    1    3    3  502    0  0.15059768813E+03 -0.47857711477E+02 -0.17503634962E+04  0.17574818358E+04  0.10100000352E+00 0. -1.
       -3    1    3    3    0  502 -0.15059768813E+03  0.47857711477E+02  0.14840383516E+04  0.14924275069E+04  0.10100000352E+00 0.  1.
</event>
<event>
 5   0  0.7822003E-07  0.3380981E+04  0.7818609E-02  0.8142590E-01
       -2   -1    0    0    0  501  0.00000000000E+00  0.00000000000E+00  0.22349038250E+04  0.22349038250E+04  0.25500000920E-02 0. -1.
        2   -1    0    0  501    0  0.00000000000E+00  0.00000000000E+00 -0.12786938029E+04  0.12786938029E+04  0.25500000920E-02 0.  1.
    10030    2    1    2    0    0  0.00000000000E+00  0.00000000000E+00  0.95621002213E+03  0.35135976278E+04  0.33809807281E+04 0.  0.
        5    1    3    3  502    0 -0.48286849289E+03  0.17008431181E+03  0.21523999761E+04  0.22124507682E+04  0.46999998093E+01 0. -1.
       -5    1    3    3    0  502  0.48286849289E+03 -0.17008431181E+03 -0.11961899539E+04  0.13011468597E+04  0.46999998093E+01 0.  1.
</event>
<event>
 5   0  0.2553250E-07  0.3392840E+04  0.7818609E-02  0.8139666E-01
        1   -1    0    0  501    0  0.00000000000E+00  0.00000000000E+00  0.14941046612E+04  0.14941046612E+04  0.50400001928E-02 0.  1.
       -1   -1    0    0    0  501  0.00000000000E+00  0.00000000000E+00 -0.19261309469E+04  0.19261309469E+04  0.50400001928E-02 0. -1.
    10030    2    1    2    0    0  0.00000000000E+00  0.00000000000E+00 -0.43202628574E+03  0.34202356081E+04  0.33928402414E+04 0.  0.
        5    1    3    3  502    0 -0.50746153359E+03  0.18643880621E+03 -0.18369587956E+04  0.19148671868E+04  0.46999998093E+01 0. -1.
       -5    1    3    3    0  502  0.50746153359E+03 -0.18643880621E+03  0.14049325099E+04  0.15053684213E+04  0.46999998093E+01 0.  1.
</event>
<event>
 5   0  0.2622205E-07  0.3407493E+04  0.7818609E-02  0.8136070E-01
       -1   -1    0    0    0  501  0.00000000000E+00  0.00000000000E+00  0.17217544993E+04  0.17217544993E+04  0.50400001928E-02 0. -1.
        1   -1    0    0  501    0  0.00000000000E+00  0.00000000000E+00 -0.16859273062E+04  0.16859273062E+04  0.50400001928E-02 0.  1.
    10030    2    1    2    0    0  0.00000000000E+00  0.00000000000E+00  0.35827193105E+02  0.34076818054E+04  0.34074934629E+04 0.  0.
        3    1    3    3  502    0  0.66491898054E+03 -0.24270953633E+02  0.15864538545E+04  0.17203319949E+04  0.10100000352E+00 0. -1.
       -3    1    3    3    0  502 -0.66491898054E+03  0.24270953633E+02 -0.15506266614E+04  0.16873498106E+04  0.10100000352E+00 0.  1.
</event>
<event>
 5   0  0.8489228E-07  0.3360496E+04  0.7818609E-02  0.8147670E-01
       -2   -1    0    0    0  501  0.00000000000E+00  0.00000000000E+00  0.19163729661E+04  0.19163729661E+04  0.25500000920E-02 0.  1.
        2   -1    0    0  501    0  0.00000000000E+00  0.00000000000E+00 -0.14732174195E+04  0.14732174195E+04  0.25500000920E-02 0. -1.
    10030    2    1    2    0    0  0.00000000000E+00  0.00000000000E+00  0.44315554664E+03  0.33895903856E+04  0.33604964133E+04 0.  0.
        3    1    3    3  502    0 -0.16584742306E+04  0.46362668776E+02 -0.46330041608E+02  0.16597688856E+04  0.10100000352E+00 0.  1.
       -3    1    3    3    0  502  0.16584742306E+04 -0.46362668776E+02  0.48948558825E+03  0.17298215000E+04  0.10100000352E+00 0. -1.
</event>
<event>
 5   0  0.7838333E-07  0.3383684E+04  0.7818609E-02  0.8141922E-01
       -2   -1    0    0    0  501  0.00000000000E+00  0.00000000000E+00  0.13161503067E+04  0.13161503067E+04  0.25500000920E-02 0. -1.
        2   -1    0    0  501    0  0.00000000000E+00  0.00000000000E+00 -0.21747739113E+04  0.21747739113E+04  0.25500000920E-02 0.  1.
    10030    2    1    2    0    0  0.00000000000E+00  0.00000000000E+00 -0.85862360458E+03  0.34909242179E+04  0.33836839984E+04 0.  0.
        1    1    3    3  502    0 -0.66698274690E+03 -0.14834286356E+04  0.51176978322E+02  0.16272816550E+04  0.50400001928E-02 0. -1.
       -1    1    3    3    0  502  0.66698274690E+03  0.14834286356E+04 -0.90980058290E+03  0.18636425629E+04  0.50400001928E-02 0.  1.
</event>
<event>
 5   0  0.7838333E-07  0.3395291E+04  0.7818609E-02  0.8139063E-01
        2   -1    0    0  501    0  0.00000000000E+00  0.00000000000E+00  0.29464088517E+04  0.29464088517E+04  0.25500000920E-02 0.  1.
       -2   -1    0    0    0  501  0.00000000000E+00  0.00000000000E+00 -0.97813976333E+03  0.97813976333E+03  0.25500000920E-02 0. -1.
    10030    2    1    2    0    0  0.00000000000E+00  0.00000000000E+00  0.19682690884E+04  0.39245486151E+04  0.33952906544E+04 0.  0.
        1    1    3    3  502    0  0.10454668201E+04  0.10262105702E+04  0.19756954553E+04  0.24595693807E+04  0.50400001928E-02 0.  1.
       -1    1    3    3    0  502 -0.10454668201E+04 -0.10262105702E+04 -0.74263668526E+01  0.14649792344E+04  0.50400001928E-02 0. -1.
</event>
<event>
 5   0  0.7899402E-07  0.3795756E+04  0.7818609E-02  0.8047066E-01
        2   -1    0    0  501    0  0.00000000000E+00  0.00000000000E+00  0.20176438207E+04  0.20176438207E+04  0.25500000920E-02 0.  1.
       -2   -1    0    0    0  501  0.00000000000E+00  0.00000000000E+00 -0.17852215389E+04  0.17852215389E+04  0.25500000920E-02 0. -1.
    10030    2    1    2    0    0  0.00000000000E+00  0.00000000000E+00  0.23242228181E+03  0.38028653595E+04  0.37957561599E+04 0.  0.
        2    1    3    3  502    0 -0.57340974670E+03 -0.40634930285E+03  0.18824715567E+04  0.20093824064E+04  0.25500000920E-02 0.  1.
       -2    1    3    3    0  502  0.57340974670E+03  0.40634930285E+03 -0.16500492749E+04  0.17934829531E+04  0.25500000920E-02 0. -1.
</event>
<event>
 5   0  0.2641442E-07  0.3396037E+04  0.7818609E-02  0.8138880E-01
        1   -1    0    0  501    0  0.00000000000E+00  0.00000000000E+00  0.28971847205E+04  0.28971847205E+04  0.50400001928E-02 0.  1.
       -1   -1    0    0    0  501  0.00000000000E+00  0.00000000000E+00 -0.99519602643E+03  0.99519602644E+03  0.50400001928E-02 0. -1.
    10030    2    1    2    0    0  0.00000000000E+00  0.00000000000E+00  0.19019886941E+04  0.38923807470E+04  0.33960369384E+04 0.  0.
        1    1    3    3  502    0  0.48209658314E+03  0.16188183075E+04  0.75156063787E+03  0.18487382780E+04  0.50400001928E-02 0. -1.
       -1    1    3    3    0  502 -0.48209658314E+03 -0.16188183075E+04  0.11504280562E+04  0.20436424689E+04  0.50400001928E-02 0.  1.
</event>
<event>
 5   0  0.7838333E-07  0.3326817E+04  0.7818609E-02  0.8156105E-01
       -2   -1    0    0    0  501  0.00000000000E+00  0.00000000000E+00  0.11468772542E+04  0.11468772542E+04  0.25500000920E-02 0.  1.
        2   -1    0    0  501    0  0.00000000000E+00  0.00000000000E+00 -0.24125754561E+04  0.24125754561E+04  0.25500000920E-02 0. -1.
    10030    2    1    2    0    0  0.00000000000E+00  0.00000000000E+00 -0.12656982019E+04  0.35594527102E+04  0.33268170461E+04 0.  0.
        1    1    3    3  502    0  0.67516306237E+03 -0.14678989569E+04 -0.20978053315E+03  0.16292883049E+04  0.50400001928E-02 0.  1.
       -1    1    3    3    0  502 -0.67516306237E+03  0.14678989569E+04 -0.10559176687E+04  0.19301644053E+04  0.50400001928E-02 0. -1.
</event>
<event>
 5   0  0.7610412E-07  0.3453369E+04  0.7818609E-02  0.8124931E-01
        2   -1    0    0  501    0  0.00000000000E+00  0.00000000000E+00  0.17029474780E+04  0.17029474780E+04  0.25500000920E-02 0. -1.
       -2   -1    0    0    0  501  0.00000000000E+00  0.00000000000E+00 -0.17507528586E+04  0.17507528586E+04  0.25500000920E-02 0.  1.
    10030    2    1    2    0    0  0.00000000000E+00  0.00000000000E+00 -0.47805380612E+02  0.34537003365E+04  0.34533694648E+04 0.  0.
        4    1    3    3  502    0 -0.56831457983E+03  0.60931648750E+00 -0.16545363598E+04  0.17494210504E+04  0.12699999809E+01 0.  1.
       -4    1    3    3    0  502  0.56831457983E+03 -0.60931648750E+00  0.16067309791E+04  0.17042792861E+04  0.12699999809E+01 0. -1.
</event>
<event>
 5   0  0.8489228E-07  0.3388628E+04  0.7818609E-02  0.8140703E-01
       -2   -1    0    0    0  501  0.00000000000E+00  0.00000000000E+00  0.16015695948E+04  0.16015695948E+04  0.25500000920E-02 0. -1.
        2   -1    0    0  501    0  0.00000000000E+00  0.00000000000E+00 -0.17924286966E+04  0.17924286966E+04  0.25500000920E-02 0.  1.
    10030    2    1    2    0    0  0.00000000000E+00  0.00000000000E+00 -0.19085910182E+03  0.33939982914E+04  0.33886276286E+04 0.  0.
        3    1    3    3  502    0  0.11629510064E+04  0.50768026062E+03 -0.12199311009E+04  0.17602346978E+04  0.10100000352E+00 0.  1.
       -3    1    3    3    0  502 -0.11629510064E+04 -0.50768026062E+03  0.10290719991E+04  0.16337635936E+04  0.10100000352E+00 0. -1.
</event>
<event>
 5   0  0.2553250E-07  0.3394135E+04  0.7818609E-02  0.8139347E-01
       -1   -1    0    0    0  501  0.00000000000E+00  0.00000000000E+00  0.19257155848E+04  0.19257155848E+04  0.50400001928E-02 0.  1.
        1   -1    0    0  501    0  0.00000000000E+00  0.00000000000E+00 -0.14955678404E+04  0.14955678404E+04  0.50400001928E-02 0. -1.
    10030    2    1    2    0    0  0.00000000000E+00  0.00000000000E+00  0.43014774441E+03  0.34212834252E+04  0.33941351171E+04 0.  0.
        5    1    3    3  502    0  0.83968074803E+03  0.14287142801E+04  0.58368719584E+03  0.17569863646E+04  0.46999998093E+01 0.  1.
       -5    1    3    3    0  502 -0.83968074803E+03 -0.14287142801E+04 -0.15353945143E+03  0.16642970606E+04  0.46999998093E+01 0. -1.
</event>
<event>
 5   0  0.2599367E-07  0.3418302E+04  0.7818609E-02  0.8133429E-01
        1   -1    0    0  501    0  0.00000000000E+00  0.00000000000E+00  0.31172396862E+04  0.31172396862E+04  0.50400001928E-02 0.  1.
       -1   -1    0    0    0  501  0.00000000000E+00  0.00000000000E+00 -0.93711017381E+03  0.93711017383E+03  0.50400001928E-02 0. -1.
    10030    2    1    2    0    0  0.00000000000E+00  0.00000000000E+00  0.21801295124E+04  0.40543498600E+04  0.34183019318E+04 0.  0.
        2    1    3    3  502    0 -0.12248540866E+04  0.66865521024E+03  0.22605132573E+04  0.26565555726E+04  0.25500000920E-02 0.  1.
       -2    1    3    3    0  502  0.12248540866E+04 -0.66865521024E+03 -0.80383744966E+02  0.13977942874E+04  0.25500000920E-02 0. -1.
</event>
<event>
 5   0  0.7838333E-07  0.3395964E+04  0.7818609E-02  0.8138898E-01
        2   -1    0    0  501    0  0.00000000000E+00  0.00000000000E+00  0.21110603102E+04  0.21110603102E+04  0.25500000920E-02 0.  1.
       -2   -1    0    0    0  501  0.00000000000E+00  0.00000000000E+00 -0.13657318072E+04  0.13657318072E+04  0.25500000920E-02 0. -1.
    10030    2    1    2    0    0  0.00000000000E+00  0.00000000000E+00  0.74532850300E+03  0.34767921175E+04  0.33959636115E+04 0.  0.
        1    1    3    3  502    0  0.78242107384E+03 -0.12429675646E+04  0.12449953342E+04  0.19253998249E+04  0.50400001928E-02 0.  1.
       -1    1    3    3    0  502 -0.78242107384E+03  0.12429675646E+04 -0.49966683120E+03  0.15513922926E+04  0.50400001928E-02 0. -1.
</event>
<event>
 5   0  0.7610412E-07  0.3460146E+04  0.7818609E-02  0.8123300E-01
        2   -1    0    0  501    0  0.00000000000E+00  0.00000000000E+00  0.21480574028E+04  0.21480574028E+04  0.25500000920E-02 0. -1.
       -2   -1    0    0    0  501  0.00000000000E+00  0.00000000000E+00 -0.13934231568E+04  0.13934231568E+04  0.25500000920E-02 0.  1.
    10030    2    1    2    0    0  0.00000000000E+00  0.00000000000E+00  0.75463424607E+03  0.35414805596E+04  0.34601461976E+04 0.  0.
        4    1    3    3  502    0 -0.36522611913E+03 -0.15249450957E+04  0.11254598946E+04  0.19301578304E+04  0.12699999809E+01 0. -1.
       -4    1    3    3    0  502  0.36522611913E+03  0.15249450957E+04 -0.37082564853E+03  0.16113227292E+04  0.12699999809E+01 0.  1.
</event>
<event>
 5   0  0.8489228E-07  0.3400485E+04  0.7818609E-02  0.8137787E-01
        2   -1    0    0  501    0  0.00000000000E+00  0.00000000000E+00  0.16075031237E+04  0.16075031237E+04  0.25500000920E-02 0. -1.
       -2   -1    0    0    0  501  0.00000000000E+00  0.00000000000E+00 -0.17983322997E+04  0.17983322997E+04  0.25500000920E-02 0.  1.
    10030    2    1    2    0    0  0.00000000000E+00  0.00000000000E+00 -0.19082917596E+03  0.34058354234E+04  0.34004851355E+04 0.  0.
        3    1    3    3  502    0  0.71749725405E+03  0.13072517788E+04  0.72264175006E+03  0.16570819629E+04  0.10100000352E+00 0. -1.
       -3    1    3    3    0  502 -0.71749725405E+03 -0.13072517788E+04 -0.91347092602E+03  0.17487534605E+04  0.10100000352E+00 0.  1.
</event>
<event>
 5   0  0.2641442E-07  0.3453456E+04  0.7818609E-02  0.8124910E-01
       -1   -1    0    0    0  501  0.00000000000E+00  0.00000000000E+00  0.16995424736E+04  0.16995424736E+04  0.50400001928E-02 0.  1.
        1   -1    0    0  501    0  0.00000000000E+00  0.00000000000E+00 -0.17543480021E+04  0.17543480021E+04  0.50400001928E-02 0. -1.
    10030    2    1    2    0    0  0.00000000000E+00  0.00000000000E+00 -0.54805528497E+02  0.34538904756E+04  0.34534556276E+04 0.  0.
        1    1    3    3  502    0  0.11335167290E+04 -0.33391461151E+03  0.12318148657E+04  0.17069642662E+04  0.50400001928E-02 0.  1.
       -1    1    3    3    0  502 -0.11335167290E+04  0.33391461151E+03 -0.12866203942E+04  0.17469262095E+04  0.50400001928E-02 0. -1.
</event>
<event>
 5   0  0.7899402E-07  0.3404159E+04  0.7818609E-02  0.8136886E-01
       -2   -1    0    0    0  501  0.00000000000E+00  0.00000000000E+00  0.11811871031E+04  0.11811871031E+04  0.25500000920E-02 0.  1.
        2   -1    0    0  501    0  0.00000000000E+00  0.00000000000E+00 -0.24526806424E+04  0.24526806424E+04  0.25500000920E-02 0. -1.
    10030    2    1    2    0    0  0.00000000000E+00  0.00000000000E+00 -0.12714935393E+04  0.36338677456E+04  0.34041590697E+04 0.  0.
        2    1    3    3  502    0 -0.81966236403E+03 -0.10556912252E+04 -0.17607825518E+04  0.22105848884E+04  0.25500000920E-02 0. -1.
       -2    1    3    3    0  502  0.81966236403E+03  0.10556912252E+04  0.48928901247E+03  0.14232828572E+04  0.25500000920E-02 0.  1.
</event>
<event>
 5   0  0.2641442E-07  0.3413765E+04  0.7818609E-02  0.8134536E-01
        1   -1    0    0  501    0  0.00000000000E+00  0.00000000000E+00  0.23056985507E+04  0.23056985507E+04  0.50400001928E-02 0.  1.
       -1   -1    0    0    0  501  0.00000000000E+00  0.00000000000E+00 -0.12635857080E+04  0.12635857080E+04  0.50400001928E-02 0. -1.
    10030    2    1    2    0    0  0.00000000000E+00  0.00000000000E+00  0.10421128427E+04  0.35692842587E+04  0.34137649219E+04 0.  0.
        1    1    3    3  502    0  0.12152183210E+04 -0.10975864450E+04  0.10246589785E+04  0.19316774043E+04  0.50400001928E-02 0. -1.
       -1    1    3    3    0  502 -0.12152183210E+04  0.10975864450E+04  0.17453864212E+02  0.16376068544E+04  0.50400001928E-02 0.  1.
</event>
<event>
 5   0  0.2599367E-07  0.3420160E+04  0.7818609E-02  0.8132976E-01
       -1   -1    0    0    0  501  0.00000000000E+00  0.00000000000E+00  0.12157469491E+04  0.12157469491E+04  0.50400001928E-02 0. -1.
        1   -1    0    0  501    0  0.00000000000E+00  0.00000000000E+00 -0.24054133759E+04  0.24054133759E+04  0.50400001928E-02 0.  1.
    10030    2    1    2    0    0  0.00000000000E+00  0.00000000000E+00 -0.11896664268E+04  0.36211603249E+04  0.34201602143E+04 0.  0.
        2    1    3    3  502    0  0.24567124089E+03  0.16820814857E+04 -0.39782960597E+03  0.17458582069E+04  0.25500000920E-02 0.  1.
       -2    1    3    3    0  502 -0.24567124089E+03 -0.16820814857E+04 -0.79183682083E+03  0.18753021180E+04  0.25500000920E-02 0. -1.
</event>
<event>
 5   0  0.7822003E-07  0.3402815E+04  0.7818609E-02  0.8137216E-01
       -2   -1    0    0    0  501  0.00000000000E+00  0.00000000000E+00  0.97642684986E+03  0.97642684986E+03  0.25500000920E-02 0. -1.
        2   -1    0    0  501    0  0.00000000000E+00  0.00000000000E+00 -0.29646738568E+04  0.29646738568E+04  0.25500000920E-02 0.  1.
    10030    2    1    2    0    0  0.00000000000E+00  0.00000000000E+00 -0.19882470069E+04  0.39411007066E+04  0.34028148083E+04 0.  0.
        5    1    3    3  502    0  0.46974229635E+03  0.19051158326E+03  0.88693016100E+03  0.10215770597E+04  0.46999998093E+01 0. -1.
       -5    1    3    3    0  502 -0.46974229635E+03 -0.19051158326E+03 -0.28751771679E+04  0.29195236470E+04  0.46999998093E+01 0.  1.
</event>
<event>
 5   0  0.2641442E-07  0.3389860E+04  0.7818609E-02  0.8140400E-01
        1   -1    0    0  501    0  0.00000000000E+00  0.00000000000E+00  0.22269378336E+04  0.22269378336E+04  0.50400001928E-02 0.  1.
       -1   -1    0    0    0  501  0.00000000000E+00  0.00000000000E+00 -0.12900169771E+04  0.12900169771E+04  0.50400001928E-02 0. -1.
    10030    2    1    2    0    0  0.00000000000E+00  0.00000000000E+00  0.93692085656E+03  0.35169548107E+04  0.33898599454E+04 0.  0.
        1    1    3    3  502    0 -0.14973688748E+04  0.43582878568E+03 -0.22030291632E+03  0.15749900484E+04  0.50400001928E-02 0. -1.
       -1    1    3    3    0  502  0.14973688748E+04 -0.43582878568E+03  0.11572237729E+04  0.19419647623E+04  0.50400001928E-02 0.  1.
</event>
<event>
 5   0  0.7610412E-07  0.3131997E+04  0.7818609E-02  0.8207011E-01
       -2   -1    0    0    0  501  0.00000000000E+00  0.00000000000E+00  0.19249864146E+04  0.19249864146E+04  0.25500000920E-02 0. -1.
        2   -1    0    0  501    0  0.00000000000E+00  0.00000000000E+00 -0.12739574846E+04  0.12739574846E+04  0.25500000920E-02 0.  1.
    10030    2    1    2    0    0  0.00000000000E+00  0.00000000000E+00  0.65102893000E+03  0.31989438993E+04  0.31319967119E+04 0.  0.
        4    1    3    3  502    0 -0.14614539126E+04  0.47737603210E+03  0.21470727013E+02  0.15375948816E+04  0.12699999809E+01 0.  1.
       -4    1    3    3    0  502  0.14614539126E+04 -0.47737603210E+03  0.62955820299E+03  0.16613490177E+04  0.12699999809E+01 0. -1.
</event>
<event>
 5   0  0.2553250E-07  0.3408134E+04  0.7818609E-02  0.8135913E-01
       -3   -1    0    0    0  501  0.00000000000E+00  0.00000000000E+00  0.14668381971E+04  0.14668382006E+04  0.10100000352E+00 0.  1.
        3   -1    0    0  501    0  0.00000000000E+00  0.00000000000E+00 -0.19796621887E+04  0.19796621913E+04  0.10100000352E+00 0. -1.
    10030    2    1    2    0    0  0.00000000000E+00  0.00000000000E+00 -0.51282399156E+03  0.34465003919E+04  0.34081338743E+04 0.  0.
        4    1    3    3  502    0  0.91428202283E+02  0.90762867384E+03 -0.17119530092E+04  0.19398282512E+04  0.12699999809E+01 0. -1.
       -4    1    3    3    0  502 -0.91428202283E+02 -0.90762867384E+03  0.11991290176E+04  0.15066721407E+04  0.12699999809E+01 0.  1.
</event>
<event>
 5   0  0.8489228E-07  0.3349825E+04  0.7818609E-02  0.8150332E-01
        2   -1    0    0  501    0  0.00000000000E+00  0.00000000000E+00  0.17411533259E+04  0.17411533259E+04  0.25500000920E-02 0. -1.
       -2   -1    0    0    0  501  0.00000000000E+00  0.00000000000E+00 -0.16111921035E+04  0.16111921035E+04  0.25500000920E-02 0.  1.
    10030    2    1    2    0    0  0.00000000000E+00  0.00000000000E+00  0.12996122239E+03  0.33523454294E+04  0.33498253625E+04 0.  0.
        3    1    3    3  502    0  0.51228711116E+02  0.48093289463E+03 -0.15397879206E+04  0.16139602475E+04  0.10100000352E+00 0.  1.
       -3    1    3    3    0  502 -0.51228711116E+02 -0.48093289463E+03  0.16697491430E+04  0.17383851819E+04  0.10100000352E+00 0. -1.
</event>
<event>
 5   0  0.8489228E-07  0.3394734E+04  0.7818609E-02  0.8139200E-01
        2   -1    0    0  501    0  0.00000000000E+00  0.00000000000E+00  0.16211175098E+04  0.16211175098E+04  0.25500000920E-02 0. -1.
       -2   -1    0    0    0  501  0.00000000000E+00  0.00000000000E+00 -0.17772028754E+04  0.17772028754E+04  0.25500000920E-02 0.  1.
    10030    2    1    2    0    0  0.00000000000E+00  0.00000000000E+00 -0.15608536555E+03  0.33983203852E+04  0.33947339806E+04 0.  0.
        3    1    3    3  502    0  0.16344657990E+04  0.45733696281E+03 -0.98537317658E+02  0.17001015143E+04  0.10100000352E+00 0.  1.
       -3    1    3    3    0  502 -0.16344657990E+04 -0.45733696281E+03 -0.57548047889E+02  0.16982188709E+04  0.10100000352E+00 0. -1.
</event>
<event>
 5   0  0.2622205E-07  0.3360767E+04  0.7818609E-02  0.8147603E-01
        1   -1    0    0  501    0  0.00000000000E+00  0.00000000000E+00  0.27950707019E+04  0.27950707019E+04  0.50400001928E-02 0. -1.
       -1   -1    0    0    0  501  0.00000000000E+00  0.00000000000E+00 -0.10102389157E+04  0.10102389157E+04  0.50400001928E-02 0.  1.
    10030    2    1    2    0    0  0.00000000000E+00  0.00000000000E+00  0.17848317862E+04  0.38053096176E+04  0.33607672904E+04 0.  0.
        3    1    3    3  502    0 -0.14427171232E+04  0.57019445485E+03  0.16112569318E+03  0.15596524976E+04  0.10100000352E+00 0.  1.
       -3    1    3    3    0  502  0.14427171232E+04 -0.57019445485E+03  0.16237060930E+04  0.22456571200E+04  0.10100000352E+00 0. -1.
</event>
<event>
 5   0  0.7899402E-07  0.3407240E+04  0.7818609E-02  0.8136132E-01
       -2   -1    0    0    0  501  0.00000000000E+00  0.00000000000E+00  0.15712192922E+04  0.15712192922E+04  0.25500000920E-02 0.  1.
        2   -1    0    0  501    0  0.00000000000E+00  0.00000000000E+00 -0.18471781221E+04  0.18471781221E+04  0.25500000920E-02 0. -1.
    10030    2    1    2    0    0  0.00000000000E+00  0.00000000000E+00 -0.27595882997E+03  0.34183974143E+04  0.34072404679E+04 0.  0.
        2    1    3    3  502    0  0.92373717150E+03  0.12488944910E+04  0.56380666724E+03  0.16525452398E+04  0.25500000920E-02 0.  1.
       -2    1    3    3    0  502 -0.92373717150E+03 -0.12488944910E+04 -0.83976549721E+03  0.17658521744E+04  0.25500000920E-02 0. -1.
</event>
<event>
 5   0  0.7610412E-07  0.3385826E+04  0.7818609E-02  0.8141394E-01
        2   -1    0    0  501    0  0.00000000000E+00  0.00000000000E+00  0.22013041489E+04  0.22013041489E+04  0.25500000920E-02 0. -1.
       -2   -1    0    0    0  501  0.00000000000E+00  0.00000000000E+00 -0.13019345908E+04  0.13019345908E+04  0.25500000920E-02 0.  1.
    10030    2    1    2    0    0  0.00000000000E+00  0.00000000000E+00  0.89936955808E+03  0.35032387397E+04  0.33858257583E+04 0.  0.
        4    1    3    3  502    0 -0.70921126616E+03 -0.13733368595E+04 -0.26485568789E+03  0.15681788476E+04  0.12699999809E+01 0.  1.
       -4    1    3    3    0  502  0.70921126616E+03  0.13733368595E+04  0.11642252460E+04  0.19350598921E+04  0.12699999809E+01 0. -1.
</event>
<event>
 5   0  0.7610412E-07  0.3397367E+04  0.7818609E-02  0.8138553E-01
       -2   -1    0    0    0  501  0.00000000000E+00  0.00000000000E+00  0.14154919313E+04  0.14154919313E+04  0.25500000920E-02 0.  1.
        2   -1    0    0  501    0  0.00000000000E+00  0.00000000000E+00 -0.20385323677E+04  0.20385323677E+04  0.25500000920E-02 0. -1.
    10030    2    1    2    0    0  0.00000000000E+00  0.00000000000E+00 -0.62304043640E+03  0.34540242991E+04  0.33973672856E+04 0.  0.
        4    1    3    3  502    0 -0.49919315716E+03 -0.91019652458E+03 -0.16785149645E+04  0.19735920603E+04  0.12699999809E+01 0. -1.
       -4    1    3    3    0  502  0.49919315716E+03  0.91019652458E+03  0.10554745281E+04  0.14804322388E+04  0.12699999809E+01 0.  1.
</event>
<event>
 5   0  0.2592200E-07  0.3416373E+04  0.7818609E-02  0.8133899E-01
       -1   -1    0    0    0  501  0.00000000000E+00  0.00000000000E+00  0.12239889837E+04  0.12239889837E+04  0.50400001928E-02 0. -1.
        1   -1    0    0  501    0  0.00000000000E+00  0.00000000000E+00 -0.23839278237E+04  0.23839278237E+04  0.50400001928E-02 0.  1.
    10030    2    1    2    0    0  0.00000000000E+00  0.00000000000E+00 -0.11599388400E+04  0.36079168073E+04  0.34163731611E+04 0.  0.
        4    1    3    3  502    0 -0.12755287706E+04 -0.31203856458E+03 -0.17337228107E+04  0.21748880678E+04  0.12699999809E+01 0.  1.
       -4    1    3    3    0  502  0.12755287706E+04  0.31203856458E+03  0.57378397069E+03  0.14330287395E+04  0.12699999809E+01 0. -1.
</event>
<event>
 5   0  0.2622205E-07  0.3520312E+04  0.7818609E-02  0.8108993E-01
        1   -1    0    0  501    0  0.00000000000E+00  0.00000000000E+00  0.22144614134E+04  0.22144614134E+04  0.50400001928E-02 0. -1.
       -1   -1    0    0    0  501  0.00000000000E+00  0.00000000000E+00 -0.13990527482E+04  0.13990527482E+04  0.50400001928E-02 0.  1.
    10030    2    1    2    0    0  0.00000000000E+00  0.00000000000E+00  0.81540866524E+03  0.36135141616E+04  0.35203115352E+04 0.  0.
        3    1    3    3  502    0  0.13925808091E+04  0.10593489304E+04  0.21120232705E+03  0.17624153594E+04  0.10100000352E+00 0. -1.
       -3    1    3    3    0  502 -0.13925808091E+04 -0.10593489304E+04  0.60420633819E+03  0.18510988022E+04  0.10100000352E+00 0.  1.
</event>
<event>
 5   0  0.2641442E-07  0.3421632E+04  0.7818609E-02  0.8132617E-01
        1   -1    0    0  501    0  0.00000000000E+00  0.00000000000E+00  0.15540661947E+04  0.15540661947E+04  0.50400001928E-02 0. -1.
       -1   -1    0    0    0  501  0.00000000000E+00  0.00000000000E+00 -0.18833763491E+04  0.18833763491E+04  0.50400001928E-02 0.  1.
    10030    2    1    2    0    0  0.00000000000E+00  0.00000000000E+00 -0.32931015440E+03  0.34374425438E+04  0.34216320761E+04 0.  0.
        1    1    3    3  502    0  0.13816181365E+04 -0.15944451835E+02 -0.11781618762E+04  0.18158161546E+04  0.50400001928E-02 0.  1.
       -1    1    3    3    0  502 -0.13816181365E+04  0.15944451835E+02  0.84885172185E+03  0.16216263892E+04  0.50400001928E-02 0. -1.
</event>
<event>
 5   0  0.2592200E-07  0.3365691E+04  0.7818609E-02  0.8146379E-01
       -1   -1    0    0    0  501  0.00000000000E+00  0.00000000000E+00  0.22226271858E+04  0.22226271858E+04  0.50400001928E-02 0.  1.
        1   -1    0    0  501    0  0.00000000000E+00  0.00000000000E+00 -0.12741536634E+04  0.12741536634E+04  0.50400001928E-02 0. -1.
    10030    2    1    2    0    0  0.00000000000E+00  0.00000000000E+00  0.94847352243E+03  0.34967808492E+04  0.33656907589E+04 0.  0.
        4    1    3    3  502    0 -0.23599940343E+03  0.66953184303E+03  0.20594421457E+04  0.21783645636E+04  0.12699999809E+01 0.  1.
       -4    1    3    3    0  502  0.23599940343E+03 -0.66953184303E+03 -0.11109686233E+04  0.13184162856E+04  0.12699999809E+01 0. -1.
</event>
<event>
 5   0  0.2641442E-07  0.3423321E+04  0.7818609E-02  0.8132206E-01
       -1   -1    0    0    0  501  0.00000000000E+00  0.00000000000E+00  0.12569014125E+04  0.12569014125E+04  0.50400001928E-02 0. -1.
        1   -1    0    0  501    0  0.00000000000E+00  0.00000000000E+00 -0.23309552767E+04  0.23309552767E+04  0.50400001928E-02 0.  1.
    10030    2    1    2    0    0  0.00000000000E+00  0.00000000000E+00 -0.10740538642E+04  0.35878566892E+04  0.34233205984E+04 0.  0.
        1    1    3    3  502    0  0.46261245768E+03 -0.11470493300E+04 -0.17771336467E+04  0.21651643008E+04  0.50400001928E-02 0.  1.
       -1    1    3    3    0  502 -0.46261245768E+03  0.11470493300E+04  0.70307978242E+03  0.14226923884E+04  0.50400001928E-02 0. -1.
</event>
<event>
 5   0  0.7899402E-07  0.3397455E+04  0.7818609E-02  0.8138531E-01
       -2   -1    0    0    0  501  0.00000000000E+00  0.00000000000E+00  0.16374944722E+04  0.16374944722E+04  0.25500000920E-02 0.  1.
        2   -1    0    0  501    0  0.00000000000E+00  0.00000000000E+00 -0.17622508082E+04  0.17622508082E+04  0.25500000920E-02 0. -1.
    10030    2    1    2    0    0  0.00000000000E+00  0.00000000000E+00 -0.12475633603E+03  0.33997452804E+04  0.33974554932E+04 0.  0.
        2    1    3    3  502    0 -0.11404659087E+04  0.12545405139E+04 -0.16800293061E+03  0.17037486242E+04  0.25500000920E-02 0.  1.
       -2    1    3    3    0  502  0.11404659087E+04 -0.12545405139E+04  0.43246594587E+02  0.16959966562E+04  0.25500000920E-02 0. -1.
</event>
<event>
 5   0  0.2592200E-07  0.3413504E+04  0.7818609E-02  0.8134600E-01
       -1   -1    0    0    0  501  0.00000000000E+00  0.00000000000E+00  0.13810614937E+04  0.13810614937E+04  0.50400001928E-02 0.  1.
        1   -1    0    0  501    0  0.00000000000E+00  0.00000000000E+00 -0.21092490779E+04  0.21092490779E+04  0.50400001928E-02 0. -1.
    10030    2    1    2    0    0  0.00000000000E+00  0.00000000000E+00 -0.72818758420E+03  0.34903105716E+04  0.34135041715E+04 0.  0.
        4    1    3    3  502    0 -0.82114268437E+02  0.16932930482E+04 -0.56606543597E+03  0.17872928665E+04  0.12699999809E+01 0.  1.
       -4    1    3    3    0  502  0.82114268437E+02 -0.16932930482E+04 -0.16212214823E+03  0.17030177051E+04  0.12699999809E+01 0. -1.
</event>
<event>
 5   0  0.7899402E-07  0.3397542E+04  0.7818609E-02  0.8138510E-01
        2   -1    0    0  501    0  0.00000000000E+00  0.00000000000E+00  0.19393977224E+04  0.19393977224E+04  0.25500000920E-02 0.  1.
       -2   -1    0    0    0  501  0.00000000000E+00  0.00000000000E+00 -0.14879999376E+04  0.14879999376E+04  0.25500000920E-02 0. -1.
    10030    2    1    2    0    0  0.00000000000E+00  0.00000000000E+00  0.45139778482E+03  0.34273976601E+04  0.33975424589E+04 0.  0.
        2    1    3    3  502    0  0.34709048509E+03  0.18072939062E+03  0.18933096549E+04  0.19333277960E+04  0.25500000920E-02 0.  1.
       -2    1    3    3    0  502 -0.34709048509E+03 -0.18072939062E+03 -0.14419118701E+04  0.14940698640E+04  0.25500000920E-02 0. -1.
</event>
<event>
 5   0  0.2641442E-07  0.3385749E+04  0.7818609E-02  0.8141413E-01
       -1   -1    0    0    0  501  0.00000000000E+00  0.00000000000E+00  0.12766465845E+04  0.12766465845E+04  0.50400001928E-02 0. -1.
        1   -1    0    0  501    0  0.00000000000E+00  0.00000000000E+00 -0.22448054838E+04  0.22448054838E+04  0.50400001928E-02 0.  1.
    10030    2    1    2    0    0  0.00000000000E+00  0.00000000000E+00 -0.96815889936E+03  0.35214520683E+04  0.33857485162E+04 0.  0.
        1    1    3    3  502    0 -0.27297673790E+03 -0.94770706442E+02 -0.22189658800E+04  0.22377013569E+04  0.50400001928E-02 0.  1.
       -1    1    3    3    0  502  0.27297673790E+03  0.94770706442E+02  0.12508069806E+04  0.12837507114E+04  0.50400001928E-02 0. -1.
</event>
<event>
 5   0  0.2622205E-07  0.3452597E+04  0.7818609E-02  0.8125117E-01
       -1   -1    0    0    0  501  0.00000000000E+00  0.00000000000E+00  0.10795552547E+04  0.10795552547E+04  0.50400001928E-02 0.  1.
        1   -1    0    0  501    0  0.00000000000E+00  0.00000000000E+00 -0.27604942946E+04  0.27604942946E+04  0.50400001928E-02 0. -1.
    10030    2    1    2    0    0  0.00000000000E+00  0.00000000000E+00 -0.16809390399E+04  0.38400495493E+04  0.34525967742E+04 0.  0.
        3    1    3    3  502    0 -0.13068706566E+04  0.61588230994E+03 -0.18914351938E+04  0.23800733256E+04  0.10100000352E+00 0. -1.
       -3    1    3    3    0  502  0.13068706566E+04 -0.61588230994E+03  0.21049615395E+03  0.14599762237E+04  0.10100000352E+00 0.  1.
</event>
<event>
 5   0  0.7899402E-07  0.3402319E+04  0.7818609E-02  0.8137337E-01
        2   -1    0    0  501    0  0.00000000000E+00  0.00000000000E+00  0.11458315145E+04  0.11458315145E+04  0.25500000920E-02 0. -1.
       -2   -1    0    0    0  501  0.00000000000E+00  0.00000000000E+00 -0.25256270415E+04  0.25256270415E+04  0.25500000920E-02 0.  1.
    10030    2    1    2    0    0  0.00000000000E+00  0.00000000000E+00 -0.13797955271E+04  0.36714585560E+04  0.34023186552E+04 0.  0.
        2    1    3    3  502    0 -0.15006240378E+04 -0.39119296644E+03 -0.14445297707E+04  0.21193326068E+04  0.25500000920E-02 0.  1.
       -2    1    3    3    0  502  0.15006240378E+04  0.39119296644E+03  0.64734243660E+02  0.15521259492E+04  0.25500000920E-02 0. -1.
</event>
<event>
 5   0  0.7838333E-07  0.3426128E+04  0.7818609E-02  0.8131523E-01
       -2   -1    0    0    0  501  0.00000000000E+00  0.00000000000E+00  0.12747697786E+04  0.12747697786E+04  0.25500000920E-02 0. -1.
        2   -1    0    0  501    0  0.00000000000E+00  0.00000000000E+00 -0.23020540275E+04  0.23020540275E+04  0.25500000920E-02 0.  1.
    10030    2    1    2    0    0  0.00000000000E+00  0.00000000000E+00 -0.10272842489E+04  0.35768238062E+04  0.34261283707E+04 0.  0.
        1    1    3    3  502    0 -0.15501999535E+04  0.72766170622E+03 -0.46721770175E+03  0.17750785434E+04  0.50400001928E-02 0. -1.
       -1    1    3    3    0  502  0.15501999535E+04 -0.72766170622E+03 -0.56006654716E+03  0.18017452627E+04  0.50400001928E-02 0.  1.
</event>
<event>
 5   0  0.7822003E-07  0.3331824E+04  0.7818609E-02  0.8154845E-01
       -2   -1    0    0    0  501  0.00000000000E+00  0.00000000000E+00  0.16745046066E+04  0.16745046066E+04  0.25500000920E-02 0.  1.
        2   -1    0    0  501    0  0.00000000000E+00  0.00000000000E+00 -0.16573636493E+04  0.16573636493E+04  0.25500000920E-02 0. -1.
    10030    2    1    2    0    0  0.00000000000E+00  0.00000000000E+00  0.17140957324E+02  0.33318682559E+04  0.33318241644E+04 0.  0.
        5    1    3    3  502    0  0.66622846478E+03  0.81911725235E+03  0.12971633088E+04  0.16725633561E+04  0.46999998093E+01 0.  1.
       -5    1    3    3    0  502 -0.66622846478E+03 -0.81911725235E+03 -0.12800223515E+04  0.16593048998E+04  0.46999998093E+01 0. -1.
</event>
<event>
 5   0  0.2592200E-07  0.3398693E+04  0.7818609E-02  0.8138227E-01
       -1   -1    0    0    0  501  0.00000000000E+00  0.00000000000E+00  0.12211380526E+04  0.12211380526E+04  0.50400001928E-02 0. -1.
        1   -1    0    0  501    0  0.00000000000E+00  0.00000000000E+00 -0.23648254039E+04  0.23648254039E+04  0.50400001928E-02 0.  1.
    10030    2    1    2    0    0  0.00000000000E+00  0.00000000000E+00 -0.11436873513E+04  0.35859634565E+04  0.33986928596E+04 0.  0.
        4    1    3    3  502    0  0.19811278837E+03  0.16871926055E+04 -0.52574276786E+03  0.17782785597E+04  0.12699999809E+01 0.  1.
       -4    1    3    3    0  502 -0.19811278837E+03 -0.16871926055E+04 -0.61794458344E+03  0.18076848968E+04  0.12699999809E+01 0. -1.
</event>
<event>
 5   0  0.2641442E-07  0.3532413E+04  0.7818609E-02  0.8106151E-01
       -1   -1    0    0    0  501  0.00000000000E+00  0.00000000000E+00  0.18149014333E+04  0.18149014333E+04  0.50400001928E-02 0.  1.
        1   -1    0    0  501    0  0.00000000000E+00  0.00000000000E+00 -0.17188180505E+04  0.17188180505E+04  0.50400001928E-02 0. -1.
    10030    2    1    2    0    0  0.00000000000E+00  0.00000000000E+00  0.96083382807E+02  0.35337194837E+04  0.35324129676E+04 0.  0.
        1    1    3    3  502    0  0.21606642346E+03  0.56929469622E+03 -0.16104931645E+04  0.17217634516E+04  0.50400001928E-02 0. -1.
       -1    1    3    3    0  502 -0.21606642346E+03 -0.56929469622E+03  0.17065765473E+04  0.18119560321E+04  0.50400001928E-02 0.  1.
</event>
<event>
 5   0  0.2622205E-07  0.3373868E+04  0.7818609E-02  0.8144350E-01
       -1   -1    0    0    0  501  0.00000000000E+00  0.00000000000E+00  0.10218522365E+04  0.10218522365E+04  0.50400001928E-02 0.  1.
        1   -1    0    0  501    0  0.00000000000E+00  0.00000000000E+00 -0.27848901701E+04  0.27848901701E+04  0.50400001928E-02 0. -1.
    10030    2    1    2    0    0  0.00000000000E+00  0.00000000000E+00 -0.17630379336E+04  0.38067424066E+04  0.33738679575E+04 0.  0.
        3    1    3    3  502    0 -0.10315588796E+03  0.47261141936E+02  0.10175417269E+04  0.10238485869E+04  0.10100000352E+00 0.  1.
       -3    1    3    3    0  502  0.10315588796E+03 -0.47261141936E+02 -0.27805796605E+04  0.27828938197E+04  0.10100000352E+00 0. -1.
</event>
<event>
 5   0  0.8489228E-07  0.3205390E+04  0.7818609E-02  0.8187395E-01
       -2   -1    0    0    0  501  0.00000000000E+00  0.00000000000E+00  0.11977675232E+04  0.11977675232E+04  0.25500000920E-02 0.  1.
        2   -1    0    0  501    0  0.00000000000E+00  0.00000000000E+00 -0.21445154282E+04  0.21445154282E+04  0.25500000920E-02 0. -1.
    10030    2    1    2    0    0  0.00000000000E+00  0.00000000000E+00 -0.94674790492E+03  0.33422829514E+04  0.32053897940E+04 0.  0.
        3    1    3    3  502    0  0.12315756641E+04 -0.10117923146E+04 -0.64825251119E+03  0.17206782479E+04  0.10100000352E+00 0. -1.
       -3    1    3    3    0  502 -0.12315756641E+04  0.10117923146E+04 -0.29849539373E+03  0.16216047035E+04  0.10100000352E+00 0.  1.
</event>
<event>
 5   0  0.7899402E-07  0.3393233E+04  0.7818609E-02  0.8139569E-01
        2   -1    0    0  501    0  0.00000000000E+00  0.00000000000E+00  0.16404611245E+04  0.16404611245E+04  0.25500000920E-02 0. -1.
       -2   -1    0    0    0  501  0.00000000000E+00  0.00000000000E+00 -0.17546941260E+04  0.17546941260E+04  0.25500000920E-02 0.  1.
    10030    2    1    2    0    0  0.00000000000E+00  0.00000000000E+00 -0.11423300156E+03  0.33951552505E+04  0.33932329712E+04 0.  0.
        2    1    3    3  502    0  0.12794328894E+04 -0.30844497979E+03 -0.11284334223E+04  0.17336230307E+04  0.25500000920E-02 0.  1.
       -2    1    3    3    0  502 -0.12794328894E+04  0.30844497979E+03  0.10142004207E+04  0.16615322198E+04  0.25500000920E-02 0. -1.
</event>
<event>
 5   0  0.2599367E-07  0.3392173E+04  0.7818609E-02  0.8139830E-01
       -1   -1    0    0    0  501  0.00000000000E+00  0.00000000000E+00  0.19244311360E+04  0.19244311360E+04  0.50400001928E-02 0.  1.
        1   -1    0    0  501    0  0.00000000000E+00  0.00000000000E+00 -0.14948360128E+04  0.14948360128E+04  0.50400001928E-02 0. -1.
    10030    2    1    2    0    0  0.00000000000E+00  0.00000000000E+00  0.42959512318E+03  0.34192671488E+04  0.33921727352E+04 0.  0.
        2    1    3    3  502    0  0.16724875939E+04  0.25447933327E+03  0.33715279010E+03  0.17250062280E+04  0.25500000920E-02 0.  1.
       -2    1    3    3    0  502 -0.16724875939E+04 -0.25447933327E+03  0.92442333083E+02  0.16942609208E+04  0.25500000920E-02 0. -1.
</event>
<event>
 5   0  0.2599367E-07  0.3391771E+04  0.7818609E-02  0.8139929E-01
        1   -1    0    0  501    0  0.00000000000E+00  0.00000000000E+00  0.13318863133E+04  0.13318863133E+04  0.50400001928E-02 0.  1.
       -1   -1    0    0    0  501  0.00000000000E+00  0.00000000000E+00 -0.21593641122E+04  0.21593641122E+04  0.50400001928E-02 0. -1.
    10030    2    1    2    0    0  0.00000000000E+00  0.00000000000E+00 -0.82747779894E+03  0.34912504255E+04  0.33917709277E+04 0.  0.
        2    1    3    3  502    0  0.10682222557E+04  0.49209771965E+03  0.84388484112E+03  0.14475498535E+04  0.25500000920E-02 0.  1.
       -2    1    3    3    0  502 -0.10682222557E+04 -0.49209771965E+03 -0.16713626401E+04  0.20437005720E+04  0.25500000920E-02 0. -1.
</event>
<event>
 5   0  0.7610412E-07  0.3405537E+04  0.7818609E-02  0.8136549E-01
        2   -1    0    0  501    0  0.00000000000E+00  0.00000000000E+00  0.27704113650E+04  0.27704113650E+04  0.25500000920E-02 0.  1.
       -2   -1    0    0    0  501  0.00000000000E+00  0.00000000000E+00 -0.10465666759E+04  0.10465666759E+04  0.25500000920E-02 0. -1.
    10030    2    1    2    0    0  0.00000000000E+00  0.00000000000E+00  0.17238446891E+04  0.38169780409E+04  0.34055367936E+04 0.  0.
        4    1    3    3  502    0  0.14789194495E+04 -0.28805829656E+03  0.17510040058E+04  0.23100209872E+04  0.12699999809E+01 0. -1.
       -4    1    3    3    0  502 -0.14789194495E+04  0.28805829656E+03 -0.27159316644E+02  0.15069570537E+04  0.12699999809E+01 0.  1.
</event>
<event>
 5   0  0.2622205E-07  0.3333465E+04  0.7818609E-02  0.8154432E-01
       -1   -1    0    0    0  501  0.00000000000E+00  0.00000000000E+00  0.15081925963E+04  0.15081925963E+04  0.50400001928E-02 0. -1.
        1   -1    0    0  501    0  0.00000000000E+00  0.00000000000E+00 -0.18419380990E+04  0.18419380990E+04  0.50400001928E-02 0.  1.
    10030    2    1    2    0    0  0.00000000000E+00  0.00000000000E+00 -0.33374550273E+03  0.33501306953E+04  0.33334651063E+04 0.  0.
        3    1    3    3  502    0  0.11412169240E+04 -0.10161754184E+04  0.50204394356E+03  0.16084267717E+04  0.10100000352E+00 0. -1.
       -3    1    3    3    0  502 -0.11412169240E+04  0.10161754184E+04 -0.83578944629E+03  0.17417039236E+04  0.10100000352E+00 0.  1.
</event>
<event>
 5   0  0.7838333E-07  0.3449485E+04  0.7818609E-02  0.8125867E-01
       -2   -1    0    0    0  501  0.00000000000E+00  0.00000000000E+00  0.15128156781E+04  0.15128156781E+04  0.25500000920E-02 0.  1.
        2   -1    0    0  501    0  0.00000000000E+00  0.00000000000E+00 -0.19663574374E+04  0.19663574374E+04  0.25500000920E-02 0. -1.
    10030    2    1    2    0    0  0.00000000000E+00  0.00000000000E+00 -0.45354175929E+03  0.34791731155E+04  0.34494848079E+04 0.  0.
        1    1    3    3  502    0  0.93757196338E+03  0.25644506152E+02 -0.16866527190E+04  0.19298953914E+04  0.50400001928E-02 0. -1.
       -1    1    3    3    0  502 -0.93757196338E+03 -0.25644506152E+02  0.12331109597E+04  0.15492777240E+04  0.50400001928E-02 0.  1.
</event>
<event>
 5   0  0.2599367E-07  0.3009399E+04  0.7818609E-02  0.8241052E-01
        1   -1    0    0  501    0  0.00000000000E+00  0.00000000000E+00  0.14661077321E+04  0.14661077321E+04  0.50400001928E-02 0. -1.
       -1   -1    0    0    0  501  0.00000000000E+00  0.00000000000E+00 -0.15443070994E+04  0.15443070994E+04  0.50400001928E-02 0.  1.
    10030    2    1    2    0    0  0.00000000000E+00  0.00000000000E+00 -0.78199367211E+02  0.30104148315E+04  0.30093989959E+04 0.  0.
        2    1    3    3  502    0  0.70817730743E+03  0.11140733396E+04 -0.76145566688E+03  0.15239715343E+04  0.25500000920E-02 0.  1.
       -2    1    3    3    0  502 -0.70817730743E+03 -0.11140733396E+04  0.68325629967E+03  0.14864432972E+04  0.25500000920E-02 0. -1.
</event>
<event>
 5   0  0.2592200E-07  0.3348853E+04  0.7818609E-02  0.8150575E-01
        1   -1    0    0  501    0  0.00000000000E+00  0.00000000000E+00  0.23704092286E+04  0.23704092286E+04  0.50400001928E-02 0. -1.
       -1   -1    0    0    0  501  0.00000000000E+00  0.00000000000E+00 -0.11827930701E+04  0.11827930701E+04  0.50400001928E-02 0.  1.
    10030    2    1    2    0    0  0.00000000000E+00  0.00000000000E+00  0.11876161585E+04  0.35532022987E+04  0.33488527044E+04 0.  0.
        4    1    3    3  502    0  0.16895181237E+03 -0.22199272552E+03 -0.11579614872E+04  0.11910927352E+04  0.12699999809E+01 0.  1.
       -4    1    3    3    0  502 -0.16895181237E+03  0.22199272552E+03  0.23455776457E+04  0.23621095635E+04  0.12699999809E+01 0. -1.
</event>
<event>
 5   0  0.7610412E-07  0.3382455E+04  0.7818609E-02  0.8142226E-01
        2   -1    0    0  501    0  0.00000000000E+00  0.00000000000E+00  0.14057041625E+04  0.14057041625E+04  0.25500000920E-02 0. -1.
       -2   -1    0    0    0  501  0.00000000000E+00  0.00000000000E+00 -0.20347451592E+04  0.20347451592E+04  0.25500000920E-02 0.  1.
    10030    2    1    2    0    0  0.00000000000E+00  0.00000000000E+00 -0.62904099674E+03  0.34404493217E+04  0.33824545761E+04 0.  0.
        4    1    3    3  502    0  0.76771787586E+03  0.13088375580E+04  0.44514619215E+03  0.15813295784E+04  0.12699999809E+01 0. -1.
       -4    1    3    3    0  502 -0.76771787586E+03 -0.13088375580E+04 -0.10741871889E+04  0.18591197433E+04  0.12699999809E+01 0.  1.
</event>
<event>
 5   0  0.7899402E-07  0.3407778E+04  0.7818609E-02  0.8136000E-01
       -2   -1    0    0    0  501  0.00000000000E+00  0.00000000000E+00  0.26328808639E+04  0.26328808639E+04  0.25500000920E-02 0. -1.
        2   -1    0    0  501    0  0.00000000000E+00  0.00000000000E+00 -0.11026847761E+04  0.11026847761E+04  0.25500000920E-02 0.  1.
    10030    2    1    2    0    0  0.00000000000E+00  0.00000000000E+00  0.15301960879E+04  0.37355656400E+04  0.34077779539E+04 0.  0.
        2    1    3    3  502    0  0.27382760728E+03  0.92244275952E+02 -0.10756322548E+04  0.11137662738E+04  0.25500000920E-02 0.  1.
       -2    1    3    3    0  502 -0.27382760728E+03 -0.92244275952E+02  0.26058283427E+04  0.26217993662E+04  0.25500000920E-02 0. -1.
</event>
<event>
 5   0  0.2553250E-07  0.3409383E+04  0.7818609E-02  0.8135607E-01
       -1   -1    0    0    0  501  0.00000000000E+00  0.00000000000E+00  0.12698953496E+04  0.12698953496E+04  0.50400001928E-02 0.  1.
        1   -1    0    0  501    0  0.00000000000E+00  0.00000000000E+00 -0.22883558593E+04  0.22883558593E+04  0.50400001928E-02 0. -1.
    10030    2    1    2    0    0  0.00000000000E+00  0.00000000000E+00 -0.10184605097E+04  0.35582512089E+04  0.34093826209E+04 0.  0.
        5    1    3    3  502    0 -0.12844565861E+04  0.11183061622E+04 -0.43173875520E+03  0.17569455987E+04  0.46999998093E+01 0.  1.
       -5    1    3    3    0  502  0.12844565861E+04 -0.11183061622E+04 -0.58672175453E+03  0.18013056102E+04  0.46999998093E+01 0. -1.
</event>
<event>
 5   0  0.7822003E-07  0.3501162E+04  0.7818609E-02  0.8113515E-01
        2   -1    0    0  501    0  0.00000000000E+00  0.00000000000E+00  0.12365709908E+04  0.12365709908E+04  0.25500000920E-02 0.  1.
       -2   -1    0    0    0  501  0.00000000000E+00  0.00000000000E+00 -0.24782519046E+04  0.24782519046E+04  0.25500000920E-02 0. -1.
    10030    2    1    2    0    0  0.00000000000E+00  0.00000000000E+00 -0.12416809138E+04  0.37148228954E+04  0.35011623288E+04 0.  0.
        5    1    3    3  502    0 -0.13546247524E+04 -0.94130771250E+02 -0.17930905832E+04  0.22492364819E+04  0.46999998093E+01 0. -1.
       -5    1    3    3    0  502  0.13546247524E+04  0.94130771250E+02  0.55140966942E+03  0.14655864135E+04  0.46999998093E+01 0.  1.
</event>
<event>
 5   0  0.7899402E-07  0.3386151E+04  0.7818609E-02  0.8141314E-01
        2   -1    0    0  501    0  0.00000000000E+00  0.00000000000E+00  0.21580003034E+04  0.21580003034E+04  0.25500000920E-02 0.  1.
       -2   -1    0    0    0  501  0.00000000000E+00  0.00000000000E+00 -0.13283149873E+04  0.13283149873E+04  0.25500000920E-02 0. -1.
    10030    2    1    2    0    0  0.00000000000E+00  0.00000000000E+00  0.82968531610E+03  0.34863152908E+04  0.33861507029E+04 0.  0.
        2    1    3    3  502    0 -0.14137983475E+04 -0.59203450705E+03 -0.32557798496E+03  0.15669497915E+04  0.25500000920E-02 0. -1.
       -2    1    3    3    0  502  0.14137983475E+04  0.59203450705E+03  0.11552633011E+04  0.19193654992E+04  0.25500000920E-02 0.  1.
</event>
<event>
 5   0  0.7822003E-07  0.3373498E+04  0.7818609E-02  0.8144442E-01
        2   -1    0    0  501    0  0.00000000000E+00  0.00000000000E+00  0.17171830928E+04  0.17171830928E+04  0.25500000920E-02 0.  1.
       -2   -1    0    0    0  501  0.00000000000E+00  0.00000000000E+00 -0.16568541630E+04  0.16568541630E+04  0.25500000920E-02 0. -1.
    10030    2    1    2    0    0  0.00000000000E+00  0.00000000000E+00  0.60328929788E+02  0.33740372558E+04  0.33734978619E+04 0.  0.
        5    1    3    3  502    0 -0.10144678748E+04  0.40023610688E+03  0.13171358648E+04  0.17100301128E+04  0.46999998093E+01 0.  1.
       -5    1    3    3    0  502  0.10144678748E+04 -0.40023610688E+03 -0.12568069350E+04  0.16640071431E+04  0.46999998093E+01 0. -1.
</event>
<event>
 5   0  0.2622205E-07  0.3079625E+04  0.7818609E-02  0.8221352E-01
        1   -1    0    0  501    0  0.00000000000E+00  0.00000000000E+00  0.27241525286E+04  0.27241525286E+04  0.50400001928E-02 0. -1.
       -1   -1    0    0    0  501  0.00000000000E+00  0.00000000000E+00 -0.87037071095E+03  0.87037071096E+03  0.50400001928E-02 0.  1.
    10030    2    1    2    0    0  0.00000000000E+00  0.00000000000E+00  0.18537818176E+04  0.35945232395E+04  0.30796250246E+04 0.  0.
        3    1    3    3  502    0 -0.82815386633E+02  0.30881138270E+03  0.26849826519E+04  0.27039516840E+04  0.10100000352E+00 0. -1.
       -3    1    3    3    0  502  0.82815386633E+02 -0.30881138270E+03 -0.83120083429E+03  0.89057155550E+03  0.10100000352E+00 0.  1.
</event>
<event>
 5   0  0.7838333E-07  0.3390658E+04  0.7818609E-02  0.8140203E-01
       -2   -1    0    0    0  501  0.00000000000E+00  0.00000000000E+00  0.12012712586E+04  0.12012712586E+04  0.25500000920E-02 0. -1.
        2   -1    0    0  501    0  0.00000000000E+00  0.00000000000E+00 -0.23925826064E+04  0.23925826064E+04  0.25500000920E-02 0.  1.
    10030    2    1    2    0    0  0.00000000000E+00  0.00000000000E+00 -0.11913113478E+04  0.35938538651E+04  0.33906581774E+04 0.  0.
        1    1    3    3  502    0  0.14321042616E+04 -0.90429352607E+02 -0.15525545292E+04  0.21141252683E+04  0.50400001928E-02 0.  1.
       -1    1    3    3    0  502 -0.14321042616E+04  0.90429352607E+02  0.36124318144E+03  0.14797285967E+04  0.50400001928E-02 0. -1.
</event>
<event>
 5   0  0.2622205E-07  0.3387816E+04  0.7818609E-02  0.8140903E-01
        1   -1    0    0  501    0  0.00000000000E+00  0.00000000000E+00  0.93213243528E+03  0.93213243529E+03  0.50400001928E-02 0.  1.
       -1   -1    0    0    0  501  0.00000000000E+00  0.00000000000E+00 -0.30782362004E+04  0.30782362004E+04  0.50400001928E-02 0. -1.
    10030    2    1    2    0    0  0.00000000000E+00  0.00000000000E+00 -0.21461037651E+04  0.40103686357E+04  0.33878157009E+04 0.  0.
        3    1    3    3  502    0 -0.15430136486E+04  0.41065491501E+01 -0.19003449334E+04  0.24479009089E+04  0.10100000352E+00 0. -1.
       -3    1    3    3    0  502  0.15430136486E+04 -0.41065491501E+01 -0.24575883170E+03  0.15624677268E+04  0.10100000352E+00 0.  1.
</event>
<event>
 5   0  0.7899402E-07  0.3411445E+04  0.7818609E-02  0.8135103E-01
       -2   -1    0    0    0  501  0.00000000000E+00  0.00000000000E+00  0.16062529091E+04  0.16062529091E+04  0.25500000920E-02 0.  1.
        2   -1    0    0  501    0  0.00000000000E+00  0.00000000000E+00 -0.18113516670E+04  0.18113516670E+04  0.25500000920E-02 0. -1.
    10030    2    1    2    0    0  0.00000000000E+00  0.00000000000E+00 -0.20509875798E+03  0.34176045761E+04  0.34114447875E+04 0.  0.
        2    1    3    3  502    0  0.12578499811E+04  0.55687847191E+03  0.90782941885E+03  0.16481670004E+04  0.25500000920E-02 0.  1.
       -2    1    3    3    0  502 -0.12578499811E+04 -0.55687847191E+03 -0.11129281768E+04  0.17694375757E+04  0.25500000920E-02 0. -1.
</event>
<event>
 5   0  0.8489228E-07  0.3416536E+04  0.7818609E-02  0.8133860E-01
        2   -1    0    0  501    0  0.00000000000E+00  0.00000000000E+00  0.24979682639E+04  0.24979682639E+04  0.25500000920E-02 0.  1.
       -2   -1    0    0    0  501  0.00000000000E+00  0.00000000000E+00 -0.11682212218E+04  0.11682212218E+04  0.25500000920E-02 0. -1.
    10030    2    1    2    0    0  0.00000000000E+00  0.00000000000E+00  0.13297470421E+04  0.36661894857E+04  0.34165359867E+04 0.  0.
        3    1    3    3  502    0 -0.15832574640E+04  0.64016798140E+03  0.70859755934E+03  0.18489536914E+04  0.10100000352E+00 0.  1.
       -3    1    3    3    0  502  0.15832574640E+04 -0.64016798140E+03  0.62114948279E+03  0.18172357942E+04  0.10100000352E+00 0. -1.
</event>
<event>
 5   0  0.7838333E-07  0.3376564E+04  0.7818609E-02  0.8143682E-01
       -2   -1    0    0    0  501  0.00000000000E+00  0.00000000000E+00  0.21436658017E+04  0.21436658017E+04  0.25500000920E-02 0.  1.
        2   -1    0    0  501    0  0.00000000000E+00  0.00000000000E+00 -0.13296367730E+04  0.13296367730E+04  0.25500000920E-02 0. -1.
    10030    2    1    2    0    0  0.00000000000E+00  0.00000000000E+00  0.81402902871E+03  0.34733025748E+04  0.33765644547E+04 0.  0.
        1    1    3    3  502    0 -0.46495515690E+03  0.10306732873E+04 -0.88262944920E+03  0.14344007347E+04  0.50400001928E-02 0. -1.
       -1    1    3    3    0  502  0.46495515690E+03 -0.10306732873E+04  0.16966584779E+04  0.20389018401E+04  0.50400001928E-02 0.  1.
</event>
<event>
 5   0  0.7822003E-07  0.3409321E+04  0.7818609E-02  0.8135622E-01
       -2   -1    0    0    0  501  0.00000000000E+00  0.00000000000E+00  0.11166856031E+04  0.11166856031E+04  0.25500000920E-02 0. -1.
        2   -1    0    0  501    0  0.00000000000E+00  0.00000000000E+00 -0.26022252710E+04  0.26022252710E+04  0.25500000920E-02 0.  1.
    10030    2    1    2    0    0  0.00000000000E+00  0.00000000000E+00 -0.14855396679E+04  0.37189108741E+04  0.34093210446E+04 0.  0.
        5    1    3    3  502    0 -0.13768398036E+04 -0.80902713076E+03 -0.13932719177E+04  0.21193021186E+04  0.46999998093E+01 0.  1.
       -5    1    3    3    0  502  0.13768398036E+04  0.80902713076E+03 -0.92267750216E+02  0.15996087556E+04  0.46999998093E+01 0. -1.
</event>
<event>
 5   0  0.2592200E-07  0.3471904E+04  0.7818609E-02  0.8120481E-01
       -1   -1    0    0    0  501  0.00000000000E+00  0.00000000000E+00  0.23208510668E+04  0.23208510668E+04  0.50400001928E-02 0. -1.
        1   -1    0    0  501    0  0.00000000000E+00  0.00000000000E+00 -0.12984587731E+04  0.12984587731E+04  0.50400001928E-02 0.  1.
    10030    2    1    2    0    0  0.00000000000E+00  0.00000000000E+00  0.10223922937E+04  0.36193098399E+04  0.34719040475E+04 0.  0.
        4    1    3    3  502    0  0.30237767258E+03 -0.15693620194E+04 -0.19521612908E+03  0.16101056968E+04  0.12699999809E+01 0.  1.
       -4    1    3    3    0  502 -0.30237767258E+03  0.15693620194E+04  0.12176084228E+04  0.20092041432E+04  0.12699999809E+01 0. -1.
</event>
<event>
 5   0  0.2553250E-07  0.3377459E+04  0.7818609E-02  0.8143461E-01
        1   -1    0    0  501    0  0.00000000000E+00  0.00000000000E+00  0.18379234852E+04  0.18379234853E+04  0.50400001928E-02 0.  1.
       -1   -1    0    0    0  501  0.00000000000E+00  0.00000000000E+00 -0.15516463060E+04  0.15516463060E+04  0.50400001928E-02 0. -1.
    10030    2    1    2    0    0  0.00000000000E+00  0.00000000000E+00  0.28627717927E+03  0.33895697912E+04  0.33774589185E+04 0.  0.
        5    1    3    3  502    0  0.16401381171E+04  0.31773905975E+03 -0.10426911149E+03  0.16738892708E+04  0.46999998093E+01 0. -1.
       -5    1    3    3    0  502 -0.16401381171E+04 -0.31773905975E+03  0.39054629075E+03  0.17156805205E+04  0.46999998093E+01 0.  1.
</event>
<event>
 5   0  0.7610412E-07  0.3439477E+04  0.7818609E-02  0.8128285E-01
        2   -1    0    0  501    0  0.00000000000E+00  0.00000000000E+00  0.17124881249E+04  0.17124881249E+04  0.25500000920E-02 0.  1.
       -2   -1    0    0    0  501  0.00000000000E+00  0.00000000000E+00 -0.17270198234E+04  0.17270198234E+04  0.25500000920E-02 0. -1.
    10030    2    1    2    0    0  0.00000000000E+00  0.00000000000E+00 -0.14531698551E+02  0.34395079483E+04  0.34394772505E+04 0.  0.
        4    1    3    3  502    0 -0.10974860438E+04  0.36614357621E+03  0.12651301152E+04  0.17143781835E+04  0.12699999809E+01 0.  1.
       -4    1    3    3    0  502  0.10974860438E+04 -0.36614357621E+03 -0.12796618138E+04  0.17251297648E+04  0.12699999809E+01 0. -1.
</event>
<event>
 5   0  0.2592200E-07  0.3401145E+04  0.7818609E-02  0.8137625E-01
        1   -1    0    0  501    0  0.00000000000E+00  0.00000000000E+00  0.27147101841E+04  0.27147101841E+04  0.50400001928E-02 0.  1.
       -1   -1    0    0    0  501  0.00000000000E+00  0.00000000000E+00 -0.10652873711E+04  0.10652873711E+04  0.50400001928E-02 0. -1.
    10030    2    1    2    0    0  0.00000000000E+00  0.00000000000E+00  0.16494228129E+04  0.37799975552E+04  0.34011447928E+04 0.  0.
        4    1    3    3  502    0  0.60881816275E+03 -0.32896916313E+03  0.25511489508E+04  0.26433393365E+04  0.12699999809E+01 0.  1.
       -4    1    3    3    0  502 -0.60881816275E+03  0.32896916313E+03 -0.90172613788E+03  0.11366582187E+04  0.12699999809E+01 0. -1.
</event>
<event>
 5   0  0.2641442E-07  0.3326936E+04  0.7818609E-02  0.8156075E-01
        1   -1    0    0  501    0  0.00000000000E+00  0.00000000000E+00  0.96955144660E+03  0.96955144661E+03  0.50400001928E-02 0. -1.
       -1   -1    0    0    0  501  0.00000000000E+00  0.00000000000E+00 -0.28540264054E+04  0.28540264054E+04  0.50400001928E-02 0.  1.
    10030    2    1    2    0    0  0.00000000000E+00  0.00000000000E+00 -0.18844749588E+04  0.38235778520E+04  0.33269357854E+04 0.  0.
        1    1    3    3  502    0 -0.31527627263E+02 -0.11539145740E+04 -0.23187901664E+04  0.25902317794E+04  0.50400001928E-02 0.  1.
       -1    1    3    3    0  502  0.31527627263E+02  0.11539145740E+04  0.43431520759E+03  0.12333460726E+04  0.50400001928E-02 0. -1.
</event>
<event>
 5   0  0.7838333E-07  0.3386713E+04  0.7818609E-02  0.8141175E-01
        2   -1    0    0  501    0  0.00000000000E+00  0.00000000000E+00  0.25036003307E+04  0.25036003307E+04  0.25500000920E-02 0.  1.
       -2   -1    0    0    0  501  0.00000000000E+00  0.00000000000E+00 -0.11453329587E+04  0.11453329587E+04  0.25500000920E-02 0. -1.
    10030    2    1    2    0    0  0.00000000000E+00  0.00000000000E+00  0.13582673720E+04  0.36489332894E+04  0.33867128453E+04 0.  0.
        1    1    3    3  502    0  0.61426388514E+03 -0.19784107003E+03 -0.10076474691E+04  0.11965845693E+04  0.50400001928E-02 0. -1.
       -1    1    3    3    0  502 -0.61426388514E+03  0.19784107003E+03  0.23659148411E+04  0.24523487201E+04  0.50400001928E-02 0.  1.
</event>
<event>
 5   0  0.2553250E-07  0.3413430E+04  0.7818609E-02  0.8134618E-01
       -1   -1    0    0    0  501  0.00000000000E+00  0.00000000000E+00  0.21092548327E+04  0.21092548327E+04  0.50400001928E-02 0.  1.
        1   -1    0    0  501    0  0.00000000000E+00  0.00000000000E+00 -0.13809974254E+04  0.13809974254E+04  0.50400001928E-02 0. -1.
    10030    2    1    2    0    0  0.00000000000E+00  0.00000000000E+00  0.72825740731E+03  0.34902522581E+04  0.34134296498E+04 0.  0.
        5    1    3    3  502    0  0.89177664213E+03  0.35560224120E+02  0.18516283335E+04  0.20554998624E+04  0.46999998093E+01 0.  1.
       -5    1    3    3    0  502 -0.89177664213E+03 -0.35560224120E+02 -0.11233709262E+04  0.14347523957E+04  0.46999998093E+01 0. -1.
</event>
<event>
 5   0  0.7610412E-07  0.3400969E+04  0.7818609E-02  0.8137669E-01
       -2   -1    0    0    0  501  0.00000000000E+00  0.00000000000E+00  0.20737461000E+04  0.20737461000E+04  0.25500000920E-02 0. -1.
        2   -1    0    0  501    0  0.00000000000E+00  0.00000000000E+00 -0.13944073057E+04  0.13944073057E+04  0.25500000920E-02 0.  1.
    10030    2    1    2    0    0  0.00000000000E+00  0.00000000000E+00  0.67933879423E+03  0.34681534057E+04  0.34009685162E+04 0.  0.
        4    1    3    3  502    0 -0.62020586594E+03 -0.18985527483E+03 -0.12633072881E+04  0.14200870602E+04  0.12699999809E+01 0.  1.
       -4    1    3    3    0  502  0.62020586594E+03  0.18985527483E+03  0.19426460823E+04  0.20480663455E+04  0.12699999809E+01 0. -1.
</event>
<event>
 5   0  0.7838333E-07  0.3381371E+04  0.7818609E-02  0.8142494E-01
       -2   -1    0    0    0  501  0.00000000000E+00  0.00000000000E+00  0.15736981801E+04  0.15736981801E+04  0.25500000920E-02 0. -1.
        2   -1    0    0  501    0  0.00000000000E+00  0.00000000000E+00 -0.18163700148E+04  0.18163700148E+04  0.25500000920E-02 0.  1.
    10030    2    1    2    0    0  0.00000000000E+00  0.00000000000E+00 -0.24267183476E+03  0.33900681949E+04  0.33813714299E+04 0.  0.
        1    1    3    3  502    0  0.15559811978E+04 -0.44606805495E+03 -0.61081696192E+03  0.17300727033E+04  0.50400001928E-02 0. -1.
       -1    1    3    3    0  502 -0.15559811978E+04  0.44606805495E+03  0.36814512716E+03  0.16599954916E+04  0.50400001928E-02 0.  1.
</event>
<event>
 5   0  0.8489228E-07  0.3406685E+04  0.7818609E-02  0.8136268E-01
        2   -1    0    0  501    0  0.00000000000E+00  0.00000000000E+00  0.19783435667E+04  0.19783435667E+04  0.25500000920E-02 0.  1.
       -2   -1    0    0    0  501  0.00000000000E+00  0.00000000000E+00 -0.14665681235E+04  0.14665681235E+04  0.25500000920E-02 0. -1.
    10030    2    1    2    0    0  0.00000000000E+00  0.00000000000E+00  0.51177544316E+03  0.34449116902E+04  0.34066849647E+04 0.  0.
        3    1    3    3  502    0  0.60226402307E+03 -0.15785122300E+04  0.47500509498E+03  0.17550078815E+04  0.10100000352E+00 0.  1.
       -3    1    3    3    0  502 -0.60226402307E+03  0.15785122300E+04  0.36770348175E+02  0.16899038086E+04  0.10100000352E+00 0. -1.
</event>
<event>
 5   0  0.7899402E-07  0.3418120E+04  0.7818609E-02  0.8133473E-01
       -2   -1    0    0    0  501  0.00000000000E+00  0.00000000000E+00  0.19326883701E+04  0.19326883701E+04  0.25500000920E-02 0. -1.
        2   -1    0    0  501    0  0.00000000000E+00  0.00000000000E+00 -0.15113073245E+04  0.15113073245E+04  0.25500000920E-02 0.  1.
    10030    2    1    2    0    0  0.00000000000E+00  0.00000000000E+00  0.42138104558E+03  0.34439956946E+04  0.34181200036E+04 0.  0.
        2    1    3    3  502    0 -0.12091166545E+04  0.18721993818E+03 -0.99160359733E+03  0.15748943088E+04  0.25500000920E-02 0.  1.
       -2    1    3    3    0  502  0.12091166545E+04 -0.18721993818E+03  0.14129846429E+04  0.18691013859E+04  0.25500000920E-02 0. -1.
</event>
<event>
 5   0  0.7838333E-07  0.3397544E+04  0.7818609E-02  0.8138509E-01
        2   -1    0    0  501    0  0.00000000000E+00  0.00000000000E+00  0.17237106714E+04  0.17237106714E+04  0.25500000920E-02 0. -1.
       -2   -1    0    0    0  501  0.00000000000E+00  0.00000000000E+00 -0.16741944781E+04  0.16741944781E+04  0.25500000920E-02 0.  1.
    10030    2    1    2    0    0  0.00000000000E+00  0.00000000000E+00  0.49516193340E+02  0.33979051495E+04  0.33975443414E+04 0.  0.
        1    1    3    3  502    0 -0.88189521226E+03  0.45520990703E+03 -0.13541093434E+04  0.16788589395E+04  0.50400001928E-02 0.  1.
       -1    1    3    3    0  502  0.88189521226E+03 -0.45520990703E+03  0.14036255367E+04  0.17190462100E+04  0.50400001928E-02 0. -1.
</event>
<event>
 5   0  0.7822003E-07  0.3401104E+04  0.7818609E-02  0.8137635E-01
        2   -1    0    0  501    0  0.00000000000E+00  0.00000000000E+00  0.16865643389E+04  0.16865643389E+04  0.25500000920E-02 0.  1.
       -2   -1    0    0    0  501  0.00000000000E+00  0.00000000000E+00 -0.17146554365E+04  0.17146554365E+04  0.25500000920E-02 0. -1.
    10030    2    1    2    0    0  0.00000000000E+00  0.00000000000E+00 -0.28091097579E+02  0.34012197753E+04  0.34011037694E+04 0.  0.
        5    1    3    3  502    0  0.17997995376E+03 -0.65709479170E+03 -0.15722027569E+04  0.17134789020E+04  0.46999998093E+01 0. -1.
       -5    1    3    3    0  502 -0.17997995376E+03  0.65709479170E+03  0.15441116593E+04  0.16877408733E+04  0.46999998093E+01 0.  1.
</event>
<event>
 5   0  0.7899402E-07  0.3413209E+04  0.7818609E-02  0.8134672E-01
        2   -1    0    0  501    0  0.00000000000E+00  0.00000000000E+00  0.23150865391E+04  0.23150865391E+04  0.25500000920E-02 0. -1.
       -2   -1    0    0    0  501  0.00000000000E+00  0.00000000000E+00 -0.12580521190E+04  0.12580521190E+04  0.25500000920E-02 0.  1.
    10030    2    1    2    0    0  0.00000000000E+00  0.00000000000E+00  0.10570344202E+04  0.35731386581E+04  0.34132093555E+04 0.  0.
        2    1    3    3  502    0 -0.16303113883E+04 -0.47810497962E+03  0.69731744484E+03  0.18365051629E+04  0.25500000920E-02 0. -1.
       -2    1    3    3    0  502  0.16303113883E+04  0.47810497962E+03  0.35971697531E+03  0.17366334952E+04  0.25500000920E-02 0.  1.
</event>
<event>
 5   0  0.2622205E-07  0.3399321E+04  0.7818609E-02  0.8138073E-01
       -1   -1    0    0    0  501  0.00000000000E+00  0.00000000000E+00  0.14138754423E+04  0.14138754423E+04  0.50400001928E-02 0.  1.
        1   -1    0    0  501    0  0.00000000000E+00  0.00000000000E+00 -0.20432105325E+04  0.20432105325E+04  0.50400001928E-02 0. -1.
    10030    2    1    2    0    0  0.00000000000E+00  0.00000000000E+00 -0.62933509019E+03  0.34570859748E+04  0.33993206353E+04 0.  0.
        3    1    3    3  502    0 -0.61710996916E+03  0.81356978310E+02  0.12937905609E+04  0.14357359428E+04  0.10100000352E+00 0.  1.
       -3    1    3    3    0  502  0.61710996916E+03 -0.81356978310E+02 -0.19231256511E+04  0.20213500320E+04  0.10100000352E+00 0. -1.
</event>
<event>
 5   0  0.2641442E-07  0.3452245E+04  0.7818609E-02  0.8125202E-01
        1   -1    0    0  501    0  0.00000000000E+00  0.00000000000E+00  0.27663704908E+04  0.27663704908E+04  0.50400001928E-02 0.  1.
       -1   -1    0    0    0  501  0.00000000000E+00  0.00000000000E+00 -0.10770423495E+04  0.10770423495E+04  0.50400001928E-02 0. -1.
    10030    2    1    2    0    0  0.00000000000E+00  0.00000000000E+00  0.16893281413E+04  0.38434128402E+04  0.34522445874E+04 0.  0.
        1    1    3    3  502    0  0.14048420752E+04  0.79907324799E+03  0.16984960754E+03  0.16250994434E+04  0.50400001928E-02 0. -1.
       -1    1    3    3    0  502 -0.14048420752E+04 -0.79907324799E+03  0.15194785338E+04  0.22183133968E+04  0.50400001928E-02 0.  1.
</event>
<event>
 5   0  0.7899402E-07  0.3364864E+04  0.7818609E-02  0.8146584E-01
        2   -1    0    0  501    0  0.00000000000E+00  0.00000000000E+00  0.20743895761E+04  0.20743895761E+04  0.25500000920E-02 0.  1.
       -2   -1    0    0    0  501  0.00000000000E+00  0.00000000000E+00 -0.13645352655E+04  0.13645352655E+04  0.25500000920E-02 0. -1.
    10030    2    1    2    0    0  0.00000000000E+00  0.00000000000E+00  0.70985431068E+03  0.34389248416E+04  0.33648641761E+04 0.  0.
        2    1    3    3  502    0 -0.52563877515E+03 -0.40148663975E+03  0.19359373478E+04  0.20458106116E+04  0.25500000920E-02 0.  1.
       -2    1    3    3    0  502  0.52563877515E+03  0.40148663975E+03 -0.12260830371E+04  0.13931142300E+04  0.25500000920E-02 0. -1.
</event>
<event>
 5   0  0.7822003E-07  0.3024365E+04  0.7818609E-02  0.8236807E-01
       -2   -1    0    0    0  501  0.00000000000E+00  0.00000000000E+00  0.11380334615E+04  0.11380334615E+04  0.25500000920E-02 0.  1.
        2   -1    0    0  501    0  0.00000000000E+00  0.00000000000E+00 -0.20093398584E+04  0.20093398584E+04  0.25500000920E-02 0. -1.
    10030    2    1    2    0    0  0.00000000000E+00  0.00000000000E+00 -0.87130639689E+03  0.31473733200E+04  0.30243650537E+04 0.  0.
        5    1    3    3  502    0  0.40746873607E+03 -0.25757043309E+03 -0.19272314588E+04  0.19866092934E+04  0.46999998093E+01 0. -1.
       -5    1    3    3    0  502 -0.40746873607E+03  0.25757043309E+03  0.10559250619E+04  0.11607640265E+04  0.46999998093E+01 0.  1.
</event>
<event>
 5   0  0.7822003E-07  0.3406282E+04  0.7818609E-02  0.8136366E-01
       -2   -1    0    0    0  501  0.00000000000E+00  0.00000000000E+00  0.11759829623E+04  0.11759829623E+04  0.25500000920E-02 0.  1.
        2   -1    0    0  501    0  0.00000000000E+00  0.00000000000E+00 -0.24666088290E+04  0.24666088290E+04  0.25500000920E-02 0. -1.
    10030    2    1    2    0    0  0.00000000000E+00  0.00000000000E+00 -0.12906258667E+04  0.36425917913E+04  0.34062824061E+04 0.  0.
        5    1    3    3  502    0  0.13114306636E+04 -0.79358792682E+03 -0.14391286904E+04  0.21025569340E+04  0.46999998093E+01 0. -1.
       -5    1    3    3    0  502 -0.13114306636E+04  0.79358792682E+03  0.14850282367E+03  0.15400348573E+04  0.46999998093E+01 0.  1.
</event>
<event>
 5   0  0.2592200E-07  0.3385945E+04  0.7818609E-02  0.8141365E-01
       -1   -1    0    0    0  501  0.00000000000E+00  0.00000000000E+00  0.15423140634E+04  0.15423140634E+04  0.50400001928E-02 0.  1.
        1   -1    0    0  501    0  0.00000000000E+00  0.00000000000E+00 -0.18583475295E+04  0.18583475296E+04  0.50400001928E-02 0. -1.
    10030    2    1    2    0    0  0.00000000000E+00  0.00000000000E+00 -0.31603346618E+03  0.34006615929E+04  0.33859447896E+04 0.  0.
        4    1    3    3  502    0 -0.26848804697E+03 -0.14617616261E+04  0.65626053141E+03  0.16246576196E+04  0.12699999809E+01 0.  1.
       -4    1    3    3    0  502  0.26848804697E+03  0.14617616261E+04 -0.97229399759E+03  0.17760039734E+04  0.12699999809E+01 0. -1.
</event>
<event>
 5   0  0.2553250E-07  0.3384228E+04  0.7818609E-02  0.8141788E-01
        1   -1    0    0  501    0  0.00000000000E+00  0.00000000000E+00  0.23119419000E+04  0.23119419001E+04  0.50400001928E-02 0. -1.
       -1   -1    0    0    0  501  0.00000000000E+00  0.00000000000E+00 -0.12384610773E+04  0.12384610773E+04  0.50400001928E-02 0.  1.
    10030    2    1    2    0    0  0.00000000000E+00  0.00000000000E+00  0.10734808227E+04  0.35504029774E+04  0.33842281580E+04 0.  0.
        5    1    3    3  502    0 -0.11720425335E+04  0.19943381303E+03 -0.72644654272E+03  0.13932710489E+04  0.46999998093E+01 0.  1.
       -5    1    3    3    0  502  0.11720425335E+04 -0.19943381303E+03  0.17999273654E+04  0.21571319285E+04  0.46999998093E+01 0. -1.
</event>
<event>
 5   0  0.7838333E-07  0.3401281E+04  0.7818609E-02  0.8137592E-01
        2   -1    0    0  501    0  0.00000000000E+00  0.00000000000E+00  0.16869924102E+04  0.16869924102E+04  0.25500000920E-02 0.  1.
       -2   -1    0    0    0  501  0.00000000000E+00  0.00000000000E+00 -0.17143994251E+04  0.17143994251E+04  0.25500000920E-02 0. -1.
    10030    2    1    2    0    0  0.00000000000E+00  0.00000000000E+00 -0.27407014924E+02  0.34013918354E+04  0.34012814163E+04 0.  0.
        1    1    3    3  502    0 -0.13734684247E+04  0.94043932929E+03 -0.36204967269E+03  0.17035027477E+04  0.50400001928E-02 0. -1.
       -1    1    3    3    0  502  0.13734684247E+04 -0.94043932929E+03  0.33464265776E+03  0.16978890877E+04  0.50400001928E-02 0.  1.
</event>
<event>
 5   0  0.7610412E-07  0.3347928E+04  0.7818609E-02  0.8150806E-01
       -2   -1    0    0    0  501  0.00000000000E+00  0.00000000000E+00  0.16165926136E+04  0.16165926136E+04  0.25500000920E-02 0. -1.
        2   -1    0    0  501    0  0.00000000000E+00  0.00000000000E+00 -0.17333718891E+04  0.17333718891E+04  0.25500000920E-02 0.  1.
    10030    2    1    2    0    0  0.00000000000E+00  0.00000000000E+00 -0.11677927549E+03  0.33499645027E+04  0.33479284297E+04 0.  0.
        4    1    3    3  502    0  0.76303110864E+03 -0.23425642725E+02 -0.15490571562E+04  0.17269467043E+04  0.12699999809E+01 0.  1.
       -4    1    3    3    0  502 -0.76303110864E+03  0.23425642725E+02  0.14322778807E+04  0.16230177984E+04  0.12699999809E+01 0. -1.
</event>
<event>
 5   0  0.7899402E-07  0.3449736E+04  0.7818609E-02  0.8125806E-01
        2   -1    0    0  501    0  0.00000000000E+00  0.00000000000E+00  0.33978115188E+04  0.33978115188E+04  0.25500000920E-02 0. -1.
       -2   -1    0    0    0  501  0.00000000000E+00  0.00000000000E+00 -0.87561329602E+03  0.87561329602E+03  0.25500000920E-02 0.  1.
    10030    2    1    2    0    0  0.00000000000E+00  0.00000000000E+00  0.25221982227E+04  0.42734248148E+04  0.34497356091E+04 0.  0.
        2    1    3    3  502    0  0.15034823575E+03  0.63724948821E+03 -0.71568923658E+03  0.97000133278E+03  0.25500000920E-02 0.  1.
       -2    1    3    3    0  502 -0.15034823575E+03 -0.63724948821E+03  0.32378874593E+04  0.33034234820E+04  0.25500000920E-02 0. -1.
</event>
<event>
 5   0  0.7899402E-07  0.3389092E+04  0.7818609E-02  0.8140589E-01
       -2   -1    0    0    0  501  0.00000000000E+00  0.00000000000E+00  0.12332190385E+04  0.12332190385E+04  0.25500000920E-02 0.  1.
        2   -1    0    0  501    0  0.00000000000E+00  0.00000000000E+00 -0.23284478938E+04  0.23284478938E+04  0.25500000920E-02 0. -1.
    10030    2    1    2    0    0  0.00000000000E+00  0.00000000000E+00 -0.10952288553E+04  0.35616669323E+04  0.33890920747E+04 0.  0.
        2    1    3    3  502    0 -0.13986249267E+04 -0.21562915332E+03 -0.15271935121E+04  0.20820585104E+04  0.25500000920E-02 0. -1.
       -2    1    3    3    0  502  0.13986249267E+04  0.21562915332E+03  0.43196465675E+03  0.14796084219E+04  0.25500000920E-02 0.  1.
</event>
<event>
 5   0  0.2599367E-07  0.3237416E+04  0.7818609E-02  0.8179005E-01
       -1   -1    0    0    0  501  0.00000000000E+00  0.00000000000E+00  0.20145992918E+04  0.20145992918E+04  0.50400001928E-02 0. -1.
        1   -1    0    0  501    0  0.00000000000E+00  0.00000000000E+00 -0.13006140246E+04  0.13006140246E+04  0.50400001928E-02 0.  1.
    10030    2    1    2    0    0  0.00000000000E+00  0.00000000000E+00  0.71398526721E+03  0.33152133165E+04  0.32374163112E+04 0.  0.
        2    1    3    3  502    0  0.47398202128E+03  0.50998634037E+03 -0.11394489697E+04  0.13353235482E+04  0.25500000920E-02 0.  1.
       -2    1    3    3    0  502 -0.47398202128E+03 -0.50998634037E+03  0.18534342369E+04  0.19798897683E+04  0.25500000920E-02 0. -1.
</event>
<event>
 5   0  0.2622205E-07  0.3395219E+04  0.7818609E-02  0.8139081E-01
       -1   -1    0    0    0  501  0.00000000000E+00  0.00000000000E+00  0.25146079288E+04  0.25146079288E+04  0.50400001928E-02 0.  1.
        1   -1    0    0  501    0  0.00000000000E+00  0.00000000000E+00 -0.11460542783E+04  0.11460542784E+04  0.50400001928E-02 0. -1.
    10030    2    1    2    0    0  0.00000000000E+00  0.00000000000E+00  0.13685536505E+04  0.36606622072E+04  0.33952185056E+04 0.  0.
        3    1    3    3  502    0 -0.69758555141E+03  0.12978276299E+04  0.15933412409E+04  0.21701885813E+04  0.10100000352E+00 0.  1.
       -3    1    3    3    0  502  0.69758555141E+03 -0.12978276299E+04 -0.22478759044E+03  0.14904736259E+04  0.10100000352E+00 0. -1.
</event>
<event>
 5   0  0.7822003E-07  0.3384951E+04  0.7818609E-02  0.8141610E-01
        2   -1    0    0  501    0  0.00000000000E+00  0.00000000000E+00  0.20118729922E+04  0.20118729922E+04  0.25500000920E-02 0.  1.
       -2   -1    0    0    0  501  0.00000000000E+00  0.00000000000E+00 -0.14237843869E+04  0.14237843869E+04  0.25500000920E-02 0. -1.
    10030    2    1    2    0    0  0.00000000000E+00  0.00000000000E+00  0.58808860529E+03  0.34356573791E+04  0.33849510216E+04 0.  0.
        5    1    3    3  502    0 -0.14016928321E+04 -0.94808841592E+03  0.26468303956E+03  0.17128028612E+04  0.46999998093E+01 0.  1.
       -5    1    3    3    0  502  0.14016928321E+04  0.94808841592E+03  0.32340556573E+03  0.17228545179E+04  0.46999998093E+01 0. -1.
</event>
<event>
 5   0  0.7838333E-07  0.3413680E+04  0.7818609E-02  0.8134557E-01
       -2   -1    0    0    0  501  0.00000000000E+00  0.00000000000E+00  0.17282070906E+04  0.17282070906E+04  0.25500000920E-02 0.  1.
        2   -1    0    0  501    0  0.00000000000E+00  0.00000000000E+00 -0.16857367654E+04  0.16857367654E+04  0.25500000920E-02 0. -1.
    10030    2    1    2    0    0  0.00000000000E+00  0.00000000000E+00  0.42470325179E+02  0.34139438560E+04  0.34136796750E+04 0.  0.
        1    1    3    3  502    0  0.97176799141E+03 -0.12721761898E+04 -0.57087226114E+03  0.16996059619E+04  0.50400001928E-02 0. -1.
       -1    1    3    3    0  502 -0.97176799141E+03  0.12721761898E+04  0.61334258632E+03  0.17143378942E+04  0.50400001928E-02 0.  1.
</event>
<event>
 5   0  0.2592200E-07  0.3405772E+04  0.7818609E-02  0.8136491E-01
        1   -1    0    0  501    0  0.00000000000E+00  0.00000000000E+00  0.19701603275E+04  0.19701603275E+04  0.50400001928E-02 0.  1.
       -1   -1    0    0    0  501  0.00000000000E+00  0.00000000000E+00 -0.14718702683E+04  0.14718702683E+04  0.50400001928E-02 0. -1.
    10030    2    1    2    0    0  0.00000000000E+00  0.00000000000E+00  0.49829005922E+03  0.34420305958E+04  0.34057718125E+04 0.  0.
        4    1    3    3  502    0 -0.10245919164E+04 -0.13604320114E+03  0.16168905552E+04  0.19190187671E+04  0.12699999809E+01 0.  1.
       -4    1    3    3    0  502  0.10245919164E+04  0.13604320114E+03 -0.11186004960E+04  0.15230118287E+04  0.12699999809E+01 0. -1.
</event>
<event>
 5   0  0.2622205E-07  0.3406652E+04  0.7818609E-02  0.8136276E-01
       -1   -1    0    0    0  501  0.00000000000E+00  0.00000000000E+00  0.14467840051E+04  0.14467840051E+04  0.50400001928E-02 0.  1.
        1   -1    0    0  501    0  0.00000000000E+00  0.00000000000E+00 -0.20053577698E+04  0.20053577699E+04  0.50400001928E-02 0. -1.
    10030    2    1    2    0    0  0.00000000000E+00  0.00000000000E+00 -0.55857376475E+03  0.34521417750E+04  0.34066520491E+04 0.  0.
        3    1    3    3  502    0 -0.13451035815E+04  0.78085666670E+03  0.42444935093E+03  0.16122028534E+04  0.10100000352E+00 0.  1.
       -3    1    3    3    0  502  0.13451035815E+04 -0.78085666670E+03 -0.98302311568E+03  0.18399389215E+04  0.10100000352E+00 0. -1.
</event>
<event>
 5   0  0.7822003E-07  0.3410527E+04  0.7818609E-02  0.8135327E-01
        2   -1    0    0  501    0  0.00000000000E+00  0.00000000000E+00  0.22564340921E+04  0.22564340921E+04  0.25500000920E-02 0. -1.
       -2   -1    0    0    0  501  0.00000000000E+00  0.00000000000E+00 -0.12887253277E+04  0.12887253277E+04  0.25500000920E-02 0.  1.
    10030    2    1    2    0    0  0.00000000000E+00  0.00000000000E+00  0.96770876444E+03  0.35451594198E+04  0.34105270940E+04 0.  0.
        5    1    3    3  502    0  0.62800113294E+03 -0.12251636213E+04  0.15298014635E+04  0.20580879305E+04  0.46999998093E+01 0. -1.
       -5    1    3    3    0  502 -0.62800113294E+03  0.12251636213E+04 -0.56209269906E+03  0.14870714893E+04  0.46999998093E+01 0.  1.
</event>
<event>
 5   0  0.7822003E-07  0.3522130E+04  0.7818609E-02  0.8108565E-01
        2   -1    0    0  501    0  0.00000000000E+00  0.00000000000E+00  0.10978479610E+04  0.10978479610E+04  0.25500000920E-02 0. -1.
       -2   -1    0    0    0  501  0.00000000000E+00  0.00000000000E+00 -0.28249355498E+04  0.28249355498E+04  0.25500000920E-02 0.  1.
    10030    2    1    2    0    0  0.00000000000E+00  0.00000000000E+00 -0.17270875888E+04  0.39227835108E+04  0.35221298860E+04 0.  0.
        5    1    3    3  502    0 -0.15572144022E+04  0.50758030961E+03 -0.15842834246E+04  0.22787124708E+04  0.46999998093E+01 0.  1.
       -5    1    3    3    0  502  0.15572144022E+04 -0.50758030961E+03 -0.14280416418E+03  0.16440710400E+04  0.46999998093E+01 0. -1.
</event>
<event>
 5   0  0.7899402E-07  0.3414021E+04  0.7818609E-02  0.8134474E-01
       -2   -1    0    0    0  501  0.00000000000E+00  0.00000000000E+00  0.13644087287E+04  0.13644087288E+04  0.25500000920E-02 0.  1.
        2   -1    0    0  501    0  0.00000000000E+00  0.00000000000E+00 -0.21356389039E+04  0.21356389039E+04  0.25500000920E-02 0. -1.
    10030    2    1    2    0    0  0.00000000000E+00  0.00000000000E+00 -0.77123017511E+03  0.35000476326E+04  0.34140207157E+04 0.  0.
        2    1    3    3  502    0 -0.12647555126E+04  0.82329207327E+03  0.43227716668E+03  0.15698025014E+04  0.25500000920E-02 0.  1.
       -2    1    3    3    0  502  0.12647555126E+04 -0.82329207327E+03 -0.12035073418E+04  0.19302451312E+04  0.25500000920E-02 0. -1.
</event>
<event>
 5   0  0.7610412E-07  0.3400082E+04  0.7818609E-02  0.8137886E-01
        2   -1    0    0  501    0  0.00000000000E+00  0.00000000000E+00  0.23148635325E+04  0.23148635325E+04  0.25500000920E-02 0. -1.
       -2   -1    0    0    0  501  0.00000000000E+00  0.00000000000E+00 -0.12485137844E+04  0.12485137844E+04  0.25500000920E-02 0.  1.
    10030    2    1    2    0    0  0.00000000000E+00  0.00000000000E+00  0.10663497482E+04  0.35633773169E+04  0.34000817810E+04 0.  0.
        4    1    3    3  502    0 -0.71485700741E+03  0.14618399581E+04  0.17463814131E+02  0.16273608088E+04  0.12699999809E+01 0. -1.
       -4    1    3    3    0  502  0.71485700741E+03 -0.14618399581E+04  0.10488859340E+04  0.19360165081E+04  0.12699999809E+01 0.  1.
</event>
<event>
 5   0  0.2641442E-07  0.3382040E+04  0.7818609E-02  0.8142328E-01
        1   -1    0    0  501    0  0.00000000000E+00  0.00000000000E+00  0.31585158280E+04  0.31585158280E+04  0.50400001928E-02 0. -1.
       -1   -1    0    0    0  501  0.00000000000E+00  0.00000000000E+00 -0.90534580804E+03  0.90534580805E+03  0.50400001928E-02 0.  1.
    10030    2    1    2    0    0  0.00000000000E+00  0.00000000000E+00  0.22531700200E+04  0.40638616361E+04  0.33820402508E+04 0.  0.
        1    1    3    3  502    0 -0.14546345040E+03  0.78921426685E+03 -0.66195634703E+03  0.10402908150E+04  0.50400001928E-02 0.  1.
       -1    1    3    3    0  502  0.14546345040E+03 -0.78921426685E+03  0.29151263670E+04  0.30235708210E+04  0.50400001928E-02 0. -1.
</event>
<event>
 5   0  0.2641442E-07  0.3417918E+04  0.7818609E-02  0.8133523E-01
        1   -1    0    0  501    0  0.00000000000E+00  0.00000000000E+00  0.24129624147E+04  0.24129624147E+04  0.50400001928E-02 0.  1.
       -1   -1    0    0    0  501  0.00000000000E+00  0.00000000000E+00 -0.12103546607E+04  0.12103546607E+04  0.50400001928E-02 0. -1.
    10030    2    1    2    0    0  0.00000000000E+00  0.00000000000E+00  0.12026077540E+04  0.36233170754E+04  0.34179176729E+04 0.  0.
        1    1    3    3  502    0  0.12320524365E+03  0.56539974943E+03  0.23059430259E+04  0.23774418284E+04  0.50400001928E-02 0.  1.
       -1    1    3    3    0  502 -0.12320524365E+03 -0.56539974943E+03 -0.11033352719E+04  0.12458752470E+04  0.50400001928E-02 0. -1.
</event>
<event>
 5   0  0.2553250E-07  0.3361772E+04  0.7818609E-02  0.8147353E-01
       -1   -1    0    0    0  501  0.00000000000E+00  0.00000000000E+00  0.17711086415E+04  0.17711086415E+04  0.50400001928E-02 0.  1.
        1   -1    0    0  501    0  0.00000000000E+00  0.00000000000E+00 -0.15952596820E+04  0.15952596820E+04  0.50400001928E-02 0. -1.
    10030    2    1    2    0    0  0.00000000000E+00  0.00000000000E+00  0.17584895945E+03  0.33663683235E+04  0.33617722756E+04 0.  0.
        5    1    3    3  502    0  0.28626437624E+03  0.16551887148E+04  0.14932015662E+03  0.16863912873E+04  0.46999998093E+01 0. -1.
       -5    1    3    3    0  502 -0.28626437624E+03 -0.16551887148E+04  0.26528802824E+02  0.16799770362E+04  0.46999998093E+01 0.  1.
</event>
<event>
 5   0  0.7838333E-07  0.3396266E+04  0.7818609E-02  0.8138823E-01
       -2   -1    0    0    0  501  0.00000000000E+00  0.00000000000E+00  0.13915786437E+04  0.13915786437E+04  0.25500000920E-02 0. -1.
        2   -1    0    0  501    0  0.00000000000E+00  0.00000000000E+00 -0.20722188802E+04  0.20722188802E+04  0.25500000920E-02 0.  1.
    10030    2    1    2    0    0  0.00000000000E+00  0.00000000000E+00 -0.68064023652E+03  0.34637975240E+04  0.33962659135E+04 0.  0.
        1    1    3    3  502    0 -0.75375926032E+03  0.11478754563E+04  0.67848458060E+03  0.15317024554E+04  0.50400001928E-02 0. -1.
       -1    1    3    3    0  502  0.75375926032E+03 -0.11478754563E+04 -0.13591248171E+04  0.19320950686E+04  0.50400001928E-02 0.  1.
</event>
<event>
 5   0  0.7610412E-07  0.3392254E+04  0.7818609E-02  0.8139810E-01
        2   -1    0    0  501    0  0.00000000000E+00  0.00000000000E+00  0.15666512437E+04  0.15666512437E+04  0.25500000920E-02 0.  1.
       -2   -1    0    0    0  501  0.00000000000E+00  0.00000000000E+00 -0.18363036171E+04  0.18363036171E+04  0.25500000920E-02 0. -1.
    10030    2    1    2    0    0  0.00000000000E+00  0.00000000000E+00 -0.26965237337E+03  0.34029548608E+04  0.33922543216E+04 0.  0.
        4    1    3    3  502    0  0.95516375424E+03  0.38939342735E+03 -0.14855059590E+04  0.18085061808E+04  0.12699999809E+01 0. -1.
       -4    1    3    3    0  502 -0.95516375424E+03 -0.38939342735E+03  0.12158535857E+04  0.15944486801E+04  0.12699999809E+01 0.  1.
</event>
<event>
 5   0  0.2592200E-07  0.3419980E+04  0.7818609E-02  0.8133020E-01
       -1   -1    0    0    0  501  0.00000000000E+00  0.00000000000E+00  0.13187835429E+04  0.13187835429E+04  0.50400001928E-02 0. -1.
        1   -1    0    0  501    0  0.00000000000E+00  0.00000000000E+00 -0.22172451886E+04  0.22172451886E+04  0.50400001928E-02 0.  1.
    10030    2    1    2    0    0  0.00000000000E+00  0.00000000000E+00 -0.89846164574E+03  0.35360287315E+04  0.34199803890E+04 0.  0.
        4    1    3    3  502    0 -0.12392424863E+04 -0.62761164935E+02 -0.16657629543E+04  0.20771202989E+04  0.12699999809E+01 0.  1.
       -4    1    3    3    0  502  0.12392424863E+04  0.62761164935E+02  0.76730130853E+03  0.14589084325E+04  0.12699999809E+01 0. -1.
</event>
<event>
 5   0  0.2553250E-07  0.3426216E+04  0.7818609E-02  0.8131502E-01
        1   -1    0    0  501    0  0.00000000000E+00  0.00000000000E+00  0.11848743306E+04  0.11848743306E+04  0.50400001928E-02 0.  1.
       -1   -1    0    0    0  501  0.00000000000E+00  0.00000000000E+00 -0.24768353791E+04  0.24768353791E+04  0.50400001928E-02 0. -1.
    10030    2    1    2    0    0  0.00000000000E+00  0.00000000000E+00 -0.12919610485E+04  0.36617097097E+04  0.34262157912E+04 0.  0.
        5    1    3    3  502    0 -0.52820751392E+03 -0.12567940220E+04  0.46271449790E+03  0.14396739867E+04  0.46999998093E+01 0.  1.
       -5    1    3    3    0  502  0.52820751392E+03  0.12567940220E+04 -0.17546755464E+04  0.22220357230E+04  0.46999998093E+01 0. -1.
</event>
<event>
 5   0  0.7838333E-07  0.3381017E+04  0.7818609E-02  0.8142581E-01
       -2   -1    0    0    0  501  0.00000000000E+00  0.00000000000E+00  0.11238849595E+04  0.11238849595E+04  0.25500000920E-02 0.  1.
        2   -1    0    0  501    0  0.00000000000E+00  0.00000000000E+00 -0.25428033502E+04  0.25428033502E+04  0.25500000920E-02 0. -1.
    10030    2    1    2    0    0  0.00000000000E+00  0.00000000000E+00 -0.14189183907E+04  0.36666883097E+04  0.33810166756E+04 0.  0.
        1    1    3    3  502    0  0.36711624383E+03  0.16420941489E+04 -0.88623787872E+03  0.19017531669E+04  0.50400001928E-02 0. -1.
       -1    1    3    3    0  502 -0.36711624383E+03 -0.16420941489E+04 -0.53268051199E+03  0.17649351428E+04  0.50400001928E-02 0.  1.
</event>
<event>
 5   0  0.2622205E-07  0.3414405E+04  0.7818609E-02  0.8134380E-01
        1   -1    0    0  501    0  0.00000000000E+00  0.00000000000E+00  0.21723285402E+04  0.21723285402E+04  0.50400001928E-02 0.  1.
       -1   -1    0    0    0  501  0.00000000000E+00  0.00000000000E+00 -0.13416664603E+04  0.13416664604E+04  0.50400001928E-02 0. -1.
    10030    2    1    2    0    0  0.00000000000E+00  0.00000000000E+00  0.83066207986E+03  0.35139950006E+04  0.34144049808E+04 0.  0.
        3    1    3    3  502    0 -0.89753310709E+01 -0.69434880407E+03 -0.11897545864E+04  0.13775764241E+04  0.10100000352E+00 0. -1.
       -3    1    3    3    0  502  0.89753310709E+01  0.69434880407E+03  0.20204166663E+04  0.21364185764E+04  0.10100000352E+00 0.  1.
</event>
<event>
 5   0  0.7899402E-07  0.3381300E+04  0.7818609E-02  0.8142511E-01
        2   -1    0    0  501    0  0.00000000000E+00  0.00000000000E+00  0.32251985727E+04  0.32251985727E+04  0.25500000920E-02 0. -1.
       -2   -1    0    0    0  501  0.00000000000E+00  0.00000000000E+00 -0.88623898579E+03  0.88623898579E+03  0.25500000920E-02 0.  1.
    10030    2    1    2    0    0  0.00000000000E+00  0.00000000000E+00  0.23389595869E+04  0.41114375585E+04  0.33812995798E+04 0.  0.
        2    1    3    3  502    0  0.29093005486E+03  0.16524018950E+04  0.14222782966E+04  0.21995335579E+04  0.25500000920E-02 0.  1.
       -2    1    3    3    0  502 -0.29093005486E+03 -0.16524018950E+04  0.91668129035E+03  0.19119040006E+04  0.25500000920E-02 0. -1.
</event>
<event>
 5   0  0.7899402E-07  0.3401272E+04  0.7818609E-02  0.8137594E-01
        2   -1    0    0  501    0  0.00000000000E+00  0.00000000000E+00  0.29088182996E+04  0.29088182996E+04  0.25500000920E-02 0. -1.
       -2   -1    0    0    0  501  0.00000000000E+00  0.00000000000E+00 -0.99427391470E+03  0.99427391471E+03  0.25500000920E-02 0.  1.
    10030    2    1    2    0    0  0.00000000000E+00  0.00000000000E+00  0.19145443849E+04  0.39030922143E+04  0.34012716198E+04 0.  0.
        2    1    3    3  502    0  0.38975080629E+02 -0.14749625536E+04 -0.13147408455E+02  0.14755359860E+04  0.25500000920E-02 0.  1.
       -2    1    3    3    0  502 -0.38975080629E+02  0.14749625536E+04  0.19276917934E+04  0.24275562284E+04  0.25500000920E-02 0. -1.
</event>
<event>
 5   0  0.7610412E-07  0.3385097E+04  0.7818609E-02  0.8141574E-01
        2   -1    0    0  501    0  0.00000000000E+00  0.00000000000E+00  0.23583820224E+04  0.23583820224E+04  0.25500000920E-02 0. -1.
       -2   -1    0    0    0  501  0.00000000000E+00  0.00000000000E+00 -0.12146973784E+04  0.12146973784E+04  0.25500000920E-02 0.  1.
    10030    2    1    2    0    0  0.00000000000E+00  0.00000000000E+00  0.11436846440E+04  0.35730794008E+04  0.33850970207E+04 0.  0.
        4    1    3    3  502    0  0.11092417517E+04  0.12304020788E+04  0.20556756689E+03  0.16693011043E+04  0.12699999809E+01 0.  1.
       -4    1    3    3    0  502 -0.11092417517E+04 -0.12304020788E+04  0.93811707713E+03  0.19037782966E+04  0.12699999809E+01 0. -1.
</event>
<event>
 5   0  0.8489228E-07  0.3414230E+04  0.7818609E-02  0.8134423E-01
        2   -1    0    0  501    0  0.00000000000E+00  0.00000000000E+00  0.29960602655E+04  0.29960602655E+04  0.25500000920E-02 0. -1.
       -2   -1    0    0    0  501  0.00000000000E+00  0.00000000000E+00 -0.97269147513E+03  0.97269147514E+03  0.25500000920E-02 0.  1.
    10030    2    1    2    0    0  0.00000000000E+00  0.00000000000E+00  0.20233687904E+04  0.39687517406E+04  0.34142303843E+04 0.  0.
        3    1    3    3  502    0 -0.89777422867E+03 -0.13925537170E+04  0.14896020657E+04  0.22280302388E+04  0.10100000352E+00 0.  1.
       -3    1    3    3    0  502  0.89777422867E+03  0.13925537170E+04  0.53376672461E+03  0.17407215018E+04  0.10100000352E+00 0. -1.
</event>
<event>
 5   0  0.7838333E-07  0.3390791E+04  0.7818609E-02  0.8140170E-01
       -2   -1    0    0    0  501  0.00000000000E+00  0.00000000000E+00  0.14349219743E+04  0.14349219743E+04  0.25500000920E-02 0. -1.
        2   -1    0    0  501    0  0.00000000000E+00  0.00000000000E+00 -0.20031513018E+04  0.20031513018E+04  0.25500000920E-02 0.  1.
    10030    2    1    2    0    0  0.00000000000E+00  0.00000000000E+00 -0.56822932746E+03  0.34380732761E+04  0.33907909525E+04 0.  0.
        1    1    3    3  502    0 -0.11258654367E+04 -0.10874263796E+04  0.37634902252E+03  0.16098781629E+04  0.50400001928E-02 0. -1.
       -1    1    3    3    0  502  0.11258654367E+04  0.10874263796E+04 -0.94457834998E+03  0.18281951132E+04  0.50400001928E-02 0.  1.
</event>
<event>
 5   0  0.7822003E-07  0.3420644E+04  0.7818609E-02  0.8132858E-01
        2   -1    0    0  501    0  0.00000000000E+00  0.00000000000E+00  0.24320009830E+04  0.24320009830E+04  0.25500000920E-02 0. -1.
       -2   -1    0    0    0  501  0.00000000000E+00  0.00000000000E+00 -0.12027961276E+04  0.12027961276E+04  0.25500000920E-02 0.  1.
    10030    2    1    2    0    0  0.00000000000E+00  0.00000000000E+00  0.12292048554E+04  0.36347971106E+04  0.34206440122E+04 0.  0.
        5    1    3    3  502    0  0.33244933159E+03  0.10966966952E+04 -0.73449434659E+03  0.13611650284E+04  0.46999998093E+01 0.  1.
       -5    1    3    3    0  502 -0.33244933159E+03 -0.10966966952E+04  0.19636992020E+04  0.22736320822E+04  0.46999998093E+01 0. -1.
</event>
<event>
 5   0  0.2592200E-07  0.3405283E+04  0.7818609E-02  0.8136611E-01
        1   -1    0    0  501    0  0.00000000000E+00  0.00000000000E+00  0.19137307586E+04  0.19137307587E+04  0.50400001928E-02 0. -1.
       -1   -1    0    0    0  501  0.00000000000E+00  0.00000000000E+00 -0.15148356997E+04  0.15148356997E+04  0.50400001928E-02 0.  1.
    10030    2    1    2    0    0  0.00000000000E+00  0.00000000000E+00  0.39889505891E+03  0.34285664584E+04  0.34052827624E+04 0.  0.
        4    1    3    3  502    0  0.59437331385E+03 -0.14354399739E+04  0.90078665878E+03  0.17958802222E+04  0.12699999809E+01 0. -1.
       -4    1    3    3    0  502 -0.59437331385E+03  0.14354399739E+04 -0.50189159987E+03  0.16326862362E+04  0.12699999809E+01 0.  1.
</event>
<event>
 5   0  0.2553250E-07  0.3361788E+04  0.7818609E-02  0.8147349E-01
        1   -1    0    0  501    0  0.00000000000E+00  0.00000000000E+00  0.26375707613E+04  0.26375707613E+04  0.50400001928E-02 0.  1.
       -1   -1    0    0    0  501  0.00000000000E+00  0.00000000000E+00 -0.10712144841E+04  0.10712144842E+04  0.50400001928E-02 0. -1.
    10030    2    1    2    0    0  0.00000000000E+00  0.00000000000E+00  0.15663562772E+04  0.37087852455E+04  0.33617876212E+04 0.  0.
        5    1    3    3  502    0 -0.72810173819E+03  0.63539799032E+03 -0.73410553902E+03  0.12135879777E+04  0.46999998093E+01 0. -1.
       -5    1    3    3    0  502  0.72810173819E+03 -0.63539799032E+03  0.23004618162E+04  0.24951972678E+04  0.46999998093E+01 0.  1.
</event>
<event>
 5   0  0.7610412E-07  0.3391398E+04  0.7818609E-02  0.8140021E-01
        2   -1    0    0  501    0  0.00000000000E+00  0.00000000000E+00  0.18207119076E+04  0.18207119076E+04  0.25500000920E-02 0. -1.
       -2   -1    0    0    0  501  0.00000000000E+00  0.00000000000E+00 -0.15792697471E+04  0.15792697471E+04  0.25500000920E-02 0.  1.
    10030    2    1    2    0    0  0.00000000000E+00  0.00000000000E+00  0.24144216055E+03  0.33999816547E+04  0.33913980797E+04 0.  0.
        4    1    3    3  502    0  0.61098865069E+03  0.10722336484E+04 -0.10451502548E+04  0.16171990588E+04  0.12699999809E+01 0.  1.
       -4    1    3    3    0  502 -0.61098865069E+03 -0.10722336484E+04  0.12865924153E+04  0.17827825958E+04  0.12699999809E+01 0. -1.
</event>
<event>
 5   0  0.7899402E-07  0.3397211E+04  0.7818609E-02  0.8138591E-01
       -2   -1    0    0    0  501  0.00000000000E+00  0.00000000000E+00  0.10088932477E+04  0.10088932477E+04  0.25500000920E-02 0. -1.
        2   -1    0    0  501    0  0.00000000000E+00  0.00000000000E+00 -0.28598268664E+04  0.28598268664E+04  0.25500000920E-02 0.  1.
    10030    2    1    2    0    0  0.00000000000E+00  0.00000000000E+00 -0.18509336187E+04  0.38687201141E+04  0.33972106293E+04 0.  0.
        2    1    3    3  502    0  0.15570273063E+04 -0.12014325904E+03 -0.16452495255E+03  0.15702983459E+04  0.25500000920E-02 0. -1.
       -2    1    3    3    0  502 -0.15570273063E+04  0.12014325904E+03 -0.16864086661E+04  0.22984217682E+04  0.25500000920E-02 0.  1.
</event>
<event>
 5   0  0.2553250E-07  0.3393002E+04  0.7818609E-02  0.8139626E-01
       -1   -1    0    0    0  501  0.00000000000E+00  0.00000000000E+00  0.14436125469E+04  0.14436125469E+04  0.50400001928E-02 0. -1.
        1   -1    0    0  501    0  0.00000000000E+00  0.00000000000E+00 -0.19936898440E+04  0.19936898440E+04  0.50400001928E-02 0.  1.
    10030    2    1    2    0    0  0.00000000000E+00  0.00000000000E+00 -0.55007729713E+03  0.34373023910E+04  0.33930020180E+04 0.  0.
        5    1    3    3  502    0 -0.10777734110E+04 -0.13006206385E+04 -0.43484492351E+03  0.17442252631E+04  0.46999998093E+01 0.  1.
       -5    1    3    3    0  502  0.10777734110E+04  0.13006206385E+04 -0.11523237362E+03  0.16930771279E+04  0.46999998093E+01 0. -1.
</event>
<event>
 5   0  0.2592200E-07  0.3403068E+04  0.7818609E-02  0.8137154E-01
       -1   -1    0    0    0  501  0.00000000000E+00  0.00000000000E+00  0.16571225759E+04  0.16571225759E+04  0.50400001928E-02 0.  1.
        1   -1    0    0  501    0  0.00000000000E+00  0.00000000000E+00 -0.17471356490E+04  0.17471356490E+04  0.50400001928E-02 0. -1.
    10030    2    1    2    0    0  0.00000000000E+00  0.00000000000E+00 -0.90013073096E+02  0.34042582249E+04  0.34030679847E+04 0.  0.
        4    1    3    3  502    0  0.11103914618E+04  0.96415063693E+03  0.81124883319E+03  0.16794885922E+04  0.12699999809E+01 0.  1.
       -4    1    3    3    0  502 -0.11103914618E+04 -0.96415063693E+03 -0.90126190629E+03  0.17247696327E+04  0.12699999809E+01 0. -1.
</event>
<event>
 5   0  0.7822003E-07  0.3419998E+04  0.7818609E-02  0.8133015E-01
       -2   -1    0    0    0  501  0.00000000000E+00  0.00000000000E+00  0.17520713620E+04  0.17520713620E+04  0.25500000920E-02 0. -1.
        2   -1    0    0  501    0  0.00000000000E+00  0.00000000000E+00 -0.16689373885E+04  0.16689373885E+04  0.25500000920E-02 0.  1.
    10030    2    1    2    0    0  0.00000000000E+00  0.00000000000E+00  0.83133973542E+02  0.34210087505E+04  0.34199984815E+04 0.  0.
        5    1    3    3  502    0  0.11444902409E+04  0.12569451073E+04  0.22684156778E+03  0.17150067350E+04  0.46999998093E+01 0.  1.
       -5    1    3    3    0  502 -0.11444902409E+04 -0.12569451073E+04 -0.14370759424E+03  0.17060020155E+04  0.46999998093E+01 0. -1.
</event>
<event>
 5   0  0.2599367E-07  0.3399594E+04  0.7818609E-02  0.8138006E-01
       -1   -1    0    0    0  501  0.00000000000E+00  0.00000000000E+00  0.15024508376E+04  0.15024508376E+04  0.50400001928E-02 0.  1.
        1   -1    0    0  501    0  0.00000000000E+00  0.00000000000E+00 -0.19230642748E+04  0.19230642748E+04  0.50400001928E-02 0. -1.
    10030    2    1    2    0    0  0.00000000000E+00  0.00000000000E+00 -0.42061343716E+03  0.34255151125E+04  0.33995938172E+04 0.  0.
        2    1    3    3  502    0  0.16282761315E+04 -0.48368182756E+02  0.27887088925E+03  0.16526922323E+04  0.25500000920E-02 0.  1.
       -2    1    3    3    0  502 -0.16282761315E+04  0.48368182756E+02 -0.69948432641E+03  0.17728228802E+04  0.25500000920E-02 0. -1.
</event>
<event>
 5   0  0.2622205E-07  0.3385637E+04  0.7818609E-02  0.8141441E-01
        1   -1    0    0  501    0  0.00000000000E+00  0.00000000000E+00  0.13940785837E+04  0.13940785837E+04  0.50400001928E-02 0. -1.
       -1   -1    0    0    0  501  0.00000000000E+00  0.00000000000E+00 -0.20555756986E+04  0.20555756986E+04  0.50400001928E-02 0.  1.
    10030    2    1    2    0    0  0.00000000000E+00  0.00000000000E+00 -0.66149711488E+03  0.34496542823E+04  0.33856367547E+04 0.  0.
        3    1    3    3  502    0  0.75281301276E+03  0.47079647690E+02 -0.18748876346E+04  0.20209274054E+04  0.10100000352E+00 0.  1.
       -3    1    3    3    0  502 -0.75281301276E+03 -0.47079647690E+02  0.12133905197E+04  0.14287268769E+04  0.10100000352E+00 0. -1.
</event>
<event>
 5   0  0.2641442E-07  0.3381591E+04  0.7818609E-02  0.8142439E-01
        1   -1    0    0  501    0  0.00000000000E+00  0.00000000000E+00  0.17425883708E+04  0.17425883708E+04  0.50400001928E-02 0. -1.
       -1   -1    0    0    0  501  0.00000000000E+00  0.00000000000E+00 -0.16405418356E+04  0.16405418356E+04  0.50400001928E-02 0.  1.
    10030    2    1    2    0    0  0.00000000000E+00  0.00000000000E+00  0.10204653527E+03  0.33831302064E+04  0.33815908236E+04 0.  0.
        1    1    3    3  502    0 -0.43247534596E+03 -0.12581360126E+04  0.10949770691E+04  0.17230542455E+04  0.50400001928E-02 0. -1.
       -1    1    3    3    0  502  0.43247534596E+03  0.12581360126E+04 -0.99293053382E+03  0.16600759609E+04  0.50400001928E-02 0.  1.
</event>
<event>
 5   0  0.7838333E-07  0.3410695E+04  0.7818609E-02  0.8135286E-01
        2   -1    0    0  501    0  0.00000000000E+00  0.00000000000E+00  0.21887475443E+04  0.21887475443E+04  0.25500000920E-02 0.  1.
       -2   -1    0    0    0  501  0.00000000000E+00  0.00000000000E+00 -0.13287096633E+04  0.13287096633E+04  0.25500000920E-02 0. -1.
    10030    2    1    2    0    0  0.00000000000E+00  0.00000000000E+00  0.86003788098E+03  0.35174572077E+04  0.34106949513E+04 0.  0.
        1    1    3    3  502    0 -0.11273010265E+04 -0.93428977015E+02 -0.88612367263E+03  0.14369244035E+04  0.50400001928E-02 0. -1.
       -1    1    3    3    0  502  0.11273010265E+04  0.93428977015E+02  0.17461615536E+04  0.20805328042E+04  0.50400001928E-02 0.  1.
</event>
<event>
 5   0  0.8489228E-07  0.3423954E+04  0.7818609E-02  0.8132052E-01
       -2   -1    0    0    0  501  0.00000000000E+00  0.00000000000E+00  0.13167761311E+04  0.13167761312E+04  0.25500000920E-02 0. -1.
        2   -1    0    0  501    0  0.00000000000E+00  0.00000000000E+00 -0.22257880181E+04  0.22257880181E+04  0.25500000920E-02 0.  1.
    10030    2    1    2    0    0  0.00000000000E+00  0.00000000000E+00 -0.90901188693E+03  0.35425641492E+04  0.34239535833E+04 0.  0.
        3    1    3    3  502    0  0.64254082334E+03 -0.58032563542E+03  0.10735539742E+04  0.13791862450E+04  0.10100000352E+00 0. -1.
       -3    1    3    3    0  502 -0.64254082334E+03  0.58032563542E+03 -0.19825658611E+04  0.21633779042E+04  0.10100000352E+00 0.  1.
</event>
<event>
 5   0  0.7822003E-07  0.3253665E+04  0.7818609E-02  0.8174787E-01
       -2   -1    0    0    0  501  0.00000000000E+00  0.00000000000E+00  0.14077848998E+04  0.14077848998E+04  0.25500000920E-02 0.  1.
        2   -1    0    0  501    0  0.00000000000E+00  0.00000000000E+00 -0.18799629579E+04  0.18799629579E+04  0.25500000920E-02 0. -1.
    10030    2    1    2    0    0  0.00000000000E+00  0.00000000000E+00 -0.47217805806E+03  0.32877478577E+04  0.32536646811E+04 0.  0.
        5    1    3    3  502    0  0.10818845392E+04  0.77750572332E+03 -0.11794488222E+04  0.17793568839E+04  0.46999998093E+01 0. -1.
       -5    1    3    3    0  502 -0.10818845392E+04 -0.77750572332E+03  0.70727076418E+03  0.15083909738E+04  0.46999998093E+01 0.  1.
</event>
<event>
 5   0  0.7610412E-07  0.3381159E+04  0.7818609E-02  0.8142546E-01
        2   -1    0    0  501    0  0.00000000000E+00  0.00000000000E+00  0.22874343386E+04  0.22874343386E+04  0.25500000920E-02 0. -1.
       -2   -1    0    0    0  501  0.00000000000E+00  0.00000000000E+00 -0.12494605563E+04  0.12494605563E+04  0.25500000920E-02 0.  1.
    10030    2    1    2    0    0  0.00000000000E+00  0.00000000000E+00  0.10379737823E+04  0.35368948949E+04  0.33811589618E+04 0.  0.
        4    1    3    3  502    0 -0.17219077427E+03 -0.12999064512E+04  0.16352122029E+04  0.20960264802E+04  0.12699999809E+01 0. -1.
       -4    1    3    3    0  502  0.17219077427E+03  0.12999064512E+04 -0.59723842055E+03  0.14408684147E+04  0.12699999809E+01 0.  1.
</event>
<event>
 5   0  0.7838333E-07  0.3385248E+04  0.7818609E-02  0.8141536E-01
        2   -1    0    0  501    0  0.00000000000E+00  0.00000000000E+00  0.15552871623E+04  0.15552871623E+04  0.25500000920E-02 0.  1.
       -2   -1    0    0    0  501  0.00000000000E+00  0.00000000000E+00 -0.18420882382E+04  0.18420882382E+04  0.25500000920E-02 0. -1.
    10030    2    1    2    0    0  0.00000000000E+00  0.00000000000E+00 -0.28680107588E+03  0.33973754006E+04  0.33852481084E+04 0.  0.
        1    1    3    3  502    0 -0.13284890338E+04  0.49748440611E+03  0.78327200301E+03  0.16204594651E+04  0.50400001928E-02 0. -1.
       -1    1    3    3    0  502  0.13284890338E+04 -0.49748440611E+03 -0.10700730789E+04  0.17769159354E+04  0.50400001928E-02 0.  1.
</event>
<event>
 5   0  0.2599367E-07  0.3366472E+04  0.7818609E-02  0.8146185E-01
        1   -1    0    0  501    0  0.00000000000E+00  0.00000000000E+00  0.29459267604E+04  0.29459267604E+04  0.50400001928E-02 0.  1.
       -1   -1    0    0    0  501  0.00000000000E+00  0.00000000000E+00 -0.96176283852E+03  0.96176283853E+03  0.50400001928E-02 0. -1.
    10030    2    1    2    0    0  0.00000000000E+00  0.00000000000E+00  0.19841639218E+04  0.39076895989E+04  0.33664716741E+04 0.  0.
        2    1    3    3  502    0 -0.14723820914E+04 -0.78517996942E+03  0.12486778617E+04  0.20841336353E+04  0.25500000920E-02 0.  1.
       -2    1    3    3    0  502  0.14723820914E+04  0.78517996942E+03  0.73548606011E+03  0.18235559635E+04  0.25500000920E-02 0. -1.
</event>
<event>
 5   0  0.2622205E-07  0.3393010E+04  0.7818609E-02  0.8139624E-01
        1   -1    0    0  501    0  0.00000000000E+00  0.00000000000E+00  0.11483206650E+04  0.11483206650E+04  0.50400001928E-02 0. -1.
       -1   -1    0    0    0  501  0.00000000000E+00  0.00000000000E+00 -0.25063810578E+04  0.25063810578E+04  0.50400001928E-02 0.  1.
    10030    2    1    2    0    0  0.00000000000E+00  0.00000000000E+00 -0.13580603928E+04  0.36547017228E+04  0.33930099693E+04 0.  0.
        3    1    3    3  502    0 -0.15253882404E+03  0.31648382960E+03  0.11087078446E+04  0.11630404989E+04  0.10100000352E+00 0. -1.
       -3    1    3    3    0  502  0.15253882404E+03 -0.31648382960E+03 -0.24667682374E+04  0.24916612239E+04  0.10100000352E+00 0.  1.
</event>
<event>
 5   0  0.8489228E-07  0.3337038E+04  0.7818609E-02  0.8153534E-01
        2   -1    0    0  501    0  0.00000000000E+00  0.00000000000E+00  0.24168939343E+04  0.24168939343E+04  0.25500000920E-02 0. -1.
       -2   -1    0    0    0  501  0.00000000000E+00  0.00000000000E+00 -0.11518735903E+04  0.11518735903E+04  0.25500000920E-02 0.  1.
    10030    2    1    2    0    0  0.00000000000E+00  0.00000000000E+00  0.12650203440E+04  0.35687675245E+04  0.33370383835E+04 0.  0.
        3    1    3    3  502    0 -0.80993044509E+03 -0.59061416208E+03 -0.79395965666E+03  0.12787432741E+04  0.10100000352E+00 0.  1.
       -3    1    3    3    0  502  0.80993044509E+03  0.59061416208E+03  0.20589800007E+04  0.22900242505E+04  0.10100000352E+00 0. -1.
</event>
<event>
 5   0  0.8489228E-07  0.3378720E+04  0.7818609E-02  0.8143149E-01
       -2   -1    0    0    0  501  0.00000000000E+00  0.00000000000E+00  0.27910131744E+04  0.27910131744E+04  0.25500000920E-02 0. -1.
        2   -1    0    0  501    0  0.00000000000E+00  0.00000000000E+00 -0.10225451640E+04  0.10225451640E+04  0.25500000920E-02 0.  1.
    10030    2    1    2    0    0  0.00000000000E+00  0.00000000000E+00  0.17684680104E+04  0.38135583384E+04  0.33787198902E+04 0.  0.
        3    1    3    3  502    0 -0.15757626905E+04  0.48584859689E+03  0.46973838939E+03  0.17145643997E+04  0.10100000352E+00 0.  1.
       -3    1    3    3    0  502  0.15757626905E+04 -0.48584859689E+03  0.12987296210E+04  0.20989939387E+04  0.10100000352E+00 0. -1.
</event>
<event>
 5   0  0.2592200E-07  0.3427655E+04  0.7818609E-02  0.8131152E-01
       -1   -1    0    0    0  501  0.00000000000E+00  0.00000000000E+00  0.13249932711E+04  0.13249932711E+04  0.50400001928E-02 0.  1.
        1   -1    0    0  501    0  0.00000000000E+00  0.00000000000E+00 -0.22167697023E+04  0.22167697023E+04  0.50400001928E-02 0. -1.
    10030    2    1    2    0    0  0.00000000000E+00  0.00000000000E+00 -0.89177643119E+03  0.35417629733E+04  0.34276551396E+04 0.  0.
        4    1    3    3  502    0  0.90564803939E+03  0.14549724511E+04 -0.43787628074E+03  0.17688641708E+04  0.12699999809E+01 0.  1.
       -4    1    3    3    0  502 -0.90564803939E+03 -0.14549724511E+04 -0.45390015045E+03  0.17728988025E+04  0.12699999809E+01 0. -1.
</event>
<event>
 5   0  0.2641442E-07  0.3386966E+04  0.7818609E-02  0.8141113E-01
       -1   -1    0    0    0  501  0.00000000000E+00  0.00000000000E+00  0.24944067379E+04  0.24944067379E+04  0.50400001928E-02 0. -1.
        1   -1    0    0  501    0  0.00000000000E+00  0.00000000000E+00 -0.11497261817E+04  0.11497261818E+04  0.50400001928E-02 0.  1.
    10030    2    1    2    0    0  0.00000000000E+00  0.00000000000E+00  0.13446805561E+04  0.36441329196E+04  0.33869660373E+04 0.  0.
        1    1    3    3  502    0  0.29463449877E+03 -0.11680794528E+04 -0.60827019056E+03  0.13495227752E+04  0.50400001928E-02 0.  1.
       -1    1    3    3    0  502 -0.29463449877E+03  0.11680794528E+04  0.19529507467E+04  0.22946101445E+04  0.50400001928E-02 0. -1.
</event>
<event>
 5   0  0.7822003E-07  0.3046459E+04  0.7818609E-02  0.8230587E-01
        2   -1    0    0  501    0  0.00000000000E+00  0.00000000000E+00  0.18728983460E+04  0.18728983460E+04  0.25500000920E-02 0. -1.
       -2   -1    0    0    0  501  0.00000000000E+00  0.00000000000E+00 -0.12388436634E+04  0.12388436634E+04  0.25500000920E-02 0.  1.
    10030    2    1    2    0    0  0.00000000000E+00  0.00000000000E+00  0.63405468265E+03  0.31117420094E+04  0.30464590908E+04 0.  0.
        5    1    3    3  502    0  0.10404488743E+04 -0.10727695946E+04  0.61802448590E+03  0.16172027759E+04  0.46999998093E+01 0. -1.
       -5    1    3    3    0  502 -0.10404488743E+04  0.10727695946E+04  0.16030196750E+02  0.14945392335E+04  0.46999998093E+01 0.  1.
</event>
<event>
 5   0  0.2592200E-07  0.3415451E+04  0.7818609E-02  0.8134125E-01
       -1   -1    0    0    0  501  0.00000000000E+00  0.00000000000E+00  0.28228171229E+04  0.28228171230E+04  0.50400001928E-02 0. -1.
        1   -1    0    0  501    0  0.00000000000E+00  0.00000000000E+00 -0.10331259647E+04  0.10331259647E+04  0.50400001928E-02 0.  1.
    10030    2    1    2    0    0  0.00000000000E+00  0.00000000000E+00  0.17896911582E+04  0.38559430877E+04  0.34154505784E+04 0.  0.
        4    1    3    3  502    0  0.11764237308E+03 -0.58920525023E+03 -0.90985594011E+03  0.10903403136E+04  0.12699999809E+01 0.  1.
       -4    1    3    3    0  502 -0.11764237308E+03  0.58920525023E+03  0.26995470983E+04  0.27656027741E+04  0.12699999809E+01 0. -1.
</event>
<event>
 5   0  0.2641442E-07  0.3522640E+04  0.7818609E-02  0.8108446E-01
       -1   -1    0    0    0  501  0.00000000000E+00  0.00000000000E+00  0.22383789683E+04  0.22383789683E+04  0.50400001928E-02 0.  1.
        1   -1    0    0  501    0  0.00000000000E+00  0.00000000000E+00 -0.13859348861E+04  0.13859348861E+04  0.50400001928E-02 0. -1.
    10030    2    1    2    0    0  0.00000000000E+00  0.00000000000E+00  0.85244408215E+03  0.36243138544E+04  0.35226396356E+04 0.  0.
        1    1    3    3  502    0  0.22385935920E+03 -0.86816327970E+03  0.19860364935E+04  0.21790276378E+04  0.50400001928E-02 0.  1.
       -1    1    3    3    0  502 -0.22385935920E+03  0.86816327970E+03 -0.11335924113E+04  0.14452862166E+04  0.50400001928E-02 0. -1.
</event>
<event>
 5   0  0.7610412E-07  0.3395558E+04  0.7818609E-02  0.8138997E-01
        2   -1    0    0  501    0  0.00000000000E+00  0.00000000000E+00  0.20247371541E+04  0.20247371541E+04  0.25500000920E-02 0. -1.
       -2   -1    0    0    0  501  0.00000000000E+00  0.00000000000E+00 -0.14236184519E+04  0.14236184519E+04  0.25500000920E-02 0.  1.
    10030    2    1    2    0    0  0.00000000000E+00  0.00000000000E+00  0.60111870225E+03  0.34483556060E+04  0.33955577879E+04 0.  0.
        4    1    3    3  502    0  0.11036321915E+04  0.31946510640E+02  0.16103527225E+04  0.19525014974E+04  0.12699999809E+01 0. -1.
       -4    1    3    3    0  502 -0.11036321915E+04 -0.31946510640E+02 -0.10092340202E+04  0.14958541086E+04  0.12699999809E+01 0.  1.
</event>
<event>
 5   0  0.2622205E-07  0.3386584E+04  0.7818609E-02  0.8141207E-01
        1   -1    0    0  501    0  0.00000000000E+00  0.00000000000E+00  0.16156138332E+04  0.16156138332E+04  0.50400001928E-02 0. -1.
       -1   -1    0    0    0  501  0.00000000000E+00  0.00000000000E+00 -0.17747047727E+04  0.17747047727E+04  0.50400001928E-02 0.  1.
    10030    2    1    2    0    0  0.00000000000E+00  0.00000000000E+00 -0.15909093947E+03  0.33903186059E+04  0.33865838721E+04 0.  0.
        3    1    3    3  502    0  0.23496299326E+03  0.58567023433E+03 -0.16525899784E+04  0.17689745274E+04  0.10100000352E+00 0.  1.
       -3    1    3    3    0  502 -0.23496299326E+03 -0.58567023433E+03  0.14934990389E+04  0.16213440785E+04  0.10100000352E+00 0. -1.
</event>
<event>
 5   0  0.2641442E-07  0.3414532E+04  0.7818609E-02  0.8134349E-01
       -1   -1    0    0    0  501  0.00000000000E+00  0.00000000000E+00  0.19845161538E+04  0.19845161538E+04  0.50400001928E-02 0. -1.
        1   -1    0    0  501    0  0.00000000000E+00  0.00000000000E+00 -0.14687492060E+04  0.14687492060E+04  0.50400001928E-02 0.  1.
    10030    2    1    2    0    0  0.00000000000E+00  0.00000000000E+00  0.51576694782E+03  0.34532653598E+04  0.34145316079E+04 0.  0.
        1    1    3    3  502    0  0.41361261237E+03 -0.58136628412E+03 -0.13107411976E+04  0.14923486980E+04  0.50400001928E-02 0.  1.
       -1    1    3    3    0  502 -0.41361261237E+03  0.58136628412E+03  0.18265081454E+04  0.19609166618E+04  0.50400001928E-02 0. -1.
</event>
<event>
 5   0  0.2641442E-07  0.3364241E+04  0.7818609E-02  0.8146739E-01
       -1   -1    0    0    0  501  0.00000000000E+00  0.00000000000E+00  0.12907402501E+04  0.12907402501E+04  0.50400001928E-02 0.  1.
        1   -1    0    0  501    0  0.00000000000E+00  0.00000000000E+00 -0.21921754716E+04  0.21921754716E+04  0.50400001928E-02 0. -1.
    10030    2    1    2    0    0  0.00000000000E+00  0.00000000000E+00 -0.90143522148E+03  0.34829157217E+04  0.33642408454E+04 0.  0.
        1    1    3    3  502    0  0.12432124960E+04 -0.11234940393E+04 -0.60326869580E+03  0.17809405621E+04  0.50400001928E-02 0.  1.
       -1    1    3    3    0  502 -0.12432124960E+04  0.11234940393E+04 -0.29816652568E+03  0.17019751595E+04  0.50400001928E-02 0. -1.
</event>
<event>
 5   0  0.2553250E-07  0.3410276E+04  0.7818609E-02  0.8135389E-01
        1   -1    0    0  501    0  0.00000000000E+00  0.00000000000E+00  0.17267014719E+04  0.17267014719E+04  0.50400001928E-02 0.  1.
       -1   -1    0    0    0  501  0.00000000000E+00  0.00000000000E+00 -0.16838442689E+04  0.16838442689E+04  0.50400001928E-02 0. -1.
    10030    2    1    2    0    0  0.00000000000E+00  0.00000000000E+00  0.42857202942E+02  0.34105457408E+04  0.34102764566E+04 0.  0.
        5    1    3    3  502    0 -0.13156504502E+04 -0.10681812428E+04 -0.16707238954E+03  0.17029041512E+04  0.46999998093E+01 0. -1.
       -5    1    3    3    0  502  0.13156504502E+04  0.10681812428E+04  0.20992959249E+03  0.17076415896E+04  0.46999998093E+01 0.  1.
</event>
<event>
 5   0  0.2553250E-07  0.3430532E+04  0.7818609E-02  0.8130453E-01
       -1   -1    0    0    0  501  0.00000000000E+00  0.00000000000E+00  0.10611954267E+04  0.10611954267E+04  0.50400001928E-02 0. -1.
        1   -1    0    0  501    0  0.00000000000E+00  0.00000000000E+00 -0.27724741973E+04  0.27724741973E+04  0.50400001928E-02 0.  1.
    10030    2    1    2    0    0  0.00000000000E+00  0.00000000000E+00 -0.17112787706E+04  0.38336696240E+04  0.34305317016E+04 0.  0.
        5    1    3    3  502    0  0.16902263230E+04  0.33606609744E+02 -0.53152077578E+03  0.17721542970E+04  0.46999998093E+01 0. -1.
       -5    1    3    3    0  502 -0.16902263230E+04 -0.33606609744E+02 -0.11797579948E+04  0.20615153270E+04  0.46999998093E+01 0.  1.
</event>
<event>
 5   0  0.2599367E-07  0.3404368E+04  0.7818609E-02  0.8136835E-01
       -1   -1    0    0    0  501  0.00000000000E+00  0.00000000000E+00  0.92876365975E+03  0.92876365976E+03  0.50400001928E-02 0.  1.
        1   -1    0    0  501    0  0.00000000000E+00  0.00000000000E+00 -0.31196646760E+04  0.31196646760E+04  0.50400001928E-02 0. -1.
    10030    2    1    2    0    0  0.00000000000E+00  0.00000000000E+00 -0.21909010162E+04  0.40484283357E+04  0.34043684769E+04 0.  0.
        2    1    3    3  502    0  0.24021103277E+03  0.11678171350E+04 -0.25401689418E+04  0.28060571010E+04  0.25500000920E-02 0. -1.
       -2    1    3    3    0  502 -0.24021103277E+03 -0.11678171350E+04  0.34926792560E+03  0.12423712347E+04  0.25500000920E-02 0.  1.
</event>
<event>
 5   0  0.2599367E-07  0.3275714E+04  0.7818609E-02  0.8169103E-01
        1   -1    0    0  501    0  0.00000000000E+00  0.00000000000E+00  0.12302688988E+04  0.12302688988E+04  0.50400001928E-02 0.  1.
       -1   -1    0    0    0  501  0.00000000000E+00  0.00000000000E+00 -0.21804794090E+04  0.21804794090E+04  0.50400001928E-02 0. -1.
    10030    2    1    2    0    0  0.00000000000E+00  0.00000000000E+00 -0.95021051020E+03  0.34107483078E+04  0.32757142741E+04 0.  0.
        2    1    3    3  502    0 -0.10536048121E+04 -0.10183886997E+04  0.28675209023E+03  0.14931260513E+04  0.25500000920E-02 0.  1.
       -2    1    3    3    0  502  0.10536048121E+04  0.10183886997E+04 -0.12369626004E+04  0.19176222565E+04  0.25500000920E-02 0. -1.
</event>
<event>
 5   0  0.2599367E-07  0.3462262E+04  0.7818609E-02  0.8122792E-01
        1   -1    0    0  501    0  0.00000000000E+00  0.00000000000E+00  0.23866027680E+04  0.23866027680E+04  0.50400001928E-02 0. -1.
       -1   -1    0    0    0  501  0.00000000000E+00  0.00000000000E+00 -0.12556818518E+04  0.12556818518E+04  0.50400001928E-02 0.  1.
    10030    2    1    2    0    0  0.00000000000E+00  0.00000000000E+00  0.11309209161E+04  0.36422846198E+04  0.34622615633E+04 0.  0.
        2    1    3    3  502    0  0.10656479540E+04  0.92287893565E+03  0.16224428344E+04  0.21493328831E+04  0.25500000920E-02 0. -1.
       -2    1    3    3    0  502 -0.10656479540E+04 -0.92287893565E+03 -0.49152191822E+03  0.14929517366E+04  0.25500000920E-02 0.  1.
</event>
<event>
 5   0  0.7822003E-07  0.3394202E+04  0.7818609E-02  0.8139331E-01
        2   -1    0    0  501    0  0.00000000000E+00  0.00000000000E+00  0.18559608376E+04  0.18559608376E+04  0.25500000920E-02 0.  1.
       -2   -1    0    0    0  501  0.00000000000E+00  0.00000000000E+00 -0.15518383780E+04  0.15518383780E+04  0.25500000920E-02 0. -1.
    10030    2    1    2    0    0  0.00000000000E+00  0.00000000000E+00  0.30412245958E+03  0.34077992155E+04  0.33942016768E+04 0.  0.
        5    1    3    3  502    0  0.12810981731E+04  0.28224866748E+03  0.12330603562E+04  0.18003712871E+04  0.46999998093E+01 0.  1.
       -5    1    3    3    0  502 -0.12810981731E+04 -0.28224866748E+03 -0.92893789665E+03  0.16074279284E+04  0.46999998093E+01 0. -1.
</event>
<event>
 5   0  0.2641442E-07  0.3341137E+04  0.7818609E-02  0.8152506E-01
        1   -1    0    0  501    0  0.00000000000E+00  0.00000000000E+00  0.22822403114E+04  0.22822403114E+04  0.50400001928E-02 0.  1.
       -1   -1    0    0    0  501  0.00000000000E+00  0.00000000000E+00 -0.12228333826E+04  0.12228333826E+04  0.50400001928E-02 0. -1.
    10030    2    1    2    0    0  0.00000000000E+00  0.00000000000E+00  0.10594069288E+04  0.35050736940E+04  0.33411373152E+04 0.  0.
        1    1    3    3  502    0  0.76925446337E+03  0.14804013812E+04  0.62030634218E+03  0.17799215256E+04  0.50400001928E-02 0. -1.
       -1    1    3    3    0  502 -0.76925446337E+03 -0.14804013812E+04  0.43910058664E+03  0.17251521684E+04  0.50400001928E-02 0.  1.
</event>
<event>
 5   0  0.2553250E-07  0.3390411E+04  0.7818609E-02  0.8140264E-01
       -3   -1    0    0    0  501  0.00000000000E+00  0.00000000000E+00  0.35658109761E+04  0.35658109775E+04  0.10100000352E+00 0. -1.
        3   -1    0    0  501    0  0.00000000000E+00  0.00000000000E+00 -0.80590990189E+03  0.80590990822E+03  0.10100000352E+00 0.  1.
    10030    2    1    2    0    0  0.00000000000E+00  0.00000000000E+00  0.27599010742E+04  0.43717208857E+04  0.33904114151E+04 0.  0.
        1    1    3    3  502    0 -0.65291289993E+03  0.73991866386E+03 -0.39739073525E+03  0.10638112053E+04  0.50400001928E-02 0.  1.
       -1    1    3    3    0  502  0.65291289993E+03 -0.73991866386E+03  0.31572918094E+04  0.33079096804E+04  0.50400001928E-02 0. -1.
</event>
<event>
 5   0  0.8489228E-07  0.3427403E+04  0.7818609E-02  0.8131213E-01
        2   -1    0    0  501    0  0.00000000000E+00  0.00000000000E+00  0.21485247026E+04  0.21485247026E+04  0.25500000920E-02 0.  1.
       -2   -1    0    0    0  501  0.00000000000E+00  0.00000000000E+00 -0.13668786096E+04  0.13668786096E+04  0.25500000920E-02 0. -1.
    10030    2    1    2    0    0  0.00000000000E+00  0.00000000000E+00  0.78164609305E+03  0.35154033122E+04  0.34274027824E+04 0.  0.
        3    1    3    3  502    0  0.71488444960E+03  0.10300830256E+04 -0.80734937966E+03  0.14912893237E+04  0.10100000352E+00 0. -1.
       -3    1    3    3    0  502 -0.71488444960E+03 -0.10300830256E+04  0.15889954727E+04  0.20241139885E+04  0.10100000352E+00 0.  1.
</event>
<event>
 5   0  0.2592200E-07  0.3528362E+04  0.7818609E-02  0.8107101E-01
        1   -1    0    0  501    0  0.00000000000E+00  0.00000000000E+00  0.26388418192E+04  0.26388418192E+04  0.50400001928E-02 0.  1.
       -1   -1    0    0    0  501  0.00000000000E+00  0.00000000000E+00 -0.11794319501E+04  0.11794319501E+04  0.50400001928E-02 0. -1.
    10030    2    1    2    0    0  0.00000000000E+00  0.00000000000E+00  0.14594098690E+04  0.38182737693E+04  0.35283618595E+04 0.  0.
        4    1    3    3  502    0 -0.15994215275E+04 -0.49507550916E+03  0.13313384708E+04  0.21390915640E+04  0.12699999809E+01 0.  1.
       -4    1    3    3    0  502  0.15994215275E+04  0.49507550916E+03  0.12807139820E+03  0.16791822053E+04  0.12699999809E+01 0. -1.
</event>
<event>
 5   0  0.7610412E-07  0.3435583E+04  0.7818609E-02  0.8129228E-01
        2   -1    0    0  501    0  0.00000000000E+00  0.00000000000E+00  0.22914007272E+04  0.22914007272E+04  0.25500000920E-02 0. -1.
       -2   -1    0    0    0  501  0.00000000000E+00  0.00000000000E+00 -0.12877744130E+04  0.12877744130E+04  0.25500000920E-02 0.  1.
    10030    2    1    2    0    0  0.00000000000E+00  0.00000000000E+00  0.10036263142E+04  0.35791751403E+04  0.34355827608E+04 0.  0.
        4    1    3    3  502    0 -0.10493829771E+04 -0.13547006792E+04  0.37685390404E+03  0.17545481016E+04  0.12699999809E+01 0. -1.
       -4    1    3    3    0  502  0.10493829771E+04  0.13547006792E+04  0.62677241013E+03  0.18246270386E+04  0.12699999809E+01 0.  1.
</event>
<event>
 5   0  0.7838333E-07  0.3396129E+04  0.7818609E-02  0.8138857E-01
        2   -1    0    0  501    0  0.00000000000E+00  0.00000000000E+00  0.20491439420E+04  0.20491439420E+04  0.25500000920E-02 0. -1.
       -2   -1    0    0    0  501  0.00000000000E+00  0.00000000000E+00 -0.14071357183E+04  0.14071357183E+04  0.25500000920E-02 0.  1.
    10030    2    1    2    0    0  0.00000000000E+00  0.00000000000E+00  0.64200822368E+03  0.34562796602E+04  0.33961293454E+04 0.  0.
        1    1    3    3  502    0  0.44472516790E+03 -0.16296535064E+04  0.49690223846E+03  0.17608131248E+04  0.50400001928E-02 0. -1.
       -1    1    3    3    0  502 -0.44472516790E+03  0.16296535064E+04  0.14510598522E+03  0.16954665354E+04  0.50400001928E-02 0.  1.
</event>
<event>
 5   0  0.2622205E-07  0.3375331E+04  0.7818609E-02  0.8143988E-01
       -1   -1    0    0    0  501  0.00000000000E+00  0.00000000000E+00  0.15519851546E+04  0.15519851546E+04  0.50400001928E-02 0. -1.
        1   -1    0    0  501    0  0.00000000000E+00  0.00000000000E+00 -0.18352071635E+04  0.18352071635E+04  0.50400001928E-02 0.  1.
    10030    2    1    2    0    0  0.00000000000E+00  0.00000000000E+00 -0.28322200890E+03  0.33871923181E+04  0.33753306643E+04 0.  0.
        3    1    3    3  502    0  0.73402851332E+02 -0.47169918625E+03 -0.17660417745E+04  0.18294238602E+04  0.10100000352E+00 0.  1.
       -3    1    3    3    0  502 -0.73402851332E+02  0.47169918625E+03  0.14828197656E+04  0.15577684579E+04  0.10100000352E+00 0. -1.
</event>
<event>
 5   0  0.8489228E-07  0.3307671E+04  0.7818609E-02  0.8160946E-01
        2   -1    0    0  501    0  0.00000000000E+00  0.00000000000E+00  0.12462551383E+04  0.12462551383E+04  0.25500000920E-02 0. -1.
       -2   -1    0    0    0  501  0.00000000000E+00  0.00000000000E+00 -0.21947130849E+04  0.21947130849E+04  0.25500000920E-02 0.  1.
    10030    2    1    2    0    0  0.00000000000E+00  0.00000000000E+00 -0.94845794655E+03  0.34409682232E+04  0.33076713617E+04 0.  0.
        3    1    3    3  502    0  0.77508952540E+03  0.12730153946E+04 -0.12199432658E+04  0.19260305162E+04  0.10100000352E+00 0.  1.
       -3    1    3    3    0  502 -0.77508952540E+03 -0.12730153946E+04  0.27148531922E+03  0.15149377070E+04  0.10100000352E+00 0. -1.
</event>
<event>
 5   0  0.2592200E-07  0.3364369E+04  0.7818609E-02  0.8146707E-01
        1   -1    0    0  501    0  0.00000000000E+00  0.00000000000E+00  0.21323319257E+04  0.21323319257E+04  0.50400001928E-02 0.  1.
       -1   -1    0    0    0  501  0.00000000000E+00  0.00000000000E+00 -0.13270659775E+04  0.13270659775E+04  0.50400001928E-02 0. -1.
    10030    2    1    2    0    0  0.00000000000E+00  0.00000000000E+00  0.80526594823E+03  0.34593979033E+04  0.33643692731E+04 0.  0.
        4    1    3    3  502    0 -0.12108001772E+04  0.34439855078E+03 -0.74472330749E+03  0.14626215671E+04  0.12699999809E+01 0. -1.
       -4    1    3    3    0  502  0.12108001772E+04 -0.34439855078E+03  0.15499892557E+04  0.19967763362E+04  0.12699999809E+01 0.  1.
</event>
<event>
 5   0  0.7899402E-07  0.3342370E+04  0.7818609E-02  0.8152197E-01
        2   -1    0    0  501    0  0.00000000000E+00  0.00000000000E+00  0.24426430931E+04  0.24426430931E+04  0.25500000920E-02 0.  1.
       -2   -1    0    0    0  501  0.00000000000E+00  0.00000000000E+00 -0.11433760051E+04  0.11433760051E+04  0.25500000920E-02 0. -1.
    10030    2    1    2    0    0  0.00000000000E+00  0.00000000000E+00  0.12992670880E+04  0.35860190982E+04  0.33423701181E+04 0.  0.
        2    1    3    3  502    0 -0.35755491895E+03  0.86623991556E+03  0.21342076908E+04  0.23308924426E+04  0.25500000920E-02 0.  1.
       -2    1    3    3    0  502  0.35755491895E+03 -0.86623991556E+03 -0.83494060279E+03  0.12551266556E+04  0.25500000920E-02 0. -1.
</event>
<event>
 5   0  0.2592200E-07  0.3426942E+04  0.7818609E-02  0.8131325E-01
       -1   -1    0    0    0  501  0.00000000000E+00  0.00000000000E+00  0.20997882061E+04  0.20997882061E+04  0.50400001928E-02 0. -1.
        1   -1    0    0  501    0  0.00000000000E+00  0.00000000000E+00 -0.13982284963E+04  0.13982284963E+04  0.50400001928E-02 0.  1.
    10030    2    1    2    0    0  0.00000000000E+00  0.00000000000E+00  0.70155970976E+03  0.34980167024E+04  0.34269424891E+04 0.  0.
        4    1    3    3  502    0  0.15968490160E+04 -0.53111158837E+03  0.67992024899E+03  0.18150205115E+04  0.12699999809E+01 0.  1.
       -4    1    3    3    0  502 -0.15968490160E+04  0.53111158837E+03  0.21639460772E+02  0.16829961909E+04  0.12699999809E+01 0. -1.
</event>
<event>
 5   0  0.2592200E-07  0.3417018E+04  0.7818609E-02  0.8133742E-01
        1   -1    0    0  501    0  0.00000000000E+00  0.00000000000E+00  0.14958036745E+04  0.14958036745E+04  0.50400001928E-02 0. -1.
       -1   -1    0    0    0  501  0.00000000000E+00  0.00000000000E+00 -0.19514614615E+04  0.19514614615E+04  0.50400001928E-02 0.  1.
    10030    2    1    2    0    0  0.00000000000E+00  0.00000000000E+00 -0.45565778703E+03  0.34472651360E+04  0.34170181298E+04 0.  0.
        4    1    3    3  502    0 -0.83112021707E+03 -0.12965229784E+04  0.51849580398E+03  0.16249837416E+04  0.12699999809E+01 0. -1.
       -4    1    3    3    0  502  0.83112021707E+03  0.12965229784E+04 -0.97415359101E+03  0.18222813945E+04  0.12699999809E+01 0.  1.
</event>
<event>
 5   0  0.2599367E-07  0.3406926E+04  0.7818609E-02  0.8136209E-01
        1   -1    0    0  501    0  0.00000000000E+00  0.00000000000E+00  0.23341667887E+04  0.23341667887E+04  0.50400001928E-02 0. -1.
       -1   -1    0    0    0  501  0.00000000000E+00  0.00000000000E+00 -0.12431782325E+04  0.12431782325E+04  0.50400001928E-02 0.  1.
    10030    2    1    2    0    0  0.00000000000E+00  0.00000000000E+00  0.10909885562E+04  0.35773450212E+04  0.34069255012E+04 0.  0.
        2    1    3    3  502    0 -0.97867790520E+03 -0.13937253052E+04  0.58622475075E+03  0.18010941471E+04  0.25500000920E-02 0.  1.
       -2    1    3    3    0  502  0.97867790520E+03  0.13937253052E+04  0.50476380547E+03  0.17762508741E+04  0.25500000920E-02 0. -1.
</event>
<event>
 5   0  0.7899402E-07  0.3403827E+04  0.7818609E-02  0.8136968E-01
        2   -1    0    0  501    0  0.00000000000E+00  0.00000000000E+00  0.26706572393E+04  0.26706572393E+04  0.25500000920E-02 0. -1.
       -2   -1    0    0    0  501  0.00000000000E+00  0.00000000000E+00 -0.10845681004E+04  0.10845681004E+04  0.25500000920E-02 0.  1.
    10030    2    1    2    0    0  0.00000000000E+00  0.00000000000E+00  0.15860891389E+04  0.37552253397E+04  0.34038270513E+04 0.  0.
        2    1    3    3  502    0  0.11874777523E+04 -0.10537379454E+04  0.11651461759E+03  0.15918676847E+04  0.25500000920E-02 0.  1.
       -2    1    3    3    0  502 -0.11874777523E+04  0.10537379454E+04  0.14695745213E+04  0.21633576550E+04  0.25500000920E-02 0. -1.
</event>
<event>
 5   0  0.7838333E-07  0.3389933E+04  0.7818609E-02  0.8140382E-01
       -2   -1    0    0    0  501  0.00000000000E+00  0.00000000000E+00  0.12132464337E+04  0.12132464337E+04  0.25500000920E-02 0. -1.
        2   -1    0    0  501    0  0.00000000000E+00  0.00000000000E+00 -0.23679532735E+04  0.23679532735E+04  0.25500000920E-02 0.  1.
    10030    2    1    2    0    0  0.00000000000E+00  0.00000000000E+00 -0.11547068398E+04  0.35811997071E+04  0.33899326625E+04 0.  0.
        1    1    3    3  502    0  0.16714826853E+04 -0.22855457656E+03 -0.40434740260E+03  0.17348165274E+04  0.50400001928E-02 0.  1.
       -1    1    3    3    0  502 -0.16714826853E+04  0.22855457656E+03 -0.75035943718E+03  0.18463831798E+04  0.50400001928E-02 0. -1.
</event>
<event>
 5   0  0.7822003E-07  0.3359878E+04  0.7818609E-02  0.8147824E-01
       -2   -1    0    0    0  501  0.00000000000E+00  0.00000000000E+00  0.18754493773E+04  0.18754493773E+04  0.25500000920E-02 0.  1.
        2   -1    0    0  501    0  0.00000000000E+00  0.00000000000E+00 -0.15048102245E+04  0.15048102245E+04  0.25500000920E-02 0. -1.
    10030    2    1    2    0    0  0.00000000000E+00  0.00000000000E+00  0.37063915286E+03  0.33802596018E+04  0.33598782112E+04 0.  0.
        5    1    3    3  502    0 -0.10480535964E+04 -0.84053944593E+02 -0.11328542953E+04  0.15455944975E+04  0.46999998093E+01 0. -1.
       -5    1    3    3    0  502  0.10480535964E+04  0.84053944593E+02  0.15034934481E+04  0.18346651043E+04  0.46999998093E+01 0.  1.
</event>
<event>
 5   0  0.7838333E-07  0.3418557E+04  0.7818609E-02  0.8133367E-01
       -2   -1    0    0    0  501  0.00000000000E+00  0.00000000000E+00  0.16972932673E+04  0.16972932673E+04  0.25500000920E-02 0.  1.
        2   -1    0    0  501    0  0.00000000000E+00  0.00000000000E+00 -0.17213482899E+04  0.17213482899E+04  0.25500000920E-02 0. -1.
    10030    2    1    2    0    0  0.00000000000E+00  0.00000000000E+00 -0.24055022621E+02  0.34186415573E+04  0.34185569255E+04 0.  0.
        1    1    3    3  502    0  0.12155886940E+04  0.87207511608E+03  0.81471055052E+03  0.17035034964E+04  0.50400001928E-02 0.  1.
       -1    1    3    3    0  502 -0.12155886940E+04 -0.87207511608E+03 -0.83876557314E+03  0.17151380609E+04  0.50400001928E-02 0. -1.
</event>
<event>
 5   0  0.2641442E-07  0.3403624E+04  0.7818609E-02  0.8137017E-01
        1   -1    0    0  501    0  0.00000000000E+00  0.00000000000E+00  0.25082835773E+04  0.25082835773E+04  0.50400001928E-02 0. -1.
       -1   -1    0    0    0  501  0.00000000000E+00  0.00000000000E+00 -0.11546398600E+04  0.11546398600E+04  0.50400001928E-02 0.  1.
    10030    2    1    2    0    0  0.00000000000E+00  0.00000000000E+00  0.13536437173E+04  0.36629234372E+04  0.34036240676E+04 0.  0.
        1    1    3    3  502    0 -0.98472195711E+03  0.62494194018E+03 -0.65692249543E+03  0.13385727199E+04  0.50400001928E-02 0.  1.
       -1    1    3    3    0  502  0.98472195711E+03 -0.62494194018E+03  0.20105662127E+04  0.23243507173E+04  0.50400001928E-02 0. -1.
</event>
<event>
 5   0  0.7822003E-07  0.3397440E+04  0.7818609E-02  0.8138535E-01
        2   -1    0    0  501    0  0.00000000000E+00  0.00000000000E+00  0.13305549556E+04  0.13305549556E+04  0.25500000920E-02 0.  1.
       -2   -1    0    0    0  501  0.00000000000E+00  0.00000000000E+00 -0.21687558107E+04  0.21687558107E+04  0.25500000920E-02 0. -1.
    10030    2    1    2    0    0  0.00000000000E+00  0.00000000000E+00 -0.83820085506E+03  0.34993107663E+04  0.33974395014E+04 0.  0.
        5    1    3    3  502    0 -0.35238228550E+03 -0.82836876347E+03 -0.19028714802E+04  0.21050677052E+04  0.46999998093E+01 0. -1.
       -5    1    3    3    0  502  0.35238228550E+03  0.82836876347E+03  0.10646706251E+04  0.13942430611E+04  0.46999998093E+01 0.  1.
</event>
<event>
 5   0  0.7610412E-07  0.3217559E+04  0.7818609E-02  0.8184195E-01
       -2   -1    0    0    0  501  0.00000000000E+00  0.00000000000E+00  0.11710031773E+04  0.11710031773E+04  0.25500000920E-02 0.  1.
        2   -1    0    0  501    0  0.00000000000E+00  0.00000000000E+00 -0.22102166856E+04  0.22102166856E+04  0.25500000920E-02 0. -1.
    10030    2    1    2    0    0  0.00000000000E+00  0.00000000000E+00 -0.10392135083E+04  0.33812198628E+04  0.32175585535E+04 0.  0.
        4    1    3    3  502    0 -0.99617036373E+03 -0.53585591181E+03 -0.17217670780E+04  0.20600923367E+04  0.12699999809E+01 0. -1.
       -4    1    3    3    0  502  0.99617036373E+03  0.53585591181E+03  0.68255356976E+03  0.13211275261E+04  0.12699999809E+01 0.  1.
</event>
<event>
 5   0  0.7610412E-07  0.3425360E+04  0.7818609E-02  0.8131710E-01
       -2   -1    0    0    0  501  0.00000000000E+00  0.00000000000E+00  0.12565500688E+04  0.12565500688E+04  0.25500000920E-02 0.  1.
        2   -1    0    0  501    0  0.00000000000E+00  0.00000000000E+00 -0.23343864514E+04  0.23343864514E+04  0.25500000920E-02 0. -1.
    10030    2    1    2    0    0  0.00000000000E+00  0.00000000000E+00 -0.10778363827E+04  0.35909365202E+04  0.34253603933E+04 0.  0.
        4    1    3    3  502    0 -0.22713889817E+03  0.63928303054E+03  0.11096740373E+04  0.13006355962E+04  0.12699999809E+01 0.  1.
       -4    1    3    3    0  502  0.22713889817E+03 -0.63928303054E+03 -0.21875104200E+04  0.22903009240E+04  0.12699999809E+01 0. -1.
</event>
<event>
 5   0  0.2599367E-07  0.3362338E+04  0.7818609E-02  0.8147212E-01
        1   -1    0    0  501    0  0.00000000000E+00  0.00000000000E+00  0.95391968346E+03  0.95391968347E+03  0.50400001928E-02 0. -1.
       -1   -1    0    0    0  501  0.00000000000E+00  0.00000000000E+00 -0.29628592086E+04  0.29628592086E+04  0.50400001928E-02 0.  1.
    10030    2    1    2    0    0  0.00000000000E+00  0.00000000000E+00 -0.20089395252E+04  0.39167788921E+04  0.33623383045E+04 0.  0.
        2    1    3    3  502    0  0.12582246168E+04 -0.70802230459E+03 -0.10982157676E+01  0.14437541260E+04  0.25500000920E-02 0. -1.
       -2    1    3    3    0  502 -0.12582246168E+04  0.70802230459E+03 -0.20078413094E+04  0.24730247661E+04  0.25500000920E-02 0.  1.
</event>
<event>
 5   0  0.2622205E-07  0.3345264E+04  0.7818609E-02  0.8151472E-01
        1   -1    0    0  501    0  0.00000000000E+00  0.00000000000E+00  0.22852203644E+04  0.22852203644E+04  0.50400001928E-02 0.  1.
       -1   -1    0    0    0  501  0.00000000000E+00  0.00000000000E+00 -0.12242575147E+04  0.12242575147E+04  0.50400001928E-02 0. -1.
    10030    2    1    2    0    0  0.00000000000E+00  0.00000000000E+00  0.10609628497E+04  0.35094778792E+04  0.33452642371E+04 0.  0.
        3    1    3    3  502    0 -0.40374476584E+03 -0.15846289964E+04  0.16159697059E+03  0.16432201566E+04  0.10100000352E+00 0.  1.
       -3    1    3    3    0  502  0.40374476584E+03  0.15846289964E+04  0.89936587914E+03  0.18662577225E+04  0.10100000352E+00 0. -1.
</event>
<event>
 5   0  0.2553250E-07  0.3405208E+04  0.7818609E-02  0.8136629E-01
       -1   -1    0    0    0  501  0.00000000000E+00  0.00000000000E+00  0.12455828568E+04  0.12455828568E+04  0.50400001928E-02 0.  1.
        1   -1    0    0  501    0  0.00000000000E+00  0.00000000000E+00 -0.23273128457E+04  0.23273128457E+04  0.50400001928E-02 0. -1.
    10030    2    1    2    0    0  0.00000000000E+00  0.00000000000E+00 -0.10817299890E+04  0.35728957025E+04  0.34052083537E+04 0.  0.
        5    1    3    3  502    0 -0.62945378204E+03  0.70897737838E+02 -0.21990696154E+04  0.22884859222E+04  0.46999998093E+01 0. -1.
       -5    1    3    3    0  502  0.62945378204E+03 -0.70897737838E+02  0.11173396264E+04  0.12844097803E+04  0.46999998093E+01 0.  1.
</event>
<event>
 5   0  0.7610412E-07  0.3351077E+04  0.7818609E-02  0.8150019E-01
       -2   -1    0    0    0  501  0.00000000000E+00  0.00000000000E+00  0.99474897680E+03  0.99474897681E+03  0.25500000920E-02 0.  1.
        2   -1    0    0  501    0  0.00000000000E+00  0.00000000000E+00 -0.28222492665E+04  0.28222492665E+04  0.25500000920E-02 0. -1.
    10030    2    1    2    0    0  0.00000000000E+00  0.00000000000E+00 -0.18275002897E+04  0.38169982433E+04  0.33510771821E+04 0.  0.
        4    1    3    3  502    0  0.14836297042E+04  0.26354944996E+03 -0.79206877452E+02  0.15089369616E+04  0.12699999809E+01 0.  1.
       -4    1    3    3    0  502 -0.14836297042E+04 -0.26354944996E+03 -0.17482934123E+04  0.23080612817E+04  0.12699999809E+01 0. -1.
</event>
<event>
 5   0  0.7822003E-07  0.3395541E+04  0.7818609E-02  0.8139002E-01
        2   -1    0    0  501    0  0.00000000000E+00  0.00000000000E+00  0.20992597841E+04  0.20992597841E+04  0.25500000920E-02 0. -1.
       -2   -1    0    0    0  501  0.00000000000E+00  0.00000000000E+00 -0.13730673477E+04  0.13730673477E+04  0.25500000920E-02 0.  1.
    10030    2    1    2    0    0  0.00000000000E+00  0.00000000000E+00  0.72619243646E+03  0.34723271318E+04  0.33955412316E+04 0.  0.
        5    1    3    3  502    0  0.36978315917E+03  0.83610960621E+03 -0.10998434795E+04  0.14302085959E+04  0.46999998093E+01 0.  1.
       -5    1    3    3    0  502 -0.36978315917E+03 -0.83610960621E+03  0.18260359159E+04  0.20421185359E+04  0.46999998093E+01 0. -1.
</event>
<event>
 5   0  0.7838333E-07  0.3375540E+04  0.7818609E-02  0.8143936E-01
        2   -1    0    0  501    0  0.00000000000E+00  0.00000000000E+00  0.19634131756E+04  0.19634131756E+04  0.25500000920E-02 0. -1.
       -2   -1    0    0    0  501  0.00000000000E+00  0.00000000000E+00 -0.14508241694E+04  0.14508241694E+04  0.25500000920E-02 0.  1.
    10030    2    1    2    0    0  0.00000000000E+00  0.00000000000E+00  0.51258900618E+03  0.34142373450E+04  0.33755398321E+04 0.  0.
        1    1    3    3  502    0 -0.11433363656E+04 -0.81200847613E+03 -0.69361594826E+03  0.15645059584E+04  0.50400001928E-02 0.  1.
       -1    1    3    3    0  502  0.11433363656E+04  0.81200847613E+03  0.12062049544E+04  0.18497313865E+04  0.50400001928E-02 0. -1.
</event>
<event>
 5   0  0.7838333E-07  0.3253452E+04  0.7818609E-02  0.8174842E-01
       -2   -1    0    0    0  501  0.00000000000E+00  0.00000000000E+00  0.12255878875E+04  0.12255878875E+04  0.25500000920E-02 0.  1.
        2   -1    0    0  501    0  0.00000000000E+00  0.00000000000E+00 -0.21591573488E+04  0.21591573488E+04  0.25500000920E-02 0. -1.
    10030    2    1    2    0    0  0.00000000000E+00  0.00000000000E+00 -0.93356946132E+03  0.33847452362E+04  0.32534517631E+04 0.  0.
        1    1    3    3  502    0  0.22391420523E+03  0.89586146937E+02  0.12068857081E+04  0.12307462620E+04  0.50400001928E-02 0.  1.
       -1    1    3    3    0  502 -0.22391420523E+03 -0.89586146937E+02 -0.21404551694E+04  0.21539989743E+04  0.50400001928E-02 0. -1.
</event>
<event>
 5   0  0.2553250E-07  0.3401458E+04  0.7818609E-02  0.8137549E-01
        1   -1    0    0  501    0  0.00000000000E+00  0.00000000000E+00  0.13726731533E+04  0.13726731533E+04  0.50400001928E-02 0.  1.
       -1   -1    0    0    0  501  0.00000000000E+00  0.00000000000E+00 -0.21071869741E+04  0.21071869741E+04  0.50400001928E-02 0. -1.
    10030    2    1    2    0    0  0.00000000000E+00  0.00000000000E+00 -0.73451382082E+03  0.34798601274E+04  0.34014579159E+04 0.  0.
        5    1    3    3  502    0  0.30835229907E+02 -0.11867621629E+04 -0.16131539265E+04  0.20029086158E+04  0.46999998093E+01 0. -1.
       -5    1    3    3    0  502 -0.30835229907E+02  0.11867621629E+04  0.87864010564E+03  0.14769515117E+04  0.46999998093E+01 0.  1.
</event>
<event>
 5   0  0.2553250E-07  0.3407882E+04  0.7818609E-02  0.8135974E-01
        1   -1    0    0  501    0  0.00000000000E+00  0.00000000000E+00  0.19869196354E+04  0.19869196354E+04  0.50400001928E-02 0.  1.
       -1   -1    0    0    0  501  0.00000000000E+00  0.00000000000E+00 -0.14612645550E+04  0.14612645550E+04  0.50400001928E-02 0. -1.
    10030    2    1    2    0    0  0.00000000000E+00  0.00000000000E+00  0.52565508044E+03  0.34481841904E+04  0.34078821792E+04 0.  0.
        5    1    3    3  502    0  0.11747069326E+04 -0.11974326581E+04 -0.40064933031E+02  0.16779179471E+04  0.46999998093E+01 0. -1.
       -5    1    3    3    0  502 -0.11747069326E+04  0.11974326581E+04  0.56572001347E+03  0.17702662433E+04  0.46999998093E+01 0.  1.
</event>
<event>
 5   0  0.7610412E-07  0.3339220E+04  0.7818609E-02  0.8152987E-01
        2   -1    0    0  501    0  0.00000000000E+00  0.00000000000E+00  0.16552479182E+04  0.16552479182E+04  0.25500000920E-02 0.  1.
       -2   -1    0    0    0  501  0.00000000000E+00  0.00000000000E+00 -0.16840965372E+04  0.16840965372E+04  0.25500000920E-02 0. -1.
    10030    2    1    2    0    0  0.00000000000E+00  0.00000000000E+00 -0.28848618991E+02  0.33393444555E+04  0.33392198414E+04 0.  0.
        4    1    3    3  502    0  0.16618980025E+04  0.15773639977E+03 -0.42884676162E+02  0.16699180970E+04  0.12699999809E+01 0.  1.
       -4    1    3    3    0  502 -0.16618980025E+04 -0.15773639977E+03  0.14036057170E+02  0.16694263584E+04  0.12699999809E+01 0. -1.
</event>
<event>
 5   0  0.2592200E-07  0.3475637E+04  0.7818609E-02  0.8119588E-01
        1   -1    0    0  501    0  0.00000000000E+00  0.00000000000E+00  0.30830207487E+04  0.30830207488E+04  0.50400001928E-02 0.  1.
       -1   -1    0    0    0  501  0.00000000000E+00  0.00000000000E+00 -0.97956302194E+03  0.97956302195E+03  0.50400001928E-02 0. -1.
    10030    2    1    2    0    0  0.00000000000E+00  0.00000000000E+00  0.21034577268E+04  0.40625837707E+04  0.34756369899E+04 0.  0.
        4    1    3    3  502    0  0.65079826206E+03  0.79985581729E+03 -0.58331897229E+03  0.11847237411E+04  0.12699999809E+01 0. -1.
       -4    1    3    3    0  502 -0.65079826206E+03 -0.79985581729E+03  0.26867766991E+04  0.28778600296E+04  0.12699999809E+01 0.  1.
</event>
<event>
 5   0  0.7610412E-07  0.3456733E+04  0.7818609E-02  0.8124121E-01
       -2   -1    0    0    0  501  0.00000000000E+00  0.00000000000E+00  0.18298575115E+04  0.18298575115E+04  0.25500000920E-02 0. -1.
        2   -1    0    0  501    0  0.00000000000E+00  0.00000000000E+00 -0.16325046338E+04  0.16325046338E+04  0.25500000920E-02 0.  1.
    10030    2    1    2    0    0  0.00000000000E+00  0.00000000000E+00  0.19735287771E+03  0.34623621454E+04  0.34567330628E+04 0.  0.
        4    1    3    3  502    0 -0.21962444147E+02  0.38854660942E+03  0.17854016129E+04  0.18273235480E+04  0.12699999809E+01 0. -1.
       -4    1    3    3    0  502  0.21962444147E+02 -0.38854660942E+03 -0.15880487352E+04  0.16350385974E+04  0.12699999809E+01 0.  1.
</event>
<event>
 5   0  0.2622205E-07  0.3426185E+04  0.7818609E-02  0.8131510E-01
        1   -1    0    0  501    0  0.00000000000E+00  0.00000000000E+00  0.18459046415E+04  0.18459046415E+04  0.50400001928E-02 0. -1.
       -1   -1    0    0    0  501  0.00000000000E+00  0.00000000000E+00 -0.15898357407E+04  0.15898357407E+04  0.50400001928E-02 0.  1.
    10030    2    1    2    0    0  0.00000000000E+00  0.00000000000E+00  0.25606890080E+03  0.34357403822E+04  0.34261845677E+04 0.  0.
        3    1    3    3  502    0 -0.13273998402E+04  0.33590159566E+03  0.11604031980E+04  0.17948135864E+04  0.10100000352E+00 0. -1.
       -3    1    3    3    0  502  0.13273998402E+04 -0.33590159566E+03 -0.90433429724E+03  0.16409267958E+04  0.10100000352E+00 0.  1.
</event>
<event>
 5   0  0.2592200E-07  0.3325287E+04  0.7818609E-02  0.8156491E-01
       -1   -1    0    0    0  501  0.00000000000E+00  0.00000000000E+00  0.18114783282E+04  0.18114783282E+04  0.50400001928E-02 0.  1.
        1   -1    0    0  501    0  0.00000000000E+00  0.00000000000E+00 -0.15260369566E+04  0.15260369567E+04  0.50400001928E-02 0. -1.
    10030    2    1    2    0    0  0.00000000000E+00  0.00000000000E+00  0.28544137158E+03  0.33375152849E+04  0.33252866794E+04 0.  0.
        4    1    3    3  502    0  0.11215412340E+04 -0.11967900949E+04 -0.13071463925E+03  0.16453720554E+04  0.12699999809E+01 0. -1.
       -4    1    3    3    0  502 -0.11215412340E+04  0.11967900949E+04  0.41615601083E+03  0.16921432295E+04  0.12699999809E+01 0.  1.
</event>
<event>
 5   0  0.2599367E-07  0.3434170E+04  0.7818609E-02  0.8129570E-01
       -1   -1    0    0    0  501  0.00000000000E+00  0.00000000000E+00  0.24909448953E+04  0.24909448953E+04  0.50400001928E-02 0. -1.
        1   -1    0    0  501    0  0.00000000000E+00  0.00000000000E+00 -0.11836394838E+04  0.11836394839E+04  0.50400001928E-02 0.  1.
    10030    2    1    2    0    0  0.00000000000E+00  0.00000000000E+00  0.13073054115E+04  0.36745843792E+04  0.34341699027E+04 0.  0.
        2    1    3    3  502    0  0.25920221431E+03  0.13346220218E+04  0.17758743587E+04  0.22365445372E+04  0.25500000920E-02 0. -1.
       -2    1    3    3    0  502 -0.25920221431E+03 -0.13346220218E+04 -0.46856894717E+03  0.14380398420E+04  0.25500000920E-02 0.  1.
</event>
<event>
 5   0  0.7838333E-07  0.3406478E+04  0.7818609E-02  0.8136318E-01
       -2   -1    0    0    0  501  0.00000000000E+00  0.00000000000E+00  0.13703175935E+04  0.13703175935E+04  0.25500000920E-02 0. -1.
        2   -1    0    0  501    0  0.00000000000E+00  0.00000000000E+00 -0.21170443239E+04  0.21170443239E+04  0.25500000920E-02 0.  1.
    10030    2    1    2    0    0  0.00000000000E+00  0.00000000000E+00 -0.74672673045E+03  0.34873619174E+04  0.34064779954E+04 0.  0.
        1    1    3    3  502    0  0.66071746817E+03 -0.48044521960E+03  0.11566625614E+04  0.14160661929E+04  0.50400001928E-02 0. -1.
       -1    1    3    3    0  502 -0.66071746817E+03  0.48044521960E+03 -0.19033892919E+04  0.20712957245E+04  0.50400001928E-02 0.  1.
</event>
<event>
 5   0  0.2641442E-07  0.3414855E+04  0.7818609E-02  0.8134270E-01
       -1   -1    0    0    0  501  0.00000000000E+00  0.00000000000E+00  0.16874585497E+04  0.16874585497E+04  0.50400001928E-02 0. -1.
        1   -1    0    0  501    0  0.00000000000E+00  0.00000000000E+00 -0.17276331231E+04  0.17276331231E+04  0.50400001928E-02 0.  1.
    10030    2    1    2    0    0  0.00000000000E+00  0.00000000000E+00 -0.40174573459E+02  0.34150916728E+04  0.34148553611E+04 0.  0.
        1    1    3    3  502    0 -0.16176325693E+04  0.16156652753E+03 -0.54211039357E+03  0.17136868299E+04  0.50400001928E-02 0.  1.
       -1    1    3    3    0  502  0.16176325693E+04 -0.16156652753E+03  0.50193582011E+03  0.17014048429E+04  0.50400001928E-02 0. -1.
</event>
<event>
 5   0  0.7838333E-07  0.3181215E+04  0.7818609E-02  0.8193796E-01
       -2   -1    0    0    0  501  0.00000000000E+00  0.00000000000E+00  0.11177711811E+04  0.11177711811E+04  0.25500000920E-02 0.  1.
        2   -1    0    0  501    0  0.00000000000E+00  0.00000000000E+00 -0.22634612487E+04  0.22634612487E+04  0.25500000920E-02 0. -1.
    10030    2    1    2    0    0  0.00000000000E+00  0.00000000000E+00 -0.11456900676E+04  0.33812324299E+04  0.31812147073E+04 0.  0.
        1    1    3    3  502    0  0.16413501192E+03 -0.13030993313E+03 -0.22487225784E+04  0.22584672270E+04  0.50400001928E-02 0. -1.
       -1    1    3    3    0  502 -0.16413501192E+03  0.13030993313E+03  0.11030325108E+04  0.11227652028E+04  0.50400001928E-02 0.  1.
</event>
<event>
 5   0  0.7899402E-07  0.3414303E+04  0.7818609E-02  0.8134405E-01
        2   -1    0    0  501    0  0.00000000000E+00  0.00000000000E+00  0.22196144824E+04  0.22196144824E+04  0.25500000920E-02 0. -1.
       -2   -1    0    0    0  501  0.00000000000E+00  0.00000000000E+00 -0.13130054251E+04  0.13130054251E+04  0.25500000920E-02 0.  1.
    10030    2    1    2    0    0  0.00000000000E+00  0.00000000000E+00  0.90660905731E+03  0.35326199074E+04  0.34143027733E+04 0.  0.
        2    1    3    3  502    0 -0.16749099924E+04  0.37151324333E+02  0.11381497719E+03  0.16791835970E+04  0.25500000920E-02 0.  1.
       -2    1    3    3    0  502  0.16749099924E+04 -0.37151324333E+02  0.79279408012E+03  0.18534363104E+04  0.25500000920E-02 0. -1.
</event>
<event>
 5   0  0.7610412E-07  0.3431404E+04  0.7818609E-02  0.8130241E-01
        2   -1    0    0  501    0  0.00000000000E+00  0.00000000000E+00  0.28966999130E+04  0.28966999130E+04  0.25500000920E-02 0.  1.
       -2   -1    0    0    0  501  0.00000000000E+00  0.00000000000E+00 -0.10162024814E+04  0.10162024814E+04  0.25500000920E-02 0. -1.
    10030    2    1    2    0    0  0.00000000000E+00  0.00000000000E+00  0.18804974316E+04  0.39129023943E+04  0.34314041670E+04 0.  0.
        4    1    3    3  502    0  0.52703179120E+03 -0.29463538426E+03 -0.89104422744E+03  0.10763521481E+04  0.12699999809E+01 0. -1.
       -4    1    3    3    0  502 -0.52703179120E+03  0.29463538426E+03  0.27715416590E+04  0.28365502462E+04  0.12699999809E+01 0.  1.
</event>
<event>
 5   0  0.2592200E-07  0.3428671E+04  0.7818609E-02  0.8130905E-01
        1   -1    0    0  501    0  0.00000000000E+00  0.00000000000E+00  0.11226181183E+04  0.11226181183E+04  0.50400001928E-02 0. -1.
       -1   -1    0    0    0  501  0.00000000000E+00  0.00000000000E+00 -0.26179387528E+04  0.26179387528E+04  0.50400001928E-02 0.  1.
    10030    2    1    2    0    0  0.00000000000E+00  0.00000000000E+00 -0.14953206345E+04  0.37405568711E+04  0.34286705741E+04 0.  0.
        4    1    3    3  502    0 -0.52906873191E+03  0.14041089377E+04  0.15692483096E+03  0.15086625360E+04  0.12699999809E+01 0. -1.
       -4    1    3    3    0  502  0.52906873191E+03 -0.14041089377E+04 -0.16522454655E+04  0.22318943351E+04  0.12699999809E+01 0.  1.
</event>
<event>
 5   0  0.2641442E-07  0.3407816E+04  0.7818609E-02  0.8135991E-01
        1   -1    0    0  501    0  0.00000000000E+00  0.00000000000E+00  0.16062605096E+04  0.16062605096E+04  0.50400001928E-02 0.  1.
       -1   -1    0    0    0  501  0.00000000000E+00  0.00000000000E+00 -0.18074917250E+04  0.18074917250E+04  0.50400001928E-02 0. -1.
    10030    2    1    2    0    0  0.00000000000E+00  0.00000000000E+00 -0.20123121535E+03  0.34137522346E+04  0.34078160627E+04 0.  0.
        1    1    3    3  502    0  0.35710891861E+03 -0.13285933226E+04  0.90642932144E+03  0.16475136150E+04  0.50400001928E-02 0.  1.
       -1    1    3    3    0  502 -0.35710891861E+03  0.13285933226E+04 -0.11076605368E+04  0.17662386196E+04  0.50400001928E-02 0. -1.
</event>
<event>
 5   0  0.7610412E-07  0.3467362E+04  0.7818609E-02  0.8121569E-01
       -2   -1    0    0    0  501  0.00000000000E+00  0.00000000000E+00  0.13771915137E+04  0.13771915137E+04  0.25500000920E-02 0. -1.
        2   -1    0    0  501    0  0.00000000000E+00  0.00000000000E+00 -0.21824489547E+04  0.21824489547E+04  0.25500000920E-02 0.  1.
    10030    2    1    2    0    0  0.00000000000E+00  0.00000000000E+00 -0.80525744100E+03  0.35596404683E+04  0.34673622132E+04 0.  0.
        4    1    3    3  502    0 -0.92957720681E+03 -0.14633325965E+04 -0.38838522226E+03  0.17765980877E+04  0.12699999809E+01 0. -1.
       -4    1    3    3    0  502  0.92957720681E+03  0.14633325965E+04 -0.41687221874E+03  0.17830423806E+04  0.12699999809E+01 0.  1.
</event>
<event>
 5   0  0.7822003E-07  0.3390106E+04  0.7818609E-02  0.8140339E-01
       -2   -1    0    0    0  501  0.00000000000E+00  0.00000000000E+00  0.13294407289E+04  0.13294407290E+04  0.25500000920E-02 0. -1.
        2   -1    0    0  501    0  0.00000000000E+00  0.00000000000E+00 -0.21612130336E+04  0.21612130336E+04  0.25500000920E-02 0.  1.
    10030    2    1    2    0    0  0.00000000000E+00  0.00000000000E+00 -0.83177230464E+03  0.34906537625E+04  0.33901059752E+04 0.  0.
        5    1    3    3  502    0  0.29218961258E+03 -0.98008881151E+03 -0.18077301028E+04  0.20769831638E+04  0.46999998093E+01 0.  1.
       -5    1    3    3    0  502 -0.29218961258E+03  0.98008881151E+03  0.97595779811E+03  0.14136705988E+04  0.46999998093E+01 0. -1.
</event>
<event>
 5   0  0.2599367E-07  0.3397267E+04  0.7818609E-02  0.8138577E-01
        1   -1    0    0  501    0  0.00000000000E+00  0.00000000000E+00  0.12257581764E+04  0.12257581764E+04  0.50400001928E-02 0. -1.
       -1   -1    0    0    0  501  0.00000000000E+00  0.00000000000E+00 -0.23539354115E+04  0.23539354116E+04  0.50400001928E-02 0.  1.
    10030    2    1    2    0    0  0.00000000000E+00  0.00000000000E+00 -0.11281772352E+04  0.35796935879E+04  0.33972668882E+04 0.  0.
        2    1    3    3  502    0  0.13409720621E+03 -0.11723115813E+04 -0.18516106901E+04  0.21956226114E+04  0.25500000920E-02 0.  1.
       -2    1    3    3    0  502 -0.13409720621E+03  0.11723115813E+04  0.72343345488E+03  0.13840709765E+04  0.25500000920E-02 0. -1.
</event>
<event>
 5   0  0.2622205E-07  0.3362600E+04  0.7818609E-02  0.8147147E-01
       -1   -1    0    0    0  501  0.00000000000E+00  0.00000000000E+00  0.11311101251E+04  0.11311101251E+04  0.50400001928E-02 0. -1.
        1   -1    0    0  501    0  0.00000000000E+00  0.00000000000E+00 -0.24991103900E+04  0.24991103900E+04  0.50400001928E-02 0.  1.
    10030    2    1    2    0    0  0.00000000000E+00  0.00000000000E+00 -0.13680002648E+04  0.36302205151E+04  0.33625996288E+04 0.  0.
        3    1    3    3  502    0 -0.97428478028E+03  0.53386996359E+03  0.67838671274E+03  0.13017129151E+04  0.10100000352E+00 0. -1.
       -3    1    3    3    0  502  0.97428478028E+03 -0.53386996359E+03 -0.20463869776E+04  0.23285076000E+04  0.10100000352E+00 0.  1.
</event>
<event>
 5   0  0.7899402E-07  0.3404265E+04  0.7818609E-02  0.8136860E-01
       -2   -1    0    0    0  501  0.00000000000E+00  0.00000000000E+00  0.11481871518E+04  0.11481871518E+04  0.25500000920E-02 0. -1.
        2   -1    0    0  501    0  0.00000000000E+00  0.00000000000E+00 -0.25233306502E+04  0.25233306502E+04  0.25500000920E-02 0.  1.
    10030    2    1    2    0    0  0.00000000000E+00  0.00000000000E+00 -0.13751434984E+04  0.36715178020E+04  0.34042654611E+04 0.  0.
        2    1    3    3  502    0  0.74681572132E+03  0.12480206247E+04  0.26613823710E+03  0.14785529286E+04  0.25500000920E-02 0. -1.
       -2    1    3    3    0  502 -0.74681572132E+03 -0.12480206247E+04 -0.16412817354E+04  0.21929648735E+04  0.25500000920E-02 0.  1.
</event>
<event>
 5   0  0.7610412E-07  0.3415805E+04  0.7818609E-02  0.8134038E-01
       -2   -1    0    0    0  501  0.00000000000E+00  0.00000000000E+00  0.11022028718E+04  0.11022028718E+04  0.25500000920E-02 0. -1.
        2   -1    0    0  501    0  0.00000000000E+00  0.00000000000E+00 -0.26464551813E+04  0.26464551813E+04  0.25500000920E-02 0.  1.
    10030    2    1    2    0    0  0.00000000000E+00  0.00000000000E+00 -0.15442523095E+04  0.37486580531E+04  0.34158047373E+04 0.  0.
        4    1    3    3  502    0  0.12317665296E+04  0.79282097275E+03  0.19157497556E+03  0.14773342419E+04  0.12699999809E+01 0. -1.
       -4    1    3    3    0  502 -0.12317665296E+04 -0.79282097275E+03 -0.17358272851E+04  0.22713238111E+04  0.12699999809E+01 0.  1.
</event>
<event>
 5   0  0.2641442E-07  0.3402773E+04  0.7818609E-02  0.8137226E-01
       -1   -1    0    0    0  501  0.00000000000E+00  0.00000000000E+00  0.13947899973E+04  0.13947899973E+04  0.50400001928E-02 0.  1.
        1   -1    0    0  501    0  0.00000000000E+00  0.00000000000E+00 -0.20753781208E+04  0.20753781208E+04  0.50400001928E-02 0. -1.
    10030    2    1    2    0    0  0.00000000000E+00  0.00000000000E+00 -0.68058812344E+03  0.34701681181E+04  0.34027733651E+04 0.  0.
        1    1    3    3  502    0 -0.56517195493E+03  0.45122429580E+03 -0.19108261446E+04  0.20431052980E+04  0.50400001928E-02 0. -1.
       -1    1    3    3    0  502  0.56517195493E+03 -0.45122429580E+03  0.12302380212E+04  0.14270628201E+04  0.50400001928E-02 0.  1.
</event>
<event>
 5   0  0.2641442E-07  0.3431097E+04  0.7818609E-02  0.8130316E-01
       -1   -1    0    0    0  501  0.00000000000E+00  0.00000000000E+00  0.17002278987E+04  0.17002278987E+04  0.50400001928E-02 0.  1.
        1   -1    0    0  501    0  0.00000000000E+00  0.00000000000E+00 -0.17310069978E+04  0.17310069978E+04  0.50400001928E-02 0. -1.
    10030    2    1    2    0    0  0.00000000000E+00  0.00000000000E+00 -0.30779099110E+02  0.34312348965E+04  0.34310968453E+04 0.  0.
        1    1    3    3  502    0 -0.26825586076E+03 -0.12357572570E+04  0.11439884492E+04  0.17052175160E+04  0.50400001928E-02 0.  1.
       -1    1    3    3    0  502  0.26825586076E+03  0.12357572570E+04 -0.11747675483E+04  0.17260173805E+04  0.50400001928E-02 0. -1.
</event>
<event>
 5   0  0.8489228E-07  0.3426768E+04  0.7818609E-02  0.8131368E-01
        2   -1    0    0  501    0  0.00000000000E+00  0.00000000000E+00  0.19155898538E+04  0.19155898538E+04  0.25500000920E-02 0.  1.
       -2   -1    0    0    0  501  0.00000000000E+00  0.00000000000E+00 -0.15325223885E+04  0.15325223885E+04  0.25500000920E-02 0. -1.
    10030    2    1    2    0    0  0.00000000000E+00  0.00000000000E+00  0.38306746536E+03  0.34481122423E+04  0.34267677704E+04 0.  0.
        3    1    3    3  502    0 -0.10475050535E+04 -0.69762989132E+03  0.13614147692E+04  0.18540238635E+04  0.10100000352E+00 0.  1.
       -3    1    3    3    0  502  0.10475050535E+04  0.69762989132E+03 -0.97834730384E+03  0.15940883788E+04  0.10100000352E+00 0. -1.
</event>
<event>
 5   0  0.2592200E-07  0.3390828E+04  0.7818609E-02  0.8140161E-01
       -1   -1    0    0    0  501  0.00000000000E+00  0.00000000000E+00  0.14472970266E+04  0.14472970266E+04  0.50400001928E-02 0.  1.
        1   -1    0    0  501    0  0.00000000000E+00  0.00000000000E+00 -0.19860674050E+04  0.19860674050E+04  0.50400001928E-02 0. -1.
    10030    2    1    2    0    0  0.00000000000E+00  0.00000000000E+00 -0.53877037848E+03  0.34333644316E+04  0.33908284828E+04 0.  0.
        4    1    3    3  502    0 -0.95335363306E+03 -0.13684503456E+04  0.39213928132E+02  0.16682562282E+04  0.12699999809E+01 0.  1.
       -4    1    3    3    0  502  0.95335363306E+03  0.13684503456E+04 -0.57798430661E+03  0.17651082034E+04  0.12699999809E+01 0. -1.
</event>
<event>
 5   0  0.2641442E-07  0.3363893E+04  0.7818609E-02  0.8146825E-01
       -1   -1    0    0    0  501  0.00000000000E+00  0.00000000000E+00  0.15249041677E+04  0.15249041677E+04  0.50400001928E-02 0.  1.
        1   -1    0    0  501    0  0.00000000000E+00  0.00000000000E+00 -0.18551617694E+04  0.18551617694E+04  0.50400001928E-02 0. -1.
    10030    2    1    2    0    0  0.00000000000E+00  0.00000000000E+00 -0.33025760166E+03  0.33800659371E+04  0.33638929316E+04 0.  0.
        1    1    3    3  502    0 -0.15320488747E+03 -0.10155039100E+04 -0.15035328169E+04  0.18208050034E+04  0.50400001928E-02 0. -1.
       -1    1    3    3    0  502  0.15320488747E+03  0.10155039100E+04  0.11732752153E+04  0.15592609337E+04  0.50400001928E-02 0.  1.
</event>
<event>
 5   0  0.2641442E-07  0.3369188E+04  0.7818609E-02  0.8145510E-01
       -1   -1    0    0    0  501  0.00000000000E+00  0.00000000000E+00  0.13642763093E+04  0.13642763093E+04  0.50400001928E-02 0. -1.
        1   -1    0    0  501    0  0.00000000000E+00  0.00000000000E+00 -0.20801184807E+04  0.20801184807E+04  0.50400001928E-02 0.  1.
    10030    2    1    2    0    0  0.00000000000E+00  0.00000000000E+00 -0.71584217134E+03  0.34443947900E+04  0.33691876551E+04 0.  0.
        1    1    3    3  502    0 -0.14508563276E+04  0.40923811952E+03  0.41079197251E+03  0.15624371880E+04  0.50400001928E-02 0. -1.
       -1    1    3    3    0  502  0.14508563276E+04 -0.40923811952E+03 -0.11266341439E+04  0.18819576020E+04  0.50400001928E-02 0.  1.
</event>
<event>
 5   0  0.2622205E-07  0.3462168E+04  0.7818609E-02  0.8122815E-01
       -1   -1    0    0    0  501  0.00000000000E+00  0.00000000000E+00  0.15206046023E+04  0.15206046023E+04  0.50400001928E-02 0.  1.
        1   -1    0    0  501    0  0.00000000000E+00  0.00000000000E+00 -0.19706971442E+04  0.19706971442E+04  0.50400001928E-02 0. -1.
    10030    2    1    2    0    0  0.00000000000E+00  0.00000000000E+00 -0.45009254192E+03  0.34913017465E+04  0.34621676142E+04 0.  0.
        3    1    3    3  502    0 -0.13097354663E+04  0.82076513828E+03 -0.10110853752E+04  0.18469856659E+04  0.10100000352E+00 0. -1.
       -3    1    3    3    0  502  0.13097354663E+04 -0.82076513828E+03  0.56099283330E+03  0.16443160806E+04  0.10100000352E+00 0.  1.
</event>
<event>
 5   0  0.7822003E-07  0.3431749E+04  0.7818609E-02  0.8130158E-01
        2   -1    0    0  501    0  0.00000000000E+00  0.00000000000E+00  0.15293995723E+04  0.15293995723E+04  0.25500000920E-02 0. -1.
       -2   -1    0    0    0  501  0.00000000000E+00  0.00000000000E+00 -0.19250854020E+04  0.19250854020E+04  0.25500000920E-02 0.  1.
    10030    2    1    2    0    0  0.00000000000E+00  0.00000000000E+00 -0.39568582971E+03  0.34544849743E+04  0.34317487032E+04 0.  0.
        5    1    3    3  502    0  0.98879044671E+02 -0.11670244760E+04  0.10644505302E+04  0.15826560632E+04  0.46999998093E+01 0. -1.
       -5    1    3    3    0  502 -0.98879044671E+02  0.11670244760E+04 -0.14601363599E+04  0.18718289111E+04  0.46999998093E+01 0.  1.
</event>
<event>
 5   0  0.2592200E-07  0.3417761E+04  0.7818609E-02  0.8133561E-01
        1   -1    0    0  501    0  0.00000000000E+00  0.00000000000E+00  0.21549333989E+04  0.21549333989E+04  0.50400001928E-02 0. -1.
       -1   -1    0    0    0  501  0.00000000000E+00  0.00000000000E+00 -0.13551566696E+04  0.13551566696E+04  0.50400001928E-02 0.  1.
    10030    2    1    2    0    0  0.00000000000E+00  0.00000000000E+00  0.79977672932E+03  0.35100900685E+04  0.34177608857E+04 0.  0.
        4    1    3    3  502    0  0.59335790845E+02 -0.50553238311E+03 -0.12754953294E+04  0.13733075674E+04  0.12699999809E+01 0.  1.
       -4    1    3    3    0  502 -0.59335790845E+02  0.50553238311E+03  0.20752720587E+04  0.21367825011E+04  0.12699999809E+01 0. -1.
</event>
<event>
 5   0  0.2641442E-07  0.3450389E+04  0.7818609E-02  0.8125649E-01
        1   -1    0    0  501    0  0.00000000000E+00  0.00000000000E+00  0.22965017446E+04  0.22965017446E+04  0.50400001928E-02 0. -1.
       -1   -1    0    0    0  501  0.00000000000E+00  0.00000000000E+00 -0.12960130920E+04  0.12960130920E+04  0.50400001928E-02 0.  1.
    10030    2    1    2    0    0  0.00000000000E+00  0.00000000000E+00  0.10004886526E+04  0.35925148365E+04  0.34503891529E+04 0.  0.
        1    1    3    3  502    0 -0.43166967837E+03 -0.98038933916E+03 -0.90778897785E+03  0.14041306192E+04  0.50400001928E-02 0.  1.
       -1    1    3    3    0  502  0.43166967837E+03  0.98038933916E+03  0.19082776304E+04  0.21883842173E+04  0.50400001928E-02 0. -1.
</event>
<event>
 5   0  0.2641442E-07  0.3398590E+04  0.7818609E-02  0.8138252E-01
        1   -1    0    0  501    0  0.00000000000E+00  0.00000000000E+00  0.23988553986E+04  0.23988553986E+04  0.50400001928E-02 0.  1.
       -1   -1    0    0    0  501  0.00000000000E+00  0.00000000000E+00 -0.12037424090E+04  0.12037424091E+04  0.50400001928E-02 0. -1.
    10030    2    1    2    0    0  0.00000000000E+00  0.00000000000E+00  0.11951129896E+04  0.36025978077E+04  0.33985902822E+04 0.  0.
        1    1    3    3  502    0  0.12639870419E+04  0.35590746744E+03 -0.54573598497E+03  0.14220271210E+04  0.50400001928E-02 0. -1.
       -1    1    3    3    0  502 -0.12639870419E+04 -0.35590746744E+03  0.17408489745E+04  0.21805706867E+04  0.50400001928E-02 0.  1.
</event>
<event>
 5   0  0.7822003E-07  0.3081485E+04  0.7818609E-02  0.8220838E-01
       -2   -1    0    0    0  501  0.00000000000E+00  0.00000000000E+00  0.10371073936E+04  0.10371073936E+04  0.25500000920E-02 0.  1.
        2   -1    0    0  501    0  0.00000000000E+00  0.00000000000E+00 -0.22889508772E+04  0.22889508772E+04  0.25500000920E-02 0. -1.
    10030    2    1    2    0    0  0.00000000000E+00  0.00000000000E+00 -0.12518434835E+04  0.33260582708E+04  0.30814852772E+04 0.  0.
        5    1    3    3  502    0 -0.12180581417E+04 -0.59519283485E+03 -0.14161091923E+04  0.19604355337E+04  0.46999998093E+01 0. -1.
       -5    1    3    3    0  502  0.12180581417E+04  0.59519283485E+03  0.16426570877E+03  0.13656227371E+04  0.46999998093E+01 0.  1.
</event>
<event>
 5   0  0.7610412E-07  0.3447920E+04  0.7818609E-02  0.8126244E-01
       -2   -1    0    0    0  501  0.00000000000E+00  0.00000000000E+00  0.21116845614E+04  0.21116845614E+04  0.25500000920E-02 0. -1.
        2   -1    0    0  501    0  0.00000000000E+00  0.00000000000E+00 -0.14074254773E+04  0.14074254773E+04  0.25500000920E-02 0.  1.
    10030    2    1    2    0    0  0.00000000000E+00  0.00000000000E+00  0.70425908407E+03  0.35191100386E+04  0.34479203307E+04 0.  0.
        4    1    3    3  502    0  0.11544802573E+04 -0.18005988105E+03  0.16458942343E+04  0.20184686444E+04  0.12699999809E+01 0. -1.
       -4    1    3    3    0  502 -0.11544802573E+04  0.18005988105E+03 -0.94163515018E+03  0.15006413942E+04  0.12699999809E+01 0.  1.
</event>
<event>
 5   0  0.2553250E-07  0.3549241E+04  0.7818609E-02  0.8102219E-01
        1   -1    0    0  501    0  0.00000000000E+00  0.00000000000E+00  0.20176529761E+04  0.20176529761E+04  0.50400001928E-02 0.  1.
       -1   -1    0    0    0  501  0.00000000000E+00  0.00000000000E+00 -0.15608616006E+04  0.15608616006E+04  0.50400001928E-02 0. -1.
    10030    2    1    2    0    0  0.00000000000E+00  0.00000000000E+00  0.45679137552E+03  0.35785145766E+04  0.35492405123E+04 0.  0.
        5    1    3    3  502    0 -0.15123414752E+04  0.10990946358E+03  0.11579533758E+04  0.19079137660E+04  0.46999998093E+01 0.  1.
       -5    1    3    3    0  502  0.15123414752E+04 -0.10990946358E+03 -0.70116200029E+03  0.16706008107E+04  0.46999998093E+01 0. -1.
</event>
<event>
 5   0  0.7610412E-07  0.3397084E+04  0.7818609E-02  0.8138622E-01
       -2   -1    0    0    0  501  0.00000000000E+00  0.00000000000E+00  0.10697670733E+04  0.10697670733E+04  0.25500000920E-02 0. -1.
        2   -1    0    0  501    0  0.00000000000E+00  0.00000000000E+00 -0.26968900639E+04  0.26968900639E+04  0.25500000920E-02 0.  1.
    10030    2    1    2    0    0  0.00000000000E+00  0.00000000000E+00 -0.16271229906E+04  0.37666571372E+04  0.33970835672E+04 0.  0.
        4    1    3    3  502    0 -0.80277047183E+03  0.14851926421E+04 -0.60670438740E+03  0.17939703011E+04  0.12699999809E+01 0.  1.
       -4    1    3    3    0  502  0.80277047183E+03 -0.14851926421E+04 -0.10204186032E+04  0.19726868361E+04  0.12699999809E+01 0. -1.
</event>
<event>
 5   0  0.2622205E-07  0.3387606E+04  0.7818609E-02  0.8140955E-01
        1   -1    0    0  501    0  0.00000000000E+00  0.00000000000E+00  0.16232055686E+04  0.16232055687E+04  0.50400001928E-02 0.  1.
       -1   -1    0    0    0  501  0.00000000000E+00  0.00000000000E+00 -0.17674708323E+04  0.17674708323E+04  0.50400001928E-02 0. -1.
    10030    2    1    2    0    0  0.00000000000E+00  0.00000000000E+00 -0.14426526364E+03  0.33906764010E+04  0.33876059378E+04 0.  0.
        3    1    3    3  502    0  0.67169989421E+03  0.33933346796E+03  0.14466881509E+04  0.16307159674E+04  0.10100000352E+00 0.  1.
       -3    1    3    3    0  502 -0.67169989421E+03 -0.33933346796E+03 -0.15909534145E+04  0.17599604335E+04  0.10100000352E+00 0. -1.
</event>
<event>
 5   0  0.7899402E-07  0.3408930E+04  0.7818609E-02  0.8135718E-01
        2   -1    0    0  501    0  0.00000000000E+00  0.00000000000E+00  0.16474263179E+04  0.16474263179E+04  0.25500000920E-02 0.  1.
       -2   -1    0    0    0  501  0.00000000000E+00  0.00000000000E+00 -0.17634787696E+04  0.17634787696E+04  0.25500000920E-02 0. -1.
    10030    2    1    2    0    0  0.00000000000E+00  0.00000000000E+00 -0.11605245171E+03  0.34109050876E+04  0.34089302347E+04 0.  0.
        2    1    3    3  502    0  0.13766677971E+04  0.55666451340E+03 -0.89523775292E+03  0.17339377839E+04  0.25500000920E-02 0.  1.
       -2    1    3    3    0  502 -0.13766677971E+04 -0.55666451340E+03  0.77918530121E+03  0.16769673037E+04  0.25500000920E-02 0. -1.
</event>
<event>
 5   0  0.7838333E-07  0.3403531E+04  0.7818609E-02  0.8137040E-01
        2   -1    0    0  501    0  0.00000000000E+00  0.00000000000E+00  0.22620119788E+04  0.22620119788E+04  0.25500000920E-02 0. -1.
       -2   -1    0    0    0  501  0.00000000000E+00  0.00000000000E+00 -0.12802786187E+04  0.12802786187E+04  0.25500000920E-02 0.  1.
    10030    2    1    2    0    0  0.00000000000E+00  0.00000000000E+00  0.98173336009E+03  0.35422905974E+04  0.34035308558E+04 0.  0.
        1    1    3    3  502    0 -0.12078274549E+04  0.11512460770E+04  0.83884940391E+03  0.18675874847E+04  0.50400001928E-02 0. -1.
       -1    1    3    3    0  502  0.12078274549E+04 -0.11512460770E+04  0.14288395618E+03  0.16747031127E+04  0.50400001928E-02 0.  1.
</event>
<event>
 5   0  0.2592200E-07  0.3392511E+04  0.7818609E-02  0.8139747E-01
       -1   -1    0    0    0  501  0.00000000000E+00  0.00000000000E+00  0.15974663374E+04  0.15974663374E+04  0.50400001928E-02 0. -1.
        1   -1    0    0  501    0  0.00000000000E+00  0.00000000000E+00 -0.18011540621E+04  0.18011540622E+04  0.50400001928E-02 0.  1.
    10030    2    1    2    0    0  0.00000000000E+00  0.00000000000E+00 -0.20368772477E+03  0.33986203995E+04  0.33925111541E+04 0.  0.
        4    1    3    3  502    0  0.16038299203E+04  0.14631818098E+03 -0.63534577309E+03  0.17312842885E+04  0.12699999809E+01 0. -1.
       -4    1    3    3    0  502 -0.16038299203E+04 -0.14631818098E+03  0.43165804831E+03  0.16673361110E+04  0.12699999809E+01 0.  1.
</event>
<event>
 5   0  0.7838333E-07  0.3453235E+04  0.7818609E-02  0.8124963E-01
        2   -1    0    0  501    0  0.00000000000E+00  0.00000000000E+00  0.20575127492E+04  0.20575127492E+04  0.25500000920E-02 0.  1.
       -2   -1    0    0    0  501  0.00000000000E+00  0.00000000000E+00 -0.14489378616E+04  0.14489378616E+04  0.25500000920E-02 0. -1.
    10030    2    1    2    0    0  0.00000000000E+00  0.00000000000E+00  0.60857488768E+03  0.35064506108E+04  0.34532350763E+04 0.  0.
        1    1    3    3  502    0  0.11339870369E+04  0.12473236872E+04 -0.74917874872E+02  0.16874109364E+04  0.50400001928E-02 0. -1.
       -1    1    3    3    0  502 -0.11339870369E+04 -0.12473236872E+04  0.68349276256E+03  0.18190396744E+04  0.50400001928E-02 0.  1.
</event>
<event>
 5   0  0.2599367E-07  0.3419807E+04  0.7818609E-02  0.8133062E-01
       -1   -1    0    0    0  501  0.00000000000E+00  0.00000000000E+00  0.16940388873E+04  0.16940388873E+04  0.50400001928E-02 0. -1.
        1   -1    0    0  501    0  0.00000000000E+00  0.00000000000E+00 -0.17259169037E+04  0.17259169037E+04  0.50400001928E-02 0.  1.
    10030    2    1    2    0    0  0.00000000000E+00  0.00000000000E+00 -0.31878016416E+02  0.34199557910E+04  0.34198072174E+04 0.  0.
        2    1    3    3  502    0 -0.62985977047E+03  0.10208120419E+04 -0.12345935242E+04  0.17213371910E+04  0.25500000920E-02 0.  1.
       -2    1    3    3    0  502  0.62985977047E+03 -0.10208120419E+04  0.12027155077E+04  0.16986185999E+04  0.25500000920E-02 0. -1.
</event>
<event>
 5   0  0.7610412E-07  0.3431846E+04  0.7818609E-02  0.8130134E-01
       -2   -1    0    0    0  501  0.00000000000E+00  0.00000000000E+00  0.15001724845E+04  0.15001724845E+04  0.25500000920E-02 0. -1.
        2   -1    0    0  501    0  0.00000000000E+00  0.00000000000E+00 -0.19627024529E+04  0.19627024529E+04  0.25500000920E-02 0.  1.
    10030    2    1    2    0    0  0.00000000000E+00  0.00000000000E+00 -0.46252996840E+03  0.34628749374E+04  0.34318462757E+04 0.  0.
        4    1    3    3  502    0 -0.14057109547E+04  0.38223505873E+03 -0.11462511616E+04  0.18536505244E+04  0.12699999809E+01 0.  1.
       -4    1    3    3    0  502  0.14057109547E+04 -0.38223505873E+03  0.68372119325E+03  0.16092244129E+04  0.12699999809E+01 0. -1.
</event>
<event>
 5   0  0.8489228E-07  0.3400988E+04  0.7818609E-02  0.8137664E-01
        2   -1    0    0  501    0  0.00000000000E+00  0.00000000000E+00  0.10527161254E+04  0.10527161254E+04  0.25500000920E-02 0. -1.
       -2   -1    0    0    0  501  0.00000000000E+00  0.00000000000E+00 -0.27468746629E+04  0.27468746629E+04  0.25500000920E-02 0.  1.
    10030    2    1    2    0    0  0.00000000000E+00  0.00000000000E+00 -0.16941585375E+04  0.37995907883E+04  0.34009876519E+04 0.  0.
        3    1    3    3  502    0  0.59547752964E+03 -0.13271591711E+03  0.92623847523E+03  0.11091098801E+04  0.10100000352E+00 0. -1.
       -3    1    3    3    0  502 -0.59547752964E+03  0.13271591711E+03 -0.26203970127E+04  0.26904809082E+04  0.10100000352E+00 0.  1.
</event>
<event>
 5   0  0.2599367E-07  0.3417558E+04  0.7818609E-02  0.8133610E-01
       -1   -1    0    0    0  501  0.00000000000E+00  0.00000000000E+00  0.12476906239E+04  0.12476906239E+04  0.50400001928E-02 0.  1.
        1   -1    0    0  501    0  0.00000000000E+00  0.00000000000E+00 -0.23402648312E+04  0.23402648312E+04  0.50400001928E-02 0. -1.
    10030    2    1    2    0    0  0.00000000000E+00  0.00000000000E+00 -0.10925742073E+04  0.35879554551E+04  0.34175584779E+04 0.  0.
        2    1    3    3  502    0  0.11024121207E+04 -0.58070788264E+02  0.82306176989E+03  0.13769950535E+04  0.25500000920E-02 0.  1.
       -2    1    3    3    0  502 -0.11024121207E+04  0.58070788264E+02 -0.19156359772E+04  0.22109604016E+04  0.25500000920E-02 0. -1.
</event>
<event>
 5   0  0.2592200E-07  0.3410148E+04  0.7818609E-02  0.8135420E-01
        1   -1    0    0  501    0  0.00000000000E+00  0.00000000000E+00  0.16249915545E+04  0.16249915545E+04  0.50400001928E-02 0.  1.
       -1   -1    0    0    0  501  0.00000000000E+00  0.00000000000E+00 -0.17891031782E+04  0.17891031782E+04  0.50400001928E-02 0. -1.
    10030    2    1    2    0    0  0.00000000000E+00  0.00000000000E+00 -0.16411162375E+03  0.34140947327E+04  0.34101481227E+04 0.  0.
        4    1    3    3  502    0 -0.14590188377E+04 -0.87942507249E+03 -0.15391293144E+03  0.17105014558E+04  0.12699999809E+01 0.  1.
       -4    1    3    3    0  502  0.14590188377E+04  0.87942507249E+03 -0.10198692308E+02  0.17035932769E+04  0.12699999809E+01 0. -1.
</event>
<event>
 5   0  0.2622205E-07  0.3426709E+04  0.7818609E-02  0.8131382E-01
       -1   -1    0    0    0  501  0.00000000000E+00  0.00000000000E+00  0.15558824868E+04  0.15558824869E+04  0.50400001928E-02 0. -1.
        1   -1    0    0  501    0  0.00000000000E+00  0.00000000000E+00 -0.18867645024E+04  0.18867645024E+04  0.50400001928E-02 0.  1.
    10030    2    1    2    0    0  0.00000000000E+00  0.00000000000E+00 -0.33088201553E+03  0.34426469892E+04  0.34267091187E+04 0.  0.
        3    1    3    3  502    0  0.45237593903E+03 -0.14347675162E+04 -0.98924387232E+03  0.18005013926E+04  0.10100000352E+00 0.  1.
       -3    1    3    3    0  502 -0.45237593903E+03  0.14347675162E+04  0.65836185680E+03  0.16421455966E+04  0.10100000352E+00 0. -1.
</event>
<event>
 5   0  0.2622205E-07  0.3364740E+04  0.7818609E-02  0.8146615E-01
        1   -1    0    0  501    0  0.00000000000E+00  0.00000000000E+00  0.20424980960E+04  0.20424980960E+04  0.50400001928E-02 0.  1.
       -1   -1    0    0    0  501  0.00000000000E+00  0.00000000000E+00 -0.13857387473E+04  0.13857387473E+04  0.50400001928E-02 0. -1.
    10030    2    1    2    0    0  0.00000000000E+00  0.00000000000E+00  0.65675934862E+03  0.34282368433E+04  0.33647399620E+04 0.  0.
        3    1    3    3  502    0 -0.15563038370E+04 -0.13128409404E+03  0.96552183398E+03  0.18361779785E+04  0.10100000352E+00 0.  1.
       -3    1    3    3    0  502  0.15563038370E+04  0.13128409404E+03 -0.30876248536E+03  0.15920588648E+04  0.10100000352E+00 0. -1.
</event>
<event>
 5   0  0.7838333E-07  0.3176960E+04  0.7818609E-02  0.8194928E-01
       -2   -1    0    0    0  501  0.00000000000E+00  0.00000000000E+00  0.91509644206E+03  0.91509644206E+03  0.25500000920E-02 0.  1.
        2   -1    0    0  501    0  0.00000000000E+00  0.00000000000E+00 -0.27573809282E+04  0.27573809282E+04  0.25500000920E-02 0. -1.
    10030    2    1    2    0    0  0.00000000000E+00  0.00000000000E+00 -0.18422844862E+04  0.36724773703E+04  0.31769604825E+04 0.  0.
        1    1    3    3  502    0 -0.64716642839E+03 -0.92750511974E+03 -0.22105456369E+04  0.24830630572E+04  0.50400001928E-02 0. -1.
       -1    1    3    3    0  502  0.64716642839E+03  0.92750511974E+03  0.36826115068E+03  0.11894143131E+04  0.50400001928E-02 0.  1.
</event>
<event>
 5   0  0.7822003E-07  0.3393258E+04  0.7818609E-02  0.8139563E-01
       -2   -1    0    0    0  501  0.00000000000E+00  0.00000000000E+00  0.15601478732E+04  0.15601478732E+04  0.25500000920E-02 0. -1.
        2   -1    0    0  501    0  0.00000000000E+00  0.00000000000E+00 -0.18450491256E+04  0.18450491256E+04  0.25500000920E-02 0.  1.
    10030    2    1    2    0    0  0.00000000000E+00  0.00000000000E+00 -0.28490125241E+03  0.34051969988E+04  0.33932577086E+04 0.  0.
        5    1    3    3  502    0 -0.27075520955E+03 -0.75995960707E+03 -0.16402437713E+04  0.18279137581E+04  0.46999998093E+01 0.  1.
       -5    1    3    3    0  502  0.27075520955E+03  0.75995960707E+03  0.13553425189E+04  0.15772832407E+04  0.46999998093E+01 0. -1.
</event>
<event>
 5   0  0.7899402E-07  0.3394731E+04  0.7818609E-02  0.8139201E-01
       -2   -1    0    0    0  501  0.00000000000E+00  0.00000000000E+00  0.11779095758E+04  0.11779095758E+04  0.25500000920E-02 0. -1.
        2   -1    0    0  501    0  0.00000000000E+00  0.00000000000E+00 -0.24459011479E+04  0.24459011480E+04  0.25500000920E-02 0.  1.
    10030    2    1    2    0    0  0.00000000000E+00  0.00000000000E+00 -0.12679915721E+04  0.36238107238E+04  0.33947314378E+04 0.  0.
        2    1    3    3  502    0 -0.53138732007E+03 -0.93555973482E+03  0.76737761168E+03  0.13215569985E+04  0.25500000920E-02 0. -1.
       -2    1    3    3    0  502  0.53138732007E+03  0.93555973482E+03 -0.20353691838E+04  0.23022537253E+04  0.25500000920E-02 0.  1.
</event>
<event>
 5   0  0.2641442E-07  0.3398289E+04  0.7818609E-02  0.8138326E-01
       -1   -1    0    0    0  501  0.00000000000E+00  0.00000000000E+00  0.13514211627E+04  0.13514211627E+04  0.50400001928E-02 0.  1.
        1   -1    0    0  501    0  0.00000000000E+00  0.00000000000E+00 -0.21363373090E+04  0.21363373090E+04  0.50400001928E-02 0. -1.
    10030    2    1    2    0    0  0.00000000000E+00  0.00000000000E+00 -0.78491614628E+03  0.34877584717E+04  0.33982886576E+04 0.  0.
        1    1    3    3  502    0  0.96113761715E+03  0.12421312242E+04  0.27300771008E+03  0.15941169051E+04  0.50400001928E-02 0. -1.
       -1    1    3    3    0  502 -0.96113761715E+03 -0.12421312242E+04 -0.10579238564E+04  0.18936415667E+04  0.50400001928E-02 0.  1.
</event>
<event>
 5   0  0.7899402E-07  0.3407545E+04  0.7818609E-02  0.8136057E-01
        2   -1    0    0  501    0  0.00000000000E+00  0.00000000000E+00  0.15531706178E+04  0.15531706178E+04  0.25500000920E-02 0.  1.
       -2   -1    0    0    0  501  0.00000000000E+00  0.00000000000E+00 -0.18689778900E+04  0.18689778900E+04  0.25500000920E-02 0. -1.
    10030    2    1    2    0    0  0.00000000000E+00  0.00000000000E+00 -0.31580727216E+03  0.34221485078E+04  0.34075454768E+04 0.  0.
        2    1    3    3  502    0  0.11769369049E+04 -0.90828231880E+03 -0.99374692994E+03  0.17882086594E+04  0.25500000920E-02 0. -1.
       -2    1    3    3    0  502 -0.11769369049E+04  0.90828231880E+03  0.67793965778E+03  0.16339398484E+04  0.25500000920E-02 0.  1.
</event>
<event>
 5   0  0.2641442E-07  0.3422184E+04  0.7818609E-02  0.8132483E-01
       -1   -1    0    0    0  501  0.00000000000E+00  0.00000000000E+00  0.13110809162E+04  0.13110809162E+04  0.50400001928E-02 0. -1.
        1   -1    0    0  501    0  0.00000000000E+00  0.00000000000E+00 -0.22331468359E+04  0.22331468359E+04  0.50400001928E-02 0.  1.
    10030    2    1    2    0    0  0.00000000000E+00  0.00000000000E+00 -0.92206591976E+03  0.35442277521E+04  0.34221842146E+04 0.  0.
        1    1    3    3  502    0  0.95146758747E+03 -0.64481680938E+03  0.85175119616E+03  0.14305800879E+04  0.50400001928E-02 0. -1.
       -1    1    3    3    0  502 -0.95146758747E+03  0.64481680938E+03 -0.17738171159E+04  0.21136476642E+04  0.50400001928E-02 0.  1.
</event>
<event>
 5   0  0.2553250E-07  0.3409234E+04  0.7818609E-02  0.8135644E-01
        1   -1    0    0  501    0  0.00000000000E+00  0.00000000000E+00  0.16994717255E+04  0.16994717255E+04  0.50400001928E-02 0. -1.
       -1   -1    0    0    0  501  0.00000000000E+00  0.00000000000E+00 -0.17097779187E+04  0.17097779187E+04  0.50400001928E-02 0.  1.
    10030    2    1    2    0    0  0.00000000000E+00  0.00000000000E+00 -0.10306193217E+02  0.34092496441E+04  0.34092340662E+04 0.  0.
        5    1    3    3  502    0  0.84317933292E+03  0.14128932113E+04 -0.45066442026E+03  0.17059716069E+04  0.46999998093E+01 0.  1.
       -5    1    3    3    0  502 -0.84317933292E+03 -0.14128932113E+04  0.44035822704E+03  0.17032780372E+04  0.46999998093E+01 0. -1.
</event>
<event>
 5   0  0.7610412E-07  0.3400375E+04  0.7818609E-02  0.8137814E-01
       -2   -1    0    0    0  501  0.00000000000E+00  0.00000000000E+00  0.15069615052E+04  0.15069615052E+04  0.25500000920E-02 0.  1.
        2   -1    0    0  501    0  0.00000000000E+00  0.00000000000E+00 -0.19181893734E+04  0.19181893734E+04  0.25500000920E-02 0. -1.
    10030    2    1    2    0    0  0.00000000000E+00  0.00000000000E+00 -0.41122786815E+03  0.34251508786E+04  0.34003750061E+04 0.  0.
        4    1    3    3  502    0 -0.31351815799E+03 -0.14386199564E+04 -0.10619345532E+04  0.18153863563E+04  0.12699999809E+01 0. -1.
       -4    1    3    3    0  502  0.31351815799E+03  0.14386199564E+04  0.65070668507E+03  0.16097645223E+04  0.12699999809E+01 0.  1.
</event>
<event>
 5   0  0.2622205E-07  0.3395784E+04  0.7818609E-02  0.8138942E-01
        1   -1    0    0  501    0  0.00000000000E+00  0.00000000000E+00  0.16172398811E+04  0.16172398811E+04  0.50400001928E-02 0.  1.
       -1   -1    0    0    0  501  0.00000000000E+00  0.00000000000E+00 -0.17825662114E+04  0.17825662114E+04  0.50400001928E-02 0. -1.
    10030    2    1    2    0    0  0.00000000000E+00  0.00000000000E+00 -0.16532633029E+03  0.33998060925E+04  0.33957839553E+04 0.  0.
        3    1    3    3  502    0 -0.13586263224E+04  0.80482018493E+03  0.54196372449E+03  0.16695285870E+04  0.10100000352E+00 0.  1.
       -3    1    3    3    0  502  0.13586263224E+04 -0.80482018493E+03 -0.70729005478E+03  0.17302775055E+04  0.10100000352E+00 0. -1.
</event>
<event>
 5   0  0.2553250E-07  0.3408523E+04  0.7818609E-02  0.8135818E-01
       -3   -1    0    0    0  501  0.00000000000E+00  0.00000000000E+00  0.24237065311E+04  0.24237065332E+04  0.10100000352E+00 0. -1.
        3   -1    0    0  501    0  0.00000000000E+00  0.00000000000E+00 -0.11983740293E+04  0.11983740335E+04  0.10100000352E+00 0.  1.
    10030    2    1    2    0    0  0.00000000000E+00  0.00000000000E+00  0.12253325018E+04  0.36220805667E+04  0.34085228313E+04 0.  0.
        1    1    3    3  502    0  0.60289644337E+03  0.60270798485E+03 -0.95551948439E+03  0.12805305625E+04  0.50400001928E-02 0.  1.
       -1    1    3    3    0  502 -0.60289644337E+03 -0.60270798485E+03  0.21808519862E+04  0.23415500042E+04  0.50400001928E-02 0. -1.
</event>
<event>
 5   0  0.2641442E-07  0.3407108E+04  0.7818609E-02  0.8136164E-01
       -1   -1    0    0    0  501  0.00000000000E+00  0.00000000000E+00  0.11880097884E+04  0.11880097884E+04  0.50400001928E-02 0. -1.
        1   -1    0    0  501    0  0.00000000000E+00  0.00000000000E+00 -0.24428219733E+04  0.24428219733E+04  0.50400001928E-02 0.  1.
    10030    2    1    2    0    0  0.00000000000E+00  0.00000000000E+00 -0.12548121850E+04  0.36308317617E+04  0.34071081084E+04 0.  0.
        1    1    3    3  502    0 -0.46303642494E+03 -0.75085340239E+03  0.92565506629E+03  0.12786793439E+04  0.50400001928E-02 0. -1.
       -1    1    3    3    0  502  0.46303642494E+03  0.75085340239E+03 -0.21804672512E+04  0.23521524178E+04  0.50400001928E-02 0.  1.
</event>
<event>
 5   0  0.2599367E-07  0.3374159E+04  0.7818609E-02  0.8144278E-01
        1   -1    0    0  501    0  0.00000000000E+00  0.00000000000E+00  0.18475224768E+04  0.18475224768E+04  0.50400001928E-02 0.  1.
       -1   -1    0    0    0  501  0.00000000000E+00  0.00000000000E+00 -0.15405701793E+04  0.15405701793E+04  0.50400001928E-02 0. -1.
    10030    2    1    2    0    0  0.00000000000E+00  0.00000000000E+00  0.30695229750E+03  0.33880926561E+04  0.33741594706E+04 0.  0.
        2    1    3    3  502    0 -0.15910696078E+04 -0.52465061616E+03 -0.46033184201E+02  0.16759713064E+04  0.25500000920E-02 0. -1.
       -2    1    3    3    0  502  0.15910696078E+04  0.52465061616E+03  0.35298548170E+03  0.17121213497E+04  0.25500000920E-02 0.  1.
</event>
<event>
 5   0  0.2592200E-07  0.3384214E+04  0.7818609E-02  0.8141792E-01
       -1   -1    0    0    0  501  0.00000000000E+00  0.00000000000E+00  0.19293712800E+04  0.19293712800E+04  0.50400001928E-02 0.  1.
        1   -1    0    0  501    0  0.00000000000E+00  0.00000000000E+00 -0.14840205607E+04  0.14840205607E+04  0.50400001928E-02 0. -1.
    10030    2    1    2    0    0  0.00000000000E+00  0.00000000000E+00  0.44535071925E+03  0.34133918407E+04  0.33842143246E+04 0.  0.
        4    1    3    3  502    0  0.13272250119E+04 -0.31152450959E+03 -0.78828926311E+03  0.15747937412E+04  0.12699999809E+01 0. -1.
       -4    1    3    3    0  502 -0.13272250119E+04  0.31152450959E+03  0.12336399824E+04  0.18385980994E+04  0.12699999809E+01 0.  1.
</event>
<event>
 5   0  0.2553250E-07  0.3399267E+04  0.7818609E-02  0.8138086E-01
       -1   -1    0    0    0  501  0.00000000000E+00  0.00000000000E+00  0.25208013362E+04  0.25208013362E+04  0.50400001928E-02 0. -1.
        1   -1    0    0  501    0  0.00000000000E+00  0.00000000000E+00 -0.11459665418E+04  0.11459665418E+04  0.50400001928E-02 0.  1.
    10030    2    1    2    0    0  0.00000000000E+00  0.00000000000E+00  0.13748347944E+04  0.36667678780E+04  0.33992669738E+04 0.  0.
        5    1    3    3  502    0  0.11681550989E+03 -0.13336289898E+04  0.18169697729E+04  0.22569034962E+04  0.46999998093E+01 0. -1.
       -5    1    3    3    0  502 -0.11681550989E+03  0.13336289898E+04 -0.44213497851E+03  0.14098643817E+04  0.46999998093E+01 0.  1.
</event>
<event>
 5   0  0.7838333E-07  0.3386319E+04  0.7818609E-02  0.8141272E-01
       -2   -1    0    0    0  501  0.00000000000E+00  0.00000000000E+00  0.14736958870E+04  0.14736958870E+04  0.25500000920E-02 0.  1.
        2   -1    0    0  501    0  0.00000000000E+00  0.00000000000E+00 -0.19453062532E+04  0.19453062532E+04  0.25500000920E-02 0. -1.
    10030    2    1    2    0    0  0.00000000000E+00  0.00000000000E+00 -0.47161036625E+03  0.34190021402E+04  0.33863194322E+04 0.  0.
        1    1    3    3  502    0  0.48138758501E+03 -0.37889396185E+03 -0.18294864796E+04  0.19293303036E+04  0.50400001928E-02 0. -1.
       -1    1    3    3    0  502 -0.48138758501E+03  0.37889396185E+03  0.13578761134E+04  0.14896718365E+04  0.50400001928E-02 0.  1.
</event>
<event>
 5   0  0.2599367E-07  0.3322919E+04  0.7818609E-02  0.8157088E-01
       -1   -1    0    0    0  501  0.00000000000E+00  0.00000000000E+00  0.11236211995E+04  0.11236211995E+04  0.50400001928E-02 0. -1.
        1   -1    0    0  501    0  0.00000000000E+00  0.00000000000E+00 -0.24567417703E+04  0.24567417703E+04  0.50400001928E-02 0.  1.
    10030    2    1    2    0    0  0.00000000000E+00  0.00000000000E+00 -0.13331205708E+04  0.35803629698E+04  0.33229186778E+04 0.  0.
        2    1    3    3  502    0 -0.62974801843E+03 -0.15481831309E+03 -0.23147439604E+04  0.24038699797E+04  0.25500000920E-02 0.  1.
       -2    1    3    3    0  502  0.62974801843E+03  0.15481831309E+03  0.98162338961E+03  0.11764929901E+04  0.25500000920E-02 0. -1.
</event>
<event>
 5   0  0.8489228E-07  0.3394582E+04  0.7818609E-02  0.8139237E-01
       -2   -1    0    0    0  501  0.00000000000E+00  0.00000000000E+00  0.15575051405E+04  0.15575051405E+04  0.25500000920E-02 0. -1.
        2   -1    0    0  501    0  0.00000000000E+00  0.00000000000E+00 -0.18496230981E+04  0.18496230981E+04  0.25500000920E-02 0.  1.
    10030    2    1    2    0    0  0.00000000000E+00  0.00000000000E+00 -0.29211795756E+03  0.34071282387E+04  0.33945824388E+04 0.  0.
        3    1    3    3  502    0  0.76825859890E+03  0.10042232467E+04  0.99042961198E+03  0.16061246622E+04  0.10100000352E+00 0.  1.
       -3    1    3    3    0  502 -0.76825859890E+03 -0.10042232467E+04 -0.12825475695E+04  0.18010035765E+04  0.10100000352E+00 0. -1.
</event>
<event>
 5   0  0.2592200E-07  0.3403002E+04  0.7818609E-02  0.8137170E-01
        1   -1    0    0  501    0  0.00000000000E+00  0.00000000000E+00  0.22607544548E+04  0.22607544548E+04  0.50400001928E-02 0. -1.
       -1   -1    0    0    0  501  0.00000000000E+00  0.00000000000E+00 -0.12805926365E+04  0.12805926365E+04  0.50400001928E-02 0.  1.
    10030    2    1    2    0    0  0.00000000000E+00  0.00000000000E+00  0.98016181829E+03  0.35413470913E+04  0.34030019147E+04 0.  0.
        4    1    3    3  502    0 -0.64130186077E+03  0.15279091700E+04  0.89222245356E+03  0.18819768936E+04  0.12699999809E+01 0. -1.
       -4    1    3    3    0  502  0.64130186077E+03 -0.15279091700E+04  0.87939364730E+02  0.16593701977E+04  0.12699999809E+01 0.  1.
</event>
<event>
 5   0  0.7838333E-07  0.3289990E+04  0.7818609E-02  0.8165447E-01
       -2   -1    0    0    0  501  0.00000000000E+00  0.00000000000E+00  0.13885769428E+04  0.13885769428E+04  0.25500000920E-02 0.  1.
        2   -1    0    0  501    0  0.00000000000E+00  0.00000000000E+00 -0.19487638689E+04  0.19487638689E+04  0.25500000920E-02 0. -1.
    10030    2    1    2    0    0  0.00000000000E+00  0.00000000000E+00 -0.56018692611E+03  0.33373408118E+04  0.32899900154E+04 0.  0.
        1    1    3    3  502    0 -0.22174617386E+03  0.12007772310E+04 -0.13982149164E+04  0.18563518730E+04  0.50400001928E-02 0. -1.
       -1    1    3    3    0  502  0.22174617386E+03 -0.12007772310E+04  0.83802799029E+03  0.14809889387E+04  0.50400001928E-02 0.  1.
</event>
<event>
 5   0  0.2622205E-07  0.3300131E+04  0.7818609E-02  0.8162862E-01
       -1   -1    0    0    0  501  0.00000000000E+00  0.00000000000E+00  0.16806504830E+04  0.16806504830E+04  0.50400001928E-02 0. -1.
        1   -1    0    0  501    0  0.00000000000E+00  0.00000000000E+00 -0.16200372206E+04  0.16200372207E+04  0.50400001928E-02 0.  1.
    10030    2    1    2    0    0  0.00000000000E+00  0.00000000000E+00  0.60613262369E+02  0.33006877037E+04  0.33001311110E+04 0.  0.
        3    1    3    3  502    0  0.11144059247E+04 -0.50236063304E+03  0.11388480001E+04  0.16707009152E+04  0.10100000352E+00 0. -1.
       -3    1    3    3    0  502 -0.11144059247E+04  0.50236063304E+03 -0.10782347377E+04  0.16299867884E+04  0.10100000352E+00 0.  1.
</event>
<event>
 5   0  0.7610412E-07  0.3438750E+04  0.7818609E-02  0.8128461E-01
        2   -1    0    0  501    0  0.00000000000E+00  0.00000000000E+00  0.13041359730E+04  0.13041359730E+04  0.25500000920E-02 0. -1.
       -2   -1    0    0    0  501  0.00000000000E+00  0.00000000000E+00 -0.22668268157E+04  0.22668268157E+04  0.25500000920E-02 0.  1.
    10030    2    1    2    0    0  0.00000000000E+00  0.00000000000E+00 -0.96269084268E+03  0.35709627887E+04  0.34387500025E+04 0.  0.
        4    1    3    3  502    0  0.25892000291E+03  0.31753868373E+03  0.12527004256E+04  0.13180024100E+04  0.12699999809E+01 0. -1.
       -4    1    3    3    0  502 -0.25892000291E+03 -0.31753868373E+03 -0.22153912683E+04  0.22529603787E+04  0.12699999809E+01 0.  1.
</event>
<event>
 5   0  0.7610412E-07  0.3399895E+04  0.7818609E-02  0.8137932E-01
        2   -1    0    0  501    0  0.00000000000E+00  0.00000000000E+00  0.20055201651E+04  0.20055201651E+04  0.25500000920E-02 0. -1.
       -2   -1    0    0    0  501  0.00000000000E+00  0.00000000000E+00 -0.14409333627E+04  0.14409333627E+04  0.25500000920E-02 0.  1.
    10030    2    1    2    0    0  0.00000000000E+00  0.00000000000E+00  0.56458680237E+03  0.34464535278E+04  0.33998946545E+04 0.  0.
        4    1    3    3  502    0  0.11746192469E+03  0.57013227934E+03 -0.13367546658E+04  0.14579995779E+04  0.12699999809E+01 0.  1.
       -4    1    3    3    0  502 -0.11746192469E+03 -0.57013227934E+03  0.19013414681E+04  0.19884539499E+04  0.12699999809E+01 0. -1.
</event>
<event>
 5   0  0.7822003E-07  0.3395732E+04  0.7818609E-02  0.8138954E-01
       -2   -1    0    0    0  501  0.00000000000E+00  0.00000000000E+00  0.13432362547E+04  0.13432362547E+04  0.25500000920E-02 0. -1.
        2   -1    0    0  501    0  0.00000000000E+00  0.00000000000E+00 -0.21461226658E+04  0.21461226658E+04  0.25500000920E-02 0.  1.
    10030    2    1    2    0    0  0.00000000000E+00  0.00000000000E+00 -0.80288641114E+03  0.34893589205E+04  0.33957324816E+04 0.  0.
        5    1    3    3  502    0 -0.15444348761E+04 -0.70456257698E+03 -0.36830229737E+03  0.17370538804E+04  0.46999998093E+01 0. -1.
       -5    1    3    3    0  502  0.15444348761E+04  0.70456257698E+03 -0.43458411377E+03  0.17523050400E+04  0.46999998093E+01 0.  1.
</event>
<event>
 5   0  0.7899402E-07  0.3438758E+04  0.7818609E-02  0.8128459E-01
       -2   -1    0    0    0  501  0.00000000000E+00  0.00000000000E+00  0.15272827381E+04  0.15272827381E+04  0.25500000920E-02 0. -1.
        2   -1    0    0  501    0  0.00000000000E+00  0.00000000000E+00 -0.19356362062E+04  0.19356362062E+04  0.25500000920E-02 0.  1.
    10030    2    1    2    0    0  0.00000000000E+00  0.00000000000E+00 -0.40835346810E+03  0.34629189443E+04  0.34387577786E+04 0.  0.
        2    1    3    3  502    0  0.15394012600E+04  0.26780428135E+03 -0.92670545184E+03  0.18166613242E+04  0.25500000920E-02 0.  1.
       -2    1    3    3    0  502 -0.15394012600E+04 -0.26780428135E+03  0.51835198374E+03  0.16462576200E+04  0.25500000920E-02 0. -1.
</event>
<event>
 5   0  0.8489228E-07  0.3353291E+04  0.7818609E-02  0.8149466E-01
       -2   -1    0    0    0  501  0.00000000000E+00  0.00000000000E+00  0.23380630468E+04  0.23380630468E+04  0.25500000920E-02 0. -1.
        2   -1    0    0  501    0  0.00000000000E+00  0.00000000000E+00 -0.12023370163E+04  0.12023370163E+04  0.25500000920E-02 0.  1.
    10030    2    1    2    0    0  0.00000000000E+00  0.00000000000E+00  0.11357260305E+04  0.35404000631E+04  0.33532907704E+04 0.  0.
        3    1    3    3  502    0 -0.96035916905E+03  0.19774331152E+03 -0.86808051402E+03  0.13095632630E+04  0.10100000352E+00 0.  1.
       -3    1    3    3    0  502  0.96035916905E+03 -0.19774331152E+03  0.20038065445E+04  0.22308368001E+04  0.10100000352E+00 0. -1.
</event>
<event>
 5   0  0.8489228E-07  0.3286354E+04  0.7818609E-02  0.8166376E-01
        2   -1    0    0  501    0  0.00000000000E+00  0.00000000000E+00  0.31219447188E+04  0.31219447188E+04  0.25500000920E-02 0.  1.
       -2   -1    0    0    0  501  0.00000000000E+00  0.00000000000E+00 -0.86485561794E+03  0.86485561794E+03  0.25500000920E-02 0. -1.
    10030    2    1    2    0    0  0.00000000000E+00  0.00000000000E+00  0.22570891009E+04  0.39868003368E+04  0.32863544721E+04 0.  0.
        3    1    3    3  502    0 -0.13086294136E+04  0.74568896598E+03  0.33167983060E+03  0.15422627845E+04  0.10100000352E+00 0. -1.
       -3    1    3    3    0  502  0.13086294136E+04 -0.74568896598E+03  0.19254092703E+04  0.24445375523E+04  0.10100000352E+00 0.  1.
</event>
<event>
 5   0  0.7899402E-07  0.3406920E+04  0.7818609E-02  0.8136210E-01
        2   -1    0    0  501    0  0.00000000000E+00  0.00000000000E+00  0.32668834296E+04  0.32668834296E+04  0.25500000920E-02 0.  1.
       -2   -1    0    0    0  501  0.00000000000E+00  0.00000000000E+00 -0.88823986495E+03  0.88823986495E+03  0.25500000920E-02 0. -1.
    10030    2    1    2    0    0  0.00000000000E+00  0.00000000000E+00  0.23786435646E+04  0.41551232945E+04  0.34069200732E+04 0.  0.
        2    1    3    3  502    0  0.15618931706E+04  0.64598088299E+03  0.14479674642E+04  0.22256260591E+04  0.25500000920E-02 0. -1.
       -2    1    3    3    0  502 -0.15618931706E+04 -0.64598088299E+03  0.93067610042E+03  0.19294972354E+04  0.25500000920E-02 0.  1.
</event>
<event>
 5   0  0.2553250E-07  0.3399743E+04  0.7818609E-02  0.8137969E-01
       -3   -1    0    0    0  501  0.00000000000E+00  0.00000000000E+00  0.17752868302E+04  0.17752868331E+04  0.10100000352E+00 0. -1.
        3   -1    0    0  501    0  0.00000000000E+00  0.00000000000E+00 -0.16276602284E+04  0.16276602315E+04  0.10100000352E+00 0.  1.
    10030    2    1    2    0    0  0.00000000000E+00  0.00000000000E+00  0.14762660180E+03  0.34029470646E+04  0.33997433890E+04 0.  0.
        5    1    3    3  502    0  0.12989862987E+04 -0.54547753352E+03 -0.87820364533E+03  0.16601731465E+04  0.46999998093E+01 0. -1.
       -5    1    3    3    0  502 -0.12989862987E+04  0.54547753352E+03  0.10258302471E+04  0.17427739181E+04  0.46999998093E+01 0.  1.
</event>
<event>
 5   0  0.7822003E-07  0.3415075E+04  0.7818609E-02  0.8134216E-01
       -2   -1    0    0    0  501  0.00000000000E+00  0.00000000000E+00  0.19667137195E+04  0.19667137195E+04  0.25500000920E-02 0. -1.
        2   -1    0    0  501    0  0.00000000000E+00  0.00000000000E+00 -0.14825158094E+04  0.14825158094E+04  0.25500000920E-02 0.  1.
    10030    2    1    2    0    0  0.00000000000E+00  0.00000000000E+00  0.48419791016E+03  0.34492295289E+04  0.34150749226E+04 0.  0.
        5    1    3    3  502    0 -0.12786571548E+04  0.38193798450E+03  0.13180328965E+04  0.18756528330E+04  0.46999998093E+01 0. -1.
       -5    1    3    3    0  502  0.12786571548E+04 -0.38193798450E+03 -0.83383498636E+03  0.15735766959E+04  0.46999998093E+01 0.  1.
</event>
<event>
 5   0  0.8489228E-07  0.3415564E+04  0.7818609E-02  0.8134097E-01
       -2   -1    0    0    0  501  0.00000000000E+00  0.00000000000E+00  0.98363373309E+03  0.98363373309E+03  0.25500000920E-02 0. -1.
        2   -1    0    0  501    0  0.00000000000E+00  0.00000000000E+00 -0.29650468726E+04  0.29650468726E+04  0.25500000920E-02 0.  1.
    10030    2    1    2    0    0  0.00000000000E+00  0.00000000000E+00 -0.19814131395E+04  0.39486806057E+04  0.34155644477E+04 0.  0.
        3    1    3    3  502    0  0.12858205993E+04 -0.10468390881E+04 -0.51782224789E+03  0.17370511163E+04  0.10100000352E+00 0. -1.
       -3    1    3    3    0  502 -0.12858205993E+04  0.10468390881E+04 -0.14635908916E+04  0.22116294894E+04  0.10100000352E+00 0.  1.
</event>
<event>
 5   0  0.2592200E-07  0.3403171E+04  0.7818609E-02  0.8137128E-01
        1   -1    0    0  501    0  0.00000000000E+00  0.00000000000E+00  0.25454622427E+04  0.25454622427E+04  0.50400001928E-02 0. -1.
       -1   -1    0    0    0  501  0.00000000000E+00  0.00000000000E+00 -0.11374724839E+04  0.11374724839E+04  0.50400001928E-02 0.  1.
    10030    2    1    2    0    0  0.00000000000E+00  0.00000000000E+00  0.14079897588E+04  0.36829347266E+04  0.34031710271E+04 0.  0.
        4    1    3    3  502    0 -0.15547224609E+04  0.63492409468E+03  0.10005691196E+04  0.19548480024E+04  0.12699999809E+01 0. -1.
       -4    1    3    3    0  502  0.15547224609E+04 -0.63492409468E+03  0.40742063919E+03  0.17280867242E+04  0.12699999809E+01 0.  1.
</event>
<event>
 5   0  0.7838333E-07  0.3633178E+04  0.7818609E-02  0.8082934E-01
       -2   -1    0    0    0  501  0.00000000000E+00  0.00000000000E+00  0.14846629971E+04  0.14846629971E+04  0.25500000920E-02 0.  1.
        2   -1    0    0  501    0  0.00000000000E+00  0.00000000000E+00 -0.22227231374E+04  0.22227231374E+04  0.25500000920E-02 0. -1.
    10030    2    1    2    0    0  0.00000000000E+00  0.00000000000E+00 -0.73806014035E+03  0.37073861345E+04  0.36331775596E+04 0.  0.
        1    1    3    3  502    0 -0.65943642337E+03  0.16315589165E+04  0.90902092718E+02  0.17621305527E+04  0.50400001928E-02 0.  1.
       -1    1    3    3    0  502  0.65943642337E+03 -0.16315589165E+04 -0.82896223307E+03  0.19452555817E+04  0.50400001928E-02 0. -1.
</event>
<event>
 5   0  0.7899402E-07  0.3418324E+04  0.7818609E-02  0.8133424E-01
        2   -1    0    0  501    0  0.00000000000E+00  0.00000000000E+00  0.24560214420E+04  0.24560214420E+04  0.25500000920E-02 0.  1.
       -2   -1    0    0    0  501  0.00000000000E+00  0.00000000000E+00 -0.11894172195E+04  0.11894172195E+04  0.25500000920E-02 0. -1.
    10030    2    1    2    0    0  0.00000000000E+00  0.00000000000E+00  0.12666042225E+04  0.36454386615E+04  0.34183236796E+04 0.  0.
        2    1    3    3  502    0  0.88092931329E+03  0.14332800021E+04  0.95484085047E+03  0.19344376622E+04  0.25500000920E-02 0. -1.
       -2    1    3    3    0  502 -0.88092931329E+03 -0.14332800021E+04  0.31176337208E+03  0.17110009993E+04  0.25500000920E-02 0.  1.
</event>
<event>
 5   0  0.2599367E-07  0.3453104E+04  0.7818609E-02  0.8124994E-01
        1   -1    0    0  501    0  0.00000000000E+00  0.00000000000E+00  0.16978227858E+04  0.16978227858E+04  0.50400001928E-02 0. -1.
       -1   -1    0    0    0  501  0.00000000000E+00  0.00000000000E+00 -0.17557678292E+04  0.17557678293E+04  0.50400001928E-02 0.  1.
    10030    2    1    2    0    0  0.00000000000E+00  0.00000000000E+00 -0.57945043491E+02  0.34535906150E+04  0.34531044740E+04 0.  0.
        2    1    3    3  502    0  0.84123813031E+03  0.95993436772E+03  0.11338721378E+04  0.17072848641E+04  0.25500000920E-02 0. -1.
       -2    1    3    3    0  502 -0.84123813031E+03 -0.95993436772E+03 -0.11918171813E+04  0.17463057510E+04  0.25500000920E-02 0.  1.
</event>
<event>
 5   0  0.7822003E-07  0.3389241E+04  0.7818609E-02  0.8140552E-01
       -2   -1    0    0    0  501  0.00000000000E+00  0.00000000000E+00  0.13237559788E+04  0.13237559788E+04  0.25500000920E-02 0.  1.
        2   -1    0    0  501    0  0.00000000000E+00  0.00000000000E+00 -0.21693862601E+04  0.21693862601E+04  0.25500000920E-02 0. -1.
    10030    2    1    2    0    0  0.00000000000E+00  0.00000000000E+00 -0.84563028134E+03  0.34931422389E+04  0.33892406418E+04 0.  0.
        5    1    3    3  502    0 -0.24658525827E+03  0.27166517961E+03 -0.21279548374E+04  0.21593564178E+04  0.46999998093E+01 0. -1.
       -5    1    3    3    0  502  0.24658525827E+03 -0.27166517961E+03  0.12823245560E+04  0.13337858210E+04  0.46999998093E+01 0.  1.
</event>
<event>
 5   0  0.2622205E-07  0.3393942E+04  0.7818609E-02  0.8139395E-01
        1   -1    0    0  501    0  0.00000000000E+00  0.00000000000E+00  0.99801646481E+03  0.99801646482E+03  0.50400001928E-02 0.  1.
       -1   -1    0    0    0  501  0.00000000000E+00  0.00000000000E+00 -0.28854333638E+04  0.28854333638E+04  0.50400001928E-02 0. -1.
    10030    2    1    2    0    0  0.00000000000E+00  0.00000000000E+00 -0.18874168989E+04  0.38834498286E+04  0.33939416643E+04 0.  0.
        3    1    3    3  502    0 -0.17567482256E+03 -0.15885730215E+04 -0.29111193816E+03  0.16245528796E+04  0.10100000352E+00 0.  1.
       -3    1    3    3    0  502  0.17567482256E+03  0.15885730215E+04 -0.15963049608E+04  0.22588969490E+04  0.10100000352E+00 0. -1.
</event>
<event>
 5   0  0.2622205E-07  0.3403534E+04  0.7818609E-02  0.8137039E-01
        1   -1    0    0  501    0  0.00000000000E+00  0.00000000000E+00  0.18228727015E+04  0.18228727015E+04  0.50400001928E-02 0.  1.
       -1   -1    0    0    0  501  0.00000000000E+00  0.00000000000E+00 -0.15887073621E+04  0.15887073621E+04  0.50400001928E-02 0. -1.
    10030    2    1    2    0    0  0.00000000000E+00  0.00000000000E+00  0.23416533939E+03  0.34115800635E+04  0.34035342108E+04 0.  0.
        3    1    3    3  502    0  0.11553424375E+04 -0.43492780449E+03 -0.10570244312E+04  0.16252012188E+04  0.10100000352E+00 0. -1.
       -3    1    3    3    0  502 -0.11553424375E+04  0.43492780449E+03  0.12911897706E+04  0.17863788448E+04  0.10100000352E+00 0.  1.
</event>
<event>
 5   0  0.2592200E-07  0.3364802E+04  0.7818609E-02  0.8146599E-01
       -1   -1    0    0    0  501  0.00000000000E+00  0.00000000000E+00  0.12741650150E+04  0.12741650150E+04  0.50400001928E-02 0.  1.
        1   -1    0    0  501    0  0.00000000000E+00  0.00000000000E+00 -0.22214339152E+04  0.22214339152E+04  0.50400001928E-02 0. -1.
    10030    2    1    2    0    0  0.00000000000E+00  0.00000000000E+00 -0.94726890018E+03  0.34955989302E+04  0.33648021505E+04 0.  0.
        4    1    3    3  502    0  0.18276004314E+03  0.14100041123E+04  0.46074935575E+03  0.14945917208E+04  0.12699999809E+01 0. -1.
       -4    1    3    3    0  502 -0.18276004314E+03 -0.14100041123E+04 -0.14080182559E+04  0.20010072094E+04  0.12699999809E+01 0.  1.
</event>
<event>
 5   0  0.7610412E-07  0.3380812E+04  0.7818609E-02  0.8142632E-01
        2   -1    0    0  501    0  0.00000000000E+00  0.00000000000E+00  0.21109082910E+04  0.21109082910E+04  0.25500000920E-02 0. -1.
       -2   -1    0    0    0  501  0.00000000000E+00  0.00000000000E+00 -0.13536697481E+04  0.13536697481E+04  0.25500000920E-02 0.  1.
    10030    2    1    2    0    0  0.00000000000E+00  0.00000000000E+00  0.75723854294E+03  0.34645780391E+04  0.33808121477E+04 0.  0.
        4    1    3    3  502    0  0.14848615595E+04  0.60144632787E+03 -0.17411419168E+03  0.16114803446E+04  0.12699999809E+01 0.  1.
       -4    1    3    3    0  502 -0.14848615595E+04 -0.60144632787E+03  0.93135273462E+03  0.18530976945E+04  0.12699999809E+01 0. -1.
</event>
<event>
 5   0  0.7899402E-07  0.3422819E+04  0.7818609E-02  0.8132328E-01
       -2   -1    0    0    0  501  0.00000000000E+00  0.00000000000E+00  0.14492530909E+04  0.14492530909E+04  0.25500000920E-02 0.  1.
        2   -1    0    0  501    0  0.00000000000E+00  0.00000000000E+00 -0.20209873087E+04  0.20209873087E+04  0.25500000920E-02 0. -1.
    10030    2    1    2    0    0  0.00000000000E+00  0.00000000000E+00 -0.57173421777E+03  0.34702403996E+04  0.34228187821E+04 0.  0.
        2    1    3    3  502    0 -0.11741656998E+04 -0.81043406592E+02  0.97379932466E+03  0.15275857583E+04  0.25500000920E-02 0.  1.
       -2    1    3    3    0  502  0.11741656998E+04  0.81043406592E+02 -0.15455335424E+04  0.19426546413E+04  0.25500000920E-02 0. -1.
</event>
<event>
 5   0  0.7610412E-07  0.3394578E+04  0.7818609E-02  0.8139238E-01
        2   -1    0    0  501    0  0.00000000000E+00  0.00000000000E+00  0.17361023246E+04  0.17361023246E+04  0.25500000920E-02 0. -1.
       -2   -1    0    0    0  501  0.00000000000E+00  0.00000000000E+00 -0.16593431283E+04  0.16593431283E+04  0.25500000920E-02 0.  1.
    10030    2    1    2    0    0  0.00000000000E+00  0.00000000000E+00  0.76759196301E+02  0.33954454529E+04  0.33945777130E+04 0.  0.
        4    1    3    3  502    0 -0.12997823441E+04 -0.49207404491E+03  0.10129062481E+04  0.17197533800E+04  0.12699999809E+01 0. -1.
       -4    1    3    3    0  502  0.12997823441E+04  0.49207404491E+03 -0.93614705178E+03  0.16756920729E+04  0.12699999809E+01 0.  1.
</event>
<event>
 5   0  0.7838333E-07  0.3314847E+04  0.7818609E-02  0.8159128E-01
        2   -1    0    0  501    0  0.00000000000E+00  0.00000000000E+00  0.14452740011E+04  0.14452740011E+04  0.25500000920E-02 0.  1.
       -2   -1    0    0    0  501  0.00000000000E+00  0.00000000000E+00 -0.19007140093E+04  0.19007140093E+04  0.25500000920E-02 0. -1.
    10030    2    1    2    0    0  0.00000000000E+00  0.00000000000E+00 -0.45544000820E+03  0.33459880104E+04  0.33148469293E+04 0.  0.
        1    1    3    3  502    0 -0.15975360889E+03 -0.16337605544E+04 -0.45868783658E+03  0.17044322504E+04  0.50400001928E-02 0. -1.
       -1    1    3    3    0  502  0.15975360889E+03  0.16337605544E+04  0.32478283787E+01  0.16415557600E+04  0.50400001928E-02 0.  1.
</event>
<event>
 5   0  0.8489228E-07  0.3436464E+04  0.7818609E-02  0.8129014E-01
       -2   -1    0    0    0  501  0.00000000000E+00  0.00000000000E+00  0.17189878140E+04  0.17189878140E+04  0.25500000920E-02 0.  1.
        2   -1    0    0  501    0  0.00000000000E+00  0.00000000000E+00 -0.17174762256E+04  0.17174762256E+04  0.25500000920E-02 0. -1.
    10030    2    1    2    0    0  0.00000000000E+00  0.00000000000E+00  0.15115883883E+01  0.34364640396E+04  0.34364637071E+04 0.  0.
        3    1    3    3  502    0  0.17281917168E+03 -0.26125928332E+03 -0.16886814984E+04  0.17174888915E+04  0.10100000352E+00 0. -1.
       -3    1    3    3    0  502 -0.17281917168E+03  0.26125928332E+03  0.16901930867E+04  0.17189751481E+04  0.10100000352E+00 0.  1.
</event>
<event>
 5   0  0.2641442E-07  0.2984154E+04  0.7818609E-02  0.8248270E-01
        1   -1    0    0  501    0  0.00000000000E+00  0.00000000000E+00  0.88901370187E+03  0.88901370188E+03  0.50400001928E-02 0. -1.
       -1   -1    0    0    0  501  0.00000000000E+00  0.00000000000E+00 -0.25042284461E+04  0.25042284461E+04  0.50400001928E-02 0.  1.
    10030    2    1    2    0    0  0.00000000000E+00  0.00000000000E+00 -0.16152147442E+04  0.33932421480E+04  0.29841537502E+04 0.  0.
        1    1    3    3  502    0  0.80686540560E+03  0.11736931202E+04 -0.30201132704E+03  0.14559526657E+04  0.50400001928E-02 0. -1.
       -1    1    3    3    0  502 -0.80686540560E+03 -0.11736931202E+04 -0.13132034172E+04  0.19372894822E+04  0.50400001928E-02 0.  1.
</event>
<event>
 5   0  0.7899402E-07  0.3397385E+04  0.7818609E-02  0.8138549E-01
       -2   -1    0    0    0  501  0.00000000000E+00  0.00000000000E+00  0.16971513023E+04  0.16971513023E+04  0.25500000920E-02 0. -1.
        2   -1    0    0  501    0  0.00000000000E+00  0.00000000000E+00 -0.17002346895E+04  0.17002346895E+04  0.25500000920E-02 0.  1.
    10030    2    1    2    0    0  0.00000000000E+00  0.00000000000E+00 -0.30833872919E+01  0.33973859918E+04  0.33973845926E+04 0.  0.
        2    1    3    3  502    0  0.12869601977E+04 -0.50353154850E+03 -0.98934012976E+03  0.16995894984E+04  0.25500000920E-02 0.  1.
       -2    1    3    3    0  502 -0.12869601977E+04  0.50353154850E+03  0.98625674247E+03  0.16977964934E+04  0.25500000920E-02 0. -1.
</event>
<event>
 5   0  0.2599367E-07  0.3401551E+04  0.7818609E-02  0.8137526E-01
        1   -1    0    0  501    0  0.00000000000E+00  0.00000000000E+00  0.11365030419E+04  0.11365030419E+04  0.50400001928E-02 0.  1.
       -1   -1    0    0    0  501  0.00000000000E+00  0.00000000000E+00 -0.25452083220E+04  0.25452083220E+04  0.50400001928E-02 0. -1.
    10030    2    1    2    0    0  0.00000000000E+00  0.00000000000E+00 -0.14087052801E+04  0.36817113640E+04  0.34015508230E+04 0.  0.
        2    1    3    3  502    0 -0.63549377394E+03 -0.12593049153E+04  0.32414004821E+03  0.14473313295E+04  0.25500000920E-02 0.  1.
       -2    1    3    3    0  502  0.63549377394E+03  0.12593049153E+04 -0.17328453283E+04  0.22343800345E+04  0.25500000920E-02 0. -1.
</event>
<event>
 5   0  0.7899402E-07  0.3406738E+04  0.7818609E-02  0.8136255E-01
        2   -1    0    0  501    0  0.00000000000E+00  0.00000000000E+00  0.13830803976E+04  0.13830803976E+04  0.25500000920E-02 0.  1.
       -2   -1    0    0    0  501  0.00000000000E+00  0.00000000000E+00 -0.20978289658E+04  0.20978289658E+04  0.25500000920E-02 0. -1.
    10030    2    1    2    0    0  0.00000000000E+00  0.00000000000E+00 -0.71474856820E+03  0.34809093634E+04  0.34067380998E+04 0.  0.
        2    1    3    3  502    0  0.14392907211E+04 -0.75567282397E+03 -0.87724128227E+03  0.18472009810E+04  0.25500000920E-02 0. -1.
       -2    1    3    3    0  502 -0.14392907211E+04  0.75567282397E+03  0.16249271406E+03  0.16337083824E+04  0.25500000920E-02 0.  1.
</event>
<event>
 5   0  0.7610412E-07  0.3381620E+04  0.7818609E-02  0.8142432E-01
        2   -1    0    0  501    0  0.00000000000E+00  0.00000000000E+00  0.16663654336E+04  0.16663654336E+04  0.25500000920E-02 0. -1.
       -2   -1    0    0    0  501  0.00000000000E+00  0.00000000000E+00 -0.17156130363E+04  0.17156130363E+04  0.25500000920E-02 0.  1.
    10030    2    1    2    0    0  0.00000000000E+00  0.00000000000E+00 -0.49247602730E+02  0.33819784700E+04  0.33816198848E+04 0.  0.
        4    1    3    3  502    0 -0.15727633304E+04 -0.59684315748E+03 -0.19502496677E+03  0.16934705781E+04  0.12699999809E+01 0.  1.
       -4    1    3    3    0  502  0.15727633304E+04  0.59684315748E+03  0.14577736404E+03  0.16885078919E+04  0.12699999809E+01 0. -1.
</event>
<event>
 5   0  0.2641442E-07  0.3404400E+04  0.7818609E-02  0.8136827E-01
        1   -1    0    0  501    0  0.00000000000E+00  0.00000000000E+00  0.18401382386E+04  0.18401382386E+04  0.50400001928E-02 0.  1.
       -1   -1    0    0    0  501  0.00000000000E+00  0.00000000000E+00 -0.15746015485E+04  0.15746015485E+04  0.50400001928E-02 0. -1.
    10030    2    1    2    0    0  0.00000000000E+00  0.00000000000E+00  0.26553669009E+03  0.34147397870E+04  0.34043998119E+04 0.  0.
        1    1    3    3  502    0 -0.17493072777E+03 -0.13702182473E+04  0.11304681211E+04  0.17849529343E+04  0.50400001928E-02 0.  1.
       -1    1    3    3    0  502  0.17493072777E+03  0.13702182473E+04 -0.86493143103E+03  0.16297868527E+04  0.50400001928E-02 0. -1.
</event>
<event>
 5   0  0.2622205E-07  0.3391658E+04  0.7818609E-02  0.8139957E-01
        1   -1    0    0  501    0  0.00000000000E+00  0.00000000000E+00  0.23699354269E+04  0.23699354269E+04  0.50400001928E-02 0.  1.
       -1   -1    0    0    0  501  0.00000000000E+00  0.00000000000E+00 -0.12134658255E+04  0.12134658255E+04  0.50400001928E-02 0. -1.
    10030    2    1    2    0    0  0.00000000000E+00  0.00000000000E+00  0.11564696014E+04  0.35834012524E+04  0.33916577948E+04 0.  0.
        3    1    3    3  502    0 -0.57976313231E+03  0.97241522477E+03  0.19121977901E+04  0.22222099490E+04  0.10100000352E+00 0.  1.
       -3    1    3    3    0  502  0.57976313231E+03 -0.97241522477E+03 -0.75572818875E+03  0.13611913034E+04  0.10100000352E+00 0. -1.
</event>
<event>
 5   0  0.8489228E-07  0.3392099E+04  0.7818609E-02  0.8139848E-01
        2   -1    0    0  501    0  0.00000000000E+00  0.00000000000E+00  0.17569765472E+04  0.17569765472E+04  0.25500000920E-02 0. -1.
       -2   -1    0    0    0  501  0.00000000000E+00  0.00000000000E+00 -0.16372348120E+04  0.16372348120E+04  0.25500000920E-02 0.  1.
    10030    2    1    2    0    0  0.00000000000E+00  0.00000000000E+00  0.11974173518E+03  0.33942113592E+04  0.33920985640E+04 0.  0.
        3    1    3    3  502    0 -0.27326407779E+03 -0.10038643405E+04  0.14001700893E+04  0.17443890505E+04  0.10100000352E+00 0. -1.
       -3    1    3    3    0  502  0.27326407779E+03  0.10038643405E+04 -0.12804283541E+04  0.16498223088E+04  0.10100000352E+00 0.  1.
</event>
<event>
 5   0  0.2553250E-07  0.3399764E+04  0.7818609E-02  0.8137964E-01
        1   -1    0    0  501    0  0.00000000000E+00  0.00000000000E+00  0.25619839501E+04  0.25619839501E+04  0.50400001928E-02 0. -1.
       -1   -1    0    0    0  501  0.00000000000E+00  0.00000000000E+00 -0.11278757756E+04  0.11278757756E+04  0.50400001928E-02 0.  1.
    10030    2    1    2    0    0  0.00000000000E+00  0.00000000000E+00  0.14341081745E+04  0.36898597257E+04  0.33997644829E+04 0.  0.
        5    1    3    3  502    0  0.10005039285E+04 -0.11037789766E+04  0.16055934055E+04  0.21902713106E+04  0.46999998093E+01 0. -1.
       -5    1    3    3    0  502 -0.10005039285E+04  0.11037789766E+04 -0.17148523095E+03  0.14995884151E+04  0.46999998093E+01 0.  1.
</event>
<event>
 5   0  0.2592200E-07  0.3410854E+04  0.7818609E-02  0.8135247E-01
        1   -1    0    0  501    0  0.00000000000E+00  0.00000000000E+00  0.23645806394E+04  0.23645806394E+04  0.50400001928E-02 0.  1.
       -1   -1    0    0    0  501  0.00000000000E+00  0.00000000000E+00 -0.12300200488E+04  0.12300200488E+04  0.50400001928E-02 0. -1.
    10030    2    1    2    0    0  0.00000000000E+00  0.00000000000E+00  0.11345605906E+04  0.35946006882E+04  0.34108542001E+04 0.  0.
        4    1    3    3  502    0  0.11504067618E+04  0.10420244474E+04 -0.17734457408E+03  0.15622750646E+04  0.12699999809E+01 0. -1.
       -4    1    3    3    0  502 -0.11504067618E+04 -0.10420244474E+04  0.13119051646E+04  0.20323256236E+04  0.12699999809E+01 0.  1.
</event>
<event>
 5   0  0.7610412E-07  0.3426812E+04  0.7818609E-02  0.8131357E-01
        2   -1    0    0  501    0  0.00000000000E+00  0.00000000000E+00  0.21837567182E+04  0.21837567182E+04  0.25500000920E-02 0. -1.
       -2   -1    0    0    0  501  0.00000000000E+00  0.00000000000E+00 -0.13443619960E+04  0.13443619960E+04  0.25500000920E-02 0.  1.
    10030    2    1    2    0    0  0.00000000000E+00  0.00000000000E+00  0.83939472228E+03  0.35281187142E+04  0.34268116613E+04 0.  0.
        4    1    3    3  502    0  0.14171120324E+04  0.11543780375E+03  0.14041155419E+04  0.19982678666E+04  0.12699999809E+01 0. -1.
       -4    1    3    3    0  502 -0.14171120324E+04 -0.11543780375E+03 -0.56472081958E+03  0.15298508476E+04  0.12699999809E+01 0.  1.
</event>
<event>
 5   0  0.7838333E-07  0.3369898E+04  0.7818609E-02  0.8145334E-01
       -2   -1    0    0    0  501  0.00000000000E+00  0.00000000000E+00  0.12809536734E+04  0.12809536734E+04  0.25500000920E-02 0. -1.
        2   -1    0    0  501    0  0.00000000000E+00  0.00000000000E+00 -0.22163595810E+04  0.22163595810E+04  0.25500000920E-02 0.  1.
    10030    2    1    2    0    0  0.00000000000E+00  0.00000000000E+00 -0.93540590762E+03  0.34973132544E+04  0.33698984833E+04 0.  0.
        1    1    3    3  502    0  0.51700598802E+03  0.15389930029E+04 -0.93559204536E+03  0.18738001841E+04  0.50400001928E-02 0.  1.
       -1    1    3    3    0  502 -0.51700598802E+03 -0.15389930029E+04  0.18613773633E+00  0.16235130703E+04  0.50400001928E-02 0. -1.
</event>
<event>
 5   0  0.2599367E-07  0.3372296E+04  0.7818609E-02  0.8144740E-01
       -1   -1    0    0    0  501  0.00000000000E+00  0.00000000000E+00  0.23683366373E+04  0.23683366373E+04  0.50400001928E-02 0. -1.
        1   -1    0    0  501    0  0.00000000000E+00  0.00000000000E+00 -0.12004604891E+04  0.12004604891E+04  0.50400001928E-02 0.  1.
    10030    2    1    2    0    0  0.00000000000E+00  0.00000000000E+00  0.11678761481E+04  0.35687971264E+04  0.33722956917E+04 0.  0.
        2    1    3    3  502    0 -0.61863032665E+03  0.62388101409E+03 -0.93907422616E+03  0.12859982127E+04  0.25500000920E-02 0.  1.
       -2    1    3    3    0  502  0.61863032665E+03 -0.62388101409E+03  0.21069503743E+04  0.22827989137E+04  0.25500000920E-02 0. -1.
</event>
<event>
 5   0  0.7899402E-07  0.3402875E+04  0.7818609E-02  0.8137201E-01
        2   -1    0    0  501    0  0.00000000000E+00  0.00000000000E+00  0.21475630845E+04  0.21475630845E+04  0.25500000920E-02 0.  1.
       -2   -1    0    0    0  501  0.00000000000E+00  0.00000000000E+00 -0.13479878625E+04  0.13479878625E+04  0.25500000920E-02 0. -1.
    10030    2    1    2    0    0  0.00000000000E+00  0.00000000000E+00  0.79957522198E+03  0.34955509469E+04  0.34028746505E+04 0.  0.
        2    1    3    3  502    0  0.45982186636E+03 -0.14106430630E+04 -0.45568305021E+03  0.15520944051E+04  0.25500000920E-02 0. -1.
       -2    1    3    3    0  502 -0.45982186636E+03  0.14106430630E+04  0.12552582722E+04  0.19434565418E+04  0.25500000920E-02 0.  1.
</event>
<event>
 5   0  0.7838333E-07  0.3402159E+04  0.7818609E-02  0.8137377E-01
        2   -1    0    0  501    0  0.00000000000E+00  0.00000000000E+00  0.10962185797E+04  0.10962185797E+04  0.25500000920E-02 0. -1.
       -2   -1    0    0    0  501  0.00000000000E+00  0.00000000000E+00 -0.26396848313E+04  0.26396848313E+04  0.25500000920E-02 0.  1.
    10030    2    1    2    0    0  0.00000000000E+00  0.00000000000E+00 -0.15434662515E+04  0.37359034110E+04  0.34021590537E+04 0.  0.
        1    1    3    3  502    0  0.11301957090E+04 -0.44315534288E+03 -0.20802412214E+04  0.24085540347E+04  0.50400001928E-02 0.  1.
       -1    1    3    3    0  502 -0.11301957090E+04  0.44315534288E+03  0.53677496991E+03  0.13273493763E+04  0.50400001928E-02 0. -1.
</event>
<event>
 5   0  0.8489228E-07  0.3379633E+04  0.7818609E-02  0.8142923E-01
        2   -1    0    0  501    0  0.00000000000E+00  0.00000000000E+00  0.17026628446E+04  0.17026628446E+04  0.25500000920E-02 0.  1.
       -2   -1    0    0    0  501  0.00000000000E+00  0.00000000000E+00 -0.16770670078E+04  0.16770670078E+04  0.25500000920E-02 0. -1.
    10030    2    1    2    0    0  0.00000000000E+00  0.00000000000E+00  0.25595836784E+02  0.33797298524E+04  0.33796329280E+04 0.  0.
        3    1    3    3  502    0 -0.13380193045E+03  0.16811812698E+04  0.11866054701E+03  0.16906666597E+04  0.10100000352E+00 0. -1.
       -3    1    3    3    0  502  0.13380193045E+03 -0.16811812698E+04 -0.93064710221E+02  0.16890631927E+04  0.10100000352E+00 0.  1.
</event>
<event>
 5   0  0.7899402E-07  0.3396074E+04  0.7818609E-02  0.8138871E-01
        2   -1    0    0  501    0  0.00000000000E+00  0.00000000000E+00  0.15575157516E+04  0.15575157516E+04  0.25500000920E-02 0.  1.
       -2   -1    0    0    0  501  0.00000000000E+00  0.00000000000E+00 -0.18512358258E+04  0.18512358258E+04  0.25500000920E-02 0. -1.
    10030    2    1    2    0    0  0.00000000000E+00  0.00000000000E+00 -0.29372007417E+03  0.34087515774E+04  0.33960735909E+04 0.  0.
        2    1    3    3  502    0  0.11434610398E+04 -0.98777173542E+03  0.63071434510E+03  0.16373749528E+04  0.25500000920E-02 0.  1.
       -2    1    3    3    0  502 -0.11434610398E+04  0.98777173542E+03 -0.92443441927E+03  0.17713766246E+04  0.25500000920E-02 0. -1.
</event>
<event>
 5   0  0.2553250E-07  0.3402798E+04  0.7818609E-02  0.8137220E-01
       -1   -1    0    0    0  501  0.00000000000E+00  0.00000000000E+00  0.15384730011E+04  0.15384730011E+04  0.50400001928E-02 0. -1.
        1   -1    0    0  501    0  0.00000000000E+00  0.00000000000E+00 -0.18815792892E+04  0.18815792893E+04  0.50400001928E-02 0.  1.
    10030    2    1    2    0    0  0.00000000000E+00  0.00000000000E+00 -0.34310628817E+03  0.34200522903E+04  0.34027982226E+04 0.  0.
        5    1    3    3  502    0 -0.46413331585E+03 -0.13826882699E+04  0.70895420481E+03  0.16216919378E+04  0.46999998093E+01 0.  1.
       -5    1    3    3    0  502  0.46413331585E+03  0.13826882699E+04 -0.10520604930E+04  0.17983603525E+04  0.46999998093E+01 0. -1.
</event>
<event>
 5   0  0.7610412E-07  0.3333346E+04  0.7818609E-02  0.8154462E-01
       -2   -1    0    0    0  501  0.00000000000E+00  0.00000000000E+00  0.12698925321E+04  0.12698925321E+04  0.25500000920E-02 0.  1.
        2   -1    0    0  501    0  0.00000000000E+00  0.00000000000E+00 -0.21874279284E+04  0.21874279284E+04  0.25500000920E-02 0. -1.
    10030    2    1    2    0    0  0.00000000000E+00  0.00000000000E+00 -0.91753539625E+03  0.34573204605E+04  0.33333457011E+04 0.  0.
        4    1    3    3  502    0 -0.91046652465E+03 -0.85297433766E+03  0.68745051465E+03  0.14244663338E+04  0.12699999809E+01 0.  1.
       -4    1    3    3    0  502  0.91046652465E+03  0.85297433766E+03 -0.16049859109E+04  0.20328541267E+04  0.12699999809E+01 0. -1.
</event>
<event>
 5   0  0.2622205E-07  0.3422369E+04  0.7818609E-02  0.8132438E-01
       -1   -1    0    0    0  501  0.00000000000E+00  0.00000000000E+00  0.11738724344E+04  0.11738724344E+04  0.50400001928E-02 0. -1.
        1   -1    0    0  501    0  0.00000000000E+00  0.00000000000E+00 -0.24944384467E+04  0.24944384467E+04  0.50400001928E-02 0.  1.
    10030    2    1    2    0    0  0.00000000000E+00  0.00000000000E+00 -0.13205660123E+04  0.36683108811E+04  0.34223690812E+04 0.  0.
        3    1    3    3  502    0 -0.17991879060E+03  0.10355636178E+04  0.78708525271E+03  0.13131130884E+04  0.10100000352E+00 0. -1.
       -3    1    3    3    0  502  0.17991879060E+03 -0.10355636178E+04 -0.21076512650E+04  0.23551977927E+04  0.10100000352E+00 0.  1.
</event>
<event>
 5   0  0.2641442E-07  0.3399113E+04  0.7818609E-02  0.8138124E-01
        1   -1    0    0  501    0  0.00000000000E+00  0.00000000000E+00  0.17473179431E+04  0.17473179431E+04  0.50400001928E-02 0. -1.
       -1   -1    0    0    0  501  0.00000000000E+00  0.00000000000E+00 -0.16531009129E+04  0.16531009129E+04  0.50400001928E-02 0.  1.
    10030    2    1    2    0    0  0.00000000000E+00  0.00000000000E+00  0.94217030141E+02  0.34004188560E+04  0.33991133473E+04 0.  0.
        1    1    3    3  502    0 -0.16704939286E+03  0.67859205900E+03  0.15969292104E+04  0.17431510506E+04  0.50400001928E-02 0. -1.
       -1    1    3    3    0  502  0.16704939286E+03 -0.67859205900E+03 -0.15027121803E+04  0.16572678054E+04  0.50400001928E-02 0.  1.
</event>
<event>
 5   0  0.8489228E-07  0.3397330E+04  0.7818609E-02  0.8138562E-01
        2   -1    0    0  501    0  0.00000000000E+00  0.00000000000E+00  0.14645273222E+04  0.14645273222E+04  0.25500000920E-02 0. -1.
       -2   -1    0    0    0  501  0.00000000000E+00  0.00000000000E+00 -0.19702353280E+04  0.19702353280E+04  0.25500000920E-02 0.  1.
    10030    2    1    2    0    0  0.00000000000E+00  0.00000000000E+00 -0.50570800574E+03  0.34347626502E+04  0.33973304043E+04 0.  0.
        3    1    3    3  502    0 -0.70359669045E+03  0.13531325537E+04 -0.10090573485E+04  0.18287188831E+04  0.10100000352E+00 0.  1.
       -3    1    3    3    0  502  0.70359669045E+03 -0.13531325537E+04  0.50334934274E+03  0.16060437671E+04  0.10100000352E+00 0. -1.
</event>
<event>
 5   0  0.2553250E-07  0.3418598E+04  0.7818609E-02  0.8133357E-01
        3   -1    0    0  501    0  0.00000000000E+00  0.00000000000E+00  0.22031375803E+04  0.22031375827E+04  0.10100000352E+00 0. -1.
       -3   -1    0    0    0  501  0.00000000000E+00  0.00000000000E+00 -0.13261552755E+04  0.13261552794E+04  0.10100000352E+00 0.  1.
    10030    2    1    2    0    0  0.00000000000E+00  0.00000000000E+00  0.87698230481E+03  0.35292928620E+04  0.34185976866E+04 0.  0.
        1    1    3    3  502    0 -0.11814451108E+03  0.12034261158E+04  0.16857116507E+04  0.20745641256E+04  0.50400001928E-02 0. -1.
       -1    1    3    3    0  502  0.11814451108E+03 -0.12034261158E+04 -0.80872934589E+03  0.14547287365E+04  0.50400001928E-02 0.  1.
</event>
<event>
 5   0  0.2622205E-07  0.3384091E+04  0.7818609E-02  0.8141822E-01
       -1   -1    0    0    0  501  0.00000000000E+00  0.00000000000E+00  0.15208629308E+04  0.15208629308E+04  0.50400001928E-02 0.  1.
        1   -1    0    0  501    0  0.00000000000E+00  0.00000000000E+00 -0.18824959771E+04  0.18824959771E+04  0.50400001928E-02 0. -1.
    10030    2    1    2    0    0  0.00000000000E+00  0.00000000000E+00 -0.36163304630E+03  0.34033589078E+04  0.33840912215E+04 0.  0.
        3    1    3    3  502    0  0.55147087447E+02 -0.13969848166E+04  0.77771583089E+03  0.15998280229E+04  0.10100000352E+00 0.  1.
       -3    1    3    3    0  502 -0.55147087447E+02  0.13969848166E+04 -0.11393488772E+04  0.18035308850E+04  0.10100000352E+00 0. -1.
</event>
<event>
 5   0  0.2592200E-07  0.3346088E+04  0.7818609E-02  0.8151266E-01
       -1   -1    0    0    0  501  0.00000000000E+00  0.00000000000E+00  0.18122721447E+04  0.18122721447E+04  0.50400001928E-02 0.  1.
        1   -1    0    0  501    0  0.00000000000E+00  0.00000000000E+00 -0.15445117018E+04  0.15445117018E+04  0.50400001928E-02 0. -1.
    10030    2    1    2    0    0  0.00000000000E+00  0.00000000000E+00  0.26776044288E+03  0.33567838465E+04  0.33460875866E+04 0.  0.
        4    1    3    3  502    0  0.11756369094E+04  0.65167406400E+03  0.11331933470E+04  0.17581040934E+04  0.12699999809E+01 0.  1.
       -4    1    3    3    0  502 -0.11756369094E+04 -0.65167406400E+03 -0.86543290412E+03  0.15986797531E+04  0.12699999809E+01 0. -1.
</event>
<event>
 5   0  0.2553250E-07  0.3462796E+04  0.7818609E-02  0.8122664E-01
        1   -1    0    0  501    0  0.00000000000E+00  0.00000000000E+00  0.17885412956E+04  0.17885412956E+04  0.50400001928E-02 0. -1.
       -1   -1    0    0    0  501  0.00000000000E+00  0.00000000000E+00 -0.16760799323E+04  0.16760799323E+04  0.50400001928E-02 0.  1.
    10030    2    1    2    0    0  0.00000000000E+00  0.00000000000E+00  0.11246136321E+03  0.34646212279E+04  0.34627955029E+04 0.  0.
        5    1    3    3  502    0 -0.41318690270E+03 -0.16678316501E+04 -0.15679060019E+03  0.17253959580E+04  0.46999998093E+01 0.  1.
       -5    1    3    3    0  502  0.41318690270E+03  0.16678316501E+04  0.26925196340E+03  0.17392252699E+04  0.46999998093E+01 0. -1.
</event>
<event>
 5   0  0.2592200E-07  0.3439612E+04  0.7818609E-02  0.8128252E-01
       -1   -1    0    0    0  501  0.00000000000E+00  0.00000000000E+00  0.32811323753E+04  0.32811323753E+04  0.50400001928E-02 0. -1.
        1   -1    0    0  501    0  0.00000000000E+00  0.00000000000E+00 -0.90143649036E+03  0.90143649038E+03  0.50400001928E-02 0.  1.
    10030    2    1    2    0    0  0.00000000000E+00  0.00000000000E+00  0.23796958849E+04  0.41825688657E+04  0.34396118693E+04 0.  0.
        4    1    3    3  502    0 -0.10101705439E+04  0.12570649877E+04  0.19164769519E+04  0.25047040606E+04  0.12699999809E+01 0. -1.
       -4    1    3    3    0  502  0.10101705439E+04 -0.12570649877E+04  0.46321893300E+03  0.16778648050E+04  0.12699999809E+01 0.  1.
</event>
<event>
 5   0  0.7838333E-07  0.3409385E+04  0.7818609E-02  0.8135607E-01
        2   -1    0    0  501    0  0.00000000000E+00  0.00000000000E+00  0.20321613571E+04  0.20321613571E+04  0.25500000920E-02 0.  1.
       -2   -1    0    0    0  501  0.00000000000E+00  0.00000000000E+00 -0.14299929383E+04  0.14299929383E+04  0.25500000920E-02 0. -1.
    10030    2    1    2    0    0  0.00000000000E+00  0.00000000000E+00  0.60216841879E+03  0.34621542953E+04  0.34093849240E+04 0.  0.
        1    1    3    3  502    0  0.43384118210E+03 -0.42160810762E+03 -0.13173224359E+04  0.14495895860E+04  0.50400001928E-02 0. -1.
       -1    1    3    3    0  502 -0.43384118210E+03  0.42160810762E+03  0.19194908547E+04  0.20125647093E+04  0.50400001928E-02 0.  1.
</event>
<event>
 5   0  0.2641442E-07  0.3283990E+04  0.7818609E-02  0.8166981E-01
       -1   -1    0    0    0  501  0.00000000000E+00  0.00000000000E+00  0.13268033823E+04  0.13268033823E+04  0.50400001928E-02 0. -1.
        1   -1    0    0  501    0  0.00000000000E+00  0.00000000000E+00 -0.20320627745E+04  0.20320627745E+04  0.50400001928E-02 0.  1.
    10030    2    1    2    0    0  0.00000000000E+00  0.00000000000E+00 -0.70525939221E+03  0.33588661568E+04  0.32839901110E+04 0.  0.
        1    1    3    3  502    0  0.70321340084E+03  0.14235758196E+04 -0.78058402083E+03  0.17692904270E+04  0.50400001928E-02 0. -1.
       -1    1    3    3    0  502 -0.70321340084E+03 -0.14235758196E+04  0.75324628614E+02  0.15895757299E+04  0.50400001928E-02 0.  1.
</event>
<event>
 5   0  0.8489228E-07  0.3426007E+04  0.7818609E-02  0.8131553E-01
        2   -1    0    0  501    0  0.00000000000E+00  0.00000000000E+00  0.21943612128E+04  0.21943612128E+04  0.25500000920E-02 0. -1.
       -2   -1    0    0    0  501  0.00000000000E+00  0.00000000000E+00 -0.13372366484E+04  0.13372366484E+04  0.25500000920E-02 0.  1.
    10030    2    1    2    0    0  0.00000000000E+00  0.00000000000E+00  0.85712456441E+03  0.35315978613E+04  0.34260065579E+04 0.  0.
        3    1    3    3  502    0 -0.14585427358E+04  0.84116767271E+03  0.75367179482E+03  0.18447035399E+04  0.10100000352E+00 0. -1.
       -3    1    3    3    0  502  0.14585427358E+04 -0.84116767271E+03  0.10345276959E+03  0.16868943214E+04  0.10100000352E+00 0.  1.
</event>
<event>
 5   0  0.7610412E-07  0.3391173E+04  0.7818609E-02  0.8140076E-01
       -2   -1    0    0    0  501  0.00000000000E+00  0.00000000000E+00  0.19820138373E+04  0.19820138373E+04  0.25500000920E-02 0. -1.
        2   -1    0    0  501    0  0.00000000000E+00  0.00000000000E+00 -0.14505517002E+04  0.14505517002E+04  0.25500000920E-02 0.  1.
    10030    2    1    2    0    0  0.00000000000E+00  0.00000000000E+00  0.53146213715E+03  0.34325655375E+04  0.33911729779E+04 0.  0.
        4    1    3    3  502    0 -0.16232997696E+04 -0.36836181439E+03 -0.61039622705E+02  0.16656890516E+04  0.12699999809E+01 0.  1.
       -4    1    3    3    0  502  0.16232997696E+04  0.36836181439E+03  0.59250175985E+03  0.17668764859E+04  0.12699999809E+01 0. -1.
</event>
<event>
 5   0  0.2592200E-07  0.3412456E+04  0.7818609E-02  0.8134856E-01
        1   -1    0    0  501    0  0.00000000000E+00  0.00000000000E+00  0.15635610732E+04  0.15635610732E+04  0.50400001928E-02 0.  1.
       -1   -1    0    0    0  501  0.00000000000E+00  0.00000000000E+00 -0.18619123343E+04  0.18619123343E+04  0.50400001928E-02 0. -1.
    10030    2    1    2    0    0  0.00000000000E+00  0.00000000000E+00 -0.29835126111E+03  0.34254734076E+04  0.34124558006E+04 0.  0.
        4    1    3    3  502    0 -0.26405173264E+03  0.42477866951E+03  0.14883203012E+04  0.15701143803E+04  0.12699999809E+01 0.  1.
       -4    1    3    3    0  502  0.26405173264E+03 -0.42477866951E+03 -0.17866715623E+04  0.18553590272E+04  0.12699999809E+01 0. -1.
</event>
<event>
 5   0  0.2641442E-07  0.3407872E+04  0.7818609E-02  0.8135977E-01
       -1   -1    0    0    0  501  0.00000000000E+00  0.00000000000E+00  0.21249132323E+04  0.21249132323E+04  0.50400001928E-02 0.  1.
        1   -1    0    0  501    0  0.00000000000E+00  0.00000000000E+00 -0.13663607942E+04  0.13663607942E+04  0.50400001928E-02 0. -1.
    10030    2    1    2    0    0  0.00000000000E+00  0.00000000000E+00  0.75855243809E+03  0.34912740265E+04  0.34078721406E+04 0.  0.
        1    1    3    3  502    0  0.16511244555E+04 -0.20558912852E+03  0.29732510053E+01  0.16638773084E+04  0.50400001928E-02 0. -1.
       -1    1    3    3    0  502 -0.16511244555E+04  0.20558912852E+03  0.75557918709E+03  0.18273967181E+04  0.50400001928E-02 0.  1.
</event>
<event>
 5   0  0.7899402E-07  0.3389109E+04  0.7818609E-02  0.8140585E-01
       -2   -1    0    0    0  501  0.00000000000E+00  0.00000000000E+00  0.11289396228E+04  0.11289396228E+04  0.25500000920E-02 0. -1.
        2   -1    0    0  501    0  0.00000000000E+00  0.00000000000E+00 -0.25435500917E+04  0.25435500917E+04  0.25500000920E-02 0.  1.
    10030    2    1    2    0    0  0.00000000000E+00  0.00000000000E+00 -0.14146104690E+04  0.36724897145E+04  0.33891087212E+04 0.  0.
        2    1    3    3  502    0  0.13652359821E+04 -0.93276165542E+03 -0.30534257976E+03  0.16814124074E+04  0.25500000920E-02 0. -1.
       -2    1    3    3    0  502 -0.13652359821E+04  0.93276165542E+03 -0.11092678892E+04  0.19910773071E+04  0.25500000920E-02 0.  1.
</event>
<event>
 5   0  0.8489228E-07  0.3378854E+04  0.7818609E-02  0.8143116E-01
        2   -1    0    0  501    0  0.00000000000E+00  0.00000000000E+00  0.16777205262E+04  0.16777205262E+04  0.25500000920E-02 0. -1.
       -2   -1    0    0    0  501  0.00000000000E+00  0.00000000000E+00 -0.17012155649E+04  0.17012155649E+04  0.25500000920E-02 0.  1.
    10030    2    1    2    0    0  0.00000000000E+00  0.00000000000E+00 -0.23495038669E+02  0.33789360911E+04  0.33788544051E+04 0.  0.
        3    1    3    3  502    0 -0.10320568172E+04  0.12862680978E+04 -0.37854974727E+03  0.16920185621E+04  0.10100000352E+00 0.  1.
       -3    1    3    3    0  502  0.10320568172E+04 -0.12862680978E+04  0.35505470861E+03  0.16869175290E+04  0.10100000352E+00 0. -1.
</event>
<event>
 5   0  0.2592200E-07  0.3382375E+04  0.7818609E-02  0.8142246E-01
       -1   -1    0    0    0  501  0.00000000000E+00  0.00000000000E+00  0.11337758201E+04  0.11337758201E+04  0.50400001928E-02 0.  1.
        1   -1    0    0  501    0  0.00000000000E+00  0.00000000000E+00 -0.25226465477E+04  0.25226465477E+04  0.50400001928E-02 0. -1.
    10030    2    1    2    0    0  0.00000000000E+00  0.00000000000E+00 -0.13888707276E+04  0.36564223677E+04  0.33823752946E+04 0.  0.
        4    1    3    3  502    0  0.10620064274E+04 -0.53800312489E+03 -0.19929265006E+04  0.23214354749E+04  0.12699999809E+01 0. -1.
       -4    1    3    3    0  502 -0.10620064274E+04  0.53800312489E+03  0.60405577303E+03  0.13349868929E+04  0.12699999809E+01 0.  1.
</event>
<event>
 5   0  0.2599367E-07  0.3449983E+04  0.7818609E-02  0.8125747E-01
       -1   -1    0    0    0  501  0.00000000000E+00  0.00000000000E+00  0.20633673132E+04  0.20633673132E+04  0.50400001928E-02 0.  1.
        1   -1    0    0  501    0  0.00000000000E+00  0.00000000000E+00 -0.14421065669E+04  0.14421065670E+04  0.50400001928E-02 0. -1.
    10030    2    1    2    0    0  0.00000000000E+00  0.00000000000E+00  0.62126074622E+03  0.35054738801E+04  0.34499829289E+04 0.  0.
        2    1    3    3  502    0  0.10234617093E+04 -0.10940507738E+04  0.11794714263E+04  0.19067180734E+04  0.25500000920E-02 0.  1.
       -2    1    3    3    0  502 -0.10234617093E+04  0.10940507738E+04 -0.55821068012E+03  0.15987558067E+04  0.25500000920E-02 0. -1.
</event>
<event>
 5   0  0.2641442E-07  0.3396811E+04  0.7818609E-02  0.8138690E-01
       -1   -1    0    0    0  501  0.00000000000E+00  0.00000000000E+00  0.16582103028E+04  0.16582103028E+04  0.50400001928E-02 0. -1.
        1   -1    0    0  501    0  0.00000000000E+00  0.00000000000E+00 -0.17395745399E+04  0.17395745399E+04  0.50400001928E-02 0.  1.
    10030    2    1    2    0    0  0.00000000000E+00  0.00000000000E+00 -0.81364237104E+02  0.33977848427E+04  0.33968105185E+04 0.  0.
        1    1    3    3  502    0  0.12884658837E+04 -0.63203809495E+03 -0.94921789807E+03  0.17206484548E+04  0.50400001928E-02 0.  1.
       -1    1    3    3    0  502 -0.12884658837E+04  0.63203809495E+03  0.86785366096E+03  0.16771363880E+04  0.50400001928E-02 0. -1.
</event>
<event>
 5   0  0.7899402E-07  0.3526323E+04  0.7818609E-02  0.8107580E-01
        2   -1    0    0  501    0  0.00000000000E+00  0.00000000000E+00  0.14402193977E+04  0.14402193977E+04  0.25500000920E-02 0. -1.
       -2   -1    0    0    0  501  0.00000000000E+00  0.00000000000E+00 -0.21585176569E+04  0.21585176569E+04  0.25500000920E-02 0.  1.
    10030    2    1    2    0    0  0.00000000000E+00  0.00000000000E+00 -0.71829825918E+03  0.35987370546E+04  0.35263232975E+04 0.  0.
        2    1    3    3  502    0  0.11508709195E+04  0.40320006948E+02 -0.17217105502E+04  0.20713321305E+04  0.25500000920E-02 0.  1.
       -2    1    3    3    0  502 -0.11508709195E+04 -0.40320006948E+02  0.10034122910E+04  0.15274049240E+04  0.25500000920E-02 0. -1.
</event>
<event>
 5   0  0.2553250E-07  0.3399070E+04  0.7818609E-02  0.8138135E-01
       -1   -1    0    0    0  501  0.00000000000E+00  0.00000000000E+00  0.21980905497E+04  0.21980905497E+04  0.50400001928E-02 0.  1.
        1   -1    0    0  501    0  0.00000000000E+00  0.00000000000E+00 -0.13140586183E+04  0.13140586183E+04  0.50400001928E-02 0. -1.
    10030    2    1    2    0    0  0.00000000000E+00  0.00000000000E+00  0.88403193135E+03  0.35121491680E+04  0.33990703616E+04 0.  0.
        5    1    3    3  502    0  0.16776730840E+04  0.10970195160E+03  0.69883283885E+03  0.18207171449E+04  0.46999998093E+01 0.  1.
       -5    1    3    3    0  502 -0.16776730840E+04 -0.10970195160E+03  0.18519909251E+03  0.16914320231E+04  0.46999998093E+01 0. -1.
</event>
<event>
 5   0  0.2622205E-07  0.3399495E+04  0.7818609E-02  0.8138030E-01
        1   -1    0    0  501    0  0.00000000000E+00  0.00000000000E+00  0.15023094072E+04  0.15023094072E+04  0.50400001928E-02 0.  1.
       -1   -1    0    0    0  501  0.00000000000E+00  0.00000000000E+00 -0.19231340408E+04  0.19231340408E+04  0.50400001928E-02 0. -1.
    10030    2    1    2    0    0  0.00000000000E+00  0.00000000000E+00 -0.42082463359E+03  0.34254434480E+04  0.33994954689E+04 0.  0.
        3    1    3    3  502    0  0.77157986359E+03 -0.14561459873E+03 -0.17294346090E+04  0.18993375620E+04  0.10100000352E+00 0. -1.
       -3    1    3    3    0  502 -0.77157986359E+03  0.14561459873E+03  0.13086099755E+04  0.15261058860E+04  0.10100000352E+00 0.  1.
</event>
<event>
 5   0  0.8489228E-07  0.3413245E+04  0.7818609E-02  0.8134663E-01
        2   -1    0    0  501    0  0.00000000000E+00  0.00000000000E+00  0.24447378575E+04  0.24447378575E+04  0.25500000920E-02 0. -1.
       -2   -1    0    0    0  501  0.00000000000E+00  0.00000000000E+00 -0.11913586835E+04  0.11913586835E+04  0.25500000920E-02 0.  1.
    10030    2    1    2    0    0  0.00000000000E+00  0.00000000000E+00  0.12533791739E+04  0.36360965410E+04  0.34132446004E+04 0.  0.
        3    1    3    3  502    0 -0.12365103539E+04 -0.10460229481E+03 -0.62141077670E+03  0.13878223441E+04  0.10100000352E+00 0.  1.
       -3    1    3    3    0  502  0.12365103539E+04  0.10460229481E+03  0.18747899506E+04  0.22482741969E+04  0.10100000352E+00 0. -1.
</event>
<event>
 5   0  0.8489228E-07  0.3431687E+04  0.7818609E-02  0.8130173E-01
       -2   -1    0    0    0  501  0.00000000000E+00  0.00000000000E+00  0.96448877612E+03  0.96448877613E+03  0.25500000920E-02 0.  1.
        2   -1    0    0  501    0  0.00000000000E+00  0.00000000000E+00 -0.30525184288E+04  0.30525184288E+04  0.25500000920E-02 0. -1.
    10030    2    1    2    0    0  0.00000000000E+00  0.00000000000E+00 -0.20880296527E+04  0.40170072049E+04  0.34316874936E+04 0.  0.
        3    1    3    3  502    0 -0.17494863759E+03  0.12673027261E+03  0.94850667297E+03  0.97279623080E+03  0.10100000352E+00 0.  1.
       -3    1    3    3    0  502  0.17494863759E+03 -0.12673027261E+03 -0.30365363257E+04  0.30442109741E+04  0.10100000352E+00 0. -1.
</event>
<event>
 5   0  0.2641442E-07  0.3424040E+04  0.7818609E-02  0.8132031E-01
        1   -1    0    0  501    0  0.00000000000E+00  0.00000000000E+00  0.17052949695E+04  0.17052949695E+04  0.50400001928E-02 0. -1.
       -1   -1    0    0    0  501  0.00000000000E+00  0.00000000000E+00 -0.17187718325E+04  0.17187718325E+04  0.50400001928E-02 0.  1.
    10030    2    1    2    0    0  0.00000000000E+00  0.00000000000E+00 -0.13476863010E+02  0.34240668020E+04  0.34240402799E+04 0.  0.
        1    1    3    3  502    0 -0.13697380595E+04  0.97744565506E+03 -0.32206705322E+03  0.17132745101E+04  0.50400001928E-02 0.  1.
       -1    1    3    3    0  502  0.13697380595E+04 -0.97744565506E+03  0.30859019021E+03  0.17107922918E+04  0.50400001928E-02 0. -1.
</event>
<event>
 5   0  0.7838333E-07  0.3308119E+04  0.7818609E-02  0.8160832E-01
       -2   -1    0    0    0  501  0.00000000000E+00  0.00000000000E+00  0.14311526622E+04  0.14311526622E+04  0.25500000920E-02 0.  1.
        2   -1    0    0  501    0  0.00000000000E+00  0.00000000000E+00 -0.19116853609E+04  0.19116853609E+04  0.25500000920E-02 0. -1.
    10030    2    1    2    0    0  0.00000000000E+00  0.00000000000E+00 -0.48053269875E+03  0.33428380231E+04  0.33081194619E+04 0.  0.
        1    1    3    3  502    0  0.12882224681E+04 -0.26840712257E+03 -0.12529588032E+04  0.18169934709E+04  0.50400001928E-02 0. -1.
       -1    1    3    3    0  502 -0.12882224681E+04  0.26840712257E+03  0.77242610447E+03  0.15258445522E+04  0.50400001928E-02 0.  1.
</event>
<event>
 5   0  0.2599367E-07  0.3382749E+04  0.7818609E-02  0.8142153E-01
       -1   -1    0    0    0  501  0.00000000000E+00  0.00000000000E+00  0.11548423465E+04  0.11548423465E+04  0.50400001928E-02 0.  1.
        1   -1    0    0  501    0  0.00000000000E+00  0.00000000000E+00 -0.24771762093E+04  0.24771762093E+04  0.50400001928E-02 0. -1.
    10030    2    1    2    0    0  0.00000000000E+00  0.00000000000E+00 -0.13223338629E+04  0.36320185558E+04  0.33827491697E+04 0.  0.
        2    1    3    3  502    0  0.13824456374E+04 -0.94557505826E+03 -0.40826862494E+03  0.17239348599E+04  0.25500000920E-02 0.  1.
       -2    1    3    3    0  502 -0.13824456374E+04  0.94557505826E+03 -0.91406523794E+03  0.19080836959E+04  0.25500000920E-02 0. -1.
</event>
<event>
 5   0  0.2641442E-07  0.3412940E+04  0.7818609E-02  0.8134738E-01
        1   -1    0    0  501    0  0.00000000000E+00  0.00000000000E+00  0.16695061744E+04  0.16695061744E+04  0.50400001928E-02 0. -1.
       -1   -1    0    0    0  501  0.00000000000E+00  0.00000000000E+00 -0.17442523408E+04  0.17442523408E+04  0.50400001928E-02 0.  1.
    10030    2    1    2    0    0  0.00000000000E+00  0.00000000000E+00 -0.74746166440E+02  0.34137585152E+04  0.34129401124E+04 0.  0.
        1    1    3    3  502    0  0.11535589221E+04  0.12544897786E+04  0.49810087398E+02  0.17049703330E+04  0.50400001928E-02 0.  1.
       -1    1    3    3    0  502 -0.11535589221E+04 -0.12544897786E+04 -0.12455625384E+03  0.17087881823E+04  0.50400001928E-02 0. -1.
</event>
<event>
 5   0  0.2553250E-07  0.3394466E+04  0.7818609E-02  0.8139266E-01
        4   -1    0    0  501    0  0.00000000000E+00  0.00000000000E+00  0.16603452334E+04  0.16603457191E+04  0.12699999809E+01 0.  1.
       -4   -1    0    0    0  501  0.00000000000E+00  0.00000000000E+00 -0.17349394210E+04  0.17349398859E+04  0.12699999809E+01 0. -1.
    10030    2    1    2    0    0  0.00000000000E+00  0.00000000000E+00 -0.74594187640E+02  0.33952856049E+04  0.33944660915E+04 0.  0.
        4    1    3    3  502    0 -0.75589209688E+03  0.72891039921E+03 -0.13710038611E+04  0.17269442470E+04  0.12699999809E+01 0. -1.
       -4    1    3    3    0  502  0.75589209688E+03 -0.72891039921E+03  0.12964096735E+04  0.16683413579E+04  0.12699999809E+01 0.  1.
</event>
<event>
 5   0  0.7838333E-07  0.3389653E+04  0.7818609E-02  0.8140450E-01
        2   -1    0    0  501    0  0.00000000000E+00  0.00000000000E+00  0.19297915221E+04  0.19297915221E+04  0.25500000920E-02 0.  1.
       -2   -1    0    0    0  501  0.00000000000E+00  0.00000000000E+00 -0.14884700441E+04  0.14884700441E+04  0.25500000920E-02 0. -1.
    10030    2    1    2    0    0  0.00000000000E+00  0.00000000000E+00  0.44132147797E+03  0.34182615662E+04  0.33896530041E+04 0.  0.
        1    1    3    3  502    0  0.11290970307E+04  0.55271612369E+03 -0.92563064970E+03  0.15611365468E+04  0.50400001928E-02 0. -1.
       -1    1    3    3    0  502 -0.11290970307E+04 -0.55271612369E+03  0.13669521277E+04  0.18571250194E+04  0.50400001928E-02 0.  1.
</event>
<event>
 5   0  0.2592200E-07  0.3401602E+04  0.7818609E-02  0.8137513E-01
       -1   -1    0    0    0  501  0.00000000000E+00  0.00000000000E+00  0.13922627277E+04  0.13922627277E+04  0.50400001928E-02 0. -1.
        1   -1    0    0  501    0  0.00000000000E+00  0.00000000000E+00 -0.20777145003E+04  0.20777145003E+04  0.50400001928E-02 0.  1.
    10030    2    1    2    0    0  0.00000000000E+00  0.00000000000E+00 -0.68545177257E+03  0.34699772280E+04  0.34016022446E+04 0.  0.
        4    1    3    3  502    0 -0.95945989596E+03 -0.13901840282E+04 -0.54558985692E+03  0.17750619226E+04  0.12699999809E+01 0.  1.
       -4    1    3    3    0  502  0.95945989596E+03  0.13901840282E+04 -0.13986191565E+03  0.16949153054E+04  0.12699999809E+01 0. -1.
</event>
<event>
 5   0  0.2599367E-07  0.3441611E+04  0.7818609E-02  0.8127769E-01
        1   -1    0    0  501    0  0.00000000000E+00  0.00000000000E+00  0.16936074012E+04  0.16936074013E+04  0.50400001928E-02 0.  1.
       -1   -1    0    0    0  501  0.00000000000E+00  0.00000000000E+00 -0.17484402284E+04  0.17484402284E+04  0.50400001928E-02 0. -1.
    10030    2    1    2    0    0  0.00000000000E+00  0.00000000000E+00 -0.54832827196E+02  0.34420476297E+04  0.34416108505E+04 0.  0.
        2    1    3    3  502    0 -0.70935766858E+03 -0.86701084177E+03 -0.13338268883E+04  0.17418353165E+04  0.25500000920E-02 0. -1.
       -2    1    3    3    0  502  0.70935766858E+03  0.86701084177E+03  0.12789940611E+04  0.17002123132E+04  0.25500000920E-02 0.  1.
</event>
<event>
 5   0  0.7899402E-07  0.3396693E+04  0.7818609E-02  0.8138719E-01
       -2   -1    0    0    0  501  0.00000000000E+00  0.00000000000E+00  0.13892314001E+04  0.13892314001E+04  0.25500000920E-02 0. -1.
        2   -1    0    0  501    0  0.00000000000E+00  0.00000000000E+00 -0.20762418537E+04  0.20762418537E+04  0.25500000920E-02 0.  1.
    10030    2    1    2    0    0  0.00000000000E+00  0.00000000000E+00 -0.68701045355E+03  0.34654732538E+04  0.33966927311E+04 0.  0.
        2    1    3    3  502    0 -0.10794614150E+04 -0.12286361999E+04  0.12358235666E+03  0.16401391578E+04  0.25500000920E-02 0.  1.
       -2    1    3    3    0  502  0.10794614150E+04  0.12286361999E+04 -0.81059281020E+03  0.18253340960E+04  0.25500000920E-02 0. -1.
</event>
<event>
 5   0  0.2622205E-07  0.3408372E+04  0.7818609E-02  0.8135855E-01
        1   -1    0    0  501    0  0.00000000000E+00  0.00000000000E+00  0.12609212268E+04  0.12609212268E+04  0.50400001928E-02 0.  1.
       -1   -1    0    0    0  501  0.00000000000E+00  0.00000000000E+00 -0.23032758312E+04  0.23032758312E+04  0.50400001928E-02 0. -1.
    10030    2    1    2    0    0  0.00000000000E+00  0.00000000000E+00 -0.10423546044E+04  0.35641970580E+04  0.34083716856E+04 0.  0.
        3    1    3    3  502    0 -0.64586368650E+03 -0.15675047815E+04 -0.70241643054E+03  0.18351021752E+04  0.10100000352E+00 0. -1.
       -3    1    3    3    0  502  0.64586368650E+03  0.15675047815E+04 -0.33993817385E+03  0.17290948828E+04  0.10100000352E+00 0.  1.
</event>
<event>
 5   0  0.7822003E-07  0.3408736E+04  0.7818609E-02  0.8135766E-01
        2   -1    0    0  501    0  0.00000000000E+00  0.00000000000E+00  0.25125310605E+04  0.25125310605E+04  0.25500000920E-02 0. -1.
       -2   -1    0    0    0  501  0.00000000000E+00  0.00000000000E+00 -0.11561530991E+04  0.11561530991E+04  0.25500000920E-02 0.  1.
    10030    2    1    2    0    0  0.00000000000E+00  0.00000000000E+00  0.13563779614E+04  0.36686841597E+04  0.34087361719E+04 0.  0.
        5    1    3    3  502    0  0.77072319063E+03 -0.83798429406E+03 -0.68684418755E+03  0.13296649735E+04  0.46999998093E+01 0.  1.
       -5    1    3    3    0  502 -0.77072319063E+03  0.83798429406E+03  0.20432221489E+04  0.23390191862E+04  0.46999998093E+01 0. -1.
</event>
<event>
 5   0  0.2622205E-07  0.3394046E+04  0.7818609E-02  0.8139369E-01
       -1   -1    0    0    0  501  0.00000000000E+00  0.00000000000E+00  0.12737647894E+04  0.12737647894E+04  0.50400001928E-02 0.  1.
        1   -1    0    0  501    0  0.00000000000E+00  0.00000000000E+00 -0.22609253524E+04  0.22609253524E+04  0.50400001928E-02 0. -1.
    10030    2    1    2    0    0  0.00000000000E+00  0.00000000000E+00 -0.98716056303E+03  0.35346901418E+04  0.33940460252E+04 0.  0.
        3    1    3    3  502    0 -0.44177567281E+03 -0.59158359675E+03  0.10977262004E+04  0.13229284630E+04  0.10100000352E+00 0.  1.
       -3    1    3    3    0  502  0.44177567281E+03  0.59158359675E+03 -0.20848867634E+04  0.22117616787E+04  0.10100000352E+00 0. -1.
</event>
<event>
 5   0  0.7899402E-07  0.3417802E+04  0.7818609E-02  0.8133551E-01
        2   -1    0    0  501    0  0.00000000000E+00  0.00000000000E+00  0.19333806645E+04  0.19333806645E+04  0.25500000920E-02 0.  1.
       -2   -1    0    0    0  501  0.00000000000E+00  0.00000000000E+00 -0.15104846662E+04  0.15104846662E+04  0.25500000920E-02 0. -1.
    10030    2    1    2    0    0  0.00000000000E+00  0.00000000000E+00  0.42289599833E+03  0.34438653307E+04  0.34178015435E+04 0.  0.
        2    1    3    3  502    0  0.28147856868E+03  0.72599228606E+03 -0.13213516553E+04  0.15337096143E+04  0.25500000920E-02 0. -1.
       -2    1    3    3    0  502 -0.28147856868E+03 -0.72599228606E+03  0.17442476536E+04  0.19101557165E+04  0.25500000920E-02 0.  1.
</event>
<event>
 5   0  0.7899402E-07  0.3414679E+04  0.7818609E-02  0.8134313E-01
       -2   -1    0    0    0  501  0.00000000000E+00  0.00000000000E+00  0.21887131083E+04  0.21887131083E+04  0.25500000920E-02 0.  1.
        2   -1    0    0  501    0  0.00000000000E+00  0.00000000000E+00 -0.13318369427E+04  0.13318369427E+04  0.25500000920E-02 0. -1.
    10030    2    1    2    0    0  0.00000000000E+00  0.00000000000E+00  0.85687616562E+03  0.35205500510E+04  0.34146794723E+04 0.  0.
        2    1    3    3  502    0 -0.38402243154E+03  0.82577493771E+03 -0.10605093589E+04  0.13978760946E+04  0.25500000920E-02 0. -1.
       -2    1    3    3    0  502  0.38402243154E+03 -0.82577493771E+03  0.19173855245E+04  0.21226739564E+04  0.25500000920E-02 0.  1.
</event>
<event>
 5   0  0.2641442E-07  0.3419216E+04  0.7818609E-02  0.8133206E-01
        1   -1    0    0  501    0  0.00000000000E+00  0.00000000000E+00  0.23940927092E+04  0.23940927092E+04  0.50400001928E-02 0. -1.
       -1   -1    0    0    0  501  0.00000000000E+00  0.00000000000E+00 -0.12208215321E+04  0.12208215321E+04  0.50400001928E-02 0.  1.
    10030    2    1    2    0    0  0.00000000000E+00  0.00000000000E+00  0.11732711772E+04  0.36149142413E+04  0.34192162431E+04 0.  0.
        1    1    3    3  502    0 -0.79939256308E+03 -0.64004848197E+02 -0.10096260380E+04  0.12893679952E+04  0.50400001928E-02 0.  1.
       -1    1    3    3    0  502  0.79939256308E+03  0.64004848197E+02  0.21828972152E+04  0.23255462461E+04  0.50400001928E-02 0. -1.
</event>
<event>
 5   0  0.8489228E-07  0.3530722E+04  0.7818609E-02  0.8106548E-01
       -2   -1    0    0    0  501  0.00000000000E+00  0.00000000000E+00  0.12107072883E+04  0.12107072883E+04  0.25500000920E-02 0.  1.
        2   -1    0    0  501    0  0.00000000000E+00  0.00000000000E+00 -0.25741145413E+04  0.25741145413E+04  0.25500000920E-02 0. -1.
    10030    2    1    2    0    0  0.00000000000E+00  0.00000000000E+00 -0.13634072530E+04  0.37848218296E+04  0.35307218730E+04 0.  0.
        3    1    3    3  502    0  0.87305991613E+03 -0.13831462324E+04 -0.13937134012E+04  0.21488983625E+04  0.10100000352E+00 0.  1.
       -3    1    3    3    0  502 -0.87305991613E+03  0.13831462324E+04  0.30306148145E+02  0.16359234671E+04  0.10100000352E+00 0. -1.
</event>
<event>
 5   0  0.7899402E-07  0.3391177E+04  0.7818609E-02  0.8140075E-01
        2   -1    0    0  501    0  0.00000000000E+00  0.00000000000E+00  0.20566741963E+04  0.20566741963E+04  0.25500000920E-02 0.  1.
       -2   -1    0    0    0  501  0.00000000000E+00  0.00000000000E+00 -0.13978981687E+04  0.13978981687E+04  0.25500000920E-02 0. -1.
    10030    2    1    2    0    0  0.00000000000E+00  0.00000000000E+00  0.65877602759E+03  0.34545723649E+04  0.33911774312E+04 0.  0.
        2    1    3    3  502    0  0.79100879656E+03 -0.69305161070E+03 -0.10255155658E+04  0.14689103537E+04  0.25500000920E-02 0. -1.
       -2    1    3    3    0  502 -0.79100879656E+03  0.69305161070E+03  0.16842915934E+04  0.19856620113E+04  0.25500000920E-02 0.  1.
</event>
<event>
 5   0  0.2622205E-07  0.3407058E+04  0.7818609E-02  0.8136176E-01
       -1   -1    0    0    0  501  0.00000000000E+00  0.00000000000E+00  0.24575104430E+04  0.24575104430E+04  0.50400001928E-02 0. -1.
        1   -1    0    0  501    0  0.00000000000E+00  0.00000000000E+00 -0.11808746580E+04  0.11808746580E+04  0.50400001928E-02 0.  1.
    10030    2    1    2    0    0  0.00000000000E+00  0.00000000000E+00  0.12766357850E+04  0.36383851010E+04  0.34070584403E+04 0.  0.
        3    1    3    3  502    0  0.29333817817E+03 -0.29842715331E+03  0.24017719301E+04  0.24379529255E+04  0.10100000352E+00 0. -1.
       -3    1    3    3    0  502 -0.29333817817E+03  0.29842715331E+03 -0.11251361451E+04  0.12004321754E+04  0.10100000352E+00 0.  1.
</event>
<event>
 5   0  0.2622205E-07  0.3406533E+04  0.7818609E-02  0.8136305E-01
       -1   -1    0    0    0  501  0.00000000000E+00  0.00000000000E+00  0.13897515853E+04  0.13897515853E+04  0.50400001928E-02 0. -1.
        1   -1    0    0  501    0  0.00000000000E+00  0.00000000000E+00 -0.20875071681E+04  0.20875071681E+04  0.50400001928E-02 0.  1.
    10030    2    1    2    0    0  0.00000000000E+00  0.00000000000E+00 -0.69775558278E+03  0.34772587534E+04  0.34065327806E+04 0.  0.
        3    1    3    3  502    0  0.14215346412E+04  0.13993656736E+03 -0.12959189573E+04  0.19286650650E+04  0.10100000352E+00 0.  1.
       -3    1    3    3    0  502 -0.14215346412E+04 -0.13993656736E+03  0.59816337449E+03  0.15485936884E+04  0.10100000352E+00 0. -1.
</event>
<event>
 5   0  0.2592200E-07  0.3401095E+04  0.7818609E-02  0.8137638E-01
        1   -1    0    0  501    0  0.00000000000E+00  0.00000000000E+00  0.13869882030E+04  0.13869882030E+04  0.50400001928E-02 0.  1.
       -1   -1    0    0    0  501  0.00000000000E+00  0.00000000000E+00 -0.20849941700E+04  0.20849941700E+04  0.50400001928E-02 0. -1.
    10030    2    1    2    0    0  0.00000000000E+00  0.00000000000E+00 -0.69800596704E+03  0.34719823731E+04  0.34010953043E+04 0.  0.
        4    1    3    3  502    0  0.74774890100E+03 -0.14112390019E+04  0.24723957676E+03  0.16161228173E+04  0.12699999809E+01 0. -1.
       -4    1    3    3    0  502 -0.74774890100E+03  0.14112390019E+04 -0.94524554380E+03  0.18558595557E+04  0.12699999809E+01 0.  1.
</event>
<event>
 5   0  0.8489228E-07  0.3405343E+04  0.7818609E-02  0.8136596E-01
        2   -1    0    0  501    0  0.00000000000E+00  0.00000000000E+00  0.31489157874E+04  0.31489157874E+04  0.25500000920E-02 0.  1.
       -2   -1    0    0    0  501  0.00000000000E+00  0.00000000000E+00 -0.92066316382E+03  0.92066316382E+03  0.25500000920E-02 0. -1.
    10030    2    1    2    0    0  0.00000000000E+00  0.00000000000E+00  0.22282526236E+04  0.40695789512E+04  0.34053433139E+04 0.  0.
        3    1    3    3  502    0 -0.42378126798E+03 -0.15353237357E+04  0.39482394437E+03  0.16409434767E+04  0.10100000352E+00 0. -1.
       -3    1    3    3    0  502  0.42378126798E+03  0.15353237357E+04  0.18334286792E+04  0.24286354745E+04  0.10100000352E+00 0.  1.
</event>
<event>
 5   0  0.7899402E-07  0.3419508E+04  0.7818609E-02  0.8133135E-01
        2   -1    0    0  501    0  0.00000000000E+00  0.00000000000E+00  0.22766829241E+04  0.22766829241E+04  0.25500000920E-02 0.  1.
       -2   -1    0    0    0  501  0.00000000000E+00  0.00000000000E+00 -0.12839988366E+04  0.12839988366E+04  0.25500000920E-02 0. -1.
    10030    2    1    2    0    0  0.00000000000E+00  0.00000000000E+00  0.99268408751E+03  0.35606817607E+04  0.34195076990E+04 0.  0.
        2    1    3    3  502    0  0.79753240923E+03  0.11369100176E+04 -0.54214632793E+03  0.14908202349E+04  0.25500000920E-02 0. -1.
       -2    1    3    3    0  502 -0.79753240923E+03 -0.11369100176E+04  0.15348304154E+04  0.20698615258E+04  0.25500000920E-02 0.  1.
</event>
<event>
 5   0  0.7610412E-07  0.3392607E+04  0.7818609E-02  0.8139723E-01
        2   -1    0    0  501    0  0.00000000000E+00  0.00000000000E+00  0.13150319051E+04  0.13150319051E+04  0.25500000920E-02 0. -1.
       -2   -1    0    0    0  501  0.00000000000E+00  0.00000000000E+00 -0.21881181014E+04  0.21881181014E+04  0.25500000920E-02 0.  1.
    10030    2    1    2    0    0  0.00000000000E+00  0.00000000000E+00 -0.87308619624E+03  0.35031500065E+04  0.33926067355E+04 0.  0.
        4    1    3    3  502    0 -0.74427889440E+03 -0.24825078177E+01 -0.20105088179E+04  0.21438527363E+04  0.12699999809E+01 0.  1.
       -4    1    3    3    0  502  0.74427889440E+03  0.24825078177E+01  0.11374226216E+04  0.13592972701E+04  0.12699999809E+01 0. -1.
</event>
<event>
 5   0  0.2599367E-07  0.3383289E+04  0.7818609E-02  0.8142020E-01
        1   -1    0    0  501    0  0.00000000000E+00  0.00000000000E+00  0.13088476864E+04  0.13088476864E+04  0.50400001928E-02 0.  1.
       -1   -1    0    0    0  501  0.00000000000E+00  0.00000000000E+00 -0.21863975551E+04  0.21863975551E+04  0.50400001928E-02 0. -1.
    10030    2    1    2    0    0  0.00000000000E+00  0.00000000000E+00 -0.87754986871E+03  0.34952452415E+04  0.33832891579E+04 0.  0.
        2    1    3    3  502    0  0.16555059770E+04 -0.30859368520E+03 -0.27305711043E+03  0.17060159109E+04  0.25500000920E-02 0. -1.
       -2    1    3    3    0  502 -0.16555059770E+04  0.30859368520E+03 -0.60449275828E+03  0.17892293306E+04  0.25500000920E-02 0.  1.
</event>
<event>
 5   0  0.2553250E-07  0.3400025E+04  0.7818609E-02  0.8137900E-01
        3   -1    0    0  501    0  0.00000000000E+00  0.00000000000E+00  0.21443035671E+04  0.21443035695E+04  0.10100000352E+00 0. -1.
       -3   -1    0    0    0  501  0.00000000000E+00  0.00000000000E+00 -0.13477770322E+04  0.13477770360E+04  0.10100000352E+00 0.  1.
    10030    2    1    2    0    0  0.00000000000E+00  0.00000000000E+00  0.79652653488E+03  0.34920806055E+04  0.34000253579E+04 0.  0.
        5    1    3    3  502    0  0.15350576100E+04  0.13417163406E+03 -0.33924309308E+03  0.15778187030E+04  0.46999998093E+01 0.  1.
       -5    1    3    3    0  502 -0.15350576100E+04 -0.13417163406E+03  0.11357696280E+04  0.19142619025E+04  0.46999998093E+01 0. -1.
</event>
<event>
 5   0  0.7838333E-07  0.3409151E+04  0.7818609E-02  0.8135664E-01
       -2   -1    0    0    0  501  0.00000000000E+00  0.00000000000E+00  0.14823456698E+04  0.14823456698E+04  0.25500000920E-02 0.  1.
        2   -1    0    0  501    0  0.00000000000E+00  0.00000000000E+00 -0.19601215926E+04  0.19601215926E+04  0.25500000920E-02 0. -1.
    10030    2    1    2    0    0  0.00000000000E+00  0.00000000000E+00 -0.47777592284E+03  0.34424672624E+04  0.34091510703E+04 0.  0.
        1    1    3    3  502    0  0.48438305530E+03 -0.22330111004E+02  0.14112337353E+04  0.14922152103E+04  0.50400001928E-02 0.  1.
       -1    1    3    3    0  502 -0.48438305530E+03  0.22330111004E+02 -0.18890096581E+04  0.19502520521E+04  0.50400001928E-02 0. -1.
</event>
<event>
 5   0  0.7899402E-07  0.3399695E+04  0.7818609E-02  0.8137981E-01
       -2   -1    0    0    0  501  0.00000000000E+00  0.00000000000E+00  0.13321814409E+04  0.13321814409E+04  0.25500000920E-02 0.  1.
        2   -1    0    0  501    0  0.00000000000E+00  0.00000000000E+00 -0.21689847893E+04  0.21689847893E+04  0.25500000920E-02 0. -1.
    10030    2    1    2    0    0  0.00000000000E+00  0.00000000000E+00 -0.83680334836E+03  0.35011662302E+04  0.33996948580E+04 0.  0.
        2    1    3    3  502    0 -0.58764241437E+03  0.10671802867E+04  0.80242730435E+03  0.14587964047E+04  0.25500000920E-02 0.  1.
       -2    1    3    3    0  502  0.58764241437E+03 -0.10671802867E+04 -0.16392306527E+04  0.20423698255E+04  0.25500000920E-02 0. -1.
</event>
<event>
 5   0  0.2641442E-07  0.3426631E+04  0.7818609E-02  0.8131401E-01
        1   -1    0    0  501    0  0.00000000000E+00  0.00000000000E+00  0.10778672403E+04  0.10778672403E+04  0.50400001928E-02 0.  1.
       -1   -1    0    0    0  501  0.00000000000E+00  0.00000000000E+00 -0.27233869229E+04  0.27233869229E+04  0.50400001928E-02 0. -1.
    10030    2    1    2    0    0  0.00000000000E+00  0.00000000000E+00 -0.16455196826E+04  0.38012541632E+04  0.34266307340E+04 0.  0.
        1    1    3    3  502    0 -0.14981760116E+04  0.74935277174E+03 -0.42372793382E+03  0.17278907084E+04  0.50400001928E-02 0. -1.
       -1    1    3    3    0  502  0.14981760116E+04 -0.74935277174E+03 -0.12217917487E+04  0.20733634548E+04  0.50400001928E-02 0.  1.
</event>
<event>
 5   0  0.2622205E-07  0.3415466E+04  0.7818609E-02  0.8134121E-01
        1   -1    0    0  501    0  0.00000000000E+00  0.00000000000E+00  0.15730656651E+04  0.15730656652E+04  0.50400001928E-02 0.  1.
       -1   -1    0    0    0  501  0.00000000000E+00  0.00000000000E+00 -0.18539292325E+04  0.18539292325E+04  0.50400001928E-02 0. -1.
    10030    2    1    2    0    0  0.00000000000E+00  0.00000000000E+00 -0.28086356732E+03  0.34269948976E+04  0.34154662471E+04 0.  0.
        3    1    3    3  502    0  0.57666829928E+03  0.13852261309E+04  0.67776821348E+03  0.16464408652E+04  0.10100000352E+00 0.  1.
       -3    1    3    3    0  502 -0.57666829928E+03 -0.13852261309E+04 -0.95863178080E+03  0.17805540325E+04  0.10100000352E+00 0. -1.
</event>
<event>
 5   0  0.2592200E-07  0.3403583E+04  0.7818609E-02  0.8137027E-01
       -1   -1    0    0    0  501  0.00000000000E+00  0.00000000000E+00  0.14523949487E+04  0.14523949487E+04  0.50400001928E-02 0. -1.
        1   -1    0    0  501    0  0.00000000000E+00  0.00000000000E+00 -0.19940134980E+04  0.19940134980E+04  0.50400001928E-02 0.  1.
    10030    2    1    2    0    0  0.00000000000E+00  0.00000000000E+00 -0.54161854933E+03  0.34464084466E+04  0.34035834834E+04 0.  0.
        4    1    3    3  502    0  0.15576737591E+03 -0.11835219291E+04  0.95734324978E+03  0.15301945441E+04  0.12699999809E+01 0. -1.
       -4    1    3    3    0  502 -0.15576737591E+03  0.11835219291E+04 -0.14989617991E+04  0.19162139025E+04  0.12699999809E+01 0.  1.
</event>
<event>
 5   0  0.2622205E-07  0.3368060E+04  0.7818609E-02  0.8145790E-01
        1   -1    0    0  501    0  0.00000000000E+00  0.00000000000E+00  0.16532333192E+04  0.16532333192E+04  0.50400001928E-02 0. -1.
       -1   -1    0    0    0  501  0.00000000000E+00  0.00000000000E+00 -0.17154004902E+04  0.17154004902E+04  0.50400001928E-02 0.  1.
    10030    2    1    2    0    0  0.00000000000E+00  0.00000000000E+00 -0.62167171007E+02  0.33686338094E+04  0.33680601219E+04 0.  0.
        3    1    3    3  502    0  0.85806436051E+03 -0.95863830995E+02 -0.14771835579E+04  0.17110042650E+04  0.10100000352E+00 0.  1.
       -3    1    3    3    0  502 -0.85806436051E+03  0.95863830995E+02  0.14150163869E+04  0.16576295444E+04  0.10100000352E+00 0. -1.
</event>
<event>
 5   0  0.8489228E-07  0.3330271E+04  0.7818609E-02  0.8155235E-01
        2   -1    0    0  501    0  0.00000000000E+00  0.00000000000E+00  0.97232533282E+03  0.97232533282E+03  0.25500000920E-02 0.  1.
       -2   -1    0    0    0  501  0.00000000000E+00  0.00000000000E+00 -0.28515931563E+04  0.28515931563E+04  0.25500000920E-02 0. -1.
    10030    2    1    2    0    0  0.00000000000E+00  0.00000000000E+00 -0.18792678235E+04  0.38239184891E+04  0.33302710189E+04 0.  0.
        3    1    3    3  502    0 -0.39220233026E+01  0.42087376137E+03 -0.27895062256E+04  0.28210804842E+04  0.10100000352E+00 0. -1.
       -3    1    3    3    0  502  0.39220233026E+01 -0.42087376137E+03  0.91023840212E+03  0.10028380050E+04  0.10100000352E+00 0.  1.
</event>
<event>
 5   0  0.2599367E-07  0.3254777E+04  0.7818609E-02  0.8174499E-01
        1   -1    0    0  501    0  0.00000000000E+00  0.00000000000E+00  0.10449617660E+04  0.10449617660E+04  0.50400001928E-02 0.  1.
       -1   -1    0    0    0  501  0.00000000000E+00  0.00000000000E+00 -0.25344404485E+04  0.25344404485E+04  0.50400001928E-02 0. -1.
    10030    2    1    2    0    0  0.00000000000E+00  0.00000000000E+00 -0.14894786826E+04  0.35794022145E+04  0.32547770227E+04 0.  0.
        2    1    3    3  502    0 -0.46399839658E+03 -0.74129997541E+03 -0.22540565108E+04  0.24177656874E+04  0.25500000920E-02 0. -1.
       -2    1    3    3    0  502  0.46399839658E+03  0.74129997541E+03  0.76457782823E+03  0.11616365271E+04  0.25500000920E-02 0.  1.
</event>
<event>
 5   0  0.7838333E-07  0.3403113E+04  0.7818609E-02  0.8137143E-01
        2   -1    0    0  501    0  0.00000000000E+00  0.00000000000E+00  0.31112346965E+04  0.31112346965E+04  0.25500000920E-02 0. -1.
       -2   -1    0    0    0  501  0.00000000000E+00  0.00000000000E+00 -0.93059359448E+03  0.93059359448E+03  0.25500000920E-02 0.  1.
    10030    2    1    2    0    0  0.00000000000E+00  0.00000000000E+00  0.21806411020E+04  0.40418282910E+04  0.34031133272E+04 0.  0.
        1    1    3    3  502    0  0.16738858916E+04 -0.15446287288E+03  0.77711745827E+03  0.18519352854E+04  0.50400001928E-02 0. -1.
       -1    1    3    3    0  502 -0.16738858916E+04  0.15446287288E+03  0.14035236438E+04  0.21898930056E+04  0.50400001928E-02 0.  1.
</event>
<event>
 5   0  0.2599367E-07  0.3409182E+04  0.7818609E-02  0.8135656E-01
       -1   -1    0    0    0  501  0.00000000000E+00  0.00000000000E+00  0.15600516753E+04  0.15600516754E+04  0.50400001928E-02 0.  1.
        1   -1    0    0  501    0  0.00000000000E+00  0.00000000000E+00 -0.18625219036E+04  0.18625219036E+04  0.50400001928E-02 0. -1.
    10030    2    1    2    0    0  0.00000000000E+00  0.00000000000E+00 -0.30247022829E+03  0.34225735790E+04  0.34091819642E+04 0.  0.
        2    1    3    3  502    0 -0.12435430116E+04  0.58084238819E+03  0.86360328191E+03  0.16216003608E+04  0.25500000920E-02 0.  1.
       -2    1    3    3    0  502  0.12435430116E+04 -0.58084238819E+03 -0.11660735102E+04  0.18009732182E+04  0.25500000920E-02 0. -1.
</event>
<event>
 5   0  0.2622205E-07  0.3392734E+04  0.7818609E-02  0.8139692E-01
        1   -1    0    0  501    0  0.00000000000E+00  0.00000000000E+00  0.23065138241E+04  0.23065138241E+04  0.50400001928E-02 0. -1.
       -1   -1    0    0    0  501  0.00000000000E+00  0.00000000000E+00 -0.12476233675E+04  0.12476233676E+04  0.50400001928E-02 0.  1.
    10030    2    1    2    0    0  0.00000000000E+00  0.00000000000E+00  0.10588904566E+04  0.35541371917E+04  0.33927337323E+04 0.  0.
        3    1    3    3  502    0  0.14294948336E+04  0.86047296098E+03  0.85026843696E+03  0.18726520288E+04  0.10100000352E+00 0.  1.
       -3    1    3    3    0  502 -0.14294948336E+04 -0.86047296098E+03  0.20862201962E+03  0.16814851629E+04  0.10100000352E+00 0. -1.
</event>
<event>
 5   0  0.7610412E-07  0.3403312E+04  0.7818609E-02  0.8137094E-01
       -2   -1    0    0    0  501  0.00000000000E+00  0.00000000000E+00  0.21918220234E+04  0.21918220234E+04  0.25500000920E-02 0. -1.
        2   -1    0    0  501    0  0.00000000000E+00  0.00000000000E+00 -0.13211074428E+04  0.13211074428E+04  0.25500000920E-02 0.  1.
    10030    2    1    2    0    0  0.00000000000E+00  0.00000000000E+00  0.87071458054E+03  0.35129294662E+04  0.34033115569E+04 0.  0.
        4    1    3    3  502    0 -0.74848008955E+03  0.14695214521E+04  0.24257779356E+01  0.16491583429E+04  0.12699999809E+01 0. -1.
       -4    1    3    3    0  502  0.74848008955E+03 -0.14695214521E+04  0.86828880261E+03  0.18637711233E+04  0.12699999809E+01 0.  1.
</event>
<event>
 5   0  0.2592200E-07  0.3421151E+04  0.7818609E-02  0.8132735E-01
       -1   -1    0    0    0  501  0.00000000000E+00  0.00000000000E+00  0.17772366379E+04  0.17772366379E+04  0.50400001928E-02 0. -1.
        1   -1    0    0  501    0  0.00000000000E+00  0.00000000000E+00 -0.16464150111E+04  0.16464150111E+04  0.50400001928E-02 0.  1.
    10030    2    1    2    0    0  0.00000000000E+00  0.00000000000E+00  0.13082162674E+03  0.34236516490E+04  0.34211513144E+04 0.  0.
        4    1    3    3  502    0 -0.10884107791E+04 -0.28257107271E+02  0.13857047859E+04  0.17622757601E+04  0.12699999809E+01 0. -1.
       -4    1    3    3    0  502  0.10884107791E+04  0.28257107271E+02 -0.12548831591E+04  0.16613758889E+04  0.12699999809E+01 0.  1.
</event>
<event>
 5   0  0.7899402E-07  0.3376801E+04  0.7818609E-02  0.8143624E-01
       -2   -1    0    0    0  501  0.00000000000E+00  0.00000000000E+00  0.17985814660E+04  0.17985814660E+04  0.25500000920E-02 0. -1.
        2   -1    0    0  501    0  0.00000000000E+00  0.00000000000E+00 -0.15849690505E+04  0.15849690505E+04  0.25500000920E-02 0.  1.
    10030    2    1    2    0    0  0.00000000000E+00  0.00000000000E+00  0.21361241555E+03  0.33835505165E+04  0.33768008283E+04 0.  0.
        2    1    3    3  502    0  0.10233007114E+04 -0.98715648518E+03  0.10191610575E+04  0.17493746121E+04  0.25500000920E-02 0. -1.
       -2    1    3    3    0  502 -0.10233007114E+04  0.98715648518E+03 -0.80554864191E+03  0.16341759045E+04  0.25500000920E-02 0.  1.
</event>
<event>
 5   0  0.2553250E-07  0.3394488E+04  0.7818609E-02  0.8139261E-01
        1   -1    0    0  501    0  0.00000000000E+00  0.00000000000E+00  0.22878748677E+04  0.22878748677E+04  0.50400001928E-02 0.  1.
       -1   -1    0    0    0  501  0.00000000000E+00  0.00000000000E+00 -0.12590883117E+04  0.12590883117E+04  0.50400001928E-02 0. -1.
    10030    2    1    2    0    0  0.00000000000E+00  0.00000000000E+00  0.10287865560E+04  0.35469631794E+04  0.33944875929E+04 0.  0.
        5    1    3    3  502    0 -0.10949531614E+04 -0.93178103020E+03 -0.42804920239E+03  0.15001288357E+04  0.46999998093E+01 0.  1.
       -5    1    3    3    0  502  0.10949531614E+04  0.93178103020E+03  0.14568357583E+04  0.20468343437E+04  0.46999998093E+01 0. -1.
</event>
<event>
 5   0  0.8489228E-07  0.3417952E+04  0.7818609E-02  0.8133514E-01
       -2   -1    0    0    0  501  0.00000000000E+00  0.00000000000E+00  0.12224966738E+04  0.12224966738E+04  0.25500000920E-02 0. -1.
        2   -1    0    0  501    0  0.00000000000E+00  0.00000000000E+00 -0.23890438508E+04  0.23890438508E+04  0.25500000920E-02 0.  1.
    10030    2    1    2    0    0  0.00000000000E+00  0.00000000000E+00 -0.11665471770E+04  0.36115405245E+04  0.34179515275E+04 0.  0.
        3    1    3    3  502    0  0.16398688923E+04 -0.44331784641E+03 -0.78066282426E+03  0.18695280560E+04  0.10100000352E+00 0. -1.
       -3    1    3    3    0  502 -0.16398688923E+04  0.44331784641E+03 -0.38588435275E+03  0.17420124686E+04  0.10100000352E+00 0.  1.
</event>
<event>
 5   0  0.2599367E-07  0.3420362E+04  0.7818609E-02  0.8132927E-01
       -1   -1    0    0    0  501  0.00000000000E+00  0.00000000000E+00  0.12821580476E+04  0.12821580476E+04  0.50400001928E-02 0. -1.
        1   -1    0    0  501    0  0.00000000000E+00  0.00000000000E+00 -0.22810912568E+04  0.22810912568E+04  0.50400001928E-02 0.  1.
    10030    2    1    2    0    0  0.00000000000E+00  0.00000000000E+00 -0.99893320924E+03  0.35632493044E+04  0.34203622686E+04 0.  0.
        2    1    3    3  502    0 -0.10495796144E+04 -0.13080101044E+04 -0.15049250420E+03  0.16837920875E+04  0.25500000920E-02 0.  1.
       -2    1    3    3    0  502  0.10495796144E+04  0.13080101044E+04 -0.84844070504E+03  0.18794572169E+04  0.25500000920E-02 0. -1.
</event>
<event>
 5   0  0.7899402E-07  0.3395924E+04  0.7818609E-02  0.8138907E-01
       -2   -1    0    0    0  501  0.00000000000E+00  0.00000000000E+00  0.20137899832E+04  0.20137899832E+04  0.25500000920E-02 0.  1.
        2   -1    0    0  501    0  0.00000000000E+00  0.00000000000E+00 -0.14316665364E+04  0.14316665364E+04  0.25500000920E-02 0. -1.
    10030    2    1    2    0    0  0.00000000000E+00  0.00000000000E+00  0.58212344681E+03  0.34454565197E+04  0.33959244576E+04 0.  0.
        2    1    3    3  502    0 -0.74098921431E+03  0.64400114031E+03  0.16966468649E+04  0.19602074045E+04  0.25500000920E-02 0.  1.
       -2    1    3    3    0  502  0.74098921431E+03 -0.64400114031E+03 -0.11145234181E+04  0.14852491151E+04  0.25500000920E-02 0. -1.
</event>
<event>
 5   0  0.7838333E-07  0.3375928E+04  0.7818609E-02  0.8143840E-01
       -2   -1    0    0    0  501  0.00000000000E+00  0.00000000000E+00  0.17521480309E+04  0.17521480309E+04  0.25500000920E-02 0. -1.
        2   -1    0    0  501    0  0.00000000000E+00  0.00000000000E+00 -0.16261314397E+04  0.16261314397E+04  0.25500000920E-02 0.  1.
    10030    2    1    2    0    0  0.00000000000E+00  0.00000000000E+00  0.12601659120E+03  0.33782794706E+04  0.33759283168E+04 0.  0.
        1    1    3    3  502    0  0.11361863104E+03 -0.81788084300E+03  0.15362376464E+04  0.17440941411E+04  0.50400001928E-02 0. -1.
       -1    1    3    3    0  502 -0.11361863104E+03  0.81788084300E+03 -0.14102210552E+04  0.16341853295E+04  0.50400001928E-02 0.  1.
</event>
<event>
 5   0  0.2622205E-07  0.3447958E+04  0.7818609E-02  0.8126235E-01
       -1   -1    0    0    0  501  0.00000000000E+00  0.00000000000E+00  0.24860404631E+04  0.24860404631E+04  0.50400001928E-02 0.  1.
        1   -1    0    0  501    0  0.00000000000E+00  0.00000000000E+00 -0.11955166517E+04  0.11955166517E+04  0.50400001928E-02 0. -1.
    10030    2    1    2    0    0  0.00000000000E+00  0.00000000000E+00  0.12905238114E+04  0.36815571149E+04  0.34479575233E+04 0.  0.
        3    1    3    3  502    0  0.13383847581E+02 -0.76432444734E+03 -0.10046562618E+04  0.12624203749E+04  0.10100000352E+00 0. -1.
       -3    1    3    3    0  502 -0.13383847581E+02  0.76432444734E+03  0.22951800732E+04  0.24191367400E+04  0.10100000352E+00 0.  1.
</event>
<event>
 5   0  0.2592200E-07  0.3398534E+04  0.7818609E-02  0.8138266E-01
       -1   -1    0    0    0  501  0.00000000000E+00  0.00000000000E+00  0.91155882108E+03  0.91155882110E+03  0.50400001928E-02 0.  1.
        1   -1    0    0  501    0  0.00000000000E+00  0.00000000000E+00 -0.31676592172E+04  0.31676592172E+04  0.50400001928E-02 0. -1.
    10030    2    1    2    0    0  0.00000000000E+00  0.00000000000E+00 -0.22561003961E+04  0.40792180383E+04  0.33985336259E+04 0.  0.
        4    1    3    3  502    0  0.67349123126E+03  0.13525285643E+04 -0.20613324400E+04  0.25557810933E+04  0.12699999809E+01 0.  1.
       -4    1    3    3    0  502 -0.67349123126E+03 -0.13525285643E+04 -0.19476795614E+03  0.15234369450E+04  0.12699999809E+01 0. -1.
</event>
<event>
 5   0  0.7899402E-07  0.3425583E+04  0.7818609E-02  0.8131656E-01
       -2   -1    0    0    0  501  0.00000000000E+00  0.00000000000E+00  0.13050551003E+04  0.13050551003E+04  0.25500000920E-02 0. -1.
        2   -1    0    0  501    0  0.00000000000E+00  0.00000000000E+00 -0.22479166362E+04  0.22479166362E+04  0.25500000920E-02 0.  1.
    10030    2    1    2    0    0  0.00000000000E+00  0.00000000000E+00 -0.94286153582E+03  0.35529717365E+04  0.34255832036E+04 0.  0.
        2    1    3    3  502    0 -0.95781090171E+03 -0.92820810316E+03 -0.15859527288E+04  0.20722495179E+04  0.25500000920E-02 0.  1.
       -2    1    3    3    0  502  0.95781090171E+03  0.92820810316E+03  0.64309119302E+03  0.14807222186E+04  0.25500000920E-02 0. -1.
</event>
<event>
 5   0  0.7610412E-07  0.3391673E+04  0.7818609E-02  0.8139953E-01
        2   -1    0    0  501    0  0.00000000000E+00  0.00000000000E+00  0.25466705340E+04  0.25466705340E+04  0.25500000920E-02 0. -1.
       -2   -1    0    0    0  501  0.00000000000E+00  0.00000000000E+00 -0.11292634698E+04  0.11292634698E+04  0.25500000920E-02 0.  1.
    10030    2    1    2    0    0  0.00000000000E+00  0.00000000000E+00  0.14174070642E+04  0.36759340038E+04  0.33916733355E+04 0.  0.
        4    1    3    3  502    0 -0.65201227050E+03  0.13786077378E+04 -0.95204782255E+02  0.15279871920E+04  0.12699999809E+01 0.  1.
       -4    1    3    3    0  502  0.65201227050E+03 -0.13786077378E+04  0.15126118464E+04  0.21479468118E+04  0.12699999809E+01 0. -1.
</event>
<event>
 5   0  0.8489228E-07  0.3297124E+04  0.7818609E-02  0.8163628E-01
        2   -1    0    0  501    0  0.00000000000E+00  0.00000000000E+00  0.18474957253E+04  0.18474957253E+04  0.25500000920E-02 0. -1.
       -2   -1    0    0    0  501  0.00000000000E+00  0.00000000000E+00 -0.14710491248E+04  0.14710491248E+04  0.25500000920E-02 0.  1.
    10030    2    1    2    0    0  0.00000000000E+00  0.00000000000E+00  0.37644660046E+03  0.33185448501E+04  0.32971241832E+04 0.  0.
        3    1    3    3  502    0  0.13272472160E+03  0.12202847656E+02 -0.14656172701E+04  0.14716652995E+04  0.10100000352E+00 0.  1.
       -3    1    3    3    0  502 -0.13272472160E+03 -0.12202847656E+02  0.18420638705E+04  0.18468795506E+04  0.10100000352E+00 0. -1.
</event>
<event>
 5   0  0.7822003E-07  0.3375286E+04  0.7818609E-02  0.8143999E-01
        2   -1    0    0  501    0  0.00000000000E+00  0.00000000000E+00  0.21300714634E+04  0.21300714634E+04  0.25500000920E-02 0. -1.
       -2   -1    0    0    0  501  0.00000000000E+00  0.00000000000E+00 -0.13371092858E+04  0.13371092858E+04  0.25500000920E-02 0.  1.
    10030    2    1    2    0    0  0.00000000000E+00  0.00000000000E+00  0.79296217758E+03  0.34671807492E+04  0.33752856668E+04 0.  0.
        5    1    3    3  502    0  0.91882287852E+03  0.12879653587E+04  0.99986240285E+03  0.18715868032E+04  0.46999998093E+01 0. -1.
       -5    1    3    3    0  502 -0.91882287852E+03 -0.12879653587E+04 -0.20690022526E+03  0.15955939460E+04  0.46999998093E+01 0.  1.
</event>
<event>
 5   0  0.2592200E-07  0.3373938E+04  0.7818609E-02  0.8144333E-01
        1   -1    0    0  501    0  0.00000000000E+00  0.00000000000E+00  0.11370400115E+04  0.11370400115E+04  0.50400001928E-02 0. -1.
       -1   -1    0    0    0  501  0.00000000000E+00  0.00000000000E+00 -0.25028708785E+04  0.25028708785E+04  0.50400001928E-02 0.  1.
    10030    2    1    2    0    0  0.00000000000E+00  0.00000000000E+00 -0.13658308670E+04  0.36399108901E+04  0.33739379559E+04 0.  0.
        4    1    3    3  502    0 -0.73184327562E+03 -0.82925419004E+03 -0.20571477230E+04  0.23356188599E+04  0.12699999809E+01 0.  1.
       -4    1    3    3    0  502  0.73184327562E+03  0.82925419004E+03  0.69131685596E+03  0.13042920302E+04  0.12699999809E+01 0. -1.
</event>
<event>
 5   0  0.2553250E-07  0.3409022E+04  0.7818609E-02  0.8135696E-01
       -1   -1    0    0    0  501  0.00000000000E+00  0.00000000000E+00  0.17871970655E+04  0.17871970655E+04  0.50400001928E-02 0. -1.
        1   -1    0    0  501    0  0.00000000000E+00  0.00000000000E+00 -0.16256505447E+04  0.16256505447E+04  0.50400001928E-02 0.  1.
    10030    2    1    2    0    0  0.00000000000E+00  0.00000000000E+00  0.16154652086E+03  0.34128476102E+04  0.34090220785E+04 0.  0.
        5    1    3    3  502    0 -0.11192157373E+04 -0.89788024554E+03  0.10018616992E+04  0.17500233588E+04  0.46999998093E+01 0. -1.
       -5    1    3    3    0  502  0.11192157373E+04  0.89788024554E+03 -0.84031517839E+03  0.16628242514E+04  0.46999998093E+01 0.  1.
</event>
<event>
 5   0  0.2641442E-07  0.3392032E+04  0.7818609E-02  0.8139865E-01
        1   -1    0    0  501    0  0.00000000000E+00  0.00000000000E+00  0.19354826921E+04  0.19354826921E+04  0.50400001928E-02 0.  1.
       -1   -1    0    0    0  501  0.00000000000E+00  0.00000000000E+00 -0.14861771610E+04  0.14861771610E+04  0.50400001928E-02 0. -1.
    10030    2    1    2    0    0  0.00000000000E+00  0.00000000000E+00  0.44930553112E+03  0.34216598531E+04  0.33920319412E+04 0.  0.
        1    1    3    3  502    0  0.77434041338E+03  0.14929350465E+04  0.44568315916E+03  0.17398539040E+04  0.50400001928E-02 0. -1.
       -1    1    3    3    0  502 -0.77434041338E+03 -0.14929350465E+04  0.36223719586E+01  0.16818059491E+04  0.50400001928E-02 0.  1.
</event>
<event>
 5   0  0.7610412E-07  0.3402738E+04  0.7818609E-02  0.8137235E-01
       -2   -1    0    0    0  501  0.00000000000E+00  0.00000000000E+00  0.16290304645E+04  0.16290304645E+04  0.25500000920E-02 0.  1.
        2   -1    0    0  501    0  0.00000000000E+00  0.00000000000E+00 -0.17769195299E+04  0.17769195300E+04  0.25500000920E-02 0. -1.
    10030    2    1    2    0    0  0.00000000000E+00  0.00000000000E+00 -0.14788906549E+03  0.34059499944E+04  0.34027377490E+04 0.  0.
        4    1    3    3  502    0 -0.20616435153E+03 -0.13057140731E+04 -0.11460585877E+04  0.17495270446E+04  0.12699999809E+01 0. -1.
       -4    1    3    3    0  502  0.20616435153E+03  0.13057140731E+04  0.99816952224E+03  0.16564229498E+04  0.12699999809E+01 0.  1.
</event>
<event>
 5   0  0.7610412E-07  0.3413207E+04  0.7818609E-02  0.8134672E-01
       -2   -1    0    0    0  501  0.00000000000E+00  0.00000000000E+00  0.10104428070E+04  0.10104428070E+04  0.25500000920E-02 0.  1.
        2   -1    0    0  501    0  0.00000000000E+00  0.00000000000E+00 -0.28823959493E+04  0.28823959493E+04  0.25500000920E-02 0. -1.
    10030    2    1    2    0    0  0.00000000000E+00  0.00000000000E+00 -0.18719531423E+04  0.38928387563E+04  0.34132074381E+04 0.  0.
        4    1    3    3  502    0  0.11823155856E+04 -0.63585890986E+03  0.26580476619E+03  0.13685176228E+04  0.12699999809E+01 0.  1.
       -4    1    3    3    0  502 -0.11823155856E+04  0.63585890986E+03 -0.21377579085E+04  0.25243211335E+04  0.12699999809E+01 0. -1.
</event>
<event>
 5   0  0.2553250E-07  0.3422101E+04  0.7818609E-02  0.8132503E-01
       -3   -1    0    0    0  501  0.00000000000E+00  0.00000000000E+00  0.13010604668E+04  0.13010604707E+04  0.10100000352E+00 0. -1.
        3   -1    0    0  501    0  0.00000000000E+00  0.00000000000E+00 -0.22502371021E+04  0.22502371043E+04  0.10100000352E+00 0.  1.
    10030    2    1    2    0    0  0.00000000000E+00  0.00000000000E+00 -0.94917663529E+03  0.35512975751E+04  0.34221014277E+04 0.  0.
        2    1    3    3  502    0  0.17028811030E+04  0.48014388299E+02 -0.64058058470E+03  0.18200145379E+04  0.25500000920E-02 0.  1.
       -2    1    3    3    0  502 -0.17028811030E+04 -0.48014388299E+02 -0.30859605059E+03  0.17312830372E+04  0.25500000920E-02 0. -1.
</event>
<event>
 5   0  0.7899402E-07  0.3390822E+04  0.7818609E-02  0.8140163E-01
       -2   -1    0    0    0  501  0.00000000000E+00  0.00000000000E+00  0.14297734958E+04  0.14297734958E+04  0.25500000920E-02 0.  1.
        2   -1    0    0  501    0  0.00000000000E+00  0.00000000000E+00 -0.20104013159E+04  0.20104013159E+04  0.25500000920E-02 0. -1.
    10030    2    1    2    0    0  0.00000000000E+00  0.00000000000E+00 -0.58062782004E+03  0.34401748117E+04  0.33908220345E+04 0.  0.
        2    1    3    3  502    0  0.15621177484E+04 -0.75150805965E+02  0.37385850179E+03  0.16079893292E+04  0.25500000920E-02 0.  1.
       -2    1    3    3    0  502 -0.15621177484E+04  0.75150805965E+02 -0.95448632182E+03  0.18321854824E+04  0.25500000920E-02 0. -1.
</event>
<event>
 5   0  0.2599367E-07  0.3388132E+04  0.7818609E-02  0.8140825E-01
       -1   -1    0    0    0  501  0.00000000000E+00  0.00000000000E+00  0.23603329730E+04  0.23603329731E+04  0.50400001928E-02 0.  1.
        1   -1    0    0  501    0  0.00000000000E+00  0.00000000000E+00 -0.12158707497E+04  0.12158707497E+04  0.50400001928E-02 0. -1.
    10030    2    1    2    0    0  0.00000000000E+00  0.00000000000E+00  0.11444622233E+04  0.35762037228E+04  0.33881321235E+04 0.  0.
        2    1    3    3  502    0 -0.96302542336E+03 -0.13622032500E+04  0.26117966492E+03  0.16885586983E+04  0.25500000920E-02 0. -1.
       -2    1    3    3    0  502  0.96302542336E+03  0.13622032500E+04  0.88328255842E+03  0.18876450245E+04  0.25500000920E-02 0.  1.
</event>
<event>
 5   0  0.2622205E-07  0.3392339E+04  0.7818609E-02  0.8139789E-01
        1   -1    0    0  501    0  0.00000000000E+00  0.00000000000E+00  0.13974845360E+04  0.13974845360E+04  0.50400001928E-02 0.  1.
       -1   -1    0    0    0  501  0.00000000000E+00  0.00000000000E+00 -0.20586923342E+04  0.20586923342E+04  0.50400001928E-02 0. -1.
    10030    2    1    2    0    0  0.00000000000E+00  0.00000000000E+00 -0.66120779819E+03  0.34561768702E+04  0.33923388401E+04 0.  0.
        3    1    3    3  502    0 -0.16471279881E+04  0.36074113600E+03 -0.51798315549E+03  0.17639363185E+04  0.10100000352E+00 0.  1.
       -3    1    3    3    0  502  0.16471279881E+04 -0.36074113600E+03 -0.14322464270E+03  0.16922405517E+04  0.10100000352E+00 0. -1.
</event>
<event>
 5   0  0.7822003E-07  0.3367860E+04  0.7818609E-02  0.8145840E-01
       -2   -1    0    0    0  501  0.00000000000E+00  0.00000000000E+00  0.20891061657E+04  0.20891061657E+04  0.25500000920E-02 0. -1.
        2   -1    0    0  501    0  0.00000000000E+00  0.00000000000E+00 -0.13573362417E+04  0.13573362417E+04  0.25500000920E-02 0.  1.
    10030    2    1    2    0    0  0.00000000000E+00  0.00000000000E+00  0.73176992402E+03  0.34464424073E+04  0.33678595644E+04 0.  0.
        5    1    3    3  502    0 -0.12927227030E+04  0.43051177784E+03  0.13784807844E+04  0.19382217986E+04  0.46999998093E+01 0. -1.
       -5    1    3    3    0  502  0.12927227030E+04 -0.43051177784E+03 -0.64671086037E+03  0.15082206087E+04  0.46999998093E+01 0.  1.
</event>
<event>
 5   0  0.7838333E-07  0.3397787E+04  0.7818609E-02  0.8138450E-01
        2   -1    0    0  501    0  0.00000000000E+00  0.00000000000E+00  0.20369105122E+04  0.20369105122E+04  0.25500000920E-02 0.  1.
       -2   -1    0    0    0  501  0.00000000000E+00  0.00000000000E+00 -0.14169689261E+04  0.14169689261E+04  0.25500000920E-02 0. -1.
    10030    2    1    2    0    0  0.00000000000E+00  0.00000000000E+00  0.61994158607E+03  0.34538794383E+04  0.33977868686E+04 0.  0.
        1    1    3    3  502    0 -0.57478798272E+03  0.33264410178E+03  0.18995007939E+04  0.20122466523E+04  0.50400001928E-02 0.  1.
       -1    1    3    3    0  502  0.57478798272E+03 -0.33264410178E+03 -0.12795592078E+04  0.14416327861E+04  0.50400001928E-02 0. -1.
</event>
<event>
 5   0  0.2592200E-07  0.3383822E+04  0.7818609E-02  0.8141888E-01
        1   -1    0    0  501    0  0.00000000000E+00  0.00000000000E+00  0.15992437643E+04  0.15992437643E+04  0.50400001928E-02 0. -1.
       -1   -1    0    0    0  501  0.00000000000E+00  0.00000000000E+00 -0.17899477557E+04  0.17899477557E+04  0.50400001928E-02 0.  1.
    10030    2    1    2    0    0  0.00000000000E+00  0.00000000000E+00 -0.19070399140E+03  0.33891915200E+04  0.33838219733E+04 0.  0.
        4    1    3    3  502    0 -0.21846314170E+03 -0.25915281730E+03 -0.17555935280E+04  0.17880147022E+04  0.12699999809E+01 0.  1.
       -4    1    3    3    0  502  0.21846314170E+03  0.25915281730E+03  0.15648895366E+04  0.16011768177E+04  0.12699999809E+01 0. -1.
</event>
<event>
 5   0  0.2592200E-07  0.3380442E+04  0.7818609E-02  0.8142723E-01
       -1   -1    0    0    0  501  0.00000000000E+00  0.00000000000E+00  0.21898193859E+04  0.21898193859E+04  0.50400001928E-02 0.  1.
        1   -1    0    0  501    0  0.00000000000E+00  0.00000000000E+00 -0.13046042389E+04  0.13046042389E+04  0.50400001928E-02 0. -1.
    10030    2    1    2    0    0  0.00000000000E+00  0.00000000000E+00  0.88521514700E+03  0.34944236248E+04  0.33804423695E+04 0.  0.
        4    1    3    3  502    0  0.37057356944E+03  0.64833106158E+03 -0.11248264459E+04  0.13501459484E+04  0.12699999809E+01 0. -1.
       -4    1    3    3    0  502 -0.37057356944E+03 -0.64833106158E+03  0.20100415929E+04  0.21442776764E+04  0.12699999809E+01 0.  1.
</event>
<event>
 5   0  0.2553250E-07  0.3221436E+04  0.7818609E-02  0.8183179E-01
        1   -1    0    0  501    0  0.00000000000E+00  0.00000000000E+00  0.27084711491E+04  0.27084711491E+04  0.50400001928E-02 0. -1.
       -1   -1    0    0    0  501  0.00000000000E+00  0.00000000000E+00 -0.95788802794E+03  0.95788802795E+03  0.50400001928E-02 0.  1.
    10030    2    1    2    0    0  0.00000000000E+00  0.00000000000E+00  0.17505831212E+04  0.36663591771E+04  0.32214357593E+04 0.  0.
        5    1    3    3  502    0 -0.13006845041E+04 -0.44322767648E+03 -0.81102337639E+02  0.13765284710E+04  0.46999998093E+01 0.  1.
       -5    1    3    3    0  502  0.13006845041E+04  0.44322767648E+03  0.18316854588E+04  0.22898307061E+04  0.46999998093E+01 0. -1.
</event>
<event>
 5   0  0.7610412E-07  0.3389860E+04  0.7818609E-02  0.8140399E-01
        2   -1    0    0  501    0  0.00000000000E+00  0.00000000000E+00  0.21594374389E+04  0.21594374389E+04  0.25500000920E-02 0. -1.
       -2   -1    0    0    0  501  0.00000000000E+00  0.00000000000E+00 -0.13303408273E+04  0.13303408273E+04  0.25500000920E-02 0.  1.
    10030    2    1    2    0    0  0.00000000000E+00  0.00000000000E+00  0.82909661159E+03  0.34897782663E+04  0.33898600497E+04 0.  0.
        4    1    3    3  502    0  0.88228623361E+02 -0.94725865195E+03  0.18586435286E+04  0.20879752448E+04  0.12699999809E+01 0. -1.
       -4    1    3    3    0  502 -0.88228623361E+02  0.94725865195E+03 -0.10295469170E+04  0.14018030214E+04  0.12699999809E+01 0.  1.
</event>
<event>
 5   0  0.2553250E-07  0.3390582E+04  0.7818609E-02  0.8140222E-01
        1   -1    0    0  501    0  0.00000000000E+00  0.00000000000E+00  0.21315574565E+04  0.21315574565E+04  0.50400001928E-02 0. -1.
       -1   -1    0    0    0  501  0.00000000000E+00  0.00000000000E+00 -0.13483150310E+04  0.13483150310E+04  0.50400001928E-02 0.  1.
    10030    2    1    2    0    0  0.00000000000E+00  0.00000000000E+00  0.78324242550E+03  0.34798724875E+04  0.33905816363E+04 0.  0.
        5    1    3    3  502    0 -0.20210534681E+03  0.16658770321E+04  0.63878690319E+03  0.17955677807E+04  0.46999998093E+01 0. -1.
       -5    1    3    3    0  502  0.20210534681E+03 -0.16658770321E+04  0.14445552231E+03  0.16843047068E+04  0.46999998093E+01 0.  1.
</event>
<event>
 5   0  0.8489228E-07  0.3385946E+04  0.7818609E-02  0.8141364E-01
       -2   -1    0    0    0  501  0.00000000000E+00  0.00000000000E+00  0.21883754743E+04  0.21883754743E+04  0.25500000920E-02 0.  1.
        2   -1    0    0  501    0  0.00000000000E+00  0.00000000000E+00 -0.13097193917E+04  0.13097193918E+04  0.25500000920E-02 0. -1.
    10030    2    1    2    0    0  0.00000000000E+00  0.00000000000E+00  0.87865608251E+03  0.34980948660E+04  0.33859461278E+04 0.  0.
        3    1    3    3  502    0  0.42557729106E+03  0.12818531166E+03 -0.12483675522E+04  0.13251298277E+04  0.10100000352E+00 0. -1.
       -3    1    3    3    0  502 -0.42557729106E+03 -0.12818531166E+03  0.21270236347E+04  0.21729650383E+04  0.10100000352E+00 0.  1.
</event>
<event>
 5   0  0.8489228E-07  0.3415854E+04  0.7818609E-02  0.8134026E-01
       -2   -1    0    0    0  501  0.00000000000E+00  0.00000000000E+00  0.12967703547E+04  0.12967703547E+04  0.25500000920E-02 0. -1.
        2   -1    0    0  501    0  0.00000000000E+00  0.00000000000E+00 -0.22494463045E+04  0.22494463045E+04  0.25500000920E-02 0.  1.
    10030    2    1    2    0    0  0.00000000000E+00  0.00000000000E+00 -0.95267594981E+03  0.35462166592E+04  0.34158543776E+04 0.  0.
        3    1    3    3  502    0 -0.71030426083E+03 -0.79493478064E+03 -0.18616399283E+04  0.21452637789E+04  0.10100000352E+00 0.  1.
       -3    1    3    3    0  502  0.71030426083E+03  0.79493478064E+03  0.90896397849E+03  0.14009528803E+04  0.10100000352E+00 0. -1.
</event>
<event>
 5   0  0.2553250E-07  0.3406907E+04  0.7818609E-02  0.8136213E-01
        3   -1    0    0  501    0  0.00000000000E+00  0.00000000000E+00  0.21254198647E+04  0.21254198671E+04  0.10100000352E+00 0. -1.
       -3   -1    0    0    0  501  0.00000000000E+00  0.00000000000E+00 -0.13652611864E+04  0.13652611901E+04  0.10100000352E+00 0.  1.
    10030    2    1    2    0    0  0.00000000000E+00  0.00000000000E+00  0.76015867836E+03  0.34906810572E+04  0.34069066654E+04 0.  0.
        1    1    3    3  502    0 -0.24129184448E+03 -0.97291835194E+03  0.17912488291E+04  0.20526481046E+04  0.50400001928E-02 0. -1.
       -1    1    3    3    0  502  0.24129184448E+03  0.97291835194E+03 -0.10310901507E+04  0.14380329526E+04  0.50400001928E-02 0.  1.
</event>
<event>
 5   0  0.2553250E-07  0.3396912E+04  0.7818609E-02  0.8138665E-01
       -1   -1    0    0    0  501  0.00000000000E+00  0.00000000000E+00  0.19058373056E+04  0.19058373056E+04  0.50400001928E-02 0. -1.
        1   -1    0    0  501    0  0.00000000000E+00  0.00000000000E+00 -0.15136402085E+04  0.15136402086E+04  0.50400001928E-02 0.  1.
    10030    2    1    2    0    0  0.00000000000E+00  0.00000000000E+00  0.39219709706E+03  0.34194775142E+04  0.33969115248E+04 0.  0.
        5    1    3    3  502    0 -0.52542303612E+03 -0.12394637485E+04 -0.84634350254E+03  0.15901758284E+04  0.46999998093E+01 0.  1.
       -5    1    3    3    0  502  0.52542303612E+03  0.12394637485E+04  0.12385405996E+04  0.18293016858E+04  0.46999998093E+01 0. -1.
</event>
<event>
 5   0  0.8489228E-07  0.3378605E+04  0.7818609E-02  0.8143177E-01
        2   -1    0    0  501    0  0.00000000000E+00  0.00000000000E+00  0.19136746278E+04  0.19136746278E+04  0.25500000920E-02 0.  1.
       -2   -1    0    0    0  501  0.00000000000E+00  0.00000000000E+00 -0.14912376034E+04  0.14912376034E+04  0.25500000920E-02 0. -1.
    10030    2    1    2    0    0  0.00000000000E+00  0.00000000000E+00  0.42243702445E+03  0.34049122312E+04  0.33786053724E+04 0.  0.
        3    1    3    3  502    0 -0.37248619635E+03 -0.10089508552E+04 -0.11016202504E+04  0.15395762342E+04  0.10100000352E+00 0. -1.
       -3    1    3    3    0  502  0.37248619635E+03  0.10089508552E+04  0.15240572748E+04  0.18653359970E+04  0.10100000352E+00 0.  1.
</event>
<event>
 5   0  0.2553250E-07  0.3422089E+04  0.7818609E-02  0.8132506E-01
       -3   -1    0    0    0  501  0.00000000000E+00  0.00000000000E+00  0.28220260297E+04  0.28220260315E+04  0.10100000352E+00 0. -1.
        3   -1    0    0  501    0  0.00000000000E+00  0.00000000000E+00 -0.10374368523E+04  0.10374368572E+04  0.10100000352E+00 0.  1.
    10030    2    1    2    0    0  0.00000000000E+00  0.00000000000E+00  0.17845891774E+04  0.38594628887E+04  0.34220893117E+04 0.  0.
        5    1    3    3  502    0 -0.96247835359E+03 -0.33197087897E+03 -0.65863029784E+03  0.12125944107E+04  0.46999998093E+01 0.  1.
       -5    1    3    3    0  502  0.96247835359E+03  0.33197087897E+03  0.24432194752E+04  0.26468684780E+04  0.46999998093E+01 0. -1.
</event>
<event>
 5   0  0.7899402E-07  0.3346225E+04  0.7818609E-02  0.8151232E-01
       -2   -1    0    0    0  501  0.00000000000E+00  0.00000000000E+00  0.13203246462E+04  0.13203246462E+04  0.25500000920E-02 0. -1.
        2   -1    0    0  501    0  0.00000000000E+00  0.00000000000E+00 -0.21201646041E+04  0.21201646041E+04  0.25500000920E-02 0.  1.
    10030    2    1    2    0    0  0.00000000000E+00  0.00000000000E+00 -0.79983995789E+03  0.34404892504E+04  0.33462250856E+04 0.  0.
        2    1    3    3  502    0  0.32196746081E+02  0.17249221615E+03 -0.21106777652E+04  0.21179591176E+04  0.25500000920E-02 0.  1.
       -2    1    3    3    0  502 -0.32196746081E+02 -0.17249221615E+03  0.13108378073E+04  0.13225301328E+04  0.25500000920E-02 0. -1.
</event>
<event>
 5   0  0.7838333E-07  0.3405859E+04  0.7818609E-02  0.8136470E-01
       -2   -1    0    0    0  501  0.00000000000E+00  0.00000000000E+00  0.15631547388E+04  0.15631547389E+04  0.25500000920E-02 0. -1.
        2   -1    0    0  501    0  0.00000000000E+00  0.00000000000E+00 -0.18552025199E+04  0.18552025199E+04  0.25500000920E-02 0.  1.
    10030    2    1    2    0    0  0.00000000000E+00  0.00000000000E+00 -0.29204778109E+03  0.34183572588E+04  0.34058588406E+04 0.  0.
        1    1    3    3  502    0  0.99190458816E+03 -0.11719695181E+04 -0.88532819570E+03  0.17723411854E+04  0.50400001928E-02 0.  1.
       -1    1    3    3    0  502 -0.99190458816E+03  0.11719695181E+04  0.59328041461E+03  0.16460160734E+04  0.50400001928E-02 0. -1.
</event>
<event>
 5   0  0.2641442E-07  0.3395966E+04  0.7818609E-02  0.8138897E-01
       -1   -1    0    0    0  501  0.00000000000E+00  0.00000000000E+00  0.21452197523E+04  0.21452197523E+04  0.50400001928E-02 0. -1.
        1   -1    0    0  501    0  0.00000000000E+00  0.00000000000E+00 -0.13439862245E+04  0.13439862245E+04  0.50400001928E-02 0.  1.
    10030    2    1    2    0    0  0.00000000000E+00  0.00000000000E+00  0.80123352786E+03  0.34892059768E+04  0.33959657216E+04 0.  0.
        1    1    3    3  502    0  0.34068421038E+03 -0.10504516604E+04 -0.92461507337E+03  0.14402872824E+04  0.50400001928E-02 0.  1.
       -1    1    3    3    0  502 -0.34068421038E+03  0.10504516604E+04  0.17258486012E+04  0.20489186944E+04  0.50400001928E-02 0. -1.
</event>
<event>
 5   0  0.7610412E-07  0.3398855E+04  0.7818609E-02  0.8138187E-01
        2   -1    0    0  501    0  0.00000000000E+00  0.00000000000E+00  0.19760745715E+04  0.19760745715E+04  0.25500000920E-02 0.  1.
       -2   -1    0    0    0  501  0.00000000000E+00  0.00000000000E+00 -0.14615109709E+04  0.14615109710E+04  0.25500000920E-02 0. -1.
    10030    2    1    2    0    0  0.00000000000E+00  0.00000000000E+00  0.51456360057E+03  0.34375855425E+04  0.33988554931E+04 0.  0.
        4    1    3    3  502    0  0.54373788197E+03  0.11092291408E+04 -0.92306987653E+03  0.15421088746E+04  0.12699999809E+01 0.  1.
       -4    1    3    3    0  502 -0.54373788197E+03 -0.11092291408E+04  0.14376334771E+04  0.18954766679E+04  0.12699999809E+01 0. -1.
</event>
<event>
 5   0  0.7610412E-07  0.3415264E+04  0.7818609E-02  0.8134170E-01
        2   -1    0    0  501    0  0.00000000000E+00  0.00000000000E+00  0.13383998747E+04  0.13383998747E+04  0.25500000920E-02 0. -1.
       -2   -1    0    0    0  501  0.00000000000E+00  0.00000000000E+00 -0.21787261417E+04  0.21787261417E+04  0.25500000920E-02 0.  1.
    10030    2    1    2    0    0  0.00000000000E+00  0.00000000000E+00 -0.84032626696E+03  0.35171260165E+04  0.34152638523E+04 0.  0.
        4    1    3    3  502    0 -0.39090205201E+03  0.14777474381E+04  0.36376567884E+03  0.15712635002E+04  0.12699999809E+01 0. -1.
       -4    1    3    3    0  502  0.39090205201E+03 -0.14777474381E+04 -0.12040919458E+04  0.19458625162E+04  0.12699999809E+01 0.  1.
</event>
<event>
 5   0  0.7822003E-07  0.3405256E+04  0.7818609E-02  0.8136618E-01
        2   -1    0    0  501    0  0.00000000000E+00  0.00000000000E+00  0.22865241437E+04  0.22865241437E+04  0.25500000920E-02 0. -1.
       -2   -1    0    0    0  501  0.00000000000E+00  0.00000000000E+00 -0.12678376436E+04  0.12678376436E+04  0.25500000920E-02 0.  1.
    10030    2    1    2    0    0  0.00000000000E+00  0.00000000000E+00  0.10186865001E+04  0.35543617873E+04  0.34052555748E+04 0.  0.
        5    1    3    3  502    0 -0.49554386510E+03  0.16041214454E+04  0.80484739030E+03  0.18618729133E+04  0.46999998093E+01 0.  1.
       -5    1    3    3    0  502  0.49554386510E+03 -0.16041214454E+04  0.21383910980E+03  0.16924888740E+04  0.46999998093E+01 0. -1.
</event>
<event>
 5   0  0.2592200E-07  0.3404378E+04  0.7818609E-02  0.8136833E-01
        1   -1    0    0  501    0  0.00000000000E+00  0.00000000000E+00  0.29059924718E+04  0.29059924718E+04  0.50400001928E-02 0. -1.
       -1   -1    0    0    0  501  0.00000000000E+00  0.00000000000E+00 -0.99705923289E+03  0.99705923290E+03  0.50400001928E-02 0.  1.
    10030    2    1    2    0    0  0.00000000000E+00  0.00000000000E+00  0.19089332389E+04  0.39030517047E+04  0.34043775494E+04 0.  0.
        4    1    3    3  502    0 -0.12121645932E+04 -0.18617291929E+03  0.23078192804E+04  0.26134335271E+04  0.12699999809E+01 0. -1.
       -4    1    3    3    0  502  0.12121645932E+04  0.18617291929E+03 -0.39888604146E+03  0.12896181776E+04  0.12699999809E+01 0.  1.
</event>
<event>
 5   0  0.2599367E-07  0.3363858E+04  0.7818609E-02  0.8146834E-01
        1   -1    0    0  501    0  0.00000000000E+00  0.00000000000E+00  0.28814940113E+04  0.28814940113E+04  0.50400001928E-02 0.  1.
       -1   -1    0    0    0  501  0.00000000000E+00  0.00000000000E+00 -0.98174230869E+03  0.98174230870E+03  0.50400001928E-02 0. -1.
    10030    2    1    2    0    0  0.00000000000E+00  0.00000000000E+00  0.18997517026E+04  0.38632363200E+04  0.33638576564E+04 0.  0.
        2    1    3    3  502    0 -0.11961754521E+03  0.66544857853E+03  0.27185528348E+04  0.28013674667E+04  0.25500000920E-02 0.  1.
       -2    1    3    3    0  502  0.11961754521E+03 -0.66544857853E+03 -0.81880113213E+03  0.10618688534E+04  0.25500000920E-02 0. -1.
</event>
<event>
 5   0  0.8489228E-07  0.3405969E+04  0.7818609E-02  0.8136443E-01
        2   -1    0    0  501    0  0.00000000000E+00  0.00000000000E+00  0.28455583122E+04  0.28455583122E+04  0.25500000920E-02 0. -1.
       -2   -1    0    0    0  501  0.00000000000E+00  0.00000000000E+00 -0.10191871194E+04  0.10191871194E+04  0.25500000920E-02 0.  1.
    10030    2    1    2    0    0  0.00000000000E+00  0.00000000000E+00  0.18263711928E+04  0.38647454315E+04  0.34059691009E+04 0.  0.
        3    1    3    3  502    0  0.16712622092E+04  0.30264428515E+03  0.77216574772E+03  0.18657306578E+04  0.10100000352E+00 0.  1.
       -3    1    3    3    0  502 -0.16712622092E+04 -0.30264428515E+03  0.10542054451E+04  0.19990147738E+04  0.10100000352E+00 0. -1.
</event>
<event>
 5   0  0.7610412E-07  0.3408307E+04  0.7818609E-02  0.8135871E-01
       -2   -1    0    0    0  501  0.00000000000E+00  0.00000000000E+00  0.11698396904E+04  0.11698396904E+04  0.25500000920E-02 0. -1.
        2   -1    0    0  501    0  0.00000000000E+00  0.00000000000E+00 -0.24825099133E+04  0.24825099133E+04  0.25500000920E-02 0.  1.
    10030    2    1    2    0    0  0.00000000000E+00  0.00000000000E+00 -0.13126702229E+04  0.36523496037E+04  0.34083066930E+04 0.  0.
        4    1    3    3  502    0 -0.32353242710E+03  0.16063581215E+04 -0.11579061284E+04  0.20064415917E+04  0.12699999809E+01 0.  1.
       -4    1    3    3    0  502  0.32353242710E+03 -0.16063581215E+04 -0.15476409450E+03  0.16459080120E+04  0.12699999809E+01 0. -1.
</event>
<event>
 5   0  0.7610412E-07  0.3403012E+04  0.7818609E-02  0.8137168E-01
        2   -1    0    0  501    0  0.00000000000E+00  0.00000000000E+00  0.10929050729E+04  0.10929050729E+04  0.25500000920E-02 0. -1.
       -2   -1    0    0    0  501  0.00000000000E+00  0.00000000000E+00 -0.26490154276E+04  0.26490154276E+04  0.25500000920E-02 0.  1.
    10030    2    1    2    0    0  0.00000000000E+00  0.00000000000E+00 -0.15561103546E+04  0.37419205005E+04  0.34030118419E+04 0.  0.
        4    1    3    3  502    0 -0.51037076649E+03  0.16216560518E+04 -0.70128738577E+03  0.18390356930E+04  0.12699999809E+01 0.  1.
       -4    1    3    3    0  502  0.51037076649E+03 -0.16216560518E+04 -0.85482296885E+03  0.19028848075E+04  0.12699999809E+01 0. -1.
</event>
<event>
 5   0  0.2622205E-07  0.3408398E+04  0.7818609E-02  0.8135848E-01
        1   -1    0    0  501    0  0.00000000000E+00  0.00000000000E+00  0.19053023712E+04  0.19053023712E+04  0.50400001928E-02 0. -1.
       -1   -1    0    0    0  501  0.00000000000E+00  0.00000000000E+00 -0.15243218883E+04  0.15243218883E+04  0.50400001928E-02 0.  1.
    10030    2    1    2    0    0  0.00000000000E+00  0.00000000000E+00  0.38098048296E+03  0.34296242595E+04  0.34083979276E+04 0.  0.
        3    1    3    3  502    0  0.53547880615E+03 -0.54985519251E+03 -0.13405689815E+04  0.15447341159E+04  0.10100000352E+00 0.  1.
       -3    1    3    3    0  502 -0.53547880615E+03  0.54985519251E+03  0.17215494645E+04  0.18848901436E+04  0.10100000352E+00 0. -1.
</event>
<event>
 5   0  0.2641442E-07  0.3406527E+04  0.7818609E-02  0.8136306E-01
       -1   -1    0    0    0  501  0.00000000000E+00  0.00000000000E+00  0.10213235130E+04  0.10213235130E+04  0.50400001928E-02 0. -1.
        1   -1    0    0  501    0  0.00000000000E+00  0.00000000000E+00 -0.28405355816E+04  0.28405355816E+04  0.50400001928E-02 0.  1.
    10030    2    1    2    0    0  0.00000000000E+00  0.00000000000E+00 -0.18192120686E+04  0.38618590947E+04  0.34065265471E+04 0.  0.
        1    1    3    3  502    0  0.11097244022E+04 -0.16744320709E+03  0.54289253174E+03  0.12466987517E+04  0.50400001928E-02 0. -1.
       -1    1    3    3    0  502 -0.11097244022E+04  0.16744320709E+03 -0.23621046004E+04  0.26151603430E+04  0.50400001928E-02 0.  1.
</event>
<event>
 5   0  0.2592200E-07  0.3423164E+04  0.7818609E-02  0.8132244E-01
        1   -1    0    0  501    0  0.00000000000E+00  0.00000000000E+00  0.20838431565E+04  0.20838431565E+04  0.50400001928E-02 0.  1.
       -1   -1    0    0    0  501  0.00000000000E+00  0.00000000000E+00 -0.14058222638E+04  0.14058222638E+04  0.50400001928E-02 0. -1.
    10030    2    1    2    0    0  0.00000000000E+00  0.00000000000E+00  0.67802089277E+03  0.34896654203E+04  0.34231640940E+04 0.  0.
        4    1    3    3  502    0 -0.54666283993E+03  0.13925994213E+04  0.11866306738E+04  0.19095201957E+04  0.12699999809E+01 0.  1.
       -4    1    3    3    0  502  0.54666283993E+03 -0.13925994213E+04 -0.50860978106E+03  0.15801452246E+04  0.12699999809E+01 0. -1.
</event>
<event>
 5   0  0.7838333E-07  0.3374673E+04  0.7818609E-02  0.8144150E-01
       -2   -1    0    0    0  501  0.00000000000E+00  0.00000000000E+00  0.12240170696E+04  0.12240170696E+04  0.25500000920E-02 0. -1.
        2   -1    0    0  501    0  0.00000000000E+00  0.00000000000E+00 -0.23260337081E+04  0.23260337081E+04  0.25500000920E-02 0.  1.
    10030    2    1    2    0    0  0.00000000000E+00  0.00000000000E+00 -0.11020166385E+04  0.35500507778E+04  0.33746732957E+04 0.  0.
        1    1    3    3  502    0 -0.13165930005E+04  0.10412627249E+04 -0.73156664601E+03  0.18310748070E+04  0.50400001928E-02 0.  1.
       -1    1    3    3    0  502  0.13165930005E+04 -0.10412627249E+04 -0.37044999252E+03  0.17189759708E+04  0.50400001928E-02 0. -1.
</event>
<event>
 5   0  0.7610412E-07  0.3401693E+04  0.7818609E-02  0.8137491E-01
       -2   -1    0    0    0  501  0.00000000000E+00  0.00000000000E+00  0.14033085315E+04  0.14033085315E+04  0.25500000920E-02 0. -1.
        2   -1    0    0  501    0  0.00000000000E+00  0.00000000000E+00 -0.20614701086E+04  0.20614701086E+04  0.25500000920E-02 0.  1.
    10030    2    1    2    0    0  0.00000000000E+00  0.00000000000E+00 -0.65816157709E+03  0.34647786401E+04  0.34016928673E+04 0.  0.
        4    1    3    3  502    0 -0.16641387525E+04  0.35048556905E+03 -0.35562276322E+03  0.17374311740E+04  0.12699999809E+01 0. -1.
       -4    1    3    3    0  502  0.16641387525E+04 -0.35048556905E+03 -0.30253881387E+03  0.17273474661E+04  0.12699999809E+01 0.  1.
</event>
<event>
 5   0  0.2553250E-07  0.3405068E+04  0.7818609E-02  0.8136664E-01
        1   -1    0    0  501    0  0.00000000000E+00  0.00000000000E+00  0.26983949089E+04  0.26983949089E+04  0.50400001928E-02 0. -1.
       -1   -1    0    0    0  501  0.00000000000E+00  0.00000000000E+00 -0.10742023748E+04  0.10742023748E+04  0.50400001928E-02 0.  1.
    10030    2    1    2    0    0  0.00000000000E+00  0.00000000000E+00  0.16241925341E+04  0.37725972837E+04  0.34050681164E+04 0.  0.
        5    1    3    3  502    0  0.10646860182E+04 -0.86484117606E+03  0.19294613457E+04  0.23673507877E+04  0.46999998093E+01 0. -1.
       -5    1    3    3    0  502 -0.10646860182E+04  0.86484117606E+03 -0.30526881163E+03  0.14052464960E+04  0.46999998093E+01 0.  1.
</event>
<event>
 5   0  0.7838333E-07  0.3433146E+04  0.7818609E-02  0.8129819E-01
       -2   -1    0    0    0  501  0.00000000000E+00  0.00000000000E+00  0.16118890899E+04  0.16118890899E+04  0.25500000920E-02 0. -1.
        2   -1    0    0  501    0  0.00000000000E+00  0.00000000000E+00 -0.18280555683E+04  0.18280555683E+04  0.25500000920E-02 0.  1.
    10030    2    1    2    0    0  0.00000000000E+00  0.00000000000E+00 -0.21616647839E+03  0.34399446582E+04  0.34331459778E+04 0.  0.
        1    1    3    3  502    0  0.14795627172E+03  0.14952142649E+04 -0.93982712752E+03  0.17722392011E+04  0.50400001928E-02 0.  1.
       -1    1    3    3    0  502 -0.14795627172E+03 -0.14952142649E+04  0.72366064914E+03  0.16677054571E+04  0.50400001928E-02 0. -1.
</event>
<event>
 5   0  0.2622205E-07  0.3396926E+04  0.7818609E-02  0.8138661E-01
        1   -1    0    0  501    0  0.00000000000E+00  0.00000000000E+00  0.17546799312E+04  0.17546799312E+04  0.50400001928E-02 0. -1.
       -1   -1    0    0    0  501  0.00000000000E+00  0.00000000000E+00 -0.16440473062E+04  0.16440473063E+04  0.50400001928E-02 0.  1.
    10030    2    1    2    0    0  0.00000000000E+00  0.00000000000E+00  0.11063262499E+03  0.33987272375E+04  0.33969261483E+04 0.  0.
        3    1    3    3  502    0 -0.71470075873E+03  0.12422911848E+04 -0.85659013023E+03  0.16696799765E+04  0.10100000352E+00 0.  1.
       -3    1    3    3    0  502  0.71470075873E+03 -0.12422911848E+04  0.96722275522E+03  0.17290472610E+04  0.10100000352E+00 0. -1.
</event>
<event>
 5   0  0.2553250E-07  0.3446686E+04  0.7818609E-02  0.8126542E-01
        1   -1    0    0  501    0  0.00000000000E+00  0.00000000000E+00  0.17453614452E+04  0.17453614452E+04  0.50400001928E-02 0.  1.
       -1   -1    0    0    0  501  0.00000000000E+00  0.00000000000E+00 -0.17016021283E+04  0.17016021283E+04  0.50400001928E-02 0. -1.
    10030    2    1    2    0    0  0.00000000000E+00  0.00000000000E+00  0.43759316957E+02  0.34469635735E+04  0.34466857994E+04 0.  0.
        5    1    3    3  502    0 -0.47347064435E+03  0.81117111965E+03 -0.14231297332E+04  0.17051373446E+04  0.46999998093E+01 0. -1.
       -5    1    3    3    0  502  0.47347064435E+03 -0.81117111965E+03  0.14668890501E+04  0.17418262290E+04  0.46999998093E+01 0.  1.
</event>
<event>
 5   0  0.2553250E-07  0.3392576E+04  0.7818609E-02  0.8139731E-01
       -1   -1    0    0    0  501  0.00000000000E+00  0.00000000000E+00  0.17527111939E+04  0.17527111939E+04  0.50400001928E-02 0.  1.
        1   -1    0    0  501    0  0.00000000000E+00  0.00000000000E+00 -0.16416812270E+04  0.16416812270E+04  0.50400001928E-02 0. -1.
    10030    2    1    2    0    0  0.00000000000E+00  0.00000000000E+00  0.11102996687E+03  0.33943924209E+04  0.33925760498E+04 0.  0.
        5    1    3    3  502    0 -0.14729760679E+04  0.52330369269E+03 -0.60352251648E+03  0.16756392121E+04  0.46999998093E+01 0. -1.
       -5    1    3    3    0  502  0.14729760679E+04 -0.52330369269E+03  0.71455248335E+03  0.17187532088E+04  0.46999998093E+01 0.  1.
</event>
<event>
 5   0  0.7822003E-07  0.3372068E+04  0.7818609E-02  0.8144796E-01
       -2   -1    0    0    0  501  0.00000000000E+00  0.00000000000E+00  0.29679488854E+04  0.29679488854E+04  0.25500000920E-02 0.  1.
        2   -1    0    0  501    0  0.00000000000E+00  0.00000000000E+00 -0.95780327979E+03  0.95780327980E+03  0.25500000920E-02 0. -1.
    10030    2    1    2    0    0  0.00000000000E+00  0.00000000000E+00  0.20101456056E+04  0.39257521652E+04  0.33720683129E+04 0.  0.
        5    1    3    3  502    0  0.29996023578E+03  0.12821998890E+03  0.29308506820E+04  0.29489530886E+04  0.46999998093E+01 0.  1.
       -5    1    3    3    0  502 -0.29996023578E+03 -0.12821998890E+03 -0.92070507633E+03  0.97679907666E+03  0.46999998093E+01 0. -1.
</event>
<event>
 5   0  0.7822003E-07  0.3429701E+04  0.7818609E-02  0.8130655E-01
       -2   -1    0    0    0  501  0.00000000000E+00  0.00000000000E+00  0.11829021565E+04  0.11829021565E+04  0.25500000920E-02 0.  1.
        2   -1    0    0  501    0  0.00000000000E+00  0.00000000000E+00 -0.24860143721E+04  0.24860143721E+04  0.25500000920E-02 0. -1.
    10030    2    1    2    0    0  0.00000000000E+00  0.00000000000E+00 -0.13031122156E+04  0.36689165286E+04  0.34297007227E+04 0.  0.
        5    1    3    3  502    0 -0.15055708106E+03  0.14006320953E+04 -0.16976430424E+04  0.22060035563E+04  0.46999998093E+01 0. -1.
       -5    1    3    3    0  502  0.15055708106E+03 -0.14006320953E+04  0.39453082677E+03  0.14629129722E+04  0.46999998093E+01 0.  1.
</event>
<event>
 5   0  0.7610412E-07  0.3401205E+04  0.7818609E-02  0.8137611E-01
        2   -1    0    0  501    0  0.00000000000E+00  0.00000000000E+00  0.17578739598E+04  0.17578739598E+04  0.25500000920E-02 0.  1.
       -2   -1    0    0    0  501  0.00000000000E+00  0.00000000000E+00 -0.16451974029E+04  0.16451974029E+04  0.25500000920E-02 0. -1.
    10030    2    1    2    0    0  0.00000000000E+00  0.00000000000E+00  0.11267655689E+03  0.34030713626E+04  0.34012054764E+04 0.  0.
        4    1    3    3  502    0 -0.10150926521E+04  0.15268186885E+03 -0.13002533181E+04  0.16566185891E+04  0.12699999809E+01 0. -1.
       -4    1    3    3    0  502  0.10150926521E+04 -0.15268186885E+03  0.14129298750E+04  0.17464527735E+04  0.12699999809E+01 0.  1.
</event>
<event>
 5   0  0.2641442E-07  0.3410021E+04  0.7818609E-02  0.8135451E-01
       -1   -1    0    0    0  501  0.00000000000E+00  0.00000000000E+00  0.18719388290E+04  0.18719388290E+04  0.50400001928E-02 0. -1.
        1   -1    0    0  501    0  0.00000000000E+00  0.00000000000E+00 -0.15529682708E+04  0.15529682708E+04  0.50400001928E-02 0.  1.
    10030    2    1    2    0    0  0.00000000000E+00  0.00000000000E+00  0.31897055815E+03  0.34249070998E+04  0.34100214699E+04 0.  0.
        1    1    3    3  502    0 -0.77661171419E+01 -0.16832197013E+04 -0.11331173509E+03  0.16870472503E+04  0.50400001928E-02 0.  1.
       -1    1    3    3    0  502  0.77661171419E+01  0.16832197013E+04  0.43228229324E+03  0.17378598495E+04  0.50400001928E-02 0. -1.
</event>
<event>
 5   0  0.7822003E-07  0.3409798E+04  0.7818609E-02  0.8135506E-01
       -2   -1    0    0    0  501  0.00000000000E+00  0.00000000000E+00  0.18976764558E+04  0.18976764558E+04  0.25500000920E-02 0. -1.
        2   -1    0    0  501    0  0.00000000000E+00  0.00000000000E+00 -0.15317050870E+04  0.15317050870E+04  0.25500000920E-02 0.  1.
    10030    2    1    2    0    0  0.00000000000E+00  0.00000000000E+00  0.36597136874E+03  0.34293815428E+04  0.34097980473E+04 0.  0.
        5    1    3    3  502    0 -0.72657413153E+03 -0.68984384208E+02  0.17326105288E+04  0.18800612087E+04  0.46999998093E+01 0. -1.
       -5    1    3    3    0  502  0.72657413153E+03  0.68984384208E+02 -0.13666391601E+04  0.15493203341E+04  0.46999998093E+01 0.  1.
</event>
<event>
 5   0  0.2553250E-07  0.3444778E+04  0.7818609E-02  0.8127003E-01
       -1   -1    0    0    0  501  0.00000000000E+00  0.00000000000E+00  0.15075932986E+04  0.15075932986E+04  0.50400001928E-02 0. -1.
        1   -1    0    0  501    0  0.00000000000E+00  0.00000000000E+00 -0.19677882863E+04  0.19677882863E+04  0.50400001928E-02 0.  1.
    10030    2    1    2    0    0  0.00000000000E+00  0.00000000000E+00 -0.46019498766E+03  0.34753815849E+04  0.34447783287E+04 0.  0.
        5    1    3    3  502    0  0.99252627896E+02  0.15914263607E+04  0.42692798477E+03  0.16506903222E+04  0.46999998093E+01 0. -1.
       -5    1    3    3    0  502 -0.99252627896E+02 -0.15914263607E+04 -0.88712297243E+03  0.18246912626E+04  0.46999998093E+01 0.  1.
</event>
<event>
 5   0  0.8489228E-07  0.3422772E+04  0.7818609E-02  0.8132340E-01
        2   -1    0    0  501    0  0.00000000000E+00  0.00000000000E+00  0.23838222799E+04  0.23838222799E+04  0.25500000920E-02 0.  1.
       -2   -1    0    0    0  501  0.00000000000E+00  0.00000000000E+00 -0.12286324428E+04  0.12286324428E+04  0.25500000920E-02 0. -1.
    10030    2    1    2    0    0  0.00000000000E+00  0.00000000000E+00  0.11551898371E+04  0.36124547227E+04  0.34227716202E+04 0.  0.
        3    1    3    3  502    0  0.14317858942E+04  0.79344343431E+03  0.11045414010E+04  0.19747341713E+04  0.10100000352E+00 0.  1.
       -3    1    3    3    0  502 -0.14317858942E+04 -0.79344343431E+03  0.50648436048E+02  0.16377205514E+04  0.10100000352E+00 0. -1.
</event>
<event>
 5   0  0.7822003E-07  0.3404176E+04  0.7818609E-02  0.8136882E-01
        2   -1    0    0  501    0  0.00000000000E+00  0.00000000000E+00  0.22415089611E+04  0.22415089611E+04  0.25500000920E-02 0. -1.
       -2   -1    0    0    0  501  0.00000000000E+00  0.00000000000E+00 -0.12924788965E+04  0.12924788965E+04  0.25500000920E-02 0.  1.
    10030    2    1    2    0    0  0.00000000000E+00  0.00000000000E+00  0.94903006462E+03  0.35339878577E+04  0.34041756880E+04 0.  0.
        5    1    3    3  502    0  0.16147298275E+04 -0.53826383048E+03  0.47373025069E+03  0.17667831807E+04  0.46999998093E+01 0.  1.
       -5    1    3    3    0  502 -0.16147298275E+04  0.53826383048E+03  0.47529981393E+03  0.17672046770E+04  0.46999998093E+01 0. -1.
</event>
<event>
 5   0  0.2592200E-07  0.3389376E+04  0.7818609E-02  0.8140519E-01
       -1   -1    0    0    0  501  0.00000000000E+00  0.00000000000E+00  0.99032051950E+03  0.99032051951E+03  0.50400001928E-02 0. -1.
        1   -1    0    0  501    0  0.00000000000E+00  0.00000000000E+00 -0.29000379491E+04  0.29000379491E+04  0.50400001928E-02 0.  1.
    10030    2    1    2    0    0  0.00000000000E+00  0.00000000000E+00 -0.19097174296E+04  0.38903584686E+04  0.33893758059E+04 0.  0.
        4    1    3    3  502    0 -0.15703419029E+04 -0.48235355267E+02 -0.22560186847E+03  0.15871982098E+04  0.12699999809E+01 0. -1.
       -4    1    3    3    0  502  0.15703419029E+04  0.48235355267E+02 -0.16841155611E+04  0.23031602588E+04  0.12699999809E+01 0.  1.
</event>
<event>
 5   0  0.8489228E-07  0.3399228E+04  0.7818609E-02  0.8138096E-01
       -2   -1    0    0    0  501  0.00000000000E+00  0.00000000000E+00  0.17693093225E+04  0.17693093225E+04  0.25500000920E-02 0. -1.
        2   -1    0    0  501    0  0.00000000000E+00  0.00000000000E+00 -0.16326638778E+04  0.16326638778E+04  0.25500000920E-02 0.  1.
    10030    2    1    2    0    0  0.00000000000E+00  0.00000000000E+00  0.13664544478E+03  0.34019732003E+04  0.33992278061E+04 0.  0.
        3    1    3    3  502    0  0.14709281752E+04 -0.78418569251E+03  0.40041976579E+03  0.17143257847E+04  0.10100000352E+00 0. -1.
       -3    1    3    3    0  502 -0.14709281752E+04  0.78418569251E+03 -0.26377432101E+03  0.16876474156E+04  0.10100000352E+00 0.  1.
</event>
<event>
 5   0  0.7899402E-07  0.3402959E+04  0.7818609E-02  0.8137180E-01
       -2   -1    0    0    0  501  0.00000000000E+00  0.00000000000E+00  0.15307669056E+04  0.15307669056E+04  0.25500000920E-02 0. -1.
        2   -1    0    0  501    0  0.00000000000E+00  0.00000000000E+00 -0.18912304076E+04  0.18912304076E+04  0.25500000920E-02 0.  1.
    10030    2    1    2    0    0  0.00000000000E+00  0.00000000000E+00 -0.36046350198E+03  0.34219973132E+04  0.34029592527E+04 0.  0.
        2    1    3    3  502    0  0.63371145612E+03 -0.12904647803E+04  0.73488325602E+03  0.16146030344E+04  0.25500000920E-02 0.  1.
       -2    1    3    3    0  502 -0.63371145612E+03  0.12904647803E+04 -0.10953467580E+04  0.18073942788E+04  0.25500000920E-02 0. -1.
</event>
<event>
 5   0  0.7610412E-07  0.3398142E+04  0.7818609E-02  0.8138363E-01
        2   -1    0    0  501    0  0.00000000000E+00  0.00000000000E+00  0.18547791608E+04  0.18547791608E+04  0.25500000920E-02 0.  1.
       -2   -1    0    0    0  501  0.00000000000E+00  0.00000000000E+00 -0.15564341116E+04  0.15564341116E+04  0.25500000920E-02 0. -1.
    10030    2    1    2    0    0  0.00000000000E+00  0.00000000000E+00  0.29834504911E+03  0.34112132724E+04  0.33981415835E+04 0.  0.
        4    1    3    3  502    0 -0.15920683451E+04  0.22312919813E+03  0.70117111034E+03  0.17538844869E+04  0.12699999809E+01 0.  1.
       -4    1    3    3    0  502  0.15920683451E+04 -0.22312919813E+03 -0.40282606123E+03  0.16573287855E+04  0.12699999809E+01 0. -1.
</event>
<event>
 5   0  0.8489228E-07  0.3357073E+04  0.7818609E-02  0.8148523E-01
       -2   -1    0    0    0  501  0.00000000000E+00  0.00000000000E+00  0.14897503506E+04  0.14897503506E+04  0.25500000920E-02 0. -1.
        2   -1    0    0  501    0  0.00000000000E+00  0.00000000000E+00 -0.18912457261E+04  0.18912457261E+04  0.25500000920E-02 0.  1.
    10030    2    1    2    0    0  0.00000000000E+00  0.00000000000E+00 -0.40149537547E+03  0.33809960768E+04  0.33570725245E+04 0.  0.
        3    1    3    3  502    0  0.81741168029E+03 -0.85004627732E+03 -0.14037234747E+04  0.18333521572E+04  0.10100000352E+00 0.  1.
       -3    1    3    3    0  502 -0.81741168029E+03  0.85004627732E+03  0.10022280992E+04  0.15476439196E+04  0.10100000352E+00 0. -1.
</event>
<event>
 5   0  0.7838333E-07  0.3411417E+04  0.7818609E-02  0.8135110E-01
        2   -1    0    0  501    0  0.00000000000E+00  0.00000000000E+00  0.18107862032E+04  0.18107862032E+04  0.25500000920E-02 0.  1.
       -2   -1    0    0    0  501  0.00000000000E+00  0.00000000000E+00 -0.16067283195E+04  0.16067283195E+04  0.25500000920E-02 0. -1.
    10030    2    1    2    0    0  0.00000000000E+00  0.00000000000E+00  0.20405788370E+03  0.34175145227E+04  0.34114169919E+04 0.  0.
        1    1    3    3  502    0  0.31830094527E+03  0.15326196698E+04 -0.57682740906E+03  0.16682231277E+04  0.50400001928E-02 0. -1.
       -1    1    3    3    0  502 -0.31830094527E+03 -0.15326196698E+04  0.78088529275E+03  0.17492913950E+04  0.50400001928E-02 0.  1.
</event>
<event>
 5   0  0.7838333E-07  0.3228347E+04  0.7818609E-02  0.8181371E-01
       -2   -1    0    0    0  501  0.00000000000E+00  0.00000000000E+00  0.25297359124E+04  0.25297359124E+04  0.25500000920E-02 0. -1.
        2   -1    0    0  501    0  0.00000000000E+00  0.00000000000E+00 -0.10299716678E+04  0.10299716678E+04  0.25500000920E-02 0.  1.
    10030    2    1    2    0    0  0.00000000000E+00  0.00000000000E+00  0.14997642447E+04  0.35597075802E+04  0.32283471417E+04 0.  0.
        1    1    3    3  502    0 -0.69476076970E+02  0.14943287717E+04  0.14185144268E+04  0.20615597450E+04  0.50400001928E-02 0. -1.
       -1    1    3    3    0  502  0.69476076970E+02 -0.14943287717E+04  0.81249817865E+02  0.14981478352E+04  0.50400001928E-02 0.  1.
</event>
<event>
 5   0  0.2641442E-07  0.3091531E+04  0.7818609E-02  0.8218066E-01
       -1   -1    0    0    0  501  0.00000000000E+00  0.00000000000E+00  0.13473024309E+04  0.13473024310E+04  0.50400001928E-02 0.  1.
        1   -1    0    0  501    0  0.00000000000E+00  0.00000000000E+00 -0.17734634625E+04  0.17734634625E+04  0.50400001928E-02 0. -1.
    10030    2    1    2    0    0  0.00000000000E+00  0.00000000000E+00 -0.42616103155E+03  0.31207658935E+04  0.30915314226E+04 0.  0.
        1    1    3    3  502    0  0.65555601699E+03 -0.13970965623E+04 -0.30199945594E+03  0.15725254107E+04  0.50400001928E-02 0.  1.
       -1    1    3    3    0  502 -0.65555601699E+03  0.13970965623E+04 -0.12416157561E+03  0.15482404828E+04  0.50400001928E-02 0. -1.
</event>
<event>
 5   0  0.2599367E-07  0.3451955E+04  0.7818609E-02  0.8125271E-01
        1   -1    0    0  501    0  0.00000000000E+00  0.00000000000E+00  0.24506344136E+04  0.24506344136E+04  0.50400001928E-02 0. -1.
       -1   -1    0    0    0  501  0.00000000000E+00  0.00000000000E+00 -0.12156027391E+04  0.12156027391E+04  0.50400001928E-02 0.  1.
    10030    2    1    2    0    0  0.00000000000E+00  0.00000000000E+00  0.12350316745E+04  0.36662371528E+04  0.34519547540E+04 0.  0.
        2    1    3    3  502    0  0.90457399953E+03 -0.64371719347E+03 -0.78602106053E+03  0.13603143215E+04  0.25500000920E-02 0.  1.
       -2    1    3    3    0  502 -0.90457399953E+03  0.64371719347E+03  0.20210527350E+04  0.23059228312E+04  0.25500000920E-02 0. -1.
</event>
<event>
 5   0  0.7838333E-07  0.3336031E+04  0.7818609E-02  0.8153787E-01
        2   -1    0    0  501    0  0.00000000000E+00  0.00000000000E+00  0.17669473892E+04  0.17669473892E+04  0.25500000920E-02 0. -1.
       -2   -1    0    0    0  501  0.00000000000E+00  0.00000000000E+00 -0.15746230853E+04  0.15746230853E+04  0.25500000920E-02 0.  1.
    10030    2    1    2    0    0  0.00000000000E+00  0.00000000000E+00  0.19232430394E+03  0.33415704745E+04  0.33360312645E+04 0.  0.
        1    1    3    3  502    0 -0.47250261022E+03 -0.33549911950E+03  0.16628748917E+04  0.17609574899E+04  0.50400001928E-02 0. -1.
       -1    1    3    3    0  502  0.47250261022E+03  0.33549911950E+03 -0.14705505877E+04  0.15806129846E+04  0.50400001928E-02 0.  1.
</event>
<event>
 5   0  0.2553250E-07  0.3387881E+04  0.7818609E-02  0.8140887E-01
        1   -1    0    0  501    0  0.00000000000E+00  0.00000000000E+00  0.17493440411E+04  0.17493440411E+04  0.50400001928E-02 0.  1.
       -1   -1    0    0    0  501  0.00000000000E+00  0.00000000000E+00 -0.16402920848E+04  0.16402920848E+04  0.50400001928E-02 0. -1.
    10030    2    1    2    0    0  0.00000000000E+00  0.00000000000E+00  0.10905195629E+03  0.33896361259E+04  0.33878814526E+04 0.  0.
        5    1    3    3  502    0 -0.16071690764E+04  0.11258112343E+03  0.57800451528E+03  0.17116595045E+04  0.46999998093E+01 0.  1.
       -5    1    3    3    0  502  0.16071690764E+04 -0.11258112343E+03 -0.46895255899E+03  0.16779766214E+04  0.46999998093E+01 0. -1.
</event>
<event>
 5   0  0.7822003E-07  0.3372436E+04  0.7818609E-02  0.8144705E-01
       -2   -1    0    0    0  501  0.00000000000E+00  0.00000000000E+00  0.13234944661E+04  0.13234944661E+04  0.25500000920E-02 0.  1.
        2   -1    0    0  501    0  0.00000000000E+00  0.00000000000E+00 -0.21483519389E+04  0.21483519389E+04  0.25500000920E-02 0. -1.
    10030    2    1    2    0    0  0.00000000000E+00  0.00000000000E+00 -0.82485747283E+03  0.34718464050E+04  0.33724364500E+04 0.  0.
        5    1    3    3  502    0 -0.12933278416E+04 -0.29889678276E+03  0.65806599151E+03  0.14815900688E+04  0.46999998093E+01 0.  1.
       -5    1    3    3    0  502  0.12933278416E+04  0.29889678276E+03 -0.14829234643E+04  0.19902563362E+04  0.46999998093E+01 0. -1.
</event>
<event>
 5   0  0.2622205E-07  0.3423182E+04  0.7818609E-02  0.8132240E-01
       -1   -1    0    0    0  501  0.00000000000E+00  0.00000000000E+00  0.11210216002E+04  0.11210216002E+04  0.50400001928E-02 0.  1.
        1   -1    0    0  501    0  0.00000000000E+00  0.00000000000E+00 -0.26132799787E+04  0.26132799788E+04  0.50400001928E-02 0. -1.
    10030    2    1    2    0    0  0.00000000000E+00  0.00000000000E+00 -0.14922583785E+04  0.37343015790E+04  0.34231817385E+04 0.  0.
        3    1    3    3  502    0 -0.11721932342E+04  0.48674902395E+03 -0.19987884519E+04  0.23677239866E+04  0.10100000352E+00 0. -1.
       -3    1    3    3    0  502  0.11721932342E+04 -0.48674902395E+03  0.50653007343E+03  0.13665775924E+04  0.10100000352E+00 0.  1.
</event>
<event>
 5   0  0.7899402E-07  0.3357900E+04  0.7818609E-02  0.8148317E-01
        2   -1    0    0  501    0  0.00000000000E+00  0.00000000000E+00  0.24038680106E+04  0.24038680106E+04  0.25500000920E-02 0.  1.
       -2   -1    0    0    0  501  0.00000000000E+00  0.00000000000E+00 -0.11726402006E+04  0.11726402006E+04  0.25500000920E-02 0. -1.
    10030    2    1    2    0    0  0.00000000000E+00  0.00000000000E+00  0.12312278100E+04  0.35765082112E+04  0.33578995019E+04 0.  0.
        2    1    3    3  502    0 -0.33769266077E+03  0.47100639877E+02  0.23666045336E+04  0.23910399038E+04  0.25500000920E-02 0.  1.
       -2    1    3    3    0  502  0.33769266077E+03 -0.47100639877E+02 -0.11353767236E+04  0.11854683074E+04  0.25500000920E-02 0. -1.
</event>
<event>
 5   0  0.2592200E-07  0.3366144E+04  0.7818609E-02  0.8146266E-01
        1   -1    0    0  501    0  0.00000000000E+00  0.00000000000E+00  0.16016228795E+04  0.16016228795E+04  0.50400001928E-02 0.  1.
       -1   -1    0    0    0  501  0.00000000000E+00  0.00000000000E+00 -0.17686629713E+04  0.17686629713E+04  0.50400001928E-02 0. -1.
    10030    2    1    2    0    0  0.00000000000E+00  0.00000000000E+00 -0.16704009179E+03  0.33702858507E+04  0.33661438358E+04 0.  0.
        4    1    3    3  502    0  0.16102025710E+04 -0.15452906953E+02 -0.57375336939E+03  0.17094401580E+04  0.12699999809E+01 0.  1.
       -4    1    3    3    0  502 -0.16102025710E+04  0.15452906953E+02  0.40671327760E+03  0.16608456927E+04  0.12699999809E+01 0. -1.
</event>
<event>
 5   0  0.2553250E-07  0.3327567E+04  0.7818609E-02  0.8155916E-01
        1   -1    0    0  501    0  0.00000000000E+00  0.00000000000E+00  0.18849247192E+04  0.18849247192E+04  0.50400001928E-02 0. -1.
       -1   -1    0    0    0  501  0.00000000000E+00  0.00000000000E+00 -0.14685870004E+04  0.14685870004E+04  0.50400001928E-02 0.  1.
    10030    2    1    2    0    0  0.00000000000E+00  0.00000000000E+00  0.41633771877E+03  0.33535117196E+04  0.33275672432E+04 0.  0.
        5    1    3    3  502    0 -0.79906935580E+03 -0.53967279355E+03  0.15746147451E+04  0.18463998064E+04  0.46999998093E+01 0. -1.
       -5    1    3    3    0  502  0.79906935580E+03  0.53967279355E+03 -0.11582770263E+04  0.15071119133E+04  0.46999998093E+01 0.  1.
</event>
<event>
 5   0  0.2641442E-07  0.3371343E+04  0.7818609E-02  0.8144976E-01
        1   -1    0    0  501    0  0.00000000000E+00  0.00000000000E+00  0.19491033582E+04  0.19491033583E+04  0.50400001928E-02 0.  1.
       -1   -1    0    0    0  501  0.00000000000E+00  0.00000000000E+00 -0.14578441034E+04  0.14578441034E+04  0.50400001928E-02 0. -1.
    10030    2    1    2    0    0  0.00000000000E+00  0.00000000000E+00  0.49125925484E+03  0.34069474617E+04  0.33713432562E+04 0.  0.
        1    1    3    3  502    0 -0.47002169731E+03 -0.15956418701E+04 -0.30191404674E+02  0.16637021652E+04  0.50400001928E-02 0.  1.
       -1    1    3    3    0  502  0.47002169731E+03  0.15956418701E+04  0.52145065951E+03  0.17432452965E+04  0.50400001928E-02 0. -1.
</event>
<event>
 5   0  0.2599367E-07  0.3413024E+04  0.7818609E-02  0.8134717E-01
        1   -1    0    0  501    0  0.00000000000E+00  0.00000000000E+00  0.13001684968E+04  0.13001684968E+04  0.50400001928E-02 0. -1.
       -1   -1    0    0    0  501  0.00000000000E+00  0.00000000000E+00 -0.22398507585E+04  0.22398507585E+04  0.50400001928E-02 0.  1.
    10030    2    1    2    0    0  0.00000000000E+00  0.00000000000E+00 -0.93968226170E+03  0.35400192553E+04  0.34130241099E+04 0.  0.
        2    1    3    3  502    0 -0.74146266568E+03 -0.89790561948E+03  0.82404620748E+03  0.14265530268E+04  0.25500000920E-02 0. -1.
       -2    1    3    3    0  502  0.74146266568E+03  0.89790561948E+03 -0.17637284692E+04  0.21134662285E+04  0.25500000920E-02 0.  1.
</event>
<event>
 5   0  0.8489228E-07  0.3405888E+04  0.7818609E-02  0.8136463E-01
       -2   -1    0    0    0  501  0.00000000000E+00  0.00000000000E+00  0.14275251448E+04  0.14275251448E+04  0.25500000920E-02 0. -1.
        2   -1    0    0  501    0  0.00000000000E+00  0.00000000000E+00 -0.20315000831E+04  0.20315000831E+04  0.25500000920E-02 0.  1.
    10030    2    1    2    0    0  0.00000000000E+00  0.00000000000E+00 -0.60397493837E+03  0.34590252279E+04  0.34058875203E+04 0.  0.
        3    1    3    3  502    0 -0.36802973765E+03  0.44171171104E+03  0.13259756227E+04  0.14452565466E+04  0.10100000352E+00 0. -1.
       -3    1    3    3    0  502  0.36802973765E+03 -0.44171171104E+03 -0.19299505610E+04  0.20137686813E+04  0.10100000352E+00 0.  1.
</event>
<event>
 5   0  0.7838333E-07  0.3387205E+04  0.7818609E-02  0.8141054E-01
        2   -1    0    0  501    0  0.00000000000E+00  0.00000000000E+00  0.26561987844E+04  0.26561987844E+04  0.25500000920E-02 0. -1.
       -2   -1    0    0    0  501  0.00000000000E+00  0.00000000000E+00 -0.10798475375E+04  0.10798475375E+04  0.25500000920E-02 0.  1.
    10030    2    1    2    0    0  0.00000000000E+00  0.00000000000E+00  0.15763512469E+04  0.37360463219E+04  0.33872051703E+04 0.  0.
        1    1    3    3  502    0 -0.70776754703E+03 -0.13676263821E+04  0.15657256866E+04  0.21960951134E+04  0.50400001928E-02 0. -1.
       -1    1    3    3    0  502  0.70776754703E+03  0.13676263821E+04  0.10625560300E+02  0.15399512084E+04  0.50400001928E-02 0.  1.
</event>
<event>
 5   0  0.2599367E-07  0.3404177E+04  0.7818609E-02  0.8136882E-01
       -1   -1    0    0    0  501  0.00000000000E+00  0.00000000000E+00  0.13898284238E+04  0.13898284238E+04  0.50400001928E-02 0. -1.
        1   -1    0    0  501    0  0.00000000000E+00  0.00000000000E+00 -0.20845051327E+04  0.20845051327E+04  0.50400001928E-02 0.  1.
    10030    2    1    2    0    0  0.00000000000E+00  0.00000000000E+00 -0.69467670887E+03  0.34743335565E+04  0.34041765424E+04 0.  0.
        2    1    3    3  502    0  0.67494168688E+03  0.81414485637E+03 -0.17085134866E+04  0.20093273655E+04  0.25500000920E-02 0.  1.
       -2    1    3    3    0  502 -0.67494168688E+03 -0.81414485637E+03  0.10138367777E+04  0.14650061910E+04  0.25500000920E-02 0. -1.
</event>
<event>
 5   0  0.2592200E-07  0.3412838E+04  0.7818609E-02  0.8134763E-01
       -1   -1    0    0    0  501  0.00000000000E+00  0.00000000000E+00  0.14937659968E+04  0.14937659968E+04  0.50400001928E-02 0. -1.
        1   -1    0    0  501    0  0.00000000000E+00  0.00000000000E+00 -0.19493458444E+04  0.19493458444E+04  0.50400001928E-02 0.  1.
    10030    2    1    2    0    0  0.00000000000E+00  0.00000000000E+00 -0.45557984758E+03  0.34431118412E+04  0.34128384306E+04 0.  0.
        4    1    3    3  502    0  0.15921831316E+04 -0.59161672380E+03 -0.39297209785E+03  0.17434122161E+04  0.12699999809E+01 0.  1.
       -4    1    3    3    0  502 -0.15921831316E+04  0.59161672380E+03 -0.62607749732E+02  0.16996996251E+04  0.12699999809E+01 0. -1.
</event>
<event>
 5   0  0.2622205E-07  0.3403471E+04  0.7818609E-02  0.8137055E-01
       -1   -1    0    0    0  501  0.00000000000E+00  0.00000000000E+00  0.14301171823E+04  0.14301171823E+04  0.50400001928E-02 0. -1.
        1   -1    0    0  501    0  0.00000000000E+00  0.00000000000E+00 -0.20249412115E+04  0.20249412116E+04  0.50400001928E-02 0.  1.
    10030    2    1    2    0    0  0.00000000000E+00  0.00000000000E+00 -0.59482402921E+03  0.34550583939E+04  0.34034707108E+04 0.  0.
        3    1    3    3  502    0 -0.23349380876E+02 -0.17006761337E+04 -0.35355585495E+03  0.17371949396E+04  0.10100000352E+00 0. -1.
       -3    1    3    3    0  502  0.23349380876E+02  0.17006761337E+04 -0.24126817426E+03  0.17178634543E+04  0.10100000352E+00 0.  1.
</event>
<event>
 5   0  0.2592200E-07  0.3407768E+04  0.7818609E-02  0.8136002E-01
        1   -1    0    0  501    0  0.00000000000E+00  0.00000000000E+00  0.19106373847E+04  0.19106373848E+04  0.50400001928E-02 0. -1.
       -1   -1    0    0    0  501  0.00000000000E+00  0.00000000000E+00 -0.15195036515E+04  0.15195036515E+04  0.50400001928E-02 0.  1.
    10030    2    1    2    0    0  0.00000000000E+00  0.00000000000E+00  0.39113373321E+03  0.34301410363E+04  0.34077678811E+04 0.  0.
        4    1    3    3  502    0 -0.10343197643E+04  0.84726259249E+03 -0.86756227773E+03  0.15938435287E+04  0.12699999809E+01 0.  1.
       -4    1    3    3    0  502  0.10343197643E+04 -0.84726259249E+03  0.12586960109E+04  0.18362975076E+04  0.12699999809E+01 0. -1.
</event>
<event>
 5   0  0.7899402E-07  0.3368861E+04  0.7818609E-02  0.8145592E-01
       -2   -1    0    0    0  501  0.00000000000E+00  0.00000000000E+00  0.22490381010E+04  0.22490381010E+04  0.25500000920E-02 0.  1.
        2   -1    0    0  501    0  0.00000000000E+00  0.00000000000E+00 -0.12615639326E+04  0.12615639326E+04  0.25500000920E-02 0. -1.
    10030    2    1    2    0    0  0.00000000000E+00  0.00000000000E+00  0.98747416840E+03  0.35106020337E+04  0.33688605500E+04 0.  0.
        2    1    3    3  502    0  0.70133836156E+03  0.11937715046E+04  0.14934437427E+04  0.20365019310E+04  0.25500000920E-02 0. -1.
       -2    1    3    3    0  502 -0.70133836156E+03 -0.11937715046E+04 -0.50596957427E+03  0.14741001026E+04  0.25500000920E-02 0.  1.
</event>
<event>
 5   0  0.7838333E-07  0.3386581E+04  0.7818609E-02  0.8141208E-01
        2   -1    0    0  501    0  0.00000000000E+00  0.00000000000E+00  0.23912691485E+04  0.23912691485E+04  0.25500000920E-02 0.  1.
       -2   -1    0    0    0  501  0.00000000000E+00  0.00000000000E+00 -0.11990422070E+04  0.11990422070E+04  0.25500000920E-02 0. -1.
    10030    2    1    2    0    0  0.00000000000E+00  0.00000000000E+00  0.11922269414E+04  0.35903113555E+04  0.33865809528E+04 0.  0.
        1    1    3    3  502    0 -0.90703530319E+03 -0.21401673673E+03  0.20949222999E+04  0.22928618902E+04  0.50400001928E-02 0.  1.
       -1    1    3    3    0  502  0.90703530319E+03  0.21401673673E+03 -0.90269535848E+03  0.12974494653E+04  0.50400001928E-02 0. -1.
</event>
<event>
 5   0  0.2641442E-07  0.3426800E+04  0.7818609E-02  0.8131360E-01
        1   -1    0    0  501    0  0.00000000000E+00  0.00000000000E+00  0.19954478463E+04  0.19954478463E+04  0.50400001928E-02 0.  1.
       -1   -1    0    0    0  501  0.00000000000E+00  0.00000000000E+00 -0.14712187976E+04  0.14712187976E+04  0.50400001928E-02 0. -1.
    10030    2    1    2    0    0  0.00000000000E+00  0.00000000000E+00  0.52422904876E+03  0.34666666439E+04  0.34268004792E+04 0.  0.
        1    1    3    3  502    0 -0.17268205565E+03  0.61220667619E+03  0.18715738188E+04  0.19767156259E+04  0.50400001928E-02 0.  1.
       -1    1    3    3    0  502  0.17268205565E+03 -0.61220667619E+03 -0.13473447700E+04  0.14899510180E+04  0.50400001928E-02 0. -1.
</event>
<event>
 5   0  0.7899402E-07  0.3457438E+04  0.7818609E-02  0.8123951E-01
       -2   -1    0    0    0  501  0.00000000000E+00  0.00000000000E+00  0.11678304066E+04  0.11678304066E+04  0.25500000920E-02 0.  1.
        2   -1    0    0  501    0  0.00000000000E+00  0.00000000000E+00 -0.25589929096E+04  0.25589929096E+04  0.25500000920E-02 0. -1.
    10030    2    1    2    0    0  0.00000000000E+00  0.00000000000E+00 -0.13911625030E+04  0.37268233162E+04  0.34574382020E+04 0.  0.
        2    1    3    3  502    0  0.10919461123E+04 -0.43304053013E+03  0.67154403969E+03  0.13530860321E+04  0.25500000920E-02 0.  1.
       -2    1    3    3    0  502 -0.10919461123E+04  0.43304053013E+03 -0.20627065427E+04  0.23737372842E+04  0.25500000920E-02 0. -1.
</event>
<event>
 5   0  0.2622205E-07  0.3393198E+04  0.7818609E-02  0.8139578E-01
       -1   -1    0    0    0  501  0.00000000000E+00  0.00000000000E+00  0.11588706589E+04  0.11588706589E+04  0.50400001928E-02 0.  1.
        1   -1    0    0  501    0  0.00000000000E+00  0.00000000000E+00 -0.24838387385E+04  0.24838387385E+04  0.50400001928E-02 0. -1.
    10030    2    1    2    0    0  0.00000000000E+00  0.00000000000E+00 -0.13249680796E+04  0.36427093975E+04  0.33931978048E+04 0.  0.
        3    1    3    3  502    0 -0.80437262421E+02  0.16474203550E+03  0.11482059418E+04  0.11627497523E+04  0.10100000352E+00 0.  1.
       -3    1    3    3    0  502  0.80437262421E+02 -0.16474203550E+03 -0.24731740214E+04  0.24799596452E+04  0.10100000352E+00 0. -1.
</event>
<event>
 5   0  0.7838333E-07  0.3411133E+04  0.7818609E-02  0.8135179E-01
       -2   -1    0    0    0  501  0.00000000000E+00  0.00000000000E+00  0.12946680535E+04  0.12946680535E+04  0.25500000920E-02 0. -1.
        2   -1    0    0  501    0  0.00000000000E+00  0.00000000000E+00 -0.22468754622E+04  0.22468754622E+04  0.25500000920E-02 0.  1.
    10030    2    1    2    0    0  0.00000000000E+00  0.00000000000E+00 -0.95220740872E+03  0.35415435157E+04  0.34111334662E+04 0.  0.
        1    1    3    3  502    0  0.95825170060E+03  0.32027861873E+03  0.95052244652E+03  0.13871977641E+04  0.50400001928E-02 0. -1.
       -1    1    3    3    0  502 -0.95825170060E+03 -0.32027861873E+03 -0.19027298552E+04  0.21543457516E+04  0.50400001928E-02 0.  1.
</event>
<event>
 5   0  0.2622205E-07  0.3388656E+04  0.7818609E-02  0.8140696E-01
       -1   -1    0    0    0  501  0.00000000000E+00  0.00000000000E+00  0.11843161186E+04  0.11843161186E+04  0.50400001928E-02 0.  1.
        1   -1    0    0  501    0  0.00000000000E+00  0.00000000000E+00 -0.24239702510E+04  0.24239702510E+04  0.50400001928E-02 0. -1.
    10030    2    1    2    0    0  0.00000000000E+00  0.00000000000E+00 -0.12396541323E+04  0.36082863696E+04  0.33886558039E+04 0.  0.
        3    1    3    3  502    0  0.96803085330E+03 -0.13748163061E+04 -0.39763179526E+03  0.17278063153E+04  0.10100000352E+00 0. -1.
       -3    1    3    3    0  502 -0.96803085330E+03  0.13748163061E+04 -0.84202233706E+03  0.18804800543E+04  0.10100000352E+00 0.  1.
</event>
<event>
 5   0  0.7822003E-07  0.3387768E+04  0.7818609E-02  0.8140915E-01
        2   -1    0    0  501    0  0.00000000000E+00  0.00000000000E+00  0.15845986083E+04  0.15845986083E+04  0.25500000920E-02 0.  1.
       -2   -1    0    0    0  501  0.00000000000E+00  0.00000000000E+00 -0.18107067371E+04  0.18107067371E+04  0.25500000920E-02 0. -1.
    10030    2    1    2    0    0  0.00000000000E+00  0.00000000000E+00 -0.22610812886E+03  0.33953053454E+04  0.33877682186E+04 0.  0.
        5    1    3    3  502    0 -0.13983787815E+03 -0.93963266865E+03  0.12924772025E+04  0.16040522414E+04  0.46999998093E+01 0.  1.
       -5    1    3    3    0  502  0.13983787815E+03  0.93963266865E+03 -0.15185853313E+04  0.17912531040E+04  0.46999998093E+01 0. -1.
</event>
<event>
 5   0  0.7838333E-07  0.3348513E+04  0.7818609E-02  0.8150660E-01
       -2   -1    0    0    0  501  0.00000000000E+00  0.00000000000E+00  0.11181891253E+04  0.11181891253E+04  0.25500000920E-02 0.  1.
        2   -1    0    0  501    0  0.00000000000E+00  0.00000000000E+00 -0.25068517110E+04  0.25068517110E+04  0.25500000920E-02 0. -1.
    10030    2    1    2    0    0  0.00000000000E+00  0.00000000000E+00 -0.13886625857E+04  0.36250408363E+04  0.33485126979E+04 0.  0.
        1    1    3    3  502    0 -0.49579823160E+03  0.15541354225E+04 -0.11022530504E+04  0.19687850530E+04  0.50400001928E-02 0. -1.
       -1    1    3    3    0  502  0.49579823160E+03 -0.15541354225E+04 -0.28640953534E+03  0.16562557833E+04  0.50400001928E-02 0.  1.
</event>
<event>
 5   0  0.2599367E-07  0.3346992E+04  0.7818609E-02  0.8151040E-01
        1   -1    0    0  501    0  0.00000000000E+00  0.00000000000E+00  0.95965793779E+03  0.95965793780E+03  0.50400001928E-02 0. -1.
       -1   -1    0    0    0  501  0.00000000000E+00  0.00000000000E+00 -0.29183195186E+04  0.29183195186E+04  0.50400001928E-02 0.  1.
    10030    2    1    2    0    0  0.00000000000E+00  0.00000000000E+00 -0.19586615808E+04  0.38779774564E+04  0.33469917783E+04 0.  0.
        2    1    3    3  502    0  0.13636126043E+04 -0.42580341768E+03 -0.19893087208E+04  0.24491012783E+04  0.25500000920E-02 0.  1.
       -2    1    3    3    0  502 -0.13636126043E+04  0.42580341768E+03  0.30647139949E+02  0.14288761781E+04  0.25500000920E-02 0. -1.
</event>
<event>
 5   0  0.7899402E-07  0.3390962E+04  0.7818609E-02  0.8140128E-01
       -2   -1    0    0    0  501  0.00000000000E+00  0.00000000000E+00  0.12594394054E+04  0.12594394054E+04  0.25500000920E-02 0. -1.
        2   -1    0    0  501    0  0.00000000000E+00  0.00000000000E+00 -0.22824884163E+04  0.22824884163E+04  0.25500000920E-02 0.  1.
    10030    2    1    2    0    0  0.00000000000E+00  0.00000000000E+00 -0.10230490110E+04  0.35419278217E+04  0.33909620191E+04 0.  0.
        2    1    3    3  502    0 -0.39503663316E+03  0.15375065544E+04 -0.11335846556E+04  0.19506395150E+04  0.25500000920E-02 0.  1.
       -2    1    3    3    0  502  0.39503663316E+03 -0.15375065544E+04  0.11053564460E+03  0.15912883067E+04  0.25500000920E-02 0. -1.
</event>
<event>
 5   0  0.7838333E-07  0.3397344E+04  0.7818609E-02  0.8138559E-01
       -2   -1    0    0    0  501  0.00000000000E+00  0.00000000000E+00  0.17341249154E+04  0.17341249154E+04  0.25500000920E-02 0. -1.
        2   -1    0    0  501    0  0.00000000000E+00  0.00000000000E+00 -0.16639437146E+04  0.16639437146E+04  0.25500000920E-02 0.  1.
    10030    2    1    2    0    0  0.00000000000E+00  0.00000000000E+00  0.70181200814E+02  0.33980686299E+04  0.33973438173E+04 0.  0.
        1    1    3    3  502    0  0.13320615039E+04 -0.99079928513E+03 -0.32472936307E+03  0.16916028591E+04  0.50400001928E-02 0. -1.
       -1    1    3    3    0  502 -0.13320615039E+04  0.99079928513E+03  0.39491056388E+03  0.17064657708E+04  0.50400001928E-02 0.  1.
</event>
<event>
 5   0  0.2599367E-07  0.3402956E+04  0.7818609E-02  0.8137181E-01
       -1   -1    0    0    0  501  0.00000000000E+00  0.00000000000E+00  0.17039028630E+04  0.17039028630E+04  0.50400001928E-02 0.  1.
        1   -1    0    0  501    0  0.00000000000E+00  0.00000000000E+00 -0.16990564657E+04  0.16990564657E+04  0.50400001928E-02 0. -1.
    10030    2    1    2    0    0  0.00000000000E+00  0.00000000000E+00  0.48463972968E+01  0.34029593287E+04  0.34029558777E+04 0.  0.
        2    1    3    3  502    0 -0.51130802200E+02 -0.10529344411E+04 -0.13331461549E+04  0.16995775847E+04  0.25500000920E-02 0. -1.
       -2    1    3    3    0  502  0.51130802200E+02  0.10529344411E+04  0.13379925522E+04  0.17033817440E+04  0.25500000920E-02 0.  1.
</event>
<event>
 5   0  0.2592200E-07  0.3358547E+04  0.7818609E-02  0.8148156E-01
        1   -1    0    0  501    0  0.00000000000E+00  0.00000000000E+00  0.15437736889E+04  0.15437736889E+04  0.50400001928E-02 0.  1.
       -1   -1    0    0    0  501  0.00000000000E+00  0.00000000000E+00 -0.18266666084E+04  0.18266666084E+04  0.50400001928E-02 0. -1.
    10030    2    1    2    0    0  0.00000000000E+00  0.00000000000E+00 -0.28289291945E+03  0.33704402973E+04  0.33585472148E+04 0.  0.
        4    1    3    3  502    0 -0.16829301053E+03  0.15218493712E+04 -0.83353356194E+03  0.17433094556E+04  0.12699999809E+01 0. -1.
       -4    1    3    3    0  502  0.16829301053E+03 -0.15218493712E+04  0.55064064249E+03  0.16271308417E+04  0.12699999809E+01 0.  1.
</event>
<event>
 5   0  0.7822003E-07  0.3282784E+04  0.7818609E-02  0.8167290E-01
        2   -1    0    0  501    0  0.00000000000E+00  0.00000000000E+00  0.11649484212E+04  0.11649484212E+04  0.25500000920E-02 0. -1.
       -2   -1    0    0    0  501  0.00000000000E+00  0.00000000000E+00 -0.23126921164E+04  0.23126921164E+04  0.25500000920E-02 0.  1.
    10030    2    1    2    0    0  0.00000000000E+00  0.00000000000E+00 -0.11477436952E+04  0.34776405376E+04  0.32827835930E+04 0.  0.
        5    1    3    3  502    0  0.98357725546E+02  0.48507575275E+03 -0.22317480479E+04  0.22859777268E+04  0.46999998093E+01 0.  1.
       -5    1    3    3    0  502 -0.98357725546E+02 -0.48507575275E+03  0.10840043527E+04  0.11916628108E+04  0.46999998093E+01 0. -1.
</event>
<event>
 5   0  0.2622205E-07  0.3394925E+04  0.7818609E-02  0.8139153E-01
       -1   -1    0    0    0  501  0.00000000000E+00  0.00000000000E+00  0.19755288222E+04  0.19755288222E+04  0.50400001928E-02 0. -1.
        1   -1    0    0  501    0  0.00000000000E+00  0.00000000000E+00 -0.14585354083E+04  0.14585354084E+04  0.50400001928E-02 0.  1.
    10030    2    1    2    0    0  0.00000000000E+00  0.00000000000E+00  0.51699341386E+03  0.34340642306E+04  0.33949248813E+04 0.  0.
        3    1    3    3  502    0 -0.15349350573E+04  0.58601629066E+03 -0.17296271567E+03  0.16520765219E+04  0.10100000352E+00 0.  1.
       -3    1    3    3    0  502  0.15349350573E+04 -0.58601629066E+03  0.68995612952E+03  0.17819877087E+04  0.10100000352E+00 0. -1.
</event>
<event>
 5   0  0.2622205E-07  0.3302339E+04  0.7818609E-02  0.8162300E-01
        1   -1    0    0  501    0  0.00000000000E+00  0.00000000000E+00  0.11664910155E+04  0.11664910155E+04  0.50400001928E-02 0.  1.
       -1   -1    0    0    0  501  0.00000000000E+00  0.00000000000E+00 -0.23372325004E+04  0.23372325004E+04  0.50400001928E-02 0. -1.
    10030    2    1    2    0    0  0.00000000000E+00  0.00000000000E+00 -0.11707414850E+04  0.35037235159E+04  0.33023389970E+04 0.  0.
        3    1    3    3  502    0  0.44975870962E+03  0.13425139072E+04 -0.14867277135E+04  0.20530430566E+04  0.10100000352E+00 0. -1.
       -3    1    3    3    0  502 -0.44975870962E+03 -0.13425139072E+04  0.31598622857E+03  0.14506804592E+04  0.10100000352E+00 0.  1.
</event>
<event>
 5   0  0.8489228E-07  0.3463265E+04  0.7818609E-02  0.8122551E-01
       -2   -1    0    0    0  501  0.00000000000E+00  0.00000000000E+00  0.99353904711E+03  0.99353904711E+03  0.25500000920E-02 0. -1.
        2   -1    0    0  501    0  0.00000000000E+00  0.00000000000E+00 -0.30180512331E+04  0.30180512331E+04  0.25500000920E-02 0.  1.
    10030    2    1    2    0    0  0.00000000000E+00  0.00000000000E+00 -0.20245121860E+04  0.40115902802E+04  0.34632653645E+04 0.  0.
        3    1    3    3  502    0 -0.21795926023E+03  0.10877826535E+04 -0.25523394243E+04  0.27830224375E+04  0.10100000352E+00 0.  1.
       -3    1    3    3    0  502  0.21795926023E+03 -0.10877826535E+04  0.52782723836E+03  0.12285678427E+04  0.10100000352E+00 0. -1.
</event>
<event>
 5   0  0.7822003E-07  0.3410881E+04  0.7818609E-02  0.8135241E-01
       -2   -1    0    0    0  501  0.00000000000E+00  0.00000000000E+00  0.12181700802E+04  0.12181700802E+04  0.25500000920E-02 0. -1.
        2   -1    0    0  501    0  0.00000000000E+00  0.00000000000E+00 -0.23876204078E+04  0.23876204078E+04  0.25500000920E-02 0.  1.
    10030    2    1    2    0    0  0.00000000000E+00  0.00000000000E+00 -0.11694503276E+04  0.36057904879E+04  0.34108812606E+04 0.  0.
        5    1    3    3  502    0  0.16833929304E+04 -0.21904798295E+03 -0.75750222629E+03  0.18589312763E+04  0.46999998093E+01 0.  1.
       -5    1    3    3    0  502 -0.16833929304E+04  0.21904798295E+03 -0.41194810130E+03  0.17468592116E+04  0.46999998093E+01 0. -1.
</event>
<event>
 5   0  0.2553250E-07  0.3401500E+04  0.7818609E-02  0.8137538E-01
        1   -1    0    0  501    0  0.00000000000E+00  0.00000000000E+00  0.21947579251E+04  0.21947579251E+04  0.50400001928E-02 0.  1.
       -1   -1    0    0    0  501  0.00000000000E+00  0.00000000000E+00 -0.13179360639E+04  0.13179360639E+04  0.50400001928E-02 0. -1.
    10030    2    1    2    0    0  0.00000000000E+00  0.00000000000E+00  0.87682186128E+03  0.35126939890E+04  0.34015000344E+04 0.  0.
        5    1    3    3  502    0  0.59257960547E+02  0.13642618664E+04 -0.60853809189E+03  0.14950125903E+04  0.46999998093E+01 0. -1.
       -5    1    3    3    0  502 -0.59257960547E+02 -0.13642618664E+04  0.14853599532E+04  0.20176813987E+04  0.46999998093E+01 0.  1.
</event>
<event>
 5   0  0.2599367E-07  0.3408817E+04  0.7818609E-02  0.8135746E-01
       -1   -1    0    0    0  501  0.00000000000E+00  0.00000000000E+00  0.16433867862E+04  0.16433867862E+04  0.50400001928E-02 0. -1.
        1   -1    0    0  501    0  0.00000000000E+00  0.00000000000E+00 -0.17676963363E+04  0.17676963363E+04  0.50400001928E-02 0.  1.
    10030    2    1    2    0    0  0.00000000000E+00  0.00000000000E+00 -0.12430955014E+03  0.34110831225E+04  0.34088172736E+04 0.  0.
        2    1    3    3  502    0  0.74212873392E+02 -0.14484169029E+04  0.83375577703E+03  0.16728920380E+04  0.25500000920E-02 0. -1.
       -2    1    3    3    0  502 -0.74212873392E+02  0.14484169029E+04 -0.95806532717E+03  0.17381910845E+04  0.25500000920E-02 0.  1.
</event>
<event>
 5   0  0.7610412E-07  0.3433019E+04  0.7818609E-02  0.8129850E-01
        2   -1    0    0  501    0  0.00000000000E+00  0.00000000000E+00  0.21249436829E+04  0.21249436829E+04  0.25500000920E-02 0. -1.
       -2   -1    0    0    0  501  0.00000000000E+00  0.00000000000E+00 -0.13865799738E+04  0.13865799738E+04  0.25500000920E-02 0.  1.
    10030    2    1    2    0    0  0.00000000000E+00  0.00000000000E+00  0.73836370910E+03  0.35115236567E+04  0.34330187044E+04 0.  0.
        4    1    3    3  502    0 -0.35260884460E+03  0.24924822661E+03  0.20684802526E+04  0.21130711877E+04  0.12699999809E+01 0. -1.
       -4    1    3    3    0  502  0.35260884460E+03 -0.24924822661E+03 -0.13301165435E+04  0.13984524690E+04  0.12699999809E+01 0.  1.
</event>
<event>
 5   0  0.7822003E-07  0.3416594E+04  0.7818609E-02  0.8133846E-01
        2   -1    0    0  501    0  0.00000000000E+00  0.00000000000E+00  0.27219649220E+04  0.27219649220E+04  0.25500000920E-02 0. -1.
       -2   -1    0    0    0  501  0.00000000000E+00  0.00000000000E+00 -0.10721219249E+04  0.10721219249E+04  0.25500000920E-02 0.  1.
    10030    2    1    2    0    0  0.00000000000E+00  0.00000000000E+00  0.16498429971E+04  0.37940868469E+04  0.34165937843E+04 0.  0.
        5    1    3    3  502    0  0.29254860644E+03  0.82793133507E+03 -0.80231355718E+03  0.11894469794E+04  0.46999998093E+01 0.  1.
       -5    1    3    3    0  502 -0.29254860644E+03 -0.82793133507E+03  0.24521565543E+04  0.26046398676E+04  0.46999998093E+01 0. -1.
</event>
<event>
 5   0  0.2641442E-07  0.3409529E+04  0.7818609E-02  0.8135572E-01
        1   -1    0    0  501    0  0.00000000000E+00  0.00000000000E+00  0.27532563322E+04  0.27532563322E+04  0.50400001928E-02 0. -1.
       -1   -1    0    0    0  501  0.00000000000E+00  0.00000000000E+00 -0.10555578393E+04  0.10555578393E+04  0.50400001928E-02 0.  1.
    10030    2    1    2    0    0  0.00000000000E+00  0.00000000000E+00  0.16976984929E+04  0.38088141716E+04  0.34095285922E+04 0.  0.
        1    1    3    3  502    0 -0.12803500965E+04 -0.89407914002E+02  0.21022687241E+04  0.24630923517E+04  0.50400001928E-02 0. -1.
       -1    1    3    3    0  502  0.12803500965E+04  0.89407914002E+02 -0.40457023115E+03  0.13457218199E+04  0.50400001928E-02 0.  1.
</event>
<event>
 5   0  0.7899402E-07  0.3438790E+04  0.7818609E-02  0.8128451E-01
       -2   -1    0    0    0  501  0.00000000000E+00  0.00000000000E+00  0.15584075977E+04  0.15584075977E+04  0.25500000920E-02 0. -1.
        2   -1    0    0  501    0  0.00000000000E+00  0.00000000000E+00 -0.18970123128E+04  0.18970123128E+04  0.25500000920E-02 0.  1.
    10030    2    1    2    0    0  0.00000000000E+00  0.00000000000E+00 -0.33860471520E+03  0.34554199105E+04  0.34387895552E+04 0.  0.
        2    1    3    3  502    0  0.43806846059E+02  0.64248186548E+03 -0.17712570750E+04  0.18846892616E+04  0.25500000920E-02 0.  1.
       -2    1    3    3    0  502 -0.43806846059E+02 -0.64248186548E+03  0.14326523598E+04  0.15707306489E+04  0.25500000920E-02 0. -1.
</event>
<event>
 5   0  0.2599367E-07  0.3371615E+04  0.7818609E-02  0.8144908E-01
        1   -1    0    0  501    0  0.00000000000E+00  0.00000000000E+00  0.24477575287E+04  0.24477575287E+04  0.50400001928E-02 0.  1.
       -1   -1    0    0    0  501  0.00000000000E+00  0.00000000000E+00 -0.11610407219E+04  0.11610407219E+04  0.50400001928E-02 0. -1.
    10030    2    1    2    0    0  0.00000000000E+00  0.00000000000E+00  0.12867168067E+04  0.36087982506E+04  0.33716145499E+04 0.  0.
        2    1    3    3  502    0  0.10066248383E+03 -0.11255087636E+04  0.19823808487E+04  0.22818275004E+04  0.25500000920E-02 0.  1.
       -2    1    3    3    0  502 -0.10066248383E+03  0.11255087636E+04 -0.69566404195E+03  0.13269707502E+04  0.25500000920E-02 0. -1.
</event>
<event>
 5   0  0.7838333E-07  0.3402914E+04  0.7818609E-02  0.8137192E-01
       -2   -1    0    0    0  501  0.00000000000E+00  0.00000000000E+00  0.26033529899E+04  0.26033529899E+04  0.25500000920E-02 0. -1.
        2   -1    0    0  501    0  0.00000000000E+00  0.00000000000E+00 -0.11120104923E+04  0.11120104923E+04  0.25500000920E-02 0.  1.
    10030    2    1    2    0    0  0.00000000000E+00  0.00000000000E+00  0.14913424976E+04  0.37153634823E+04  0.34029139513E+04 0.  0.
        1    1    3    3  502    0  0.12489163100E+04 -0.73938073482E+03  0.17151665022E+04  0.22468359866E+04  0.50400001928E-02 0. -1.
       -1    1    3    3    0  502 -0.12489163100E+04  0.73938073482E+03 -0.22382400456E+03  0.14685274957E+04  0.50400001928E-02 0.  1.
</event>
<event>
 5   0  0.2622205E-07  0.3395680E+04  0.7818609E-02  0.8138967E-01
        1   -1    0    0  501    0  0.00000000000E+00  0.00000000000E+00  0.16785794685E+04  0.16785794685E+04  0.50400001928E-02 0.  1.
       -1   -1    0    0    0  501  0.00000000000E+00  0.00000000000E+00 -0.17173216195E+04  0.17173216195E+04  0.50400001928E-02 0. -1.
    10030    2    1    2    0    0  0.00000000000E+00  0.00000000000E+00 -0.38742151038E+02  0.33959010880E+04  0.33956800858E+04 0.  0.
        3    1    3    3  502    0  0.10744143716E+04  0.41610298148E+03 -0.12665099225E+04  0.17121785325E+04  0.10100000352E+00 0. -1.
       -3    1    3    3    0  502 -0.10744143716E+04 -0.41610298148E+03  0.12277677715E+04  0.16837225555E+04  0.10100000352E+00 0.  1.
</event>
<event>
 5   0  0.2622205E-07  0.3382246E+04  0.7818609E-02  0.8142277E-01
        1   -1    0    0  501    0  0.00000000000E+00  0.00000000000E+00  0.18119036326E+04  0.18119036326E+04  0.50400001928E-02 0.  1.
       -1   -1    0    0    0  501  0.00000000000E+00  0.00000000000E+00 -0.15783938247E+04  0.15783938247E+04  0.50400001928E-02 0. -1.
    10030    2    1    2    0    0  0.00000000000E+00  0.00000000000E+00  0.23350980788E+03  0.33902974574E+04  0.33822462978E+04 0.  0.
        3    1    3    3  502    0  0.91955752101E+03  0.86350169839E+03 -0.10122815991E+04  0.16173853170E+04  0.10100000352E+00 0. -1.
       -3    1    3    3    0  502 -0.91955752101E+03 -0.86350169839E+03  0.12457914070E+04  0.17729121404E+04  0.10100000352E+00 0.  1.
</event>
<event>
 5   0  0.7610412E-07  0.3443135E+04  0.7818609E-02  0.8127400E-01
        2   -1    0    0  501    0  0.00000000000E+00  0.00000000000E+00  0.21482896995E+04  0.21482896995E+04  0.25500000920E-02 0. -1.
       -2   -1    0    0    0  501  0.00000000000E+00  0.00000000000E+00 -0.13796062805E+04  0.13796062805E+04  0.25500000920E-02 0.  1.
    10030    2    1    2    0    0  0.00000000000E+00  0.00000000000E+00  0.76868341896E+03  0.35278959800E+04  0.34431345961E+04 0.  0.
        4    1    3    3  502    0 -0.14539324830E+04 -0.81275098768E+03  0.83014867173E+03  0.18610836260E+04  0.12699999809E+01 0.  1.
       -4    1    3    3    0  502  0.14539324830E+04  0.81275098768E+03 -0.61465252770E+02  0.16668123539E+04  0.12699999809E+01 0. -1.
</event>
<event>
 5   0  0.7838333E-07  0.3390662E+04  0.7818609E-02  0.8140202E-01
        2   -1    0    0  501    0  0.00000000000E+00  0.00000000000E+00  0.14568457186E+04  0.14568457186E+04  0.25500000920E-02 0. -1.
       -2   -1    0    0    0  501  0.00000000000E+00  0.00000000000E+00 -0.19728558998E+04  0.19728558998E+04  0.25500000920E-02 0.  1.
    10030    2    1    2    0    0  0.00000000000E+00  0.00000000000E+00 -0.51601018119E+03  0.34297016183E+04  0.33906616882E+04 0.  0.
        1    1    3    3  502    0  0.46121411691E+03 -0.68607929858E+03 -0.17551562582E+04  0.19401022541E+04  0.50400001928E-02 0.  1.
       -1    1    3    3    0  502 -0.46121411691E+03  0.68607929858E+03  0.12391460770E+04  0.14895993642E+04  0.50400001928E-02 0. -1.
</event>
<event>
 5   0  0.2553250E-07  0.3338082E+04  0.7818609E-02  0.8153272E-01
        4   -1    0    0  501    0  0.00000000000E+00  0.00000000000E+00  0.17578666081E+04  0.17578670668E+04  0.12699999809E+01 0. -1.
       -4   -1    0    0    0  501  0.00000000000E+00  0.00000000000E+00 -0.15847027542E+04  0.15847032631E+04  0.12699999809E+01 0.  1.
    10030    2    1    2    0    0  0.00000000000E+00  0.00000000000E+00  0.17316385390E+03  0.33425703299E+04  0.33380818879E+04 0.  0.
        1    1    3    3  502    0 -0.14422856806E+04 -0.53769844165E+03 -0.55956867255E+03  0.16378109469E+04  0.50400001928E-02 0.  1.
       -1    1    3    3    0  502  0.14422856806E+04  0.53769844165E+03  0.73273252645E+03  0.17047593830E+04  0.50400001928E-02 0. -1.
</event>
<event>
 5   0  0.2592200E-07  0.3392706E+04  0.7818609E-02  0.8139699E-01
       -1   -1    0    0    0  501  0.00000000000E+00  0.00000000000E+00  0.16390905537E+04  0.16390905537E+04  0.50400001928E-02 0.  1.
        1   -1    0    0  501    0  0.00000000000E+00  0.00000000000E+00 -0.17556156732E+04  0.17556156732E+04  0.50400001928E-02 0. -1.
    10030    2    1    2    0    0  0.00000000000E+00  0.00000000000E+00 -0.11652511953E+03  0.33947062269E+04  0.33927057437E+04 0.  0.
        4    1    3    3  502    0  0.64869239057E+03  0.12884335416E+04 -0.95139665653E+03  0.17280104223E+04  0.12699999809E+01 0.  1.
       -4    1    3    3    0  502 -0.64869239057E+03 -0.12884335416E+04  0.83487153700E+03  0.16666958045E+04  0.12699999809E+01 0. -1.
</event>
<event>
 5   0  0.2553250E-07  0.3310635E+04  0.7818609E-02  0.8160195E-01
        1   -1    0    0  501    0  0.00000000000E+00  0.00000000000E+00  0.14118961288E+04  0.14118961288E+04  0.50400001928E-02 0.  1.
       -1   -1    0    0    0  501  0.00000000000E+00  0.00000000000E+00 -0.19407066677E+04  0.19407066677E+04  0.50400001928E-02 0. -1.
    10030    2    1    2    0    0  0.00000000000E+00  0.00000000000E+00 -0.52881053885E+03  0.33526027965E+04  0.33106351241E+04 0.  0.
        5    1    3    3  502    0 -0.15604319210E+04  0.53059677214E+03 -0.41988799398E+03  0.17008258971E+04  0.46999998093E+01 0. -1.
       -5    1    3    3    0  502  0.15604319210E+04 -0.53059677214E+03 -0.10892254487E+03  0.16517768994E+04  0.46999998093E+01 0.  1.
</event>
<event>
 5   0  0.7899402E-07  0.3333373E+04  0.7818609E-02  0.8154455E-01
        2   -1    0    0  501    0  0.00000000000E+00  0.00000000000E+00  0.20085212455E+04  0.20085212455E+04  0.25500000920E-02 0. -1.
       -2   -1    0    0    0  501  0.00000000000E+00  0.00000000000E+00 -0.13830295367E+04  0.13830295367E+04  0.25500000920E-02 0.  1.
    10030    2    1    2    0    0  0.00000000000E+00  0.00000000000E+00  0.62549170878E+03  0.33915507822E+04  0.33333731910E+04 0.  0.
        2    1    3    3  502    0  0.54764036581E+03 -0.15435783115E+04 -0.13493955251E+01  0.16378479157E+04  0.25500000920E-02 0.  1.
       -2    1    3    3    0  502 -0.54764036581E+03  0.15435783115E+04  0.62684110430E+03  0.17537028665E+04  0.25500000920E-02 0. -1.
</event>
<event>
 5   0  0.2592200E-07  0.3414452E+04  0.7818609E-02  0.8134368E-01
       -1   -1    0    0    0  501  0.00000000000E+00  0.00000000000E+00  0.16886623410E+04  0.16886623410E+04  0.50400001928E-02 0. -1.
        1   -1    0    0  501    0  0.00000000000E+00  0.00000000000E+00 -0.17259939558E+04  0.17259939558E+04  0.50400001928E-02 0.  1.
    10030    2    1    2    0    0  0.00000000000E+00  0.00000000000E+00 -0.37331614761E+02  0.34146562968E+04  0.34144522220E+04 0.  0.
        4    1    3    3  502    0  0.85392227839E+03 -0.75795594540E+03  0.12506377336E+04  0.16934511586E+04  0.12699999809E+01 0. -1.
       -4    1    3    3    0  502 -0.85392227839E+03  0.75795594540E+03 -0.12879693484E+04  0.17212051383E+04  0.12699999809E+01 0.  1.
</event>
<event>
 5   0  0.7822003E-07  0.3397918E+04  0.7818609E-02  0.8138417E-01
       -2   -1    0    0    0  501  0.00000000000E+00  0.00000000000E+00  0.17586593180E+04  0.17586593180E+04  0.25500000920E-02 0. -1.
        2   -1    0    0  501    0  0.00000000000E+00  0.00000000000E+00 -0.16412857082E+04  0.16412857082E+04  0.25500000920E-02 0.  1.
    10030    2    1    2    0    0  0.00000000000E+00  0.00000000000E+00  0.11737360971E+03  0.33999450262E+04  0.33979184241E+04 0.  0.
        5    1    3    3  502    0 -0.15742944378E+04 -0.53166688903E+03 -0.29559732654E+03  0.16877418426E+04  0.46999998093E+01 0. -1.
       -5    1    3    3    0  502  0.15742944378E+04  0.53166688903E+03  0.41297093625E+03  0.17122031836E+04  0.46999998093E+01 0.  1.
</event>
<event>
 5   0  0.2553250E-07  0.3376189E+04  0.7818609E-02  0.8143775E-01
        1   -1    0    0  501    0  0.00000000000E+00  0.00000000000E+00  0.21303435078E+04  0.21303435078E+04  0.50400001928E-02 0.  1.
       -1   -1    0    0    0  501  0.00000000000E+00  0.00000000000E+00 -0.13376544924E+04  0.13376544924E+04  0.50400001928E-02 0. -1.
    10030    2    1    2    0    0  0.00000000000E+00  0.00000000000E+00  0.79268901543E+03  0.34679980002E+04  0.33761893096E+04 0.  0.
        5    1    3    3  502    0  0.16322980702E+04 -0.42846309202E+03  0.35444482389E+03  0.17244218841E+04  0.46999998093E+01 0. -1.
       -5    1    3    3    0  502 -0.16322980702E+04  0.42846309202E+03  0.43824419154E+03  0.17435761161E+04  0.46999998093E+01 0.  1.
</event>
<event>
 5   0  0.2641442E-07  0.3400713E+04  0.7818609E-02  0.8137731E-01
        1   -1    0    0  501    0  0.00000000000E+00  0.00000000000E+00  0.26138678109E+04  0.26138678109E+04  0.50400001928E-02 0. -1.
       -1   -1    0    0    0  501  0.00000000000E+00  0.00000000000E+00 -0.11061051384E+04  0.11061051384E+04  0.50400001928E-02 0.  1.
    10030    2    1    2    0    0  0.00000000000E+00  0.00000000000E+00  0.15077626725E+04  0.37199729493E+04  0.34007132291E+04 0.  0.
        1    1    3    3  502    0 -0.46269403481E+03  0.91231155767E+03 -0.73186996393E+03  0.12577884529E+04  0.50400001928E-02 0.  1.
       -1    1    3    3    0  502  0.46269403481E+03 -0.91231155767E+03  0.22396326364E+04  0.24621844964E+04  0.50400001928E-02 0. -1.
</event>
<event>
 5   0  0.7899402E-07  0.3385560E+04  0.7818609E-02  0.8141460E-01
        2   -1    0    0  501    0  0.00000000000E+00  0.00000000000E+00  0.22106641244E+04  0.22106641245E+04  0.25500000920E-02 0. -1.
       -2   -1    0    0    0  501  0.00000000000E+00  0.00000000000E+00 -0.12962185001E+04  0.12962185001E+04  0.25500000920E-02 0.  1.
    10030    2    1    2    0    0  0.00000000000E+00  0.00000000000E+00  0.91444562434E+03  0.35068826246E+04  0.33855597680E+04 0.  0.
        2    1    3    3  502    0  0.14439891186E+04 -0.58894823444E+03  0.11392550453E+04  0.19312862698E+04  0.25500000920E-02 0. -1.
       -2    1    3    3    0  502 -0.14439891186E+04  0.58894823444E+03 -0.22480942095E+03  0.15755963548E+04  0.25500000920E-02 0.  1.
</event>
<event>
 5   0  0.2553250E-07  0.3440496E+04  0.7818609E-02  0.8128038E-01
        1   -1    0    0  501    0  0.00000000000E+00  0.00000000000E+00  0.13486466618E+04  0.13486466618E+04  0.50400001928E-02 0. -1.
       -1   -1    0    0    0  501  0.00000000000E+00  0.00000000000E+00 -0.21942388600E+04  0.21942388600E+04  0.50400001928E-02 0.  1.
    10030    2    1    2    0    0  0.00000000000E+00  0.00000000000E+00 -0.84559219817E+03  0.35428855218E+04  0.34404958444E+04 0.  0.
        5    1    3    3  502    0  0.24958803294E+03  0.13623596363E+02  0.13298396560E+04  0.13531353921E+04  0.46999998093E+01 0. -1.
       -5    1    3    3    0  502 -0.24958803294E+03 -0.13623596363E+02 -0.21754318542E+04  0.21897501298E+04  0.46999998093E+01 0.  1.
</event>
<event>
 5   0  0.7838333E-07  0.3345381E+04  0.7818609E-02  0.8151443E-01
       -2   -1    0    0    0  501  0.00000000000E+00  0.00000000000E+00  0.13418542675E+04  0.13418542675E+04  0.25500000920E-02 0. -1.
        2   -1    0    0  501    0  0.00000000000E+00  0.00000000000E+00 -0.20850943443E+04  0.20850943443E+04  0.25500000920E-02 0.  1.
    10030    2    1    2    0    0  0.00000000000E+00  0.00000000000E+00 -0.74324007684E+03  0.34269486118E+04  0.33453805428E+04 0.  0.
        1    1    3    3  502    0  0.66646330872E+03  0.90995545810E+03  0.89368927566E+03  0.14390527437E+04  0.50400001928E-02 0. -1.
       -1    1    3    3    0  502 -0.66646330872E+03 -0.90995545810E+03 -0.16369293525E+04  0.19878958682E+04  0.50400001928E-02 0.  1.
</event>
<event>
 5   0  0.2641442E-07  0.3399109E+04  0.7818609E-02  0.8138125E-01
        1   -1    0    0  501    0  0.00000000000E+00  0.00000000000E+00  0.12781633518E+04  0.12781633518E+04  0.50400001928E-02 0. -1.
       -1   -1    0    0    0  501  0.00000000000E+00  0.00000000000E+00 -0.22598724418E+04  0.22598724418E+04  0.50400001928E-02 0.  1.
    10030    2    1    2    0    0  0.00000000000E+00  0.00000000000E+00 -0.98170908993E+03  0.35380357936E+04  0.33991093745E+04 0.  0.
        1    1    3    3  502    0  0.10405174780E+04  0.54314371453E+03  0.78853031228E+03  0.14140232565E+04  0.50400001928E-02 0.  1.
       -1    1    3    3    0  502 -0.10405174780E+04 -0.54314371453E+03 -0.17702394022E+04  0.21240125371E+04  0.50400001928E-02 0. -1.
</event>
<event>
 5   0  0.2599367E-07  0.3411720E+04  0.7818609E-02  0.8135036E-01
        1   -1    0    0  501    0  0.00000000000E+00  0.00000000000E+00  0.19706210408E+04  0.19706210408E+04  0.50400001928E-02 0. -1.
       -1   -1    0    0    0  501  0.00000000000E+00  0.00000000000E+00 -0.14766704497E+04  0.14766704497E+04  0.50400001928E-02 0.  1.
    10030    2    1    2    0    0  0.00000000000E+00  0.00000000000E+00  0.49395059106E+03  0.34472914905E+04  0.34117197180E+04 0.  0.
        2    1    3    3  502    0 -0.78642633790E+03  0.38742446437E+03 -0.12316322837E+04  0.15117811293E+04  0.25500000920E-02 0.  1.
       -2    1    3    3    0  502  0.78642633790E+03 -0.38742446437E+03  0.17255828748E+04  0.19355103612E+04  0.25500000920E-02 0. -1.
</event>
<event>
 5   0  0.7610412E-07  0.3087126E+04  0.7818609E-02  0.8219280E-01
        2   -1    0    0  501    0  0.00000000000E+00  0.00000000000E+00  0.22886508300E+04  0.22886508300E+04  0.25500000920E-02 0. -1.
       -2   -1    0    0    0  501  0.00000000000E+00  0.00000000000E+00 -0.10410438977E+04  0.10410438977E+04  0.25500000920E-02 0.  1.
    10030    2    1    2    0    0  0.00000000000E+00  0.00000000000E+00  0.12476069323E+04  0.33296947277E+04  0.30871255113E+04 0.  0.
        4    1    3    3  502    0  0.38917049231E+02 -0.14278920917E+04 -0.71340191120E+01  0.14284407126E+04  0.12699999809E+01 0.  1.
       -4    1    3    3    0  502 -0.38917049231E+02  0.14278920917E+04  0.12547409514E+04  0.19012540152E+04  0.12699999809E+01 0. -1.
</event>
<event>
 5   0  0.7899402E-07  0.3413075E+04  0.7818609E-02  0.8134705E-01
       -2   -1    0    0    0  501  0.00000000000E+00  0.00000000000E+00  0.15681239609E+04  0.15681239609E+04  0.25500000920E-02 0.  1.
        2   -1    0    0  501    0  0.00000000000E+00  0.00000000000E+00 -0.18571681174E+04  0.18571681174E+04  0.25500000920E-02 0. -1.
    10030    2    1    2    0    0  0.00000000000E+00  0.00000000000E+00 -0.28904415649E+03  0.34252920782E+04  0.34130747570E+04 0.  0.
        2    1    3    3  502    0  0.36679364583E+03 -0.11055175236E+04  0.11071646479E+04  0.16070221315E+04  0.25500000920E-02 0.  1.
       -2    1    3    3    0  502 -0.36679364583E+03  0.11055175236E+04 -0.13962088044E+04  0.18182699467E+04  0.25500000920E-02 0. -1.
</event>
<event>
 5   0  0.7610412E-07  0.3237924E+04  0.7818609E-02  0.8178873E-01
        2   -1    0    0  501    0  0.00000000000E+00  0.00000000000E+00  0.19016850221E+04  0.19016850221E+04  0.25500000920E-02 0. -1.
       -2   -1    0    0    0  501  0.00000000000E+00  0.00000000000E+00 -0.13782711212E+04  0.13782711212E+04  0.25500000920E-02 0.  1.
    10030    2    1    2    0    0  0.00000000000E+00  0.00000000000E+00  0.52341390081E+03  0.32799561433E+04  0.32379237469E+04 0.  0.
        4    1    3    3  502    0  0.11038445182E+04 -0.39246666631E+03 -0.87017583623E+03  0.14593527344E+04  0.12699999809E+01 0.  1.
       -4    1    3    3    0  502 -0.11038445182E+04  0.39246666631E+03  0.13935897370E+04  0.18206034089E+04  0.12699999809E+01 0. -1.
</event>
<event>
 5   0  0.2599367E-07  0.3425731E+04  0.7818609E-02  0.8131620E-01
        1   -1    0    0  501    0  0.00000000000E+00  0.00000000000E+00  0.21800076908E+04  0.21800076908E+04  0.50400001928E-02 0. -1.
       -1   -1    0    0    0  501  0.00000000000E+00  0.00000000000E+00 -0.13458245522E+04  0.13458245522E+04  0.50400001928E-02 0.  1.
    10030    2    1    2    0    0  0.00000000000E+00  0.00000000000E+00  0.83418313860E+03  0.35258322430E+04  0.34257307975E+04 0.  0.
        2    1    3    3  502    0  0.68846936746E+03  0.10266875787E+04 -0.80323166828E+03  0.14741976011E+04  0.25500000920E-02 0.  1.
       -2    1    3    3    0  502 -0.68846936746E+03 -0.10266875787E+04  0.16374148069E+04  0.20516346419E+04  0.25500000920E-02 0. -1.
</event>
<event>
 5   0  0.7838333E-07  0.3396096E+04  0.7818609E-02  0.8138865E-01
       -2   -1    0    0    0  501  0.00000000000E+00  0.00000000000E+00  0.14429473641E+04  0.14429473641E+04  0.25500000920E-02 0.  1.
        2   -1    0    0  501    0  0.00000000000E+00  0.00000000000E+00 -0.19982479086E+04  0.19982479086E+04  0.25500000920E-02 0. -1.
    10030    2    1    2    0    0  0.00000000000E+00  0.00000000000E+00 -0.55530054450E+03  0.34411952726E+04  0.33960957304E+04 0.  0.
        1    1    3    3  502    0 -0.46985402497E+03  0.14937176334E+04 -0.94319184999E+03  0.18279950873E+04  0.50400001928E-02 0.  1.
       -1    1    3    3    0  502  0.46985402497E+03 -0.14937176334E+04  0.38789130548E+03  0.16132001854E+04  0.50400001928E-02 0. -1.
</event>
<event>
 5   0  0.2592200E-07  0.3298803E+04  0.7818609E-02  0.8163200E-01
        1   -1    0    0  501    0  0.00000000000E+00  0.00000000000E+00  0.12442447916E+04  0.12442447916E+04  0.50400001928E-02 0. -1.
       -1   -1    0    0    0  501  0.00000000000E+00  0.00000000000E+00 -0.21864876821E+04  0.21864876821E+04  0.50400001928E-02 0.  1.
    10030    2    1    2    0    0  0.00000000000E+00  0.00000000000E+00 -0.94224289054E+03  0.34307324737E+04  0.32988033650E+04 0.  0.
        4    1    3    3  502    0  0.51323682856E+02 -0.13314921459E+04  0.53987739724E+03  0.14376976984E+04  0.12699999809E+01 0. -1.
       -4    1    3    3    0  502 -0.51323682856E+02  0.13314921459E+04 -0.14821202878E+04  0.19930347753E+04  0.12699999809E+01 0.  1.
</event>
<event>
 5   0  0.2599367E-07  0.3411646E+04  0.7818609E-02  0.8135054E-01
        1   -1    0    0  501    0  0.00000000000E+00  0.00000000000E+00  0.18562276937E+04  0.18562276937E+04  0.50400001928E-02 0.  1.
       -1   -1    0    0    0  501  0.00000000000E+00  0.00000000000E+00 -0.15676049310E+04  0.15676049310E+04  0.50400001928E-02 0. -1.
    10030    2    1    2    0    0  0.00000000000E+00  0.00000000000E+00  0.28862276271E+03  0.34238326247E+04  0.34116457528E+04 0.  0.
        2    1    3    3  502    0 -0.54892446683E+03 -0.72338906924E+03  0.15934993889E+04  0.18340801832E+04  0.25500000920E-02 0.  1.
       -2    1    3    3    0  502  0.54892446683E+03  0.72338906924E+03 -0.13048766262E+04  0.15897524415E+04  0.25500000920E-02 0. -1.
</event>
<event>
 5   0  0.2641442E-07  0.3413329E+04  0.7818609E-02  0.8134643E-01
        1   -1    0    0  501    0  0.00000000000E+00  0.00000000000E+00  0.20098236809E+04  0.20098236809E+04  0.50400001928E-02 0. -1.
       -1   -1    0    0    0  501  0.00000000000E+00  0.00000000000E+00 -0.14492333093E+04  0.14492333093E+04  0.50400001928E-02 0.  1.
    10030    2    1    2    0    0  0.00000000000E+00  0.00000000000E+00  0.56059037160E+03  0.34590569902E+04  0.34133288293E+04 0.  0.
        1    1    3    3  502    0  0.40216270137E+03  0.69398285911E+03  0.18069151576E+04  0.19769394108E+04  0.50400001928E-02 0. -1.
       -1    1    3    3    0  502 -0.40216270137E+03 -0.69398285911E+03 -0.12463247860E+04  0.14821175794E+04  0.50400001928E-02 0.  1.
</event>
<event>
 5   0  0.7610412E-07  0.3424043E+04  0.7818609E-02  0.8132031E-01
        2   -1    0    0  501    0  0.00000000000E+00  0.00000000000E+00  0.22497943400E+04  0.22497943400E+04  0.25500000920E-02 0. -1.
       -2   -1    0    0    0  501  0.00000000000E+00  0.00000000000E+00 -0.13027933596E+04  0.13027933596E+04  0.25500000920E-02 0.  1.
    10030    2    1    2    0    0  0.00000000000E+00  0.00000000000E+00  0.94700098037E+03  0.35525876997E+04  0.34240427139E+04 0.  0.
        4    1    3    3  502    0 -0.18458269264E+03 -0.79183287329E+03 -0.10896951813E+04  0.13595982019E+04  0.12699999809E+01 0.  1.
       -4    1    3    3    0  502  0.18458269264E+03  0.79183287329E+03  0.20366961616E+04  0.21929894978E+04  0.12699999809E+01 0. -1.
</event>
<event>
 5   0  0.2622205E-07  0.3382677E+04  0.7818609E-02  0.8142171E-01
        1   -1    0    0  501    0  0.00000000000E+00  0.00000000000E+00  0.10113667930E+04  0.10113667930E+04  0.50400001928E-02 0.  1.
       -1   -1    0    0    0  501  0.00000000000E+00  0.00000000000E+00 -0.28284749124E+04  0.28284749124E+04  0.50400001928E-02 0. -1.
    10030    2    1    2    0    0  0.00000000000E+00  0.00000000000E+00 -0.18171081194E+04  0.38398417054E+04  0.33826768106E+04 0.  0.
        3    1    3    3  502    0  0.74869344887E+03  0.26516256684E+03 -0.26036063293E+04  0.27220615341E+04  0.10100000352E+00 0. -1.
       -3    1    3    3    0  502 -0.74869344887E+03 -0.26516256684E+03  0.78649820982E+03  0.11177801714E+04  0.10100000352E+00 0.  1.
</event>
<event>
 5   0  0.2553250E-07  0.3398890E+04  0.7818609E-02  0.8138179E-01
       -1   -1    0    0    0  501  0.00000000000E+00  0.00000000000E+00  0.10832115096E+04  0.10832115096E+04  0.50400001928E-02 0. -1.
        1   -1    0    0  501    0  0.00000000000E+00  0.00000000000E+00 -0.26662508125E+04  0.26662508125E+04  0.50400001928E-02 0.  1.
    10030    2    1    2    0    0  0.00000000000E+00  0.00000000000E+00 -0.15830393030E+04  0.37494623221E+04  0.33988901527E+04 0.  0.
        5    1    3    3  502    0  0.22915450583E+03  0.90039961087E+03 -0.23612656697E+04  0.25374847585E+04  0.46999998093E+01 0.  1.
       -5    1    3    3    0  502 -0.22915450583E+03 -0.90039961087E+03  0.77822636673E+03  0.12119775636E+04  0.46999998093E+01 0. -1.
</event>
<event>
 5   0  0.2622205E-07  0.3407080E+04  0.7818609E-02  0.8136171E-01
       -1   -1    0    0    0  501  0.00000000000E+00  0.00000000000E+00  0.18776406589E+04  0.18776406590E+04  0.50400001928E-02 0. -1.
        1   -1    0    0  501    0  0.00000000000E+00  0.00000000000E+00 -0.15455823192E+04  0.15455823192E+04  0.50400001928E-02 0.  1.
    10030    2    1    2    0    0  0.00000000000E+00  0.00000000000E+00  0.33205833973E+03  0.34232229782E+04  0.34070798079E+04 0.  0.
        3    1    3    3  502    0  0.24510621368E+03 -0.27527632680E+03  0.18370974898E+04  0.18737079039E+04  0.10100000352E+00 0. -1.
       -3    1    3    3    0  502 -0.24510621368E+03  0.27527632680E+03 -0.15050391500E+04  0.15495150743E+04  0.10100000352E+00 0.  1.
</event>
<event>
 5   0  0.7899402E-07  0.3574697E+04  0.7818609E-02  0.8096312E-01
        2   -1    0    0  501    0  0.00000000000E+00  0.00000000000E+00  0.24048723839E+04  0.24048723839E+04  0.25500000920E-02 0. -1.
       -2   -1    0    0    0  501  0.00000000000E+00  0.00000000000E+00 -0.13283928490E+04  0.13283928490E+04  0.25500000920E-02 0.  1.
    10030    2    1    2    0    0  0.00000000000E+00  0.00000000000E+00  0.10764795349E+04  0.37332652329E+04  0.35746973452E+04 0.  0.
        2    1    3    3  502    0  0.69593103161E+03  0.13456510476E+04  0.15287401014E+04  0.21522413992E+04  0.25500000920E-02 0. -1.
       -2    1    3    3    0  502 -0.69593103161E+03 -0.13456510476E+04 -0.45226056648E+03  0.15810238337E+04  0.25500000920E-02 0.  1.
</event>
<event>
 5   0  0.7899402E-07  0.3398922E+04  0.7818609E-02  0.8138171E-01
       -2   -1    0    0    0  501  0.00000000000E+00  0.00000000000E+00  0.20591662314E+04  0.20591662314E+04  0.25500000920E-02 0.  1.
        2   -1    0    0  501    0  0.00000000000E+00  0.00000000000E+00 -0.14025908689E+04  0.14025908689E+04  0.25500000920E-02 0. -1.
    10030    2    1    2    0    0  0.00000000000E+00  0.00000000000E+00  0.65657536248E+03  0.34617571003E+04  0.33989220372E+04 0.  0.
        2    1    3    3  502    0 -0.13477665648E+04 -0.10277493862E+04  0.20179736680E+03  0.17068877207E+04  0.25500000920E-02 0. -1.
       -2    1    3    3    0  502  0.13477665648E+04  0.10277493862E+04  0.45477799568E+03  0.17548693796E+04  0.25500000920E-02 0.  1.
</event>
<event>
 5   0  0.7610412E-07  0.3428281E+04  0.7818609E-02  0.8131000E-01
        2   -1    0    0  501    0  0.00000000000E+00  0.00000000000E+00  0.16482019393E+04  0.16482019393E+04  0.25500000920E-02 0.  1.
       -2   -1    0    0    0  501  0.00000000000E+00  0.00000000000E+00 -0.17827174259E+04  0.17827174259E+04  0.25500000920E-02 0. -1.
    10030    2    1    2    0    0  0.00000000000E+00  0.00000000000E+00 -0.13451548655E+03  0.34309193652E+04  0.34282813879E+04 0.  0.
        4    1    3    3  502    0 -0.10097562190E+04  0.13809294034E+04  0.41006212598E+02  0.17112149956E+04  0.12699999809E+01 0. -1.
       -4    1    3    3    0  502  0.10097562190E+04 -0.13809294034E+04 -0.17552169915E+03  0.17197043696E+04  0.12699999809E+01 0.  1.
</event>
<event>
 5   0  0.2553250E-07  0.3349345E+04  0.7818609E-02  0.8150452E-01
        3   -1    0    0  501    0  0.00000000000E+00  0.00000000000E+00  0.18248351112E+04  0.18248351140E+04  0.10100000352E+00 0. -1.
       -3   -1    0    0    0  501  0.00000000000E+00  0.00000000000E+00 -0.15368661075E+04  0.15368661108E+04  0.10100000352E+00 0.  1.
    10030    2    1    2    0    0  0.00000000000E+00  0.00000000000E+00  0.28796900369E+03  0.33617012247E+04  0.33493445594E+04 0.  0.
        1    1    3    3  502    0  0.79646866088E+02  0.16326416519E+04  0.50956012777E+03  0.17121664378E+04  0.50400001928E-02 0. -1.
       -1    1    3    3    0  502 -0.79646866088E+02 -0.16326416519E+04 -0.22159112408E+03  0.16495347869E+04  0.50400001928E-02 0.  1.
</event>
<event>
 5   0  0.2622205E-07  0.3292579E+04  0.7818609E-02  0.8164786E-01
        1   -1    0    0  501    0  0.00000000000E+00  0.00000000000E+00  0.17698585028E+04  0.17698585028E+04  0.50400001928E-02 0. -1.
       -1   -1    0    0    0  501  0.00000000000E+00  0.00000000000E+00 -0.15313480545E+04  0.15313480545E+04  0.50400001928E-02 0.  1.
    10030    2    1    2    0    0  0.00000000000E+00  0.00000000000E+00  0.23851044825E+03  0.33012065573E+04  0.32925791563E+04 0.  0.
        3    1    3    3  502    0  0.13408529927E+04 -0.89609863335E+03 -0.21235277655E+03  0.16266447739E+04  0.10100000352E+00 0.  1.
       -3    1    3    3    0  502 -0.13408529927E+04  0.89609863335E+03  0.45086322481E+03  0.16745617834E+04  0.10100000352E+00 0. -1.
</event>
<event>
 5   0  0.2592200E-07  0.3397637E+04  0.7818609E-02  0.8138487E-01
       -1   -1    0    0    0  501  0.00000000000E+00  0.00000000000E+00  0.15845098702E+04  0.15845098702E+04  0.50400001928E-02 0. -1.
        1   -1    0    0  501    0  0.00000000000E+00  0.00000000000E+00 -0.18213733268E+04  0.18213733268E+04  0.50400001928E-02 0.  1.
    10030    2    1    2    0    0  0.00000000000E+00  0.00000000000E+00 -0.23686345652E+03  0.34058831970E+04  0.33976368338E+04 0.  0.
        4    1    3    3  502    0  0.71735214184E+03  0.44657543842E+03 -0.15957653219E+04  0.18056833313E+04  0.12699999809E+01 0.  1.
       -4    1    3    3    0  502 -0.71735214184E+03 -0.44657543842E+03  0.13589018654E+04  0.16001998657E+04  0.12699999809E+01 0. -1.
</event>
<event>
 5   0  0.7822003E-07  0.3379239E+04  0.7818609E-02  0.8143021E-01
        2   -1    0    0  501    0  0.00000000000E+00  0.00000000000E+00  0.26712129241E+04  0.26712129241E+04  0.25500000920E-02 0. -1.
       -2   -1    0    0    0  501  0.00000000000E+00  0.00000000000E+00 -0.10687333931E+04  0.10687333931E+04  0.25500000920E-02 0.  1.
    10030    2    1    2    0    0  0.00000000000E+00  0.00000000000E+00  0.16024795310E+04  0.37399463172E+04  0.33792392352E+04 0.  0.
        5    1    3    3  502    0 -0.54215454533E+03  0.45860147193E+03 -0.89556064551E+03  0.11429338655E+04  0.46999998093E+01 0.  1.
       -5    1    3    3    0  502  0.54215454533E+03 -0.45860147193E+03  0.24980401765E+04  0.25970124517E+04  0.46999998093E+01 0. -1.
</event>
<event>
 5   0  0.2553250E-07  0.3384002E+04  0.7818609E-02  0.8141844E-01
       -1   -1    0    0    0  501  0.00000000000E+00  0.00000000000E+00  0.12061003415E+04  0.12061003415E+04  0.50400001928E-02 0. -1.
        1   -1    0    0  501    0  0.00000000000E+00  0.00000000000E+00 -0.23736555256E+04  0.23736555256E+04  0.50400001928E-02 0.  1.
    10030    2    1    2    0    0  0.00000000000E+00  0.00000000000E+00 -0.11675551840E+04  0.35797558671E+04  0.33840016194E+04 0.  0.
        5    1    3    3  502    0  0.88853189111E+03 -0.43928906418E+03  0.86681600717E+03  0.13167596150E+04  0.46999998093E+01 0. -1.
       -5    1    3    3    0  502 -0.88853189111E+03  0.43928906418E+03 -0.20343711912E+04  0.22629962521E+04  0.46999998093E+01 0.  1.
</event>
<event>
 5   0  0.2599367E-07  0.3347943E+04  0.7818609E-02  0.8150802E-01
       -1   -1    0    0    0  501  0.00000000000E+00  0.00000000000E+00  0.20049571841E+04  0.20049571841E+04  0.50400001928E-02 0.  1.
        1   -1    0    0  501    0  0.00000000000E+00  0.00000000000E+00 -0.13976262734E+04  0.13976262734E+04  0.50400001928E-02 0. -1.
    10030    2    1    2    0    0  0.00000000000E+00  0.00000000000E+00  0.60733091063E+03  0.34025834575E+04  0.33479431522E+04 0.  0.
        2    1    3    3  502    0 -0.10733465410E+04  0.10224556587E+01  0.16091951782E+04  0.19343171829E+04  0.25500000920E-02 0.  1.
       -2    1    3    3    0  502  0.10733465410E+04 -0.10224556587E+01 -0.10018642676E+04  0.14682662746E+04  0.25500000920E-02 0. -1.
</event>
<event>
 5   0  0.8489228E-07  0.3400754E+04  0.7818609E-02  0.8137721E-01
       -2   -1    0    0    0  501  0.00000000000E+00  0.00000000000E+00  0.14859834849E+04  0.14859834849E+04  0.25500000920E-02 0.  1.
        2   -1    0    0  501    0  0.00000000000E+00  0.00000000000E+00 -0.19457020465E+04  0.19457020465E+04  0.25500000920E-02 0. -1.
    10030    2    1    2    0    0  0.00000000000E+00  0.00000000000E+00 -0.45971856156E+03  0.34316855314E+04  0.34007535093E+04 0.  0.
        3    1    3    3  502    0  0.84439105757E+02  0.15480641325E+04 -0.93452932396E+03  0.18102424115E+04  0.10100000352E+00 0. -1.
       -3    1    3    3    0  502 -0.84439105757E+02 -0.15480641325E+04  0.47481076240E+03  0.16214431199E+04  0.10100000352E+00 0.  1.
</event>
<event>
 5   0  0.2622205E-07  0.3529255E+04  0.7818609E-02  0.8106892E-01
       -1   -1    0    0    0  501  0.00000000000E+00  0.00000000000E+00  0.15064873517E+04  0.15064873517E+04  0.50400001928E-02 0. -1.
        1   -1    0    0  501    0  0.00000000000E+00  0.00000000000E+00 -0.20670008889E+04  0.20670008889E+04  0.50400001928E-02 0.  1.
    10030    2    1    2    0    0  0.00000000000E+00  0.00000000000E+00 -0.56051353719E+03  0.35734882407E+04  0.35292552728E+04 0.  0.
        3    1    3    3  502    0  0.57070183055E+03 -0.12412568429E+04 -0.14111668936E+04  0.19641311416E+04  0.10100000352E+00 0.  1.
       -3    1    3    3    0  502 -0.57070183055E+03  0.12412568429E+04  0.85065335643E+03  0.16093570991E+04  0.10100000352E+00 0. -1.
</event>
<event>
 5   0  0.2622205E-07  0.3415360E+04  0.7818609E-02  0.8134147E-01
        1   -1    0    0  501    0  0.00000000000E+00  0.00000000000E+00  0.18776021848E+04  0.18776021848E+04  0.50400001928E-02 0.  1.
       -1   -1    0    0    0  501  0.00000000000E+00  0.00000000000E+00 -0.15531358443E+04  0.15531358443E+04  0.50400001928E-02 0. -1.
    10030    2    1    2    0    0  0.00000000000E+00  0.00000000000E+00  0.32446634049E+03  0.34307380291E+04  0.34153601594E+04 0.  0.
        3    1    3    3  502    0 -0.13221560935E+04  0.10623030742E+04  0.36209305358E+03  0.17342710130E+04  0.10100000352E+00 0. -1.
       -3    1    3    3    0  502  0.13221560935E+04 -0.10623030742E+04 -0.37626713092E+02  0.16964670161E+04  0.10100000352E+00 0.  1.
</event>
<event>
 5   0  0.2622205E-07  0.3392081E+04  0.7818609E-02  0.8139853E-01
        1   -1    0    0  501    0  0.00000000000E+00  0.00000000000E+00  0.10394881643E+04  0.10394881643E+04  0.50400001928E-02 0.  1.
       -1   -1    0    0    0  501  0.00000000000E+00  0.00000000000E+00 -0.27672789144E+04  0.27672789144E+04  0.50400001928E-02 0. -1.
    10030    2    1    2    0    0  0.00000000000E+00  0.00000000000E+00 -0.17277907502E+04  0.38067670787E+04  0.33920811776E+04 0.  0.
        3    1    3    3  502    0 -0.88246473961E+03  0.77521937325E+03 -0.22369203016E+04  0.25265631873E+04  0.10100000352E+00 0.  1.
       -3    1    3    3    0  502  0.88246473961E+03 -0.77521937325E+03  0.50912955143E+03  0.12802038914E+04  0.10100000352E+00 0. -1.
</event>
<event>
 5   0  0.2599367E-07  0.3402639E+04  0.7818609E-02  0.8137259E-01
        1   -1    0    0  501    0  0.00000000000E+00  0.00000000000E+00  0.22498965521E+04  0.22498965521E+04  0.50400001928E-02 0. -1.
       -1   -1    0    0    0  501  0.00000000000E+00  0.00000000000E+00 -0.12864984164E+04  0.12864984164E+04  0.50400001928E-02 0.  1.
    10030    2    1    2    0    0  0.00000000000E+00  0.00000000000E+00  0.96339813576E+03  0.35363949685E+04  0.34026391823E+04 0.  0.
        2    1    3    3  502    0 -0.10408921167E+04  0.12353688230E+04 -0.73038920006E+02  0.16170736567E+04  0.25500000920E-02 0.  1.
       -2    1    3    3    0  502  0.10408921167E+04 -0.12353688230E+04  0.10364370558E+04  0.19193213118E+04  0.25500000920E-02 0. -1.
</event>
<event>
 5   0  0.2592200E-07  0.3372389E+04  0.7818609E-02  0.8144716E-01
       -1   -1    0    0    0  501  0.00000000000E+00  0.00000000000E+00  0.12082786122E+04  0.12082786122E+04  0.50400001928E-02 0.  1.
        1   -1    0    0  501    0  0.00000000000E+00  0.00000000000E+00 -0.23531423718E+04  0.23531423718E+04  0.50400001928E-02 0. -1.
    10030    2    1    2    0    0  0.00000000000E+00  0.00000000000E+00 -0.11448637596E+04  0.35614209840E+04  0.33723888265E+04 0.  0.
        4    1    3    3  502    0 -0.11980603305E+04  0.61713893821E+03 -0.16426678765E+04  0.21247513713E+04  0.12699999809E+01 0. -1.
       -4    1    3    3    0  502  0.11980603305E+04 -0.61713893821E+03  0.49780411684E+03  0.14366696127E+04  0.12699999809E+01 0.  1.
</event>
<event>
 5   0  0.2592200E-07  0.3393379E+04  0.7818609E-02  0.8139533E-01
       -1   -1    0    0    0  501  0.00000000000E+00  0.00000000000E+00  0.19344380834E+04  0.19344380834E+04  0.50400001928E-02 0. -1.
        1   -1    0    0  501    0  0.00000000000E+00  0.00000000000E+00 -0.14881613606E+04  0.14881613606E+04  0.50400001928E-02 0.  1.
    10030    2    1    2    0    0  0.00000000000E+00  0.00000000000E+00  0.44627672278E+03  0.34225994440E+04  0.33933794425E+04 0.  0.
        4    1    3    3  502    0  0.37281504025E+03  0.11809211628E+04 -0.94667137585E+03  0.15587668696E+04  0.12699999809E+01 0.  1.
       -4    1    3    3    0  502 -0.37281504025E+03 -0.11809211628E+04  0.13929480986E+04  0.18638325744E+04  0.12699999809E+01 0. -1.
</event>
<event>
 5   0  0.8489228E-07  0.3404336E+04  0.7818609E-02  0.8136843E-01
       -2   -1    0    0    0  501  0.00000000000E+00  0.00000000000E+00  0.12061687486E+04  0.12061687486E+04  0.25500000920E-02 0. -1.
        2   -1    0    0  501    0  0.00000000000E+00  0.00000000000E+00 -0.24021318790E+04  0.24021318790E+04  0.25500000920E-02 0.  1.
    10030    2    1    2    0    0  0.00000000000E+00  0.00000000000E+00 -0.11959631303E+04  0.36083006276E+04  0.34043362951E+04 0.  0.
        3    1    3    3  502    0  0.29483367762E+03 -0.12879196245E+04 -0.17354577319E+04  0.21811642318E+04  0.10100000352E+00 0.  1.
       -3    1    3    3    0  502 -0.29483367762E+03  0.12879196245E+04  0.53949460162E+03  0.14271363958E+04  0.10100000352E+00 0. -1.
</event>
<event>
 5   0  0.7610412E-07  0.3304385E+04  0.7818609E-02  0.8161781E-01
        2   -1    0    0  501    0  0.00000000000E+00  0.00000000000E+00  0.16351106537E+04  0.16351106537E+04  0.25500000920E-02 0. -1.
       -2   -1    0    0    0  501  0.00000000000E+00  0.00000000000E+00 -0.16694527500E+04  0.16694527500E+04  0.25500000920E-02 0.  1.
    10030    2    1    2    0    0  0.00000000000E+00  0.00000000000E+00 -0.34342096319E+02  0.33045634038E+04  0.33043849518E+04 0.  0.
        4    1    3    3  502    0 -0.37321971898E+03  0.10997934931E+04  0.11580092922E+04  0.16400688460E+04  0.12699999809E+01 0. -1.
       -4    1    3    3    0  502  0.37321971898E+03 -0.10997934931E+04 -0.11923513885E+04  0.16644945577E+04  0.12699999809E+01 0.  1.
</event>
<event>
 5   0  0.7610412E-07  0.3401192E+04  0.7818609E-02  0.8137614E-01
       -2   -1    0    0    0  501  0.00000000000E+00  0.00000000000E+00  0.17145380885E+04  0.17145380885E+04  0.25500000920E-02 0. -1.
        2   -1    0    0  501    0  0.00000000000E+00  0.00000000000E+00 -0.16867675241E+04  0.16867675241E+04  0.25500000920E-02 0.  1.
    10030    2    1    2    0    0  0.00000000000E+00  0.00000000000E+00  0.27770564364E+02  0.34013056126E+04  0.34011922418E+04 0.  0.
        4    1    3    3  502    0  0.88212907720E+03 -0.13759656130E+04  0.48357367112E+03  0.17044876606E+04  0.12699999809E+01 0.  1.
       -4    1    3    3    0  502 -0.88212907720E+03  0.13759656130E+04 -0.45580310676E+03  0.16968179519E+04  0.12699999809E+01 0. -1.
</event>
<event>
 5   0  0.2553250E-07  0.3389199E+04  0.7818609E-02  0.8140562E-01
       -1   -1    0    0    0  501  0.00000000000E+00  0.00000000000E+00  0.26051390788E+04  0.26051390788E+04  0.50400001928E-02 0. -1.
        1   -1    0    0  501    0  0.00000000000E+00  0.00000000000E+00 -0.11023088988E+04  0.11023088988E+04  0.50400001928E-02 0.  1.
    10030    2    1    2    0    0  0.00000000000E+00  0.00000000000E+00  0.15028301800E+04  0.37074479776E+04  0.33891993091E+04 0.  0.
        5    1    3    3  502    0  0.26329497689E+03  0.42687223881E+03  0.25220826667E+04  0.25714718005E+04  0.46999998093E+01 0. -1.
       -5    1    3    3    0  502 -0.26329497689E+03 -0.42687223881E+03 -0.10192524868E+04  0.11359761771E+04  0.46999998093E+01 0.  1.
</event>
<event>
 5   0  0.2622205E-07  0.3431465E+04  0.7818609E-02  0.8130227E-01
       -1   -1    0    0    0  501  0.00000000000E+00  0.00000000000E+00  0.14913986294E+04  0.14913986294E+04  0.50400001928E-02 0.  1.
        1   -1    0    0  501    0  0.00000000000E+00  0.00000000000E+00 -0.19738099241E+04  0.19738099241E+04  0.50400001928E-02 0. -1.
    10030    2    1    2    0    0  0.00000000000E+00  0.00000000000E+00 -0.48241129475E+03  0.34652085536E+04  0.34314646526E+04 0.  0.
        3    1    3    3  502    0 -0.56149188840E+03 -0.65112687746E+02  0.13946702344E+04  0.15048647367E+04  0.10100000352E+00 0.  1.
       -3    1    3    3    0  502  0.56149188840E+03  0.65112687746E+02 -0.18770815292E+04  0.19603438168E+04  0.10100000352E+00 0. -1.
</event>
<event>
 5   0  0.7610412E-07  0.3381801E+04  0.7818609E-02  0.8142387E-01
        2   -1    0    0  501    0  0.00000000000E+00  0.00000000000E+00  0.20459641484E+04  0.20459641484E+04  0.25500000920E-02 0. -1.
       -2   -1    0    0    0  501  0.00000000000E+00  0.00000000000E+00 -0.13974559275E+04  0.13974559275E+04  0.25500000920E-02 0.  1.
    10030    2    1    2    0    0  0.00000000000E+00  0.00000000000E+00  0.64850822088E+03  0.34434200760E+04  0.33818011336E+04 0.  0.
        4    1    3    3  502    0  0.15795797671E+04  0.26929671675E+03 -0.22553809406E+03  0.16181662482E+04  0.12699999809E+01 0.  1.
       -4    1    3    3    0  502 -0.15795797671E+04 -0.26929671675E+03  0.87404631494E+03  0.18252538277E+04  0.12699999809E+01 0. -1.
</event>
<event>
 5   0  0.7822003E-07  0.3397957E+04  0.7818609E-02  0.8138408E-01
       -2   -1    0    0    0  501  0.00000000000E+00  0.00000000000E+00  0.16848427365E+04  0.16848427365E+04  0.25500000920E-02 0. -1.
        2   -1    0    0  501    0  0.00000000000E+00  0.00000000000E+00 -0.17132323604E+04  0.17132323604E+04  0.25500000920E-02 0.  1.
    10030    2    1    2    0    0  0.00000000000E+00  0.00000000000E+00 -0.28389623870E+02  0.33980750969E+04  0.33979565026E+04 0.  0.
        5    1    3    3  502    0  0.16212044259E+04  0.14901646661E+03  0.47161562836E+03  0.16949787871E+04  0.46999998093E+01 0.  1.
       -5    1    3    3    0  502 -0.16212044259E+04 -0.14901646661E+03 -0.50000525223E+03  0.17030963097E+04  0.46999998093E+01 0. -1.
</event>
<event>
 5   0  0.2553250E-07  0.3395418E+04  0.7818609E-02  0.8139032E-01
        1   -1    0    0  501    0  0.00000000000E+00  0.00000000000E+00  0.20452385306E+04  0.20452385306E+04  0.50400001928E-02 0. -1.
       -1   -1    0    0    0  501  0.00000000000E+00  0.00000000000E+00 -0.14092318661E+04  0.14092318662E+04  0.50400001928E-02 0.  1.
    10030    2    1    2    0    0  0.00000000000E+00  0.00000000000E+00  0.63600666448E+03  0.34544703968E+04  0.33954176834E+04 0.  0.
        5    1    3    3  502    0  0.82356157152E+03 -0.38027614378E+02 -0.11918876208E+04  0.14492473744E+04  0.46999998093E+01 0.  1.
       -5    1    3    3    0  502 -0.82356157152E+03  0.38027614378E+02  0.18278942853E+04  0.20052230224E+04  0.46999998093E+01 0. -1.
</event>
<event>
 5   0  0.2622205E-07  0.3381310E+04  0.7818609E-02  0.8142509E-01
        1   -1    0    0  501    0  0.00000000000E+00  0.00000000000E+00  0.14906919044E+04  0.14906919045E+04  0.50400001928E-02 0.  1.
       -1   -1    0    0    0  501  0.00000000000E+00  0.00000000000E+00 -0.19174414937E+04  0.19174414937E+04  0.50400001928E-02 0. -1.
    10030    2    1    2    0    0  0.00000000000E+00  0.00000000000E+00 -0.42674958926E+03  0.34081333982E+04  0.33813101082E+04 0.  0.
        3    1    3    3  502    0 -0.52108474847E+03  0.24398183867E+03  0.13889714860E+04  0.15034288316E+04  0.10100000352E+00 0.  1.
       -3    1    3    3    0  502  0.52108474847E+03 -0.24398183867E+03 -0.18157210752E+04  0.19047045666E+04  0.10100000352E+00 0. -1.
</event>
<event>
 5   0  0.7899402E-07  0.3412402E+04  0.7818609E-02  0.8134869E-01
        2   -1    0    0  501    0  0.00000000000E+00  0.00000000000E+00  0.21091039692E+04  0.21091039692E+04  0.25500000920E-02 0. -1.
       -2   -1    0    0    0  501  0.00000000000E+00  0.00000000000E+00 -0.13802647334E+04  0.13802647334E+04  0.25500000920E-02 0.  1.
    10030    2    1    2    0    0  0.00000000000E+00  0.00000000000E+00  0.72883923581E+03  0.34893687026E+04  0.34124019856E+04 0.  0.
        2    1    3    3  502    0  0.65431043871E+03 -0.65671052511E+02  0.19743144976E+04  0.20809499208E+04  0.25500000920E-02 0. -1.
       -2    1    3    3    0  502 -0.65431043871E+03  0.65671052511E+02 -0.12454752618E+04  0.14084187818E+04  0.25500000920E-02 0.  1.
</event>
<event>
 5   0  0.7822003E-07  0.3402558E+04  0.7818609E-02  0.8137279E-01
       -2   -1    0    0    0  501  0.00000000000E+00  0.00000000000E+00  0.18923695673E+04  0.18923695673E+04  0.25500000920E-02 0.  1.
        2   -1    0    0  501    0  0.00000000000E+00  0.00000000000E+00 -0.15294844877E+04  0.15294844877E+04  0.25500000920E-02 0. -1.
    10030    2    1    2    0    0  0.00000000000E+00  0.00000000000E+00  0.36288507951E+03  0.34218540550E+04  0.34025578015E+04 0.  0.
        5    1    3    3  502    0 -0.11979394792E+04 -0.37868605218E+03 -0.97217473829E+03  0.15885867725E+04  0.46999998093E+01 0. -1.
       -5    1    3    3    0  502  0.11979394792E+04  0.37868605218E+03  0.13350598178E+04  0.18332672825E+04  0.46999998093E+01 0.  1.
</event>
<event>
 5   0  0.7838333E-07  0.3402952E+04  0.7818609E-02  0.8137182E-01
        2   -1    0    0  501    0  0.00000000000E+00  0.00000000000E+00  0.26546603072E+04  0.26546603072E+04  0.25500000920E-02 0. -1.
       -2   -1    0    0    0  501  0.00000000000E+00  0.00000000000E+00 -0.10905427145E+04  0.10905427145E+04  0.25500000920E-02 0.  1.
    10030    2    1    2    0    0  0.00000000000E+00  0.00000000000E+00  0.15641175927E+04  0.37452030217E+04  0.34029519288E+04 0.  0.
        1    1    3    3  502    0 -0.75400242152E+03  0.14453819040E+04  0.13182679907E+04  0.20965397672E+04  0.50400001928E-02 0. -1.
       -1    1    3    3    0  502  0.75400242152E+03 -0.14453819040E+04  0.24584960195E+03  0.16486632545E+04  0.50400001928E-02 0.  1.
</event>
<event>
 5   0  0.7610412E-07  0.3425305E+04  0.7818609E-02  0.8131724E-01
       -2   -1    0    0    0  501  0.00000000000E+00  0.00000000000E+00  0.20781473663E+04  0.20781473663E+04  0.25500000920E-02 0. -1.
        2   -1    0    0  501    0  0.00000000000E+00  0.00000000000E+00 -0.14114388155E+04  0.14114388155E+04  0.25500000920E-02 0.  1.
    10030    2    1    2    0    0  0.00000000000E+00  0.00000000000E+00  0.66670855076E+03  0.34895861818E+04  0.34253045745E+04 0.  0.
        4    1    3    3  502    0  0.44955235454E+03 -0.41787359754E+03  0.19622537538E+04  0.20560051241E+04  0.12699999809E+01 0. -1.
       -4    1    3    3    0  502 -0.44955235454E+03  0.41787359754E+03 -0.12955452030E+04  0.14335810577E+04  0.12699999809E+01 0.  1.
</event>
<event>
 5   0  0.7822003E-07  0.3405694E+04  0.7818609E-02  0.8136510E-01
        2   -1    0    0  501    0  0.00000000000E+00  0.00000000000E+00  0.18437603122E+04  0.18437603122E+04  0.25500000920E-02 0.  1.
       -2   -1    0    0    0  501  0.00000000000E+00  0.00000000000E+00 -0.15727029669E+04  0.15727029669E+04  0.25500000920E-02 0. -1.
    10030    2    1    2    0    0  0.00000000000E+00  0.00000000000E+00  0.27105734528E+03  0.34164632791E+04  0.34056936523E+04 0.  0.
        5    1    3    3  502    0  0.51717185863E+03 -0.14465831849E+04  0.87242326502E+03  0.17666958101E+04  0.46999998093E+01 0. -1.
       -5    1    3    3    0  502 -0.51717185863E+03  0.14465831849E+04 -0.60136591974E+03  0.16497674690E+04  0.46999998093E+01 0.  1.
</event>
<event>
 5   0  0.8489228E-07  0.3406007E+04  0.7818609E-02  0.8136434E-01
       -2   -1    0    0    0  501  0.00000000000E+00  0.00000000000E+00  0.19166053575E+04  0.19166053575E+04  0.25500000920E-02 0.  1.
        2   -1    0    0  501    0  0.00000000000E+00  0.00000000000E+00 -0.15132072373E+04  0.15132072373E+04  0.25500000920E-02 0. -1.
    10030    2    1    2    0    0  0.00000000000E+00  0.00000000000E+00  0.40339812019E+03  0.34298125948E+04  0.34060071040E+04 0.  0.
        3    1    3    3  502    0 -0.21729993536E+03 -0.13556229116E+04  0.12163567293E+04  0.18342454698E+04  0.10100000352E+00 0.  1.
       -3    1    3    3    0  502  0.21729993536E+03  0.13556229116E+04 -0.81295860909E+03  0.15955671251E+04  0.10100000352E+00 0. -1.
</event>
<event>
 5   0  0.2592200E-07  0.3472009E+04  0.7818609E-02  0.8120456E-01
        1   -1    0    0  501    0  0.00000000000E+00  0.00000000000E+00  0.16525762704E+04  0.16525762704E+04  0.50400001928E-02 0.  1.
       -1   -1    0    0    0  501  0.00000000000E+00  0.00000000000E+00 -0.18236449888E+04  0.18236449888E+04  0.50400001928E-02 0. -1.
    10030    2    1    2    0    0  0.00000000000E+00  0.00000000000E+00 -0.17106871845E+03  0.34762212592E+04  0.34720094667E+04 0.  0.
        4    1    3    3  502    0  0.67952673122E+03  0.41883107805E+03 -0.16290057962E+04  0.18140665775E+04  0.12699999809E+01 0. -1.
       -4    1    3    3    0  502 -0.67952673122E+03 -0.41883107805E+03  0.14579370778E+04  0.16621546818E+04  0.12699999809E+01 0.  1.
</event>
<event>
 5   0  0.7822003E-07  0.3384221E+04  0.7818609E-02  0.8141790E-01
        2   -1    0    0  501    0  0.00000000000E+00  0.00000000000E+00  0.23038926331E+04  0.23038926331E+04  0.25500000920E-02 0.  1.
       -2   -1    0    0    0  501  0.00000000000E+00  0.00000000000E+00 -0.12427828182E+04  0.12427828182E+04  0.25500000920E-02 0. -1.
    10030    2    1    2    0    0  0.00000000000E+00  0.00000000000E+00  0.10611098149E+04  0.35466754513E+04  0.33842211390E+04 0.  0.
        5    1    3    3  502    0 -0.49925763201E+03 -0.15585554095E+04  0.79958583011E+02  0.16385263540E+04  0.46999998093E+01 0.  1.
       -5    1    3    3    0  502  0.49925763201E+03  0.15585554095E+04  0.98115123185E+03  0.19081490973E+04  0.46999998093E+01 0. -1.
</event>
<event>
 5   0  0.2553250E-07  0.3396389E+04  0.7818609E-02  0.8138793E-01
       -1   -1    0    0    0  501  0.00000000000E+00  0.00000000000E+00  0.15538047095E+04  0.15538047096E+04  0.50400001928E-02 0.  1.
        1   -1    0    0  501    0  0.00000000000E+00  0.00000000000E+00 -0.18560021305E+04  0.18560021305E+04  0.50400001928E-02 0. -1.
    10030    2    1    2    0    0  0.00000000000E+00  0.00000000000E+00 -0.30219742094E+03  0.34098068401E+04  0.33963891716E+04 0.  0.
        5    1    3    3  502    0  0.10596070626E+04  0.50020897492E+03 -0.13851277864E+04  0.18142704375E+04  0.46999998093E+01 0. -1.
       -5    1    3    3    0  502 -0.10596070626E+04 -0.50020897492E+03  0.10829303654E+04  0.15955364026E+04  0.46999998093E+01 0.  1.
</event>
<event>
 5   0  0.2553250E-07  0.3404664E+04  0.7818609E-02  0.8136763E-01
        1   -1    0    0  501    0  0.00000000000E+00  0.00000000000E+00  0.28050233906E+04  0.28050233906E+04  0.50400001928E-02 0. -1.
       -1   -1    0    0    0  501  0.00000000000E+00  0.00000000000E+00 -0.10331230166E+04  0.10331230166E+04  0.50400001928E-02 0.  1.
    10030    2    1    2    0    0  0.00000000000E+00  0.00000000000E+00  0.17719003740E+04  0.38381464072E+04  0.34046639934E+04 0.  0.
        5    1    3    3  502    0 -0.13893434929E+04 -0.44018605316E+02 -0.22186727283E+03  0.14076434760E+04  0.46999998093E+01 0.  1.
       -5    1    3    3    0  502  0.13893434929E+04  0.44018605316E+02  0.19937676468E+04  0.24305029312E+04  0.46999998093E+01 0. -1.
</event>
<event>
 5   0  0.2553250E-07  0.3403728E+04  0.7818609E-02  0.8136992E-01
        1   -1    0    0  501    0  0.00000000000E+00  0.00000000000E+00  0.28185502647E+04  0.28185502647E+04  0.50400001928E-02 0. -1.
       -1   -1    0    0    0  501  0.00000000000E+00  0.00000000000E+00 -0.10275994431E+04  0.10275994431E+04  0.50400001928E-02 0.  1.
    10030    2    1    2    0    0  0.00000000000E+00  0.00000000000E+00  0.17909508216E+04  0.38461497078E+04  0.34037277696E+04 0.  0.
        5    1    3    3  502    0 -0.15156597267E+04 -0.51257378956E+03  0.24012281981E+03  0.16179114176E+04  0.46999998093E+01 0.  1.
       -5    1    3    3    0  502  0.15156597267E+04  0.51257378956E+03  0.15508280017E+04  0.22282382902E+04  0.46999998093E+01 0. -1.
</event>
<event>
 5   0  0.2641442E-07  0.3327329E+04  0.7818609E-02  0.8155976E-01
        1   -1    0    0  501    0  0.00000000000E+00  0.00000000000E+00  0.83914069789E+03  0.83914069790E+03  0.50400001928E-02 0. -1.
       -1   -1    0    0    0  501  0.00000000000E+00  0.00000000000E+00 -0.32983505856E+04  0.32983505856E+04  0.50400001928E-02 0.  1.
    10030    2    1    2    0    0  0.00000000000E+00  0.00000000000E+00 -0.24592098877E+04  0.41374912835E+04  0.33273293870E+04 0.  0.
        1    1    3    3  502    0  0.22074362895E+03 -0.63559838724E+03 -0.31216134852E+04  0.31933029625E+04  0.50400001928E-02 0.  1.
       -1    1    3    3    0  502 -0.22074362895E+03  0.63559838724E+03  0.66240359745E+03  0.94418832101E+03  0.50400001928E-02 0. -1.
</event>
<event>
 5   0  0.8489228E-07  0.3408523E+04  0.7818609E-02  0.8135818E-01
        2   -1    0    0  501    0  0.00000000000E+00  0.00000000000E+00  0.25082221919E+04  0.25082221919E+04  0.25500000920E-02 0.  1.
       -2   -1    0    0    0  501  0.00000000000E+00  0.00000000000E+00 -0.11579945102E+04  0.11579945102E+04  0.25500000920E-02 0. -1.
    10030    2    1    2    0    0  0.00000000000E+00  0.00000000000E+00  0.13502276817E+04  0.36662167021E+04  0.34085231573E+04 0.  0.
        3    1    3    3  502    0 -0.94180767844E+03  0.17152018738E+03  0.21917085486E+04  0.23916536643E+04  0.10100000352E+00 0.  1.
       -3    1    3    3    0  502  0.94180767844E+03 -0.17152018738E+03 -0.84148086685E+03  0.12745630378E+04  0.10100000352E+00 0. -1.
</event>
<event>
 5   0  0.7822003E-07  0.3400272E+04  0.7818609E-02  0.8137840E-01
       -2   -1    0    0    0  501  0.00000000000E+00  0.00000000000E+00  0.21598424503E+04  0.21598424503E+04  0.25500000920E-02 0.  1.
        2   -1    0    0  501    0  0.00000000000E+00  0.00000000000E+00 -0.13382747443E+04  0.13382747443E+04  0.25500000920E-02 0. -1.
    10030    2    1    2    0    0  0.00000000000E+00  0.00000000000E+00  0.82156770603E+03  0.34981171947E+04  0.34002721085E+04 0.  0.
        5    1    3    3  502    0  0.10283719723E+04 -0.29778212558E+03 -0.94790805888E+03  0.14299562531E+04  0.46999998093E+01 0. -1.
       -5    1    3    3    0  502 -0.10283719723E+04  0.29778212558E+03  0.17694757649E+04  0.20681609416E+04  0.46999998093E+01 0.  1.
</event>
<event>
 5   0  0.2592200E-07  0.3413152E+04  0.7818609E-02  0.8134686E-01
       -1   -1    0    0    0  501  0.00000000000E+00  0.00000000000E+00  0.13589192224E+04  0.13589192224E+04  0.50400001928E-02 0.  1.
        1   -1    0    0  501    0  0.00000000000E+00  0.00000000000E+00 -0.21431748273E+04  0.21431748273E+04  0.50400001928E-02 0. -1.
    10030    2    1    2    0    0  0.00000000000E+00  0.00000000000E+00 -0.78425560487E+03  0.35020940497E+04  0.34131518980E+04 0.  0.
        4    1    3    3  502    0 -0.12334313333E+04  0.90768261636E+03  0.38059674052E+03  0.15780038269E+04  0.12699999809E+01 0.  1.
       -4    1    3    3    0  502  0.12334313333E+04 -0.90768261636E+03 -0.11648523454E+04  0.19240902228E+04  0.12699999809E+01 0. -1.
</event>
<event>
 5   0  0.7899402E-07  0.3096804E+04  0.7818609E-02  0.8216616E-01
        2   -1    0    0  501    0  0.00000000000E+00  0.00000000000E+00  0.76125018082E+03  0.76125018083E+03  0.25500000920E-02 0. -1.
       -2   -1    0    0    0  501  0.00000000000E+00  0.00000000000E+00 -0.31494881150E+04  0.31494881150E+04  0.25500000920E-02 0.  1.
    10030    2    1    2    0    0  0.00000000000E+00  0.00000000000E+00 -0.23882379342E+04  0.39107382958E+04  0.30968037697E+04 0.  0.
        2    1    3    3  502    0  0.96772688066E+03  0.12073576328E+04 -0.12671082547E+04  0.19999427737E+04  0.25500000920E-02 0.  1.
       -2    1    3    3    0  502 -0.96772688066E+03 -0.12073576328E+04 -0.11211296795E+04  0.19107955221E+04  0.25500000920E-02 0. -1.
</event>
<event>
 5   0  0.7899402E-07  0.3396599E+04  0.7818609E-02  0.8138741E-01
       -2   -1    0    0    0  501  0.00000000000E+00  0.00000000000E+00  0.10365978624E+04  0.10365978624E+04  0.25500000920E-02 0.  1.
        2   -1    0    0  501    0  0.00000000000E+00  0.00000000000E+00 -0.27823920805E+04  0.27823920805E+04  0.25500000920E-02 0. -1.
    10030    2    1    2    0    0  0.00000000000E+00  0.00000000000E+00 -0.17457942181E+04  0.38189899429E+04  0.33965992893E+04 0.  0.
        2    1    3    3  502    0  0.16771748871E+04  0.10241167316E+03 -0.59561616851E+03  0.17827401305E+04  0.25500000920E-02 0. -1.
       -2    1    3    3    0  502 -0.16771748871E+04 -0.10241167316E+03 -0.11501780496E+04  0.20362498124E+04  0.25500000920E-02 0.  1.
</event>
<event>
 5   0  0.2641442E-07  0.3464451E+04  0.7818609E-02  0.8122267E-01
       -1   -1    0    0    0  501  0.00000000000E+00  0.00000000000E+00  0.14499507414E+04  0.14499507414E+04  0.50400001928E-02 0. -1.
        1   -1    0    0  501    0  0.00000000000E+00  0.00000000000E+00 -0.20694530897E+04  0.20694530897E+04  0.50400001928E-02 0.  1.
    10030    2    1    2    0    0  0.00000000000E+00  0.00000000000E+00 -0.61950234833E+03  0.35194038311E+04  0.34644509185E+04 0.  0.
        1    1    3    3  502    0  0.41952043884E+03  0.47390450337E+03 -0.19477863156E+04  0.20480367204E+04  0.50400001928E-02 0.  1.
       -1    1    3    3    0  502 -0.41952043884E+03 -0.47390450337E+03  0.13282839672E+04  0.14713671107E+04  0.50400001928E-02 0. -1.
</event>
<event>
 5   0  0.7822003E-07  0.3471560E+04  0.7818609E-02  0.8120563E-01
        2   -1    0    0  501    0  0.00000000000E+00  0.00000000000E+00  0.15204242017E+04  0.15204242017E+04  0.25500000920E-02 0. -1.
       -2   -1    0    0    0  501  0.00000000000E+00  0.00000000000E+00 -0.19816391439E+04  0.19816391439E+04  0.25500000920E-02 0.  1.
    10030    2    1    2    0    0  0.00000000000E+00  0.00000000000E+00 -0.46121494219E+03  0.35020633455E+04  0.34715599452E+04 0.  0.
        5    1    3    3  502    0 -0.52375148413E+03 -0.49585778638E+03 -0.18233149916E+04  0.19607881604E+04  0.46999998093E+01 0.  1.
       -5    1    3    3    0  502  0.52375148413E+03  0.49585778638E+03  0.13621000494E+04  0.15412751851E+04  0.46999998093E+01 0. -1.
</event>
<event>
 5   0  0.2622205E-07  0.3393998E+04  0.7818609E-02  0.8139381E-01
       -1   -1    0    0    0  501  0.00000000000E+00  0.00000000000E+00  0.11588118899E+04  0.11588118899E+04  0.50400001928E-02 0. -1.
        1   -1    0    0  501    0  0.00000000000E+00  0.00000000000E+00 -0.24851358228E+04  0.24851358228E+04  0.50400001928E-02 0.  1.
    10030    2    1    2    0    0  0.00000000000E+00  0.00000000000E+00 -0.13263239329E+04  0.36439477127E+04  0.33939976072E+04 0.  0.
        3    1    3    3  502    0 -0.97776170087E+03 -0.56862267539E+03 -0.20214202770E+04  0.23163526582E+04  0.10100000352E+00 0.  1.
       -3    1    3    3    0  502  0.97776170087E+03  0.56862267539E+03  0.69509634417E+03  0.13275950544E+04  0.10100000352E+00 0. -1.
</event>
<event>
 5   0  0.7610412E-07  0.3432818E+04  0.7818609E-02  0.8129898E-01
       -2   -1    0    0    0  501  0.00000000000E+00  0.00000000000E+00  0.17615068429E+04  0.17615068429E+04  0.25500000920E-02 0. -1.
        2   -1    0    0  501    0  0.00000000000E+00  0.00000000000E+00 -0.16724655550E+04  0.16724655550E+04  0.25500000920E-02 0.  1.
    10030    2    1    2    0    0  0.00000000000E+00  0.00000000000E+00  0.89041287877E+02  0.34339723979E+04  0.34328178045E+04 0.  0.
        4    1    3    3  502    0 -0.17012767784E+03  0.70173692929E+03  0.16021826963E+04  0.17573756428E+04  0.12699999809E+01 0. -1.
       -4    1    3    3    0  502  0.17012767784E+03 -0.70173692929E+03 -0.15131414084E+04  0.16765967551E+04  0.12699999809E+01 0.  1.
</event>
<event>
 5   0  0.7822003E-07  0.3408234E+04  0.7818609E-02  0.8135888E-01
       -2   -1    0    0    0  501  0.00000000000E+00  0.00000000000E+00  0.10713230639E+04  0.10713230639E+04  0.25500000920E-02 0. -1.
        2   -1    0    0  501    0  0.00000000000E+00  0.00000000000E+00 -0.27106802337E+04  0.27106802337E+04  0.25500000920E-02 0.  1.
    10030    2    1    2    0    0  0.00000000000E+00  0.00000000000E+00 -0.16393571698E+04  0.37820032976E+04  0.34082337087E+04 0.  0.
        5    1    3    3  502    0  0.64616136723E+03  0.10211471221E+04  0.51364314015E+03  0.13130564812E+04  0.46999998093E+01 0. -1.
       -5    1    3    3    0  502 -0.64616136723E+03 -0.10211471221E+04 -0.21530003099E+04  0.24689468164E+04  0.46999998093E+01 0.  1.
</event>
<event>
 5   0  0.2641442E-07  0.3281251E+04  0.7818609E-02  0.8167683E-01
        1   -1    0    0  501    0  0.00000000000E+00  0.00000000000E+00  0.17819236846E+04  0.17819236846E+04  0.50400001928E-02 0. -1.
       -1   -1    0    0    0  501  0.00000000000E+00  0.00000000000E+00 -0.15105313137E+04  0.15105313137E+04  0.50400001928E-02 0.  1.
    10030    2    1    2    0    0  0.00000000000E+00  0.00000000000E+00  0.27139237090E+03  0.32924549983E+04  0.32812506910E+04 0.  0.
        1    1    3    3  502    0 -0.65215646720E+03 -0.10741083544E+04  0.11941130166E+04  0.17334712894E+04  0.50400001928E-02 0. -1.
       -1    1    3    3    0  502  0.65215646720E+03  0.10741083544E+04 -0.92272064566E+03  0.15589837089E+04  0.50400001928E-02 0.  1.
</event>
<event>
 5   0  0.2641442E-07  0.3402824E+04  0.7818609E-02  0.8137214E-01
       -1   -1    0    0    0  501  0.00000000000E+00  0.00000000000E+00  0.21949614907E+04  0.21949614907E+04  0.50400001928E-02 0. -1.
        1   -1    0    0  501    0  0.00000000000E+00  0.00000000000E+00 -0.13188397996E+04  0.13188397996E+04  0.50400001928E-02 0.  1.
    10030    2    1    2    0    0  0.00000000000E+00  0.00000000000E+00  0.87612169109E+03  0.35138012903E+04  0.34028238700E+04 0.  0.
        1    1    3    3  502    0 -0.85485613215E+02 -0.16446283854E+04 -0.33040592731E+01  0.16468519159E+04  0.50400001928E-02 0. -1.
       -1    1    3    3    0  502  0.85485613215E+02  0.16446283854E+04  0.87942575036E+03  0.18669493744E+04  0.50400001928E-02 0.  1.
</event>
<event>
 5   0  0.2622205E-07  0.3387314E+04  0.7818609E-02  0.8141027E-01
        1   -1    0    0  501    0  0.00000000000E+00  0.00000000000E+00  0.11242087358E+04  0.11242087358E+04  0.50400001928E-02 0. -1.
       -1   -1    0    0    0  501  0.00000000000E+00  0.00000000000E+00 -0.25515488729E+04  0.25515488729E+04  0.50400001928E-02 0.  1.
    10030    2    1    2    0    0  0.00000000000E+00  0.00000000000E+00 -0.14273401371E+04  0.36757576087E+04  0.33873137042E+04 0.  0.
        3    1    3    3  502    0  0.69412587354E+03 -0.48076704251E+03 -0.23068618703E+04  0.24565340169E+04  0.10100000352E+00 0.  1.
       -3    1    3    3    0  502 -0.69412587354E+03  0.48076704251E+03  0.87952173317E+03  0.12192235918E+04  0.10100000352E+00 0. -1.
</event>
<event>
 5   0  0.7610412E-07  0.3395547E+04  0.7818609E-02  0.8139000E-01
        2   -1    0    0  501    0  0.00000000000E+00  0.00000000000E+00  0.16801078006E+04  0.16801078006E+04  0.25500000920E-02 0. -1.
       -2   -1    0    0    0  501  0.00000000000E+00  0.00000000000E+00 -0.17156247322E+04  0.17156247322E+04  0.25500000920E-02 0.  1.
    10030    2    1    2    0    0  0.00000000000E+00  0.00000000000E+00 -0.35516931602E+02  0.33957325329E+04  0.33955467869E+04 0.  0.
        4    1    3    3  502    0 -0.10446714441E+04 -0.12799029358E+04  0.37334211563E+03  0.16937756343E+04  0.12699999809E+01 0. -1.
       -4    1    3    3    0  502  0.10446714441E+04  0.12799029358E+04 -0.40885904723E+03  0.17019568986E+04  0.12699999809E+01 0.  1.
</event>
<event>
 5   0  0.7838333E-07  0.3077574E+04  0.7818609E-02  0.8221920E-01
       -2   -1    0    0    0  501  0.00000000000E+00  0.00000000000E+00  0.87222973174E+03  0.87222973174E+03  0.25500000920E-02 0.  1.
        2   -1    0    0  501    0  0.00000000000E+00  0.00000000000E+00 -0.27147267885E+04  0.27147267885E+04  0.25500000920E-02 0. -1.
    10030    2    1    2    0    0  0.00000000000E+00  0.00000000000E+00 -0.18424970568E+04  0.35869565203E+04  0.30775739916E+04 0.  0.
        1    1    3    3  502    0 -0.18039937073E+03  0.14754417225E+04 -0.45738963465E+03  0.15552097889E+04  0.50400001928E-02 0.  1.
       -1    1    3    3    0  502  0.18039937073E+03 -0.14754417225E+04 -0.13851074222E+04  0.20317467314E+04  0.50400001928E-02 0. -1.
</event>
<event>
 5   0  0.2553250E-07  0.3289320E+04  0.7818609E-02  0.8165618E-01
       -4   -1    0    0    0  501  0.00000000000E+00  0.00000000000E+00  0.14348442501E+04  0.14348448121E+04  0.12699999809E+01 0. -1.
        4   -1    0    0  501    0  0.00000000000E+00  0.00000000000E+00 -0.18851553581E+04  0.18851557859E+04  0.12699999809E+01 0.  1.
    10030    2    1    2    0    0  0.00000000000E+00  0.00000000000E+00 -0.45031110805E+03  0.33200005980E+04  0.32893196678E+04 0.  0.
        2    1    3    3  502    0  0.13091184189E+04  0.78110218846E+03  0.39784914530E+03  0.15754985261E+04  0.25500000920E-02 0. -1.
       -2    1    3    3    0  502 -0.13091184189E+04 -0.78110218846E+03 -0.84816025335E+03  0.17445020719E+04  0.25500000920E-02 0.  1.
</event>
<event>
 5   0  0.2599367E-07  0.3391446E+04  0.7818609E-02  0.8140009E-01
        1   -1    0    0  501    0  0.00000000000E+00  0.00000000000E+00  0.94221488822E+03  0.94221488823E+03  0.50400001928E-02 0.  1.
       -1   -1    0    0    0  501  0.00000000000E+00  0.00000000000E+00 -0.30518262728E+04  0.30518262728E+04  0.50400001928E-02 0. -1.
    10030    2    1    2    0    0  0.00000000000E+00  0.00000000000E+00 -0.21096113846E+04  0.39940411610E+04  0.33914457982E+04 0.  0.
        2    1    3    3  502    0 -0.47020613986E+02 -0.16060738285E+04 -0.16931392704E+04  0.23341817988E+04  0.25500000920E-02 0. -1.
       -2    1    3    3    0  502  0.47020613986E+02  0.16060738285E+04 -0.41647211418E+03  0.16598593623E+04  0.25500000920E-02 0.  1.
</event>
<event>
 5   0  0.2553250E-07  0.3401123E+04  0.7818609E-02  0.8137631E-01
        1   -1    0    0  501    0  0.00000000000E+00  0.00000000000E+00  0.14636496004E+04  0.14636496004E+04  0.50400001928E-02 0.  1.
       -1   -1    0    0    0  501  0.00000000000E+00  0.00000000000E+00 -0.19758203680E+04  0.19758203680E+04  0.50400001928E-02 0. -1.
    10030    2    1    2    0    0  0.00000000000E+00  0.00000000000E+00 -0.51217076759E+03  0.34394699684E+04  0.34011225748E+04 0.  0.
        5    1    3    3  502    0 -0.77947604078E+03 -0.10755238082E+04  0.81774966369E+03  0.15598304275E+04  0.46999998093E+01 0.  1.
       -5    1    3    3    0  502  0.77947604078E+03  0.10755238082E+04 -0.13299204313E+04  0.18796395409E+04  0.46999998093E+01 0. -1.
</event>
<event>
 5   0  0.7610412E-07  0.3178585E+04  0.7818609E-02  0.8194496E-01
        2   -1    0    0  501    0  0.00000000000E+00  0.00000000000E+00  0.25069925765E+04  0.25069925765E+04  0.25500000920E-02 0.  1.
       -2   -1    0    0    0  501  0.00000000000E+00  0.00000000000E+00 -0.10075224901E+04  0.10075224901E+04  0.25500000920E-02 0. -1.
    10030    2    1    2    0    0  0.00000000000E+00  0.00000000000E+00  0.14994700865E+04  0.35145150666E+04  0.31785854736E+04 0.  0.
        4    1    3    3  502    0 -0.10173390489E+04 -0.98225825123E+03 -0.52202984226E+02  0.14151101643E+04  0.12699999809E+01 0. -1.
       -4    1    3    3    0  502  0.10173390489E+04  0.98225825123E+03  0.15516730707E+04  0.20994049023E+04  0.12699999809E+01 0.  1.
</event>
<event>
 5   0  0.2622205E-07  0.3396847E+04  0.7818609E-02  0.8138681E-01
        1   -1    0    0  501    0  0.00000000000E+00  0.00000000000E+00  0.17603106424E+04  0.17603106424E+04  0.50400001928E-02 0. -1.
       -1   -1    0    0    0  501  0.00000000000E+00  0.00000000000E+00 -0.16387123221E+04  0.16387123221E+04  0.50400001928E-02 0.  1.
    10030    2    1    2    0    0  0.00000000000E+00  0.00000000000E+00  0.12159832034E+03  0.33990229645E+04  0.33968472091E+04 0.  0.
        3    1    3    3  502    0 -0.14272567319E+04 -0.70215407427E+03 -0.53503215889E+03  0.16781959194E+04  0.10100000352E+00 0.  1.
       -3    1    3    3    0  502  0.14272567319E+04  0.70215407427E+03  0.65663047923E+03  0.17208270451E+04  0.10100000352E+00 0. -1.
</event>
<event>
 5   0  0.7610412E-07  0.3438702E+04  0.7818609E-02  0.8128472E-01
       -2   -1    0    0    0  501  0.00000000000E+00  0.00000000000E+00  0.16824287932E+04  0.16824287932E+04  0.25500000920E-02 0.  1.
        2   -1    0    0  501    0  0.00000000000E+00  0.00000000000E+00 -0.17570831971E+04  0.17570831971E+04  0.25500000920E-02 0. -1.
    10030    2    1    2    0    0  0.00000000000E+00  0.00000000000E+00 -0.74654403844E+02  0.34395119903E+04  0.34387017101E+04 0.  0.
        4    1    3    3  502    0  0.11285801424E+04 -0.18422389652E+03  0.12469278996E+04  0.16918813143E+04  0.12699999809E+01 0.  1.
       -4    1    3    3    0  502 -0.11285801424E+04  0.18422389652E+03 -0.13215823035E+04  0.17476306760E+04  0.12699999809E+01 0. -1.
</event>
<event>
 5   0  0.2622205E-07  0.3407548E+04  0.7818609E-02  0.8136056E-01
        1   -1    0    0  501    0  0.00000000000E+00  0.00000000000E+00  0.16189283239E+04  0.16189283240E+04  0.50400001928E-02 0.  1.
       -1   -1    0    0    0  501  0.00000000000E+00  0.00000000000E+00 -0.17930660503E+04  0.17930660503E+04  0.50400001928E-02 0. -1.
    10030    2    1    2    0    0  0.00000000000E+00  0.00000000000E+00 -0.17413772635E+03  0.34119943743E+04  0.34075477491E+04 0.  0.
        3    1    3    3  502    0  0.52654262125E+03  0.10265982692E+04 -0.13423771354E+04  0.17700642706E+04  0.10100000352E+00 0. -1.
       -3    1    3    3    0  502 -0.52654262125E+03 -0.10265982692E+04  0.11682394090E+04  0.16419301037E+04  0.10100000352E+00 0.  1.
</event>
<event>
 5   0  0.2622205E-07  0.3407637E+04  0.7818609E-02  0.8136034E-01
       -1   -1    0    0    0  501  0.00000000000E+00  0.00000000000E+00  0.21635285386E+04  0.21635285386E+04  0.50400001928E-02 0. -1.
        1   -1    0    0  501    0  0.00000000000E+00  0.00000000000E+00 -0.13417884045E+04  0.13417884045E+04  0.50400001928E-02 0.  1.
    10030    2    1    2    0    0  0.00000000000E+00  0.00000000000E+00  0.82174013408E+03  0.35053169431E+04  0.34076370146E+04 0.  0.
        3    1    3    3  502    0 -0.57427412382E+03  0.15714546655E+03 -0.12312968888E+04  0.13676905738E+04  0.10100000352E+00 0.  1.
       -3    1    3    3    0  502  0.57427412382E+03 -0.15714546655E+03  0.20530370229E+04  0.21376263693E+04  0.10100000352E+00 0. -1.
</event>
<event>
 5   0  0.7610412E-07  0.3383595E+04  0.7818609E-02  0.8141944E-01
        2   -1    0    0  501    0  0.00000000000E+00  0.00000000000E+00  0.24108733946E+04  0.24108733946E+04  0.25500000920E-02 0. -1.
       -2   -1    0    0    0  501  0.00000000000E+00  0.00000000000E+00 -0.11871956971E+04  0.11871956971E+04  0.25500000920E-02 0.  1.
    10030    2    1    2    0    0  0.00000000000E+00  0.00000000000E+00  0.12236776975E+04  0.35980690916E+04  0.33835948458E+04 0.  0.
        4    1    3    3  502    0 -0.54897004901E+03 -0.15929234042E+04  0.77451898439E+03  0.18543609025E+04  0.12699999809E+01 0.  1.
       -4    1    3    3    0  502  0.54897004901E+03  0.15929234042E+04  0.44915871313E+03  0.17437081892E+04  0.12699999809E+01 0. -1.
</event>
<event>
 5   0  0.7838333E-07  0.3353412E+04  0.7818609E-02  0.8149436E-01
       -2   -1    0    0    0  501  0.00000000000E+00  0.00000000000E+00  0.29760549382E+04  0.29760549382E+04  0.25500000920E-02 0.  1.
        2   -1    0    0  501    0  0.00000000000E+00  0.00000000000E+00 -0.94465403358E+03  0.94465403358E+03  0.25500000920E-02 0. -1.
    10030    2    1    2    0    0  0.00000000000E+00  0.00000000000E+00  0.20314009046E+04  0.39207089718E+04  0.33534115772E+04 0.  0.
        1    1    3    3  502    0  0.16423096062E+04  0.24536723987E+03  0.12872812971E+04  0.21010661730E+04  0.50400001928E-02 0. -1.
       -1    1    3    3    0  502 -0.16423096062E+04 -0.24536723987E+03  0.74411960748E+03  0.18196427988E+04  0.50400001928E-02 0.  1.
</event>
<event>
 5   0  0.7899402E-07  0.3407458E+04  0.7818609E-02  0.8136078E-01
        2   -1    0    0  501    0  0.00000000000E+00  0.00000000000E+00  0.19565079972E+04  0.19565079972E+04  0.25500000920E-02 0. -1.
       -2   -1    0    0    0  501  0.00000000000E+00  0.00000000000E+00 -0.14836089336E+04  0.14836089336E+04  0.25500000920E-02 0.  1.
    10030    2    1    2    0    0  0.00000000000E+00  0.00000000000E+00  0.47289906364E+03  0.34401169308E+04  0.34074581396E+04 0.  0.
        2    1    3    3  502    0 -0.12322521577E+04  0.90015892034E+03 -0.52841403354E+03  0.16149157417E+04  0.25500000920E-02 0.  1.
       -2    1    3    3    0  502  0.12322521577E+04 -0.90015892034E+03  0.10013130972E+04  0.18252011891E+04  0.25500000920E-02 0. -1.
</event>
<event>
 5   0  0.7610412E-07  0.3383036E+04  0.7818609E-02  0.8142082E-01
        2   -1    0    0  501    0  0.00000000000E+00  0.00000000000E+00  0.30305872364E+04  0.30305872364E+04  0.25500000920E-02 0.  1.
       -2   -1    0    0    0  501  0.00000000000E+00  0.00000000000E+00 -0.94411832744E+03  0.94411832744E+03  0.25500000920E-02 0. -1.
    10030    2    1    2    0    0  0.00000000000E+00  0.00000000000E+00  0.20864689090E+04  0.39747055639E+04  0.33830358868E+04 0.  0.
        4    1    3    3  502    0  0.10028405671E+04  0.80615668941E+03 -0.24682468186E+03  0.13101533679E+04  0.12699999809E+01 0. -1.
       -4    1    3    3    0  502 -0.10028405671E+04 -0.80615668941E+03  0.23332935909E+04  0.26645521960E+04  0.12699999809E+01 0.  1.
</event>
<event>
 5   0  0.2641442E-07  0.3396655E+04  0.7818609E-02  0.8138728E-01
       -1   -1    0    0    0  501  0.00000000000E+00  0.00000000000E+00  0.14003506271E+04  0.14003506271E+04  0.50400001928E-02 0.  1.
        1   -1    0    0  501    0  0.00000000000E+00  0.00000000000E+00 -0.20597097860E+04  0.20597097860E+04  0.50400001928E-02 0. -1.
    10030    2    1    2    0    0  0.00000000000E+00  0.00000000000E+00 -0.65935915884E+03  0.34600604131E+04  0.33966547605E+04 0.  0.
        1    1    3    3  502    0 -0.81732602433E+03  0.46974493290E+02 -0.18454368517E+04  0.20188773135E+04  0.50400001928E-02 0. -1.
       -1    1    3    3    0  502  0.81732602433E+03 -0.46974493290E+02  0.11860776929E+04  0.14411830996E+04  0.50400001928E-02 0.  1.
</event>
<event>
 5   0  0.2622205E-07  0.3405056E+04  0.7818609E-02  0.8136667E-01
       -1   -1    0    0    0  501  0.00000000000E+00  0.00000000000E+00  0.20339669617E+04  0.20339669618E+04  0.50400001928E-02 0.  1.
        1   -1    0    0  501    0  0.00000000000E+00  0.00000000000E+00 -0.14250973745E+04  0.14250973745E+04  0.50400001928E-02 0. -1.
    10030    2    1    2    0    0  0.00000000000E+00  0.00000000000E+00  0.60886958729E+03  0.34590643362E+04  0.34050556395E+04 0.  0.
        3    1    3    3  502    0  0.10742147331E+04  0.10737868501E+03 -0.10329316881E+04  0.14941269548E+04  0.10100000352E+00 0. -1.
       -3    1    3    3    0  502 -0.10742147331E+04 -0.10737868501E+03  0.16418012754E+04  0.19649373814E+04  0.10100000352E+00 0.  1.
</event>
<event>
 5   0  0.7899402E-07  0.2970701E+04  0.7818609E-02  0.8252147E-01
       -2   -1    0    0    0  501  0.00000000000E+00  0.00000000000E+00  0.12758651802E+04  0.12758651802E+04  0.25500000920E-02 0. -1.
        2   -1    0    0  501    0  0.00000000000E+00  0.00000000000E+00 -0.17292309016E+04  0.17292309016E+04  0.25500000920E-02 0.  1.
    10030    2    1    2    0    0  0.00000000000E+00  0.00000000000E+00 -0.45336572135E+03  0.30050960818E+04  0.29707005880E+04 0.  0.
        2    1    3    3  502    0 -0.54719083052E+03 -0.84894887045E+03  0.87502454081E+03  0.13363382568E+04  0.25500000920E-02 0. -1.
       -2    1    3    3    0  502  0.54719083052E+03  0.84894887045E+03 -0.13283902622E+04  0.16687578249E+04  0.25500000920E-02 0.  1.
</event>
<event>
 5   0  0.2599367E-07  0.3585883E+04  0.7818609E-02  0.8093733E-01
        1   -1    0    0  501    0  0.00000000000E+00  0.00000000000E+00  0.18735253606E+04  0.18735253606E+04  0.50400001928E-02 0.  1.
       -1   -1    0    0    0  501  0.00000000000E+00  0.00000000000E+00 -0.17158237455E+04  0.17158237456E+04  0.50400001928E-02 0. -1.
    10030    2    1    2    0    0  0.00000000000E+00  0.00000000000E+00  0.15770161508E+03  0.35893491062E+04  0.35858830442E+04 0.  0.
        2    1    3    3  502    0 -0.88123608662E+03 -0.85853905283E+03  0.13843249805E+04  0.18520318564E+04  0.25500000920E-02 0.  1.
       -2    1    3    3    0  502  0.88123608662E+03  0.85853905283E+03 -0.12266233654E+04  0.17373172497E+04  0.25500000920E-02 0. -1.
</event>
<event>
 5   0  0.2592200E-07  0.3400843E+04  0.7818609E-02  0.8137699E-01
       -1   -1    0    0    0  501  0.00000000000E+00  0.00000000000E+00  0.12423235009E+04  0.12423235009E+04  0.50400001928E-02 0.  1.
        1   -1    0    0  501    0  0.00000000000E+00  0.00000000000E+00 -0.23274404539E+04  0.23274404539E+04  0.50400001928E-02 0. -1.
    10030    2    1    2    0    0  0.00000000000E+00  0.00000000000E+00 -0.10851169530E+04  0.35697639547E+04  0.34008434088E+04 0.  0.
        4    1    3    3  502    0  0.11708145672E+04  0.10617070810E+04  0.11581461973E+03  0.15847533926E+04  0.12699999809E+01 0.  1.
       -4    1    3    3    0  502 -0.11708145672E+04 -0.10617070810E+04 -0.12009315727E+04  0.19850105621E+04  0.12699999809E+01 0. -1.
</event>
<event>
 5   0  0.2592200E-07  0.3421345E+04  0.7818609E-02  0.8132687E-01
       -1   -1    0    0    0  501  0.00000000000E+00  0.00000000000E+00  0.14185992900E+04  0.14185992900E+04  0.50400001928E-02 0.  1.
        1   -1    0    0  501    0  0.00000000000E+00  0.00000000000E+00 -0.20628804359E+04  0.20628804359E+04  0.50400001928E-02 0. -1.
    10030    2    1    2    0    0  0.00000000000E+00  0.00000000000E+00 -0.64428114588E+03  0.34814797260E+04  0.34213451868E+04 0.  0.
        4    1    3    3  502    0 -0.14439967771E+04  0.57966237022E+03  0.40117220117E+03  0.16068839110E+04  0.12699999809E+01 0.  1.
       -4    1    3    3    0  502  0.14439967771E+04 -0.57966237022E+03 -0.10454533470E+04  0.18745958149E+04  0.12699999809E+01 0. -1.
</event>
<event>
 5   0  0.7899402E-07  0.3384111E+04  0.7818609E-02  0.8141817E-01
       -2   -1    0    0    0  501  0.00000000000E+00  0.00000000000E+00  0.16564971688E+04  0.16564971688E+04  0.25500000920E-02 0.  1.
        2   -1    0    0  501    0  0.00000000000E+00  0.00000000000E+00 -0.17283774784E+04  0.17283774784E+04  0.25500000920E-02 0. -1.
    10030    2    1    2    0    0  0.00000000000E+00  0.00000000000E+00 -0.71880309578E+02  0.33848746472E+04  0.33841113455E+04 0.  0.
        2    1    3    3  502    0 -0.78508573642E+02 -0.10494370380E+04 -0.13612185217E+04  0.17205805872E+04  0.25500000920E-02 0. -1.
       -2    1    3    3    0  502  0.78508573642E+02  0.10494370380E+04  0.12893382122E+04  0.16642940601E+04  0.25500000920E-02 0.  1.
</event>
<event>
 5   0  0.2641442E-07  0.3400754E+04  0.7818609E-02  0.8137721E-01
       -1   -1    0    0    0  501  0.00000000000E+00  0.00000000000E+00  0.26993705064E+04  0.26993705064E+04  0.50400001928E-02 0.  1.
        1   -1    0    0  501    0  0.00000000000E+00  0.00000000000E+00 -0.10710946141E+04  0.10710946141E+04  0.50400001928E-02 0. -1.
    10030    2    1    2    0    0  0.00000000000E+00  0.00000000000E+00  0.16282758923E+04  0.37704651204E+04  0.34007535699E+04 0.  0.
        1    1    3    3  502    0  0.68744785871E+02  0.15569216579E+04  0.60089488131E+02  0.15595966276E+04  0.50400001928E-02 0. -1.
       -1    1    3    3    0  502 -0.68744785871E+02 -0.15569216579E+04  0.15681864042E+04  0.22108684928E+04  0.50400001928E-02 0.  1.
</event>
<event>
 5   0  0.7899402E-07  0.3392683E+04  0.7818609E-02  0.8139705E-01
        2   -1    0    0  501    0  0.00000000000E+00  0.00000000000E+00  0.22639078609E+04  0.22639078609E+04  0.25500000920E-02 0.  1.
       -2   -1    0    0    0  501  0.00000000000E+00  0.00000000000E+00 -0.12710649186E+04  0.12710649186E+04  0.25500000920E-02 0. -1.
    10030    2    1    2    0    0  0.00000000000E+00  0.00000000000E+00  0.99284294235E+03  0.35349727795E+04  0.33926826323E+04 0.  0.
        2    1    3    3  502    0 -0.72352977767E+03  0.10472681689E+04  0.16647464479E+04  0.20956256089E+04  0.25500000920E-02 0.  1.
       -2    1    3    3    0  502  0.72352977767E+03 -0.10472681689E+04 -0.67190350553E+03  0.14393471706E+04  0.25500000920E-02 0. -1.
</event>
<event>
 5   0  0.7899402E-07  0.3406334E+04  0.7818609E-02  0.8136353E-01
       -2   -1    0    0    0  501  0.00000000000E+00  0.00000000000E+00  0.13227357554E+04  0.13227357554E+04  0.25500000920E-02 0.  1.
        2   -1    0    0  501    0  0.00000000000E+00  0.00000000000E+00 -0.21930141825E+04  0.21930141825E+04  0.25500000920E-02 0. -1.
    10030    2    1    2    0    0  0.00000000000E+00  0.00000000000E+00 -0.87027842718E+03  0.35157499379E+04  0.34063342592E+04 0.  0.
        2    1    3    3  502    0  0.90954430644E+02 -0.11699697771E+04 -0.17091616290E+04  0.20732427407E+04  0.25500000920E-02 0. -1.
       -2    1    3    3    0  502 -0.90954430644E+02  0.11699697771E+04  0.83888320185E+03  0.14425071972E+04  0.25500000920E-02 0.  1.
</event>
<event>
 5   0  0.7899402E-07  0.3382969E+04  0.7818609E-02  0.8142099E-01
        2   -1    0    0  501    0  0.00000000000E+00  0.00000000000E+00  0.16190223175E+04  0.16190223175E+04  0.25500000920E-02 0. -1.
       -2   -1    0    0    0  501  0.00000000000E+00  0.00000000000E+00 -0.17671895960E+04  0.17671895960E+04  0.25500000920E-02 0.  1.
    10030    2    1    2    0    0  0.00000000000E+00  0.00000000000E+00 -0.14816727846E+03  0.33862119135E+04  0.33829687526E+04 0.  0.
        2    1    3    3  502    0  0.48062906106E+03  0.44450555910E+03 -0.16352358247E+04  0.17614158194E+04  0.25500000920E-02 0.  1.
       -2    1    3    3    0  502 -0.48062906106E+03 -0.44450555910E+03  0.14870685462E+04  0.16247960941E+04  0.25500000920E-02 0. -1.
</event>
<event>
 5   0  0.7838333E-07  0.3379162E+04  0.7818609E-02  0.8143040E-01
        2   -1    0    0  501    0  0.00000000000E+00  0.00000000000E+00  0.15911573165E+04  0.15911573165E+04  0.25500000920E-02 0. -1.
       -2   -1    0    0    0  501  0.00000000000E+00  0.00000000000E+00 -0.17940927587E+04  0.17940927587E+04  0.25500000920E-02 0.  1.
    10030    2    1    2    0    0  0.00000000000E+00  0.00000000000E+00 -0.20293544217E+03  0.33852500752E+04  0.33791619195E+04 0.  0.
        1    1    3    3  502    0 -0.55512615526E+03 -0.10686629902E+03 -0.16965355715E+04  0.17882445022E+04  0.50400001928E-02 0.  1.
       -1    1    3    3    0  502  0.55512615526E+03  0.10686629902E+03  0.14936001293E+04  0.15970055731E+04  0.50400001928E-02 0. -1.
</event>
<event>
 5   0  0.2599367E-07  0.3409288E+04  0.7818609E-02  0.8135631E-01
       -1   -1    0    0    0  501  0.00000000000E+00  0.00000000000E+00  0.11505328191E+04  0.11505328191E+04  0.50400001928E-02 0. -1.
        1   -1    0    0  501    0  0.00000000000E+00  0.00000000000E+00 -0.25256220368E+04  0.25256220368E+04  0.50400001928E-02 0.  1.
    10030    2    1    2    0    0  0.00000000000E+00  0.00000000000E+00 -0.13750892177E+04  0.36761548559E+04  0.34092879269E+04 0.  0.
        2    1    3    3  502    0 -0.47857421830E+03  0.12876939053E+04  0.40072544365E+03  0.14310030598E+04  0.25500000920E-02 0. -1.
       -2    1    3    3    0  502  0.47857421830E+03 -0.12876939053E+04 -0.17758146613E+04  0.22451517961E+04  0.25500000920E-02 0.  1.
</event>
<event>
 5   0  0.7610412E-07  0.3326443E+04  0.7818609E-02  0.8156199E-01
        2   -1    0    0  501    0  0.00000000000E+00  0.00000000000E+00  0.24040552686E+04  0.24040552686E+04  0.25500000920E-02 0.  1.
       -2   -1    0    0    0  501  0.00000000000E+00  0.00000000000E+00 -0.11506829119E+04  0.11506829119E+04  0.25500000920E-02 0. -1.
    10030    2    1    2    0    0  0.00000000000E+00  0.00000000000E+00  0.12533723566E+04  0.35547381805E+04  0.33264427348E+04 0.  0.
        4    1    3    3  502    0 -0.80526019706E+03 -0.11662154372E+04  0.15569480751E+04  0.21053720223E+04  0.12699999809E+01 0.  1.
       -4    1    3    3    0  502  0.80526019706E+03  0.11662154372E+04 -0.30357571840E+03  0.14493661582E+04  0.12699999809E+01 0. -1.
</event>
<event>
 5   0  0.7822003E-07  0.3391959E+04  0.7818609E-02  0.8139883E-01
       -2   -1    0    0    0  501  0.00000000000E+00  0.00000000000E+00  0.21571582202E+04  0.21571582202E+04  0.25500000920E-02 0. -1.
        2   -1    0    0  501    0  0.00000000000E+00  0.00000000000E+00 -0.13333962721E+04  0.13333962721E+04  0.25500000920E-02 0.  1.
    10030    2    1    2    0    0  0.00000000000E+00  0.00000000000E+00  0.82376194816E+03  0.34905544923E+04  0.33919591561E+04 0.  0.
        5    1    3    3  502    0 -0.58607796782E+03  0.12984112453E+04 -0.53517722117E+03  0.15217739301E+04  0.46999998093E+01 0.  1.
       -5    1    3    3    0  502  0.58607796782E+03 -0.12984112453E+04  0.13589391693E+04  0.19687805622E+04  0.46999998093E+01 0. -1.
</event>
<event>
 5   0  0.2622205E-07  0.3409004E+04  0.7818609E-02  0.8135700E-01
        1   -1    0    0  501    0  0.00000000000E+00  0.00000000000E+00  0.13636898917E+04  0.13636898917E+04  0.50400001928E-02 0.  1.
       -1   -1    0    0    0  501  0.00000000000E+00  0.00000000000E+00 -0.21304892313E+04  0.21304892313E+04  0.50400001928E-02 0. -1.
    10030    2    1    2    0    0  0.00000000000E+00  0.00000000000E+00 -0.76679933961E+03  0.34941791230E+04  0.34090037425E+04 0.  0.
        3    1    3    3  502    0 -0.14383264437E+04  0.68641958026E+02 -0.13182357873E+04  0.19522398106E+04  0.10100000352E+00 0. -1.
       -3    1    3    3    0  502  0.14383264437E+04 -0.68641958026E+02  0.55143644769E+03  0.15419393124E+04  0.10100000352E+00 0.  1.
</event>
<event>
 5   0  0.7822003E-07  0.3421922E+04  0.7818609E-02  0.8132547E-01
       -2   -1    0    0    0  501  0.00000000000E+00  0.00000000000E+00  0.29116344472E+04  0.29116344472E+04  0.25500000920E-02 0.  1.
        2   -1    0    0  501    0  0.00000000000E+00  0.00000000000E+00 -0.10054104302E+04  0.10054104302E+04  0.25500000920E-02 0. -1.
    10030    2    1    2    0    0  0.00000000000E+00  0.00000000000E+00  0.19062240170E+04  0.39170448774E+04  0.34219220576E+04 0.  0.
        5    1    3    3  502    0  0.95203536453E+03  0.12992234244E+04  0.29254201950E+03  0.16370570439E+04  0.46999998093E+01 0.  1.
       -5    1    3    3    0  502 -0.95203536453E+03 -0.12992234244E+04  0.16136819976E+04  0.22799878335E+04  0.46999998093E+01 0. -1.
</event>
<event>
 5   0  0.2553250E-07  0.3352099E+04  0.7818609E-02  0.8149764E-01
       -1   -1    0    0    0  501  0.00000000000E+00  0.00000000000E+00  0.18818430038E+04  0.18818430038E+04  0.50400001928E-02 0.  1.
        1   -1    0    0  501    0  0.00000000000E+00  0.00000000000E+00 -0.14927610852E+04  0.14927610852E+04  0.50400001928E-02 0. -1.
    10030    2    1    2    0    0  0.00000000000E+00  0.00000000000E+00  0.38908191854E+03  0.33746040890E+04  0.33520990466E+04 0.  0.
        5    1    3    3  502    0 -0.14927092945E+02  0.32782499254E+03  0.18491777400E+04  0.18780767950E+04  0.46999998093E+01 0.  1.
       -5    1    3    3    0  502  0.14927092945E+02 -0.32782499254E+03 -0.14600958215E+04  0.14965272940E+04  0.46999998093E+01 0. -1.
</event>
<event>
 5   0  0.7822003E-07  0.3406250E+04  0.7818609E-02  0.8136374E-01
        2   -1    0    0  501    0  0.00000000000E+00  0.00000000000E+00  0.17771415326E+04  0.17771415327E+04  0.25500000920E-02 0.  1.
       -2   -1    0    0    0  501  0.00000000000E+00  0.00000000000E+00 -0.16321908205E+04  0.16321908205E+04  0.25500000920E-02 0. -1.
    10030    2    1    2    0    0  0.00000000000E+00  0.00000000000E+00  0.14495071220E+03  0.34093323531E+04  0.34062496070E+04 0.  0.
        5    1    3    3  502    0 -0.10894310879E+04  0.69771178373E+03 -0.10362049529E+04  0.16575296748E+04  0.46999998093E+01 0. -1.
       -5    1    3    3    0  502  0.10894310879E+04 -0.69771178373E+03  0.11811556651E+04  0.17518026783E+04  0.46999998093E+01 0.  1.
</event>
<event>
 5   0  0.7899402E-07  0.3083974E+04  0.7818609E-02  0.8220150E-01
        2   -1    0    0  501    0  0.00000000000E+00  0.00000000000E+00  0.14915852386E+04  0.14915852386E+04  0.25500000920E-02 0.  1.
       -2   -1    0    0    0  501  0.00000000000E+00  0.00000000000E+00 -0.15940923554E+04  0.15940923554E+04  0.25500000920E-02 0. -1.
    10030    2    1    2    0    0  0.00000000000E+00  0.00000000000E+00 -0.10250711687E+03  0.30856775940E+04  0.30839744657E+04 0.  0.
        2    1    3    3  502    0  0.29036811694E+03 -0.41487487831E+03 -0.15085227287E+04  0.15912497073E+04  0.25500000920E-02 0. -1.
       -2    1    3    3    0  502 -0.29036811694E+03  0.41487487831E+03  0.14060156118E+04  0.14944278867E+04  0.25500000920E-02 0.  1.
</event>
<event>
 5   0  0.2641442E-07  0.3425342E+04  0.7818609E-02  0.8131715E-01
        1   -1    0    0  501    0  0.00000000000E+00  0.00000000000E+00  0.23166251475E+04  0.23166251475E+04  0.50400001928E-02 0.  1.
       -1   -1    0    0    0  501  0.00000000000E+00  0.00000000000E+00 -0.12661699726E+04  0.12661699726E+04  0.50400001928E-02 0. -1.
    10030    2    1    2    0    0  0.00000000000E+00  0.00000000000E+00  0.10504551749E+04  0.35827951201E+04  0.34253415593E+04 0.  0.
        1    1    3    3  502    0  0.10869908678E+04  0.93588687700E+03  0.15040919018E+04  0.20783950160E+04  0.50400001928E-02 0.  1.
       -1    1    3    3    0  502 -0.10869908678E+04 -0.93588687700E+03 -0.45363672691E+03  0.15044001041E+04  0.50400001928E-02 0. -1.
</event>
<event>
 5   0  0.2622205E-07  0.3393428E+04  0.7818609E-02  0.8139521E-01
        1   -1    0    0  501    0  0.00000000000E+00  0.00000000000E+00  0.19840354495E+04  0.19840354496E+04  0.50400001928E-02 0.  1.
       -1   -1    0    0    0  501  0.00000000000E+00  0.00000000000E+00 -0.14510018873E+04  0.14510018873E+04  0.50400001928E-02 0. -1.
    10030    2    1    2    0    0  0.00000000000E+00  0.00000000000E+00  0.53303356224E+03  0.34350373369E+04  0.33934284621E+04 0.  0.
        3    1    3    3  502    0  0.13849013974E+04  0.68712770134E+03 -0.44115675617E+03  0.16077050887E+04  0.10100000352E+00 0.  1.
       -3    1    3    3    0  502 -0.13849013974E+04 -0.68712770134E+03  0.97419031841E+03  0.18273322482E+04  0.10100000352E+00 0. -1.
</event>
<event>
 5   0  0.7610412E-07  0.3151625E+04  0.7818609E-02  0.8201711E-01
       -2   -1    0    0    0  501  0.00000000000E+00  0.00000000000E+00  0.10172854508E+04  0.10172854508E+04  0.25500000920E-02 0. -1.
        2   -1    0    0  501    0  0.00000000000E+00  0.00000000000E+00 -0.24409909034E+04  0.24409909034E+04  0.25500000920E-02 0.  1.
    10030    2    1    2    0    0  0.00000000000E+00  0.00000000000E+00 -0.14237054525E+04  0.34582763542E+04  0.31516246805E+04 0.  0.
        4    1    3    3  502    0 -0.14622032549E+04 -0.23069315115E+03 -0.13047248327E+04  0.19732121504E+04  0.12699999809E+01 0.  1.
       -4    1    3    3    0  502  0.14622032549E+04  0.23069315115E+03 -0.11898061986E+03  0.14850642038E+04  0.12699999809E+01 0. -1.
</event>
<event>
 5   0  0.7610412E-07  0.3371116E+04  0.7818609E-02  0.8145032E-01
        2   -1    0    0  501    0  0.00000000000E+00  0.00000000000E+00  0.28907921831E+04  0.28907921831E+04  0.25500000920E-02 0. -1.
       -2   -1    0    0    0  501  0.00000000000E+00  0.00000000000E+00 -0.98281231374E+03  0.98281231375E+03  0.25500000920E-02 0.  1.
    10030    2    1    2    0    0  0.00000000000E+00  0.00000000000E+00  0.19079798693E+04  0.38736044968E+04  0.33711162270E+04 0.  0.
        4    1    3    3  502    0  0.48462836997E+03  0.62475598101E+03 -0.75649232386E+03  0.10942883266E+04  0.12699999809E+01 0.  1.
       -4    1    3    3    0  502 -0.48462836997E+03 -0.62475598101E+03  0.26644721932E+04  0.27793161702E+04  0.12699999809E+01 0. -1.
</event>
<event>
 5   0  0.7838333E-07  0.3365677E+04  0.7818609E-02  0.8146382E-01
        2   -1    0    0  501    0  0.00000000000E+00  0.00000000000E+00  0.24348073659E+04  0.24348073659E+04  0.25500000920E-02 0.  1.
       -2   -1    0    0    0  501  0.00000000000E+00  0.00000000000E+00 -0.11631088893E+04  0.11631088893E+04  0.25500000920E-02 0. -1.
    10030    2    1    2    0    0  0.00000000000E+00  0.00000000000E+00  0.12716984766E+04  0.35979162553E+04  0.33656774005E+04 0.  0.
        1    1    3    3  502    0 -0.12882796863E+04  0.72751352797E+03 -0.22135822606E+03  0.14959745813E+04  0.50400001928E-02 0. -1.
       -1    1    3    3    0  502  0.12882796863E+04 -0.72751352797E+03  0.14930567026E+04  0.21019416740E+04  0.50400001928E-02 0.  1.
</event>
<event>
 5   0  0.7822003E-07  0.3384394E+04  0.7818609E-02  0.8141747E-01
       -2   -1    0    0    0  501  0.00000000000E+00  0.00000000000E+00  0.11002533698E+04  0.11002533698E+04  0.25500000920E-02 0.  1.
        2   -1    0    0  501    0  0.00000000000E+00  0.00000000000E+00 -0.26026108598E+04  0.26026108598E+04  0.25500000920E-02 0. -1.
    10030    2    1    2    0    0  0.00000000000E+00  0.00000000000E+00 -0.15023574900E+04  0.37028642296E+04  0.33843944030E+04 0.  0.
        5    1    3    3  502    0  0.13057336921E+04 -0.59838854599E+02 -0.19270115646E+04  0.23285009820E+04  0.46999998093E+01 0. -1.
       -5    1    3    3    0  502 -0.13057336921E+04  0.59838854599E+02  0.42465407466E+03  0.13743632476E+04  0.46999998093E+01 0.  1.
</event>
<event>
 5   0  0.2622205E-07  0.3358761E+04  0.7818609E-02  0.8148102E-01
        1   -1    0    0  501    0  0.00000000000E+00  0.00000000000E+00  0.15974050078E+04  0.15974050078E+04  0.50400001928E-02 0.  1.
       -1   -1    0    0    0  501  0.00000000000E+00  0.00000000000E+00 -0.17655629869E+04  0.17655629869E+04  0.50400001928E-02 0. -1.
    10030    2    1    2    0    0  0.00000000000E+00  0.00000000000E+00 -0.16815797910E+03  0.33629679948E+04  0.33587611746E+04 0.  0.
        3    1    3    3  502    0 -0.11434080445E+04 -0.14825443882E+03  0.11384981962E+04  0.16203516556E+04  0.10100000352E+00 0.  1.
       -3    1    3    3    0  502  0.11434080445E+04  0.14825443882E+03 -0.13066561753E+04  0.17426163392E+04  0.10100000352E+00 0. -1.
</event>
<event>
 5   0  0.2641442E-07  0.3384553E+04  0.7818609E-02  0.8141708E-01
        1   -1    0    0  501    0  0.00000000000E+00  0.00000000000E+00  0.22873796447E+04  0.22873796447E+04  0.50400001928E-02 0. -1.
       -1   -1    0    0    0  501  0.00000000000E+00  0.00000000000E+00 -0.12520003798E+04  0.12520003798E+04  0.50400001928E-02 0.  1.
    10030    2    1    2    0    0  0.00000000000E+00  0.00000000000E+00  0.10353792649E+04  0.35393800246E+04  0.33845532550E+04 0.  0.
        1    1    3    3  502    0 -0.27417105882E+02  0.18583431192E+03 -0.12410640393E+04  0.12551996012E+04  0.50400001928E-02 0.  1.
       -1    1    3    3    0  502  0.27417105882E+02 -0.18583431192E+03  0.22764433042E+04  0.22841804234E+04  0.50400001928E-02 0. -1.
</event>
<event>
 5   0  0.7899402E-07  0.3369462E+04  0.7818609E-02  0.8145442E-01
        2   -1    0    0  501    0  0.00000000000E+00  0.00000000000E+00  0.18967514759E+04  0.18967514759E+04  0.25500000920E-02 0.  1.
       -2   -1    0    0    0  501  0.00000000000E+00  0.00000000000E+00 -0.14964099518E+04  0.14964099518E+04  0.25500000920E-02 0. -1.
    10030    2    1    2    0    0  0.00000000000E+00  0.00000000000E+00  0.40034152411E+03  0.33931614277E+04  0.33694615502E+04 0.  0.
        2    1    3    3  502    0 -0.30297194380E+03  0.54071372579E+03  0.17777637323E+04  0.18827127290E+04  0.25500000920E-02 0.  1.
       -2    1    3    3    0  502  0.30297194380E+03 -0.54071372579E+03 -0.13774222082E+04  0.15104486987E+04  0.25500000920E-02 0. -1.
</event>
<event>
 5   0  0.2553250E-07  0.3463556E+04  0.7818609E-02  0.8122482E-01
       -1   -1    0    0    0  501  0.00000000000E+00  0.00000000000E+00  0.16853050755E+04  0.16853050755E+04  0.50400001928E-02 0. -1.
        1   -1    0    0  501    0  0.00000000000E+00  0.00000000000E+00 -0.17795319723E+04  0.17795319723E+04  0.50400001928E-02 0.  1.
    10030    2    1    2    0    0  0.00000000000E+00  0.00000000000E+00 -0.94226896871E+02  0.34648370478E+04  0.34635555517E+04 0.  0.
        5    1    3    3  502    0  0.25601714335E+02 -0.17278870128E+04  0.65991190906E+02  0.17293426219E+04  0.46999998093E+01 0. -1.
       -5    1    3    3    0  502 -0.25601714335E+02  0.17278870128E+04 -0.16021808778E+03  0.17354944259E+04  0.46999998093E+01 0.  1.
</event>
<event>
 5   0  0.2622205E-07  0.3403338E+04  0.7818609E-02  0.8137088E-01
       -1   -1    0    0    0  501  0.00000000000E+00  0.00000000000E+00  0.26727052344E+04  0.26727052345E+04  0.50400001928E-02 0.  1.
        1   -1    0    0  501    0  0.00000000000E+00  0.00000000000E+00 -0.10834257304E+04  0.10834257305E+04  0.50400001928E-02 0. -1.
    10030    2    1    2    0    0  0.00000000000E+00  0.00000000000E+00  0.15892795040E+04  0.37561309649E+04  0.34033381383E+04 0.  0.
        3    1    3    3  502    0  0.14889370173E+02  0.38750783688E+02 -0.10828667935E+04  0.10836622257E+04  0.10100000352E+00 0. -1.
       -3    1    3    3    0  502 -0.14889370173E+02 -0.38750783688E+02  0.26721462975E+04  0.26724687392E+04  0.10100000352E+00 0.  1.
</event>
<event>
 5   0  0.2599367E-07  0.3296286E+04  0.7818609E-02  0.8163841E-01
       -1   -1    0    0    0  501  0.00000000000E+00  0.00000000000E+00  0.10629097943E+04  0.10629097943E+04  0.50400001928E-02 0.  1.
        1   -1    0    0  501    0  0.00000000000E+00  0.00000000000E+00 -0.25556033294E+04  0.25556033294E+04  0.50400001928E-02 0. -1.
    10030    2    1    2    0    0  0.00000000000E+00  0.00000000000E+00 -0.14926935351E+04  0.36185131237E+04  0.32962862795E+04 0.  0.
        2    1    3    3  502    0 -0.43476767687E+03 -0.85356880089E+03  0.72594346497E+03  0.12019137012E+04  0.25500000920E-02 0.  1.
       -2    1    3    3    0  502  0.43476767687E+03  0.85356880089E+03 -0.22186370001E+04  0.24165994225E+04  0.25500000920E-02 0. -1.
</event>
<event>
 5   0  0.7899402E-07  0.3379638E+04  0.7818609E-02  0.8142922E-01
        2   -1    0    0  501    0  0.00000000000E+00  0.00000000000E+00  0.20552608995E+04  0.20552608995E+04  0.25500000920E-02 0.  1.
       -2   -1    0    0    0  501  0.00000000000E+00  0.00000000000E+00 -0.13893559864E+04  0.13893559864E+04  0.25500000920E-02 0. -1.
    10030    2    1    2    0    0  0.00000000000E+00  0.00000000000E+00  0.66590491309E+03  0.34446168859E+04  0.33796384625E+04 0.  0.
        2    1    3    3  502    0 -0.14686960978E+04 -0.76021733214E+03  0.68674357913E+03  0.17907024776E+04  0.25500000920E-02 0.  1.
       -2    1    3    3    0  502  0.14686960978E+04  0.76021733214E+03 -0.20838666032E+02  0.16539144083E+04  0.25500000920E-02 0. -1.
</event>
<event>
 5   0  0.8489228E-07  0.3499554E+04  0.7818609E-02  0.8113896E-01
        2   -1    0    0  501    0  0.00000000000E+00  0.00000000000E+00  0.16763887799E+04  0.16763887799E+04  0.25500000920E-02 0.  1.
       -2   -1    0    0    0  501  0.00000000000E+00  0.00000000000E+00 -0.18263782562E+04  0.18263782562E+04  0.25500000920E-02 0. -1.
    10030    2    1    2    0    0  0.00000000000E+00  0.00000000000E+00 -0.14998947624E+03  0.35027670361E+04  0.34995542668E+04 0.  0.
        3    1    3    3  502    0 -0.15035434711E+03 -0.11517571476E+04 -0.13848477621E+04  0.18074717954E+04  0.10100000352E+00 0.  1.
       -3    1    3    3    0  502  0.15035434711E+03  0.11517571476E+04  0.12348582859E+04  0.16952952407E+04  0.10100000352E+00 0. -1.
</event>
<event>
 5   0  0.2553250E-07  0.3391180E+04  0.7818609E-02  0.8140074E-01
        1   -1    0    0  501    0  0.00000000000E+00  0.00000000000E+00  0.22964474741E+04  0.22964474741E+04  0.50400001928E-02 0.  1.
       -1   -1    0    0    0  501  0.00000000000E+00  0.00000000000E+00 -0.12519449505E+04  0.12519449505E+04  0.50400001928E-02 0. -1.
    10030    2    1    2    0    0  0.00000000000E+00  0.00000000000E+00  0.10445025236E+04  0.35483924246E+04  0.33911802189E+04 0.  0.
        5    1    3    3  502    0 -0.47584727327E+03 -0.82817147173E+03  0.19881646129E+04  0.22057015283E+04  0.46999998093E+01 0.  1.
       -5    1    3    3    0  502  0.47584727327E+03  0.82817147173E+03 -0.94366208932E+03  0.13426908963E+04  0.46999998093E+01 0. -1.
</event>
<event>
 5   0  0.2641442E-07  0.3401394E+04  0.7818609E-02  0.8137564E-01
        1   -1    0    0  501    0  0.00000000000E+00  0.00000000000E+00  0.23439029620E+04  0.23439029620E+04  0.50400001928E-02 0. -1.
       -1   -1    0    0    0  501  0.00000000000E+00  0.00000000000E+00 -0.12339975577E+04  0.12339975578E+04  0.50400001928E-02 0.  1.
    10030    2    1    2    0    0  0.00000000000E+00  0.00000000000E+00  0.11099054043E+04  0.35779005198E+04  0.34013941440E+04 0.  0.
        1    1    3    3  502    0 -0.72128685345E+01  0.15117893438E+04 -0.26445152038E+03  0.15347617575E+04  0.50400001928E-02 0.  1.
       -1    1    3    3    0  502  0.72128685345E+01 -0.15117893438E+04  0.13743569246E+04  0.20431387623E+04  0.50400001928E-02 0. -1.
</event>
<event>
 5   0  0.2622205E-07  0.3256124E+04  0.7818609E-02  0.8174150E-01
        1   -1    0    0  501    0  0.00000000000E+00  0.00000000000E+00  0.14583162584E+04  0.14583162584E+04  0.50400001928E-02 0. -1.
       -1   -1    0    0    0  501  0.00000000000E+00  0.00000000000E+00 -0.18175659708E+04  0.18175659708E+04  0.50400001928E-02 0.  1.
    10030    2    1    2    0    0  0.00000000000E+00  0.00000000000E+00 -0.35924971238E+03  0.32758822292E+04  0.32561240799E+04 0.  0.
        3    1    3    3  502    0 -0.39081819309E+03 -0.84123644063E+03 -0.15257154075E+04  0.17855601709E+04  0.10100000352E+00 0.  1.
       -3    1    3    3    0  502  0.39081819309E+03  0.84123644063E+03  0.11664656952E+04  0.14903220582E+04  0.10100000352E+00 0. -1.
</event>
<event>
 5   0  0.7822003E-07  0.3404595E+04  0.7818609E-02  0.8136779E-01
        2   -1    0    0  501    0  0.00000000000E+00  0.00000000000E+00  0.17666078068E+04  0.17666078068E+04  0.25500000920E-02 0. -1.
       -2   -1    0    0    0  501  0.00000000000E+00  0.00000000000E+00 -0.16403285827E+04  0.16403285827E+04  0.25500000920E-02 0.  1.
    10030    2    1    2    0    0  0.00000000000E+00  0.00000000000E+00  0.12627922410E+03  0.34069363895E+04  0.34045952946E+04 0.  0.
        5    1    3    3  502    0 -0.93202796087E+03  0.14118374359E+04  0.25256881492E+03  0.17104894508E+04  0.46999998093E+01 0.  1.
       -5    1    3    3    0  502  0.93202796087E+03 -0.14118374359E+04 -0.12628959082E+03  0.16964469387E+04  0.46999998093E+01 0. -1.
</event>
<event>
 5   0  0.2553250E-07  0.3452590E+04  0.7818609E-02  0.8125118E-01
       -3   -1    0    0    0  501  0.00000000000E+00  0.00000000000E+00  0.26672175523E+04  0.26672175542E+04  0.10100000352E+00 0.  1.
        3   -1    0    0  501    0  0.00000000000E+00  0.00000000000E+00 -0.11173048465E+04  0.11173048511E+04  0.10100000352E+00 0. -1.
    10030    2    1    2    0    0  0.00000000000E+00  0.00000000000E+00  0.15499127058E+04  0.37845224053E+04  0.34525903957E+04 0.  0.
        1    1    3    3  502    0 -0.10887424070E+04 -0.12484535024E+04  0.13075709141E+04  0.21103880856E+04  0.50400001928E-02 0.  1.
       -1    1    3    3    0  502  0.10887424070E+04  0.12484535024E+04  0.24234179167E+03  0.16741343197E+04  0.50400001928E-02 0. -1.
</event>
<event>
 5   0  0.7899402E-07  0.3392140E+04  0.7818609E-02  0.8139838E-01
        2   -1    0    0  501    0  0.00000000000E+00  0.00000000000E+00  0.15171064813E+04  0.15171064813E+04  0.25500000920E-02 0. -1.
       -2   -1    0    0    0  501  0.00000000000E+00  0.00000000000E+00 -0.18961443348E+04  0.18961443348E+04  0.25500000920E-02 0.  1.
    10030    2    1    2    0    0  0.00000000000E+00  0.00000000000E+00 -0.37903785353E+03  0.34132508161E+04  0.33921396550E+04 0.  0.
        2    1    3    3  502    0  0.15832612293E+03  0.13359593443E+04 -0.12288062791E+04  0.18220371573E+04  0.25500000920E-02 0.  1.
       -2    1    3    3    0  502 -0.15832612293E+03 -0.13359593443E+04  0.84976842557E+03  0.15912136588E+04  0.25500000920E-02 0. -1.
</event>
<event>
 5   0  0.7899402E-07  0.3404393E+04  0.7818609E-02  0.8136829E-01
       -2   -1    0    0    0  501  0.00000000000E+00  0.00000000000E+00  0.25869695749E+04  0.25869695749E+04  0.25500000920E-02 0. -1.
        2   -1    0    0  501    0  0.00000000000E+00  0.00000000000E+00 -0.11200258819E+04  0.11200258819E+04  0.25500000920E-02 0.  1.
    10030    2    1    2    0    0  0.00000000000E+00  0.00000000000E+00  0.14669436930E+04  0.37069954568E+04  0.34043929735E+04 0.  0.
        2    1    3    3  502    0 -0.13857252997E+04  0.32138558317E+03 -0.28447606885E+03  0.14506722349E+04  0.25500000920E-02 0.  1.
       -2    1    3    3    0  502  0.13857252997E+04 -0.32138558317E+03  0.17514197618E+04  0.22563232219E+04  0.25500000920E-02 0. -1.
</event>
<event>
 5   0  0.7822003E-07  0.3431386E+04  0.7818609E-02  0.8130246E-01
        2   -1    0    0  501    0  0.00000000000E+00  0.00000000000E+00  0.13881239034E+04  0.13881239034E+04  0.25500000920E-02 0. -1.
       -2   -1    0    0    0  501  0.00000000000E+00  0.00000000000E+00 -0.21205619991E+04  0.21205619991E+04  0.25500000920E-02 0.  1.
    10030    2    1    2    0    0  0.00000000000E+00  0.00000000000E+00 -0.73243809571E+03  0.35086859024E+04  0.34313861919E+04 0.  0.
        5    1    3    3  502    0  0.30100811301E+03 -0.15673821555E+04 -0.10099143739E+04  0.18887143347E+04  0.46999998093E+01 0.  1.
       -5    1    3    3    0  502 -0.30100811301E+03  0.15673821555E+04  0.27747627819E+03  0.16199715678E+04  0.46999998093E+01 0. -1.
</event>
<event>
 5   0  0.7838333E-07  0.3413340E+04  0.7818609E-02  0.8134640E-01
       -2   -1    0    0    0  501  0.00000000000E+00  0.00000000000E+00  0.12155285722E+04  0.12155285722E+04  0.25500000920E-02 0.  1.
        2   -1    0    0  501    0  0.00000000000E+00  0.00000000000E+00 -0.23962605240E+04  0.23962605240E+04  0.25500000920E-02 0. -1.
    10030    2    1    2    0    0  0.00000000000E+00  0.00000000000E+00 -0.11807319518E+04  0.36117890963E+04  0.34133403777E+04 0.  0.
        1    1    3    3  502    0  0.12759220211E+04 -0.89382283091E+03 -0.13279025350E+04  0.20470030286E+04  0.50400001928E-02 0. -1.
       -1    1    3    3    0  502 -0.12759220211E+04  0.89382283091E+03  0.14717058317E+03  0.15647860676E+04  0.50400001928E-02 0.  1.
</event>
<event>
 5   0  0.7899402E-07  0.3297399E+04  0.7818609E-02  0.8163558E-01
        2   -1    0    0  501    0  0.00000000000E+00  0.00000000000E+00  0.21746372581E+04  0.21746372581E+04  0.25500000920E-02 0.  1.
       -2   -1    0    0    0  501  0.00000000000E+00  0.00000000000E+00 -0.12499601000E+04  0.12499601000E+04  0.25500000920E-02 0. -1.
    10030    2    1    2    0    0  0.00000000000E+00  0.00000000000E+00  0.92467715812E+03  0.34245973580E+04  0.32973988564E+04 0.  0.
        2    1    3    3  502    0  0.79966604897E+03 -0.11706391946E+04 -0.41176185692E+03  0.14762824054E+04  0.25500000920E-02 0. -1.
       -2    1    3    3    0  502 -0.79966604897E+03  0.11706391946E+04  0.13364390150E+04  0.19483149526E+04  0.25500000920E-02 0.  1.
</event>
<event>
 5   0  0.7838333E-07  0.3379909E+04  0.7818609E-02  0.8142855E-01
        2   -1    0    0  501    0  0.00000000000E+00  0.00000000000E+00  0.29972678560E+04  0.29972678560E+04  0.25500000920E-02 0.  1.
       -2   -1    0    0    0  501  0.00000000000E+00  0.00000000000E+00 -0.95284982222E+03  0.95284982222E+03  0.25500000920E-02 0. -1.
    10030    2    1    2    0    0  0.00000000000E+00  0.00000000000E+00  0.20444180338E+04  0.39501176782E+04  0.33799089596E+04 0.  0.
        1    1    3    3  502    0  0.56395291364E+03 -0.12048620811E+04  0.22402504286E+04  0.26054668499E+04  0.50400001928E-02 0.  1.
       -1    1    3    3    0  502 -0.56395291364E+03  0.12048620811E+04 -0.19583239481E+03  0.13446508283E+04  0.50400001928E-02 0. -1.
</event>
<event>
 5   0  0.2592200E-07  0.3418998E+04  0.7818609E-02  0.8133259E-01
        1   -1    0    0  501    0  0.00000000000E+00  0.00000000000E+00  0.19846563504E+04  0.19846563504E+04  0.50400001928E-02 0.  1.
       -1   -1    0    0    0  501  0.00000000000E+00  0.00000000000E+00 -0.14724904885E+04  0.14724904885E+04  0.50400001928E-02 0. -1.
    10030    2    1    2    0    0  0.00000000000E+00  0.00000000000E+00  0.51216586190E+03  0.34571468388E+04  0.34189984491E+04 0.  0.
        4    1    3    3  502    0 -0.97682335732E+03  0.78576066092E+03 -0.91911658169E+03  0.15544711613E+04  0.12699999809E+01 0. -1.
       -4    1    3    3    0  502  0.97682335732E+03 -0.78576066092E+03  0.14312824436E+04  0.19026756775E+04  0.12699999809E+01 0.  1.
</event>
<event>
 5   0  0.2592200E-07  0.3403219E+04  0.7818609E-02  0.8137117E-01
       -1   -1    0    0    0  501  0.00000000000E+00  0.00000000000E+00  0.15836779673E+04  0.15836779673E+04  0.50400001928E-02 0.  1.
        1   -1    0    0  501    0  0.00000000000E+00  0.00000000000E+00 -0.18283228782E+04  0.18283228782E+04  0.50400001928E-02 0. -1.
    10030    2    1    2    0    0  0.00000000000E+00  0.00000000000E+00 -0.24464491094E+03  0.34120008456E+04  0.34032188642E+04 0.  0.
        4    1    3    3  502    0 -0.99454292305E+03 -0.12695385017E+04  0.42187599495E+03  0.16669806841E+04  0.12699999809E+01 0.  1.
       -4    1    3    3    0  502  0.99454292305E+03  0.12695385017E+04 -0.66652090590E+03  0.17450201615E+04  0.12699999809E+01 0. -1.
</event>
<event>
 5   0  0.2592200E-07  0.3583357E+04  0.7818609E-02  0.8094315E-01
        1   -1    0    0  501    0  0.00000000000E+00  0.00000000000E+00  0.25507296062E+04  0.25507296062E+04  0.50400001928E-02 0. -1.
       -1   -1    0    0    0  501  0.00000000000E+00  0.00000000000E+00 -0.12585076030E+04  0.12585076030E+04  0.50400001928E-02 0.  1.
    10030    2    1    2    0    0  0.00000000000E+00  0.00000000000E+00  0.12922220032E+04  0.38092372092E+04  0.35833574215E+04 0.  0.
        4    1    3    3  502    0 -0.34587605458E+03  0.17473438111E+04  0.44088630323E+03  0.18349994509E+04  0.12699999809E+01 0.  1.
       -4    1    3    3    0  502  0.34587605458E+03 -0.17473438111E+04  0.85133570000E+03  0.19742377583E+04  0.12699999809E+01 0. -1.
</event>
<event>
 5   0  0.7610412E-07  0.3395885E+04  0.7818609E-02  0.8138917E-01
        2   -1    0    0  501    0  0.00000000000E+00  0.00000000000E+00  0.20261100676E+04  0.20261100676E+04  0.25500000920E-02 0.  1.
       -2   -1    0    0    0  501  0.00000000000E+00  0.00000000000E+00 -0.14229278182E+04  0.14229278182E+04  0.25500000920E-02 0. -1.
    10030    2    1    2    0    0  0.00000000000E+00  0.00000000000E+00  0.60318224944E+03  0.34490378858E+04  0.33958847907E+04 0.  0.
        4    1    3    3  502    0  0.12518576237E+04  0.58265625275E+03 -0.70198989895E+03  0.15490084732E+04  0.12699999809E+01 0. -1.
       -4    1    3    3    0  502 -0.12518576237E+04 -0.58265625275E+03  0.13051721484E+04  0.19000294126E+04  0.12699999809E+01 0.  1.
</event>
<event>
 5   0  0.2553250E-07  0.3386503E+04  0.7818609E-02  0.8141227E-01
       -1   -1    0    0    0  501  0.00000000000E+00  0.00000000000E+00  0.11989194442E+04  0.11989194442E+04  0.50400001928E-02 0.  1.
        1   -1    0    0  501    0  0.00000000000E+00  0.00000000000E+00 -0.23914038023E+04  0.23914038023E+04  0.50400001928E-02 0. -1.
    10030    2    1    2    0    0  0.00000000000E+00  0.00000000000E+00 -0.11924843581E+04  0.35903232464E+04  0.33865029263E+04 0.  0.
        5    1    3    3  502    0 -0.92909125357E+03 -0.13677156473E+04 -0.20927894100E+03  0.16666362574E+04  0.46999998093E+01 0.  1.
       -5    1    3    3    0  502  0.92909125357E+03  0.13677156473E+04 -0.98320541710E+03  0.19236869890E+04  0.46999998093E+01 0. -1.
</event>
<event>
 5   0  0.2599367E-07  0.3415993E+04  0.7818609E-02  0.8133992E-01
        1   -1    0    0  501    0  0.00000000000E+00  0.00000000000E+00  0.28501140524E+04  0.28501140524E+04  0.50400001928E-02 0. -1.
       -1   -1    0    0    0  501  0.00000000000E+00  0.00000000000E+00 -0.10235559484E+04  0.10235559484E+04  0.50400001928E-02 0.  1.
    10030    2    1    2    0    0  0.00000000000E+00  0.00000000000E+00  0.18265581040E+04  0.38736700009E+04  0.34159925012E+04 0.  0.
        2    1    3    3  502    0  0.97360392429E+03  0.13150824962E+04  0.14687035311E+04  0.21987352354E+04  0.25500000920E-02 0.  1.
       -2    1    3    3    0  502 -0.97360392429E+03 -0.13150824962E+04  0.35785457290E+03  0.16749347655E+04  0.25500000920E-02 0. -1.
</event>
<event>
 5   0  0.2592200E-07  0.3282994E+04  0.7818609E-02  0.8167236E-01
        1   -1    0    0  501    0  0.00000000000E+00  0.00000000000E+00  0.22805189052E+04  0.22805189052E+04  0.50400001928E-02 0. -1.
       -1   -1    0    0    0  501  0.00000000000E+00  0.00000000000E+00 -0.11815348113E+04  0.11815348113E+04  0.50400001928E-02 0.  1.
    10030    2    1    2    0    0  0.00000000000E+00  0.00000000000E+00  0.10989840939E+04  0.34620537165E+04  0.32829940447E+04 0.  0.
        4    1    3    3  502    0 -0.72582199102E+03  0.10393333599E+02  0.21020642392E+04  0.22238707838E+04  0.12699999809E+01 0. -1.
       -4    1    3    3    0  502  0.72582199102E+03 -0.10393333599E+02 -0.10030801454E+04  0.12381829328E+04  0.12699999809E+01 0.  1.
</event>
<event>
 5   0  0.2592200E-07  0.3404452E+04  0.7818609E-02  0.8136814E-01
        1   -1    0    0  501    0  0.00000000000E+00  0.00000000000E+00  0.24122784762E+04  0.24122784762E+04  0.50400001928E-02 0.  1.
       -1   -1    0    0    0  501  0.00000000000E+00  0.00000000000E+00 -0.12011771862E+04  0.12011771862E+04  0.50400001928E-02 0. -1.
    10030    2    1    2    0    0  0.00000000000E+00  0.00000000000E+00  0.12111012900E+04  0.36134556624E+04  0.34044523039E+04 0.  0.
        4    1    3    3  502    0  0.16926103424E+04 -0.17759112401E+03  0.64081505239E+03  0.18185472012E+04  0.12699999809E+01 0.  1.
       -4    1    3    3    0  502 -0.16926103424E+04  0.17759112401E+03  0.57028623762E+03  0.17949084613E+04  0.12699999809E+01 0. -1.
</event>
<event>
 5   0  0.8489228E-07  0.3394289E+04  0.7818609E-02  0.8139309E-01
        2   -1    0    0  501    0  0.00000000000E+00  0.00000000000E+00  0.20162072241E+04  0.20162072241E+04  0.25500000920E-02 0.  1.
       -2   -1    0    0    0  501  0.00000000000E+00  0.00000000000E+00 -0.14285732085E+04  0.14285732085E+04  0.25500000920E-02 0. -1.
    10030    2    1    2    0    0  0.00000000000E+00  0.00000000000E+00  0.58763401564E+03  0.34447804326E+04  0.33942890997E+04 0.  0.
        3    1    3    3  502    0  0.33083252497E+02  0.64986675806E+03  0.18845765574E+04  0.19937527720E+04  0.10100000352E+00 0.  1.
       -3    1    3    3    0  502 -0.33083252497E+02 -0.64986675806E+03 -0.12969425418E+04  0.14510276606E+04  0.10100000352E+00 0. -1.
</event>
<event>
 5   0  0.2599367E-07  0.3697432E+04  0.7818609E-02  0.8068531E-01
       -1   -1    0    0    0  501  0.00000000000E+00  0.00000000000E+00  0.14234131655E+04  0.14234131655E+04  0.50400001928E-02 0. -1.
        1   -1    0    0  501    0  0.00000000000E+00  0.00000000000E+00 -0.24010949404E+04  0.24010949404E+04  0.50400001928E-02 0.  1.
    10030    2    1    2    0    0  0.00000000000E+00  0.00000000000E+00 -0.97768177491E+03  0.38245081059E+04  0.36974316220E+04 0.  0.
        2    1    3    3  502    0 -0.15643578649E+04  0.18328902905E+03 -0.14900649241E+04  0.21682029139E+04  0.25500000920E-02 0.  1.
       -2    1    3    3    0  502  0.15643578649E+04 -0.18328902905E+03  0.51238314920E+03  0.16563051921E+04  0.25500000920E-02 0. -1.
</event>
<event>
 5   0  0.8489228E-07  0.3419860E+04  0.7818609E-02  0.8133049E-01
       -2   -1    0    0    0  501  0.00000000000E+00  0.00000000000E+00  0.23871841557E+04  0.23871841557E+04  0.25500000920E-02 0.  1.
        2   -1    0    0  501    0  0.00000000000E+00  0.00000000000E+00 -0.12248154858E+04  0.12248154858E+04  0.25500000920E-02 0. -1.
    10030    2    1    2    0    0  0.00000000000E+00  0.00000000000E+00  0.11623686699E+04  0.36119996415E+04  0.34198597172E+04 0.  0.
        3    1    3    3  502    0  0.70579273635E+03 -0.13212630269E+04 -0.28975461258E+03  0.15257251124E+04  0.10100000352E+00 0. -1.
       -3    1    3    3    0  502 -0.70579273635E+03  0.13212630269E+04  0.14521232825E+04  0.20862745291E+04  0.10100000352E+00 0.  1.
</event>
<event>
 5   0  0.2553250E-07  0.3517640E+04  0.7818609E-02  0.8109622E-01
       -1   -1    0    0    0  501  0.00000000000E+00  0.00000000000E+00  0.18641263338E+04  0.18641263338E+04  0.50400001928E-02 0.  1.
        1   -1    0    0  501    0  0.00000000000E+00  0.00000000000E+00 -0.16594625531E+04  0.16594625531E+04  0.50400001928E-02 0. -1.
    10030    2    1    2    0    0  0.00000000000E+00  0.00000000000E+00  0.20466378073E+03  0.35235888869E+04  0.35176400300E+04 0.  0.
        5    1    3    3  502    0 -0.82326684891E+03  0.25998714504E+03 -0.14325989575E+04  0.16726396752E+04  0.46999998093E+01 0. -1.
       -5    1    3    3    0  502  0.82326684891E+03 -0.25998714504E+03  0.16372627382E+04  0.18509492116E+04  0.46999998093E+01 0.  1.
</event>
<event>
 5   0  0.8489228E-07  0.3396999E+04  0.7818609E-02  0.8138643E-01
       -2   -1    0    0    0  501  0.00000000000E+00  0.00000000000E+00  0.21369173174E+04  0.21369173174E+04  0.25500000920E-02 0.  1.
        2   -1    0    0  501    0  0.00000000000E+00  0.00000000000E+00 -0.13500293561E+04  0.13500293561E+04  0.25500000920E-02 0. -1.
    10030    2    1    2    0    0  0.00000000000E+00  0.00000000000E+00  0.78688796134E+03  0.34869466734E+04  0.33969993288E+04 0.  0.
        3    1    3    3  502    0 -0.14356820195E+04  0.75669093549E+03 -0.12096110471E+03  0.16273892073E+04  0.10100000352E+00 0.  1.
       -3    1    3    3    0  502  0.14356820195E+04 -0.75669093549E+03  0.90784906604E+03  0.18595574661E+04  0.10100000352E+00 0. -1.
</event>
<event>
 5   0  0.2622205E-07  0.3382157E+04  0.7818609E-02  0.8142299E-01
        1   -1    0    0  501    0  0.00000000000E+00  0.00000000000E+00  0.24096159179E+04  0.24096159179E+04  0.50400001928E-02 0. -1.
       -1   -1    0    0    0  501  0.00000000000E+00  0.00000000000E+00 -0.11868062056E+04  0.11868062056E+04  0.50400001928E-02 0.  1.
    10030    2    1    2    0    0  0.00000000000E+00  0.00000000000E+00  0.12228097123E+04  0.35964221235E+04  0.33821573733E+04 0.  0.
        3    1    3    3  502    0 -0.52396252223E+02  0.71070205336E+03 -0.10193424716E+04  0.12437450947E+04  0.10100000352E+00 0.  1.
       -3    1    3    3    0  502  0.52396252223E+02 -0.71070205336E+03  0.22421521839E+04  0.23526770288E+04  0.10100000352E+00 0. -1.
</event>
<event>
 5   0  0.2553250E-07  0.3385704E+04  0.7818609E-02  0.8141424E-01
       -1   -1    0    0    0  501  0.00000000000E+00  0.00000000000E+00  0.15801608085E+04  0.15801608085E+04  0.50400001928E-02 0.  1.
        1   -1    0    0  501    0  0.00000000000E+00  0.00000000000E+00 -0.18135802375E+04  0.18135802375E+04  0.50400001928E-02 0. -1.
    10030    2    1    2    0    0  0.00000000000E+00  0.00000000000E+00 -0.23341942897E+03  0.33937410460E+04  0.33857043074E+04 0.  0.
        5    1    3    3  502    0 -0.45729117599E+03 -0.45567120331E+03 -0.16853444887E+04  0.18047602613E+04  0.46999998093E+01 0.  1.
       -5    1    3    3    0  502  0.45729117599E+03  0.45567120331E+03  0.14519250597E+04  0.15889807847E+04  0.46999998093E+01 0. -1.
</event>
<event>
 5   0  0.7822003E-07  0.3406775E+04  0.7818609E-02  0.8136245E-01
       -2   -1    0    0    0  501  0.00000000000E+00  0.00000000000E+00  0.19619973344E+04  0.19619973344E+04  0.25500000920E-02 0.  1.
        2   -1    0    0  501    0  0.00000000000E+00  0.00000000000E+00 -0.14788649819E+04  0.14788649819E+04  0.25500000920E-02 0. -1.
    10030    2    1    2    0    0  0.00000000000E+00  0.00000000000E+00  0.48313235252E+03  0.34408623163E+04  0.34067751041E+04 0.  0.
        5    1    3    3  502    0  0.76054568075E+03 -0.73257913392E+03 -0.11083717851E+04  0.15308860258E+04  0.46999998093E+01 0. -1.
       -5    1    3    3    0  502 -0.76054568075E+03  0.73257913392E+03  0.15915041377E+04  0.19099762905E+04  0.46999998093E+01 0.  1.
</event>
<event>
 5   0  0.2622205E-07  0.3402773E+04  0.7818609E-02  0.8137226E-01
        1   -1    0    0  501    0  0.00000000000E+00  0.00000000000E+00  0.21003383465E+04  0.21003383465E+04  0.50400001928E-02 0.  1.
       -1   -1    0    0    0  501  0.00000000000E+00  0.00000000000E+00 -0.13782141404E+04  0.13782141404E+04  0.50400001928E-02 0. -1.
    10030    2    1    2    0    0  0.00000000000E+00  0.00000000000E+00  0.72212420609E+03  0.34785524870E+04  0.34027729921E+04 0.  0.
        3    1    3    3  502    0  0.71722493077E+03  0.13827640461E+04  0.10606025325E+04  0.18844961530E+04  0.10100000352E+00 0.  1.
       -3    1    3    3    0  502 -0.71722493077E+03 -0.13827640461E+04 -0.33847832637E+03  0.15940563340E+04  0.10100000352E+00 0. -1.
</event>
<event>
 5   0  0.2599367E-07  0.3414937E+04  0.7818609E-02  0.8134250E-01
       -1   -1    0    0    0  501  0.00000000000E+00  0.00000000000E+00  0.17925109498E+04  0.17925109498E+04  0.50400001928E-02 0. -1.
        1   -1    0    0  501    0  0.00000000000E+00  0.00000000000E+00 -0.16264610996E+04  0.16264610996E+04  0.50400001928E-02 0.  1.
    10030    2    1    2    0    0  0.00000000000E+00  0.00000000000E+00  0.16604985021E+03  0.34189720494E+04  0.34149373819E+04 0.  0.
        2    1    3    3  502    0 -0.13385787124E+04  0.16123927713E+03  0.11319546193E+04  0.17604295879E+04  0.25500000920E-02 0. -1.
       -2    1    3    3    0  502  0.13385787124E+04 -0.16123927713E+03 -0.96590476913E+03  0.16585424615E+04  0.25500000920E-02 0.  1.
</event>
<event>
 5   0  0.7899402E-07  0.3391160E+04  0.7818609E-02  0.8140079E-01
        2   -1    0    0  501    0  0.00000000000E+00  0.00000000000E+00  0.20882532594E+04  0.20882532594E+04  0.25500000920E-02 0.  1.
       -2   -1    0    0    0  501  0.00000000000E+00  0.00000000000E+00 -0.13767449495E+04  0.13767449495E+04  0.25500000920E-02 0. -1.
    10030    2    1    2    0    0  0.00000000000E+00  0.00000000000E+00  0.71150830990E+03  0.34649982089E+04  0.33911603490E+04 0.  0.
        2    1    3    3  502    0 -0.41917744927E+03  0.95531768810E+03  0.17215144803E+04  0.20129465281E+04  0.25500000920E-02 0.  1.
       -2    1    3    3    0  502  0.41917744927E+03 -0.95531768810E+03 -0.10100061704E+04  0.14520516807E+04  0.25500000920E-02 0. -1.
</event>
<event>
 5   0  0.7899402E-07  0.3376630E+04  0.7818609E-02  0.8143666E-01
        2   -1    0    0  501    0  0.00000000000E+00  0.00000000000E+00  0.13442138816E+04  0.13442138816E+04  0.25500000920E-02 0. -1.
       -2   -1    0    0    0  501  0.00000000000E+00  0.00000000000E+00 -0.21205009032E+04  0.21205009033E+04  0.25500000920E-02 0.  1.
    10030    2    1    2    0    0  0.00000000000E+00  0.00000000000E+00 -0.77628702167E+03  0.34647147848E+04  0.33766295326E+04 0.  0.
        2    1    3    3  502    0 -0.87530009630E+03  0.58086245426E+03 -0.17443085386E+04  0.20362130849E+04  0.25500000920E-02 0.  1.
       -2    1    3    3    0  502  0.87530009630E+03 -0.58086245426E+03  0.96802151694E+03  0.14285016999E+04  0.25500000920E-02 0. -1.
</event>
<event>
 5   0  0.7610412E-07  0.3410650E+04  0.7818609E-02  0.8135297E-01
        2   -1    0    0  501    0  0.00000000000E+00  0.00000000000E+00  0.19073256278E+04  0.19073256278E+04  0.25500000920E-02 0.  1.
       -2   -1    0    0    0  501  0.00000000000E+00  0.00000000000E+00 -0.15247182126E+04  0.15247182126E+04  0.25500000920E-02 0. -1.
    10030    2    1    2    0    0  0.00000000000E+00  0.00000000000E+00  0.38260741515E+03  0.34320438404E+04  0.34106504495E+04 0.  0.
        4    1    3    3  502    0  0.10287762581E+04  0.86130089954E+03  0.12504803176E+04  0.18340999063E+04  0.12699999809E+01 0.  1.
       -4    1    3    3    0  502 -0.10287762581E+04 -0.86130089954E+03 -0.86787290248E+03  0.15979439341E+04  0.12699999809E+01 0. -1.
</event>
<event>
 5   0  0.7838333E-07  0.3368772E+04  0.7818609E-02  0.8145613E-01
       -2   -1    0    0    0  501  0.00000000000E+00  0.00000000000E+00  0.10270599833E+04  0.10270599833E+04  0.25500000920E-02 0. -1.
        2   -1    0    0  501    0  0.00000000000E+00  0.00000000000E+00 -0.27624056914E+04  0.27624056914E+04  0.25500000920E-02 0.  1.
    10030    2    1    2    0    0  0.00000000000E+00  0.00000000000E+00 -0.17353457081E+04  0.37894656747E+04  0.33687720868E+04 0.  0.
        1    1    3    3  502    0  0.99768424782E+03 -0.11497729555E+03 -0.23887851488E+04  0.25913101173E+04  0.50400001928E-02 0.  1.
       -1    1    3    3    0  502 -0.99768424782E+03  0.11497729555E+03  0.65343944071E+03  0.11981555573E+04  0.50400001928E-02 0. -1.
</event>
<event>
 5   0  0.2553250E-07  0.3384925E+04  0.7818609E-02  0.8141616E-01
        4   -1    0    0  501    0  0.00000000000E+00  0.00000000000E+00  0.20097292006E+04  0.20097296019E+04  0.12699999809E+01 0. -1.
       -4   -1    0    0    0  501  0.00000000000E+00  0.00000000000E+00 -0.14252804741E+04  0.14252810399E+04  0.12699999809E+01 0.  1.
    10030    2    1    2    0    0  0.00000000000E+00  0.00000000000E+00  0.58444872650E+03  0.34350106418E+04  0.33849250797E+04 0.  0.
        4    1    3    3  502    0 -0.14703720099E+04  0.33964313981E+03  0.10697708869E+04  0.18498007118E+04  0.12699999809E+01 0. -1.
       -4    1    3    3    0  502  0.14703720099E+04 -0.33964313981E+03 -0.48532216043E+03  0.15852099300E+04  0.12699999809E+01 0.  1.
</event>
<event>
 5   0  0.7899402E-07  0.3409381E+04  0.7818609E-02  0.8135608E-01
        2   -1    0    0  501    0  0.00000000000E+00  0.00000000000E+00  0.26275885967E+04  0.26275885967E+04  0.25500000920E-02 0.  1.
       -2   -1    0    0    0  501  0.00000000000E+00  0.00000000000E+00 -0.11059454661E+04  0.11059454661E+04  0.25500000920E-02 0. -1.
    10030    2    1    2    0    0  0.00000000000E+00  0.00000000000E+00  0.15216431306E+04  0.37335340628E+04  0.34093809967E+04 0.  0.
        2    1    3    3  502    0 -0.11538484245E+04  0.50536879717E+03  0.20185905237E+04  0.23793846916E+04  0.25500000920E-02 0.  1.
       -2    1    3    3    0  502  0.11538484245E+04 -0.50536879717E+03 -0.49694739312E+03  0.13541493712E+04  0.25500000920E-02 0. -1.
</event>
<event>
 5   0  0.7838333E-07  0.3405892E+04  0.7818609E-02  0.8136462E-01
        2   -1    0    0  501    0  0.00000000000E+00  0.00000000000E+00  0.21753823431E+04  0.21753823431E+04  0.25500000920E-02 0.  1.
       -2   -1    0    0    0  501  0.00000000000E+00  0.00000000000E+00 -0.13331108469E+04  0.13331108469E+04  0.25500000920E-02 0. -1.
    10030    2    1    2    0    0  0.00000000000E+00  0.00000000000E+00  0.84227149623E+03  0.35084931901E+04  0.34058924222E+04 0.  0.
        1    1    3    3  502    0  0.12681026900E+04 -0.95490823278E+03 -0.21395219228E+03  0.16017832893E+04  0.50400001928E-02 0. -1.
       -1    1    3    3    0  502 -0.12681026900E+04  0.95490823278E+03  0.10562236885E+04  0.19067099007E+04  0.50400001928E-02 0.  1.
</event>
<event>
 5   0  0.2553250E-07  0.3399321E+04  0.7818609E-02  0.8138073E-01
        3   -1    0    0  501    0  0.00000000000E+00  0.00000000000E+00  0.20923311330E+04  0.20923311355E+04  0.10100000352E+00 0.  1.
       -3   -1    0    0    0  501  0.00000000000E+00  0.00000000000E+00 -0.13806832439E+04  0.13806832476E+04  0.10100000352E+00 0. -1.
    10030    2    1    2    0    0  0.00000000000E+00  0.00000000000E+00  0.71164788912E+03  0.34730143831E+04  0.33993214304E+04 0.  0.
        5    1    3    3  502    0  0.15408705165E+04 -0.39723132840E+03  0.96605767103E+03  0.18615488687E+04  0.46999998093E+01 0.  1.
       -5    1    3    3    0  502 -0.15408705165E+04  0.39723132840E+03 -0.25440978191E+03  0.16114655144E+04  0.46999998093E+01 0. -1.
</event>
<event>
 5   0  0.2553250E-07  0.3374988E+04  0.7818609E-02  0.8144073E-01
        3   -1    0    0  501    0  0.00000000000E+00  0.00000000000E+00  0.18723787667E+04  0.18723787694E+04  0.10100000352E+00 0.  1.
       -3   -1    0    0    0  501  0.00000000000E+00  0.00000000000E+00 -0.15208652160E+04  0.15208652194E+04  0.10100000352E+00 0. -1.
    10030    2    1    2    0    0  0.00000000000E+00  0.00000000000E+00  0.35151355069E+03  0.33932439888E+04  0.33749878505E+04 0.  0.
        5    1    3    3  502    0  0.25156056901E+03 -0.94556975753E+03  0.15580496180E+04  0.18398167269E+04  0.46999998093E+01 0.  1.
       -5    1    3    3    0  502 -0.25156056901E+03  0.94556975753E+03 -0.12065360673E+04  0.15534272619E+04  0.46999998093E+01 0. -1.
</event>
<event>
 5   0  0.2622205E-07  0.3384480E+04  0.7818609E-02  0.8141726E-01
        1   -1    0    0  501    0  0.00000000000E+00  0.00000000000E+00  0.25672476359E+04  0.25672476359E+04  0.50400001928E-02 0.  1.
       -1   -1    0    0    0  501  0.00000000000E+00  0.00000000000E+00 -0.11154657928E+04  0.11154657929E+04  0.50400001928E-02 0. -1.
    10030    2    1    2    0    0  0.00000000000E+00  0.00000000000E+00  0.14517818430E+04  0.36827134287E+04  0.33844804148E+04 0.  0.
        3    1    3    3  502    0  0.49305092987E+03  0.13413560530E+04 -0.26024740434E+03  0.14526059348E+04  0.10100000352E+00 0. -1.
       -3    1    3    3    0  502 -0.49305092987E+03 -0.13413560530E+04  0.17120292474E+04  0.22301074939E+04  0.10100000352E+00 0.  1.
</event>
<event>
 5   0  0.7822003E-07  0.3409510E+04  0.7818609E-02  0.8135576E-01
        2   -1    0    0  501    0  0.00000000000E+00  0.00000000000E+00  0.11527509306E+04  0.11527509306E+04  0.25500000920E-02 0.  1.
       -2   -1    0    0    0  501  0.00000000000E+00  0.00000000000E+00 -0.25210908705E+04  0.25210908705E+04  0.25500000920E-02 0. -1.
    10030    2    1    2    0    0  0.00000000000E+00  0.00000000000E+00 -0.13683399398E+04  0.36738418011E+04  0.34095101391E+04 0.  0.
        5    1    3    3  502    0  0.53541624088E+03  0.14621005781E+04 -0.14320697937E+04  0.21154797649E+04  0.46999998093E+01 0. -1.
       -5    1    3    3    0  502 -0.53541624088E+03 -0.14621005781E+04  0.63729853910E+02  0.15583620362E+04  0.46999998093E+01 0.  1.
</event>
<event>
 5   0  0.2592200E-07  0.3428496E+04  0.7818609E-02  0.8130948E-01
       -1   -1    0    0    0  501  0.00000000000E+00  0.00000000000E+00  0.26695956505E+04  0.26695956505E+04  0.50400001928E-02 0. -1.
        1   -1    0    0  501    0  0.00000000000E+00  0.00000000000E+00 -0.11007830272E+04  0.11007830272E+04  0.50400001928E-02 0.  1.
    10030    2    1    2    0    0  0.00000000000E+00  0.00000000000E+00  0.15688126233E+04  0.37703786777E+04  0.34284956360E+04 0.  0.
        4    1    3    3  502    0  0.15729330337E+04 -0.46873014559E+03  0.24027618948E+03  0.16587828483E+04  0.12699999809E+01 0.  1.
       -4    1    3    3    0  502 -0.15729330337E+04  0.46873014559E+03  0.13285364338E+04  0.21115958294E+04  0.12699999809E+01 0. -1.
</event>
<event>
 5   0  0.7838333E-07  0.3161728E+04  0.7818609E-02  0.8198998E-01
        2   -1    0    0  501    0  0.00000000000E+00  0.00000000000E+00  0.16965428669E+04  0.16965428669E+04  0.25500000920E-02 0.  1.
       -2   -1    0    0    0  501  0.00000000000E+00  0.00000000000E+00 -0.14730730388E+04  0.14730730388E+04  0.25500000920E-02 0. -1.
    10030    2    1    2    0    0  0.00000000000E+00  0.00000000000E+00  0.22346982809E+03  0.31696159057E+04  0.31617283605E+04 0.  0.
        1    1    3    3  502    0 -0.13978339113E+04 -0.73378762967E+03  0.19408377991E+03  0.15906138572E+04  0.50400001928E-02 0. -1.
       -1    1    3    3    0  502  0.13978339113E+04  0.73378762967E+03  0.29386048178E+02  0.15790020484E+04  0.50400001928E-02 0.  1.
</event>
<event>
 5   0  0.7899402E-07  0.3383888E+04  0.7818609E-02  0.8141872E-01
       -2   -1    0    0    0  501  0.00000000000E+00  0.00000000000E+00  0.14211576979E+04  0.14211576979E+04  0.25500000920E-02 0. -1.
        2   -1    0    0  501    0  0.00000000000E+00  0.00000000000E+00 -0.20143258932E+04  0.20143258932E+04  0.25500000920E-02 0.  1.
    10030    2    1    2    0    0  0.00000000000E+00  0.00000000000E+00 -0.59316819524E+03  0.34354835911E+04  0.33838881478E+04 0.  0.
        2    1    3    3  502    0 -0.39979781977E+03 -0.26086504432E+03  0.13513678463E+04  0.14332075649E+04  0.25500000920E-02 0. -1.
       -2    1    3    3    0  502  0.39979781977E+03  0.26086504432E+03 -0.19445360416E+04  0.20022760262E+04  0.25500000920E-02 0.  1.
</event>
<event>
 5   0  0.2553250E-07  0.3407052E+04  0.7818609E-02  0.8136178E-01
       -1   -1    0    0    0  501  0.00000000000E+00  0.00000000000E+00  0.13826658972E+04  0.13826658973E+04  0.50400001928E-02 0.  1.
        1   -1    0    0  501    0  0.00000000000E+00  0.00000000000E+00 -0.20988440081E+04  0.20988440081E+04  0.50400001928E-02 0. -1.
    10030    2    1    2    0    0  0.00000000000E+00  0.00000000000E+00 -0.71617811086E+03  0.34815099054E+04  0.34070515310E+04 0.  0.
        5    1    3    3  502    0 -0.84128651473E+03  0.10176399904E+04 -0.14580066632E+04  0.19670179638E+04  0.46999998093E+01 0. -1.
       -5    1    3    3    0  502  0.84128651473E+03 -0.10176399904E+04  0.74182855233E+03  0.15144919416E+04  0.46999998093E+01 0.  1.
</event>
<event>
 5   0  0.7610412E-07  0.3404783E+04  0.7818609E-02  0.8136733E-01
        2   -1    0    0  501    0  0.00000000000E+00  0.00000000000E+00  0.18370894658E+04  0.18370894658E+04  0.25500000920E-02 0.  1.
       -2   -1    0    0    0  501  0.00000000000E+00  0.00000000000E+00 -0.15775698561E+04  0.15775698561E+04  0.25500000920E-02 0. -1.
    10030    2    1    2    0    0  0.00000000000E+00  0.00000000000E+00  0.25951960968E+03  0.34146593220E+04  0.34047830852E+04 0.  0.
        4    1    3    3  502    0  0.85554221952E+03 -0.23610109304E+03 -0.13271891898E+04  0.15965991902E+04  0.12699999809E+01 0. -1.
       -4    1    3    3    0  502 -0.85554221952E+03  0.23610109304E+03  0.15867087995E+04  0.18180601318E+04  0.12699999809E+01 0.  1.
</event>
<event>
 5   0  0.7822003E-07  0.3412890E+04  0.7818609E-02  0.8134750E-01
        2   -1    0    0  501    0  0.00000000000E+00  0.00000000000E+00  0.18676417853E+04  0.18676417853E+04  0.25500000920E-02 0. -1.
       -2   -1    0    0    0  501  0.00000000000E+00  0.00000000000E+00 -0.15591609038E+04  0.15591609038E+04  0.25500000920E-02 0.  1.
    10030    2    1    2    0    0  0.00000000000E+00  0.00000000000E+00  0.30848088146E+03  0.34268026891E+04  0.34128897163E+04 0.  0.
        5    1    3    3  502    0  0.12078493453E+04 -0.73170552242E+03 -0.80759940460E+03  0.16268164927E+04  0.46999998093E+01 0.  1.
       -5    1    3    3    0  502 -0.12078493453E+04  0.73170552242E+03  0.11160802861E+04  0.17999861965E+04  0.46999998093E+01 0. -1.
</event>
<event>
 5   0  0.2592200E-07  0.3383806E+04  0.7818609E-02  0.8141892E-01
       -1   -1    0    0    0  501  0.00000000000E+00  0.00000000000E+00  0.12054732180E+04  0.12054732181E+04  0.50400001928E-02 0. -1.
        1   -1    0    0  501    0  0.00000000000E+00  0.00000000000E+00 -0.23746160874E+04  0.23746160874E+04  0.50400001928E-02 0.  1.
    10030    2    1    2    0    0  0.00000000000E+00  0.00000000000E+00 -0.11691428694E+04  0.35800893055E+04  0.33838061981E+04 0.  0.
        4    1    3    3  502    0  0.95759797013E+03  0.64887081550E+03  0.72175925367E+03  0.13634387558E+04  0.12699999809E+01 0. -1.
       -4    1    3    3    0  502 -0.95759797013E+03 -0.64887081550E+03 -0.18909021230E+04  0.22166505497E+04  0.12699999809E+01 0.  1.
</event>
<event>
 5   0  0.7838333E-07  0.3361165E+04  0.7818609E-02  0.8147504E-01
       -2   -1    0    0    0  501  0.00000000000E+00  0.00000000000E+00  0.14380470382E+04  0.14380470382E+04  0.25500000920E-02 0. -1.
        2   -1    0    0  501    0  0.00000000000E+00  0.00000000000E+00 -0.19640230044E+04  0.19640230044E+04  0.25500000920E-02 0.  1.
    10030    2    1    2    0    0  0.00000000000E+00  0.00000000000E+00 -0.52597596619E+03  0.34020700426E+04  0.33611649555E+04 0.  0.
        1    1    3    3  502    0  0.12803702842E+04  0.55178513327E+03  0.68680422297E+03  0.15541926968E+04  0.50400001928E-02 0. -1.
       -1    1    3    3    0  502 -0.12803702842E+04 -0.55178513327E+03 -0.12127801892E+04  0.18478773458E+04  0.50400001928E-02 0.  1.
</event>
<event>
 5   0  0.2553250E-07  0.3418182E+04  0.7818609E-02  0.8133458E-01
        1   -1    0    0  501    0  0.00000000000E+00  0.00000000000E+00  0.27539676318E+04  0.27539676318E+04  0.50400001928E-02 0. -1.
       -1   -1    0    0    0  501  0.00000000000E+00  0.00000000000E+00 -0.10606484396E+04  0.10606484396E+04  0.50400001928E-02 0.  1.
    10030    2    1    2    0    0  0.00000000000E+00  0.00000000000E+00  0.16933191921E+04  0.38146160714E+04  0.34181816637E+04 0.  0.
        5    1    3    3  502    0 -0.12854837803E+04 -0.65376227981E+02  0.21014413273E+04  0.24643093034E+04  0.46999998093E+01 0. -1.
       -5    1    3    3    0  502  0.12854837803E+04  0.65376227981E+02 -0.40812213523E+03  0.13503067680E+04  0.46999998093E+01 0.  1.
</event>
<event>
 5   0  0.2622205E-07  0.3457432E+04  0.7818609E-02  0.8123953E-01
        1   -1    0    0  501    0  0.00000000000E+00  0.00000000000E+00  0.13656520557E+04  0.13656520557E+04  0.50400001928E-02 0. -1.
       -1   -1    0    0    0  501  0.00000000000E+00  0.00000000000E+00 -0.21883025180E+04  0.21883025180E+04  0.50400001928E-02 0.  1.
    10030    2    1    2    0    0  0.00000000000E+00  0.00000000000E+00 -0.82265046228E+03  0.35539545737E+04  0.34574324764E+04 0.  0.
        3    1    3    3  502    0 -0.12331951019E+03 -0.16874293153E+04 -0.77595985297E+03  0.18613809656E+04  0.10100000352E+00 0.  1.
       -3    1    3    3    0  502  0.12331951019E+03  0.16874293153E+04 -0.46690609311E+02  0.16925736081E+04  0.10100000352E+00 0. -1.
</event>
<event>
 5   0  0.2622205E-07  0.3395833E+04  0.7818609E-02  0.8138930E-01
       -1   -1    0    0    0  501  0.00000000000E+00  0.00000000000E+00  0.18563143511E+04  0.18563143511E+04  0.50400001928E-02 0. -1.
        1   -1    0    0  501    0  0.00000000000E+00  0.00000000000E+00 -0.15530348867E+04  0.15530348867E+04  0.50400001928E-02 0.  1.
    10030    2    1    2    0    0  0.00000000000E+00  0.00000000000E+00  0.30327946435E+03  0.34093492378E+04  0.33958332986E+04 0.  0.
        3    1    3    3  502    0  0.18097172672E+02 -0.10203955563E+04  0.15140176208E+04  0.18258652648E+04  0.10100000352E+00 0. -1.
       -3    1    3    3    0  502 -0.18097172672E+02  0.10203955563E+04 -0.12107381564E+04  0.15834839730E+04  0.10100000352E+00 0.  1.
</event>
<event>
 5   0  0.2641442E-07  0.3436649E+04  0.7818609E-02  0.8128970E-01
       -1   -1    0    0    0  501  0.00000000000E+00  0.00000000000E+00  0.16104851325E+04  0.16104851325E+04  0.50400001928E-02 0. -1.
        1   -1    0    0  501    0  0.00000000000E+00  0.00000000000E+00 -0.18333849501E+04  0.18333849501E+04  0.50400001928E-02 0.  1.
    10030    2    1    2    0    0  0.00000000000E+00  0.00000000000E+00 -0.22289981757E+03  0.34438700826E+04  0.34366490681E+04 0.  0.
        1    1    3    3  502    0 -0.10960253738E+04 -0.11125207820E+04 -0.82966016086E+03  0.17684202252E+04  0.50400001928E-02 0.  1.
       -1    1    3    3    0  502  0.10960253738E+04  0.11125207820E+04  0.60676034329E+03  0.16754498574E+04  0.50400001928E-02 0. -1.
</event>
<event>
 5   0  0.8489228E-07  0.3465486E+04  0.7818609E-02  0.8122018E-01
        2   -1    0    0  501    0  0.00000000000E+00  0.00000000000E+00  0.16231024305E+04  0.16231024305E+04  0.25500000920E-02 0.  1.
       -2   -1    0    0    0  501  0.00000000000E+00  0.00000000000E+00 -0.18497894390E+04  0.18497894390E+04  0.25500000920E-02 0. -1.
    10030    2    1    2    0    0  0.00000000000E+00  0.00000000000E+00 -0.22668700848E+03  0.34728918695E+04  0.34654856712E+04 0.  0.
        3    1    3    3  502    0 -0.26252407130E+03 -0.64530014339E+03 -0.17032606912E+04  0.18402250285E+04  0.10100000352E+00 0. -1.
       -3    1    3    3    0  502  0.26252407130E+03  0.64530014339E+03  0.14765736827E+04  0.16326668410E+04  0.10100000352E+00 0.  1.
</event>
<event>
 5   0  0.2553250E-07  0.3373624E+04  0.7818609E-02  0.8144410E-01
       -3   -1    0    0    0  501  0.00000000000E+00  0.00000000000E+00  0.17113227847E+04  0.17113227877E+04  0.10100000352E+00 0.  1.
        3   -1    0    0  501    0  0.00000000000E+00  0.00000000000E+00 -0.16626520205E+04  0.16626520235E+04  0.10100000352E+00 0. -1.
    10030    2    1    2    0    0  0.00000000000E+00  0.00000000000E+00  0.48670764252E+02  0.33739748112E+04  0.33736237466E+04 0.  0.
        4    1    3    3  502    0  0.12867902725E+04 -0.98874745437E+03  0.48468964674E+03  0.16936281765E+04  0.12699999809E+01 0.  1.
       -4    1    3    3    0  502 -0.12867902725E+04  0.98874745437E+03 -0.43601888249E+03  0.16803466347E+04  0.12699999809E+01 0. -1.
</event>
<event>
 5   0  0.8489228E-07  0.3399756E+04  0.7818609E-02  0.8137966E-01
       -2   -1    0    0    0  501  0.00000000000E+00  0.00000000000E+00  0.11202397391E+04  0.11202397391E+04  0.25500000920E-02 0. -1.
        2   -1    0    0  501    0  0.00000000000E+00  0.00000000000E+00 -0.25794350317E+04  0.25794350317E+04  0.25500000920E-02 0.  1.
    10030    2    1    2    0    0  0.00000000000E+00  0.00000000000E+00 -0.14591952925E+04  0.36996747708E+04  0.33997562424E+04 0.  0.
        3    1    3    3  502    0 -0.57123403996E+03  0.25155272921E+03  0.99102503421E+03  0.11712035402E+04  0.10100000352E+00 0. -1.
       -3    1    3    3    0  502  0.57123403996E+03 -0.25155272921E+03 -0.24502203268E+04  0.25284712306E+04  0.10100000352E+00 0.  1.
</event>
<event>
 5   0  0.7822003E-07  0.3205168E+04  0.7818609E-02  0.8187454E-01
       -2   -1    0    0    0  501  0.00000000000E+00  0.00000000000E+00  0.12852692536E+04  0.12852692536E+04  0.25500000920E-02 0.  1.
        2   -1    0    0  501    0  0.00000000000E+00  0.00000000000E+00 -0.19982387136E+04  0.19982387136E+04  0.25500000920E-02 0. -1.
    10030    2    1    2    0    0  0.00000000000E+00  0.00000000000E+00 -0.71296946005E+03  0.32835079672E+04  0.32051675650E+04 0.  0.
        5    1    3    3  502    0  0.10318272186E+04 -0.94334884680E+03 -0.11590081130E+04  0.18160111101E+04  0.46999998093E+01 0. -1.
       -5    1    3    3    0  502 -0.10318272186E+04  0.94334884680E+03  0.44603865299E+03  0.14674968572E+04  0.46999998093E+01 0.  1.
</event>
<event>
 5   0  0.2599367E-07  0.3372863E+04  0.7818609E-02  0.8144599E-01
        1   -1    0    0  501    0  0.00000000000E+00  0.00000000000E+00  0.12657903992E+04  0.12657903992E+04  0.50400001928E-02 0.  1.
       -1   -1    0    0    0  501  0.00000000000E+00  0.00000000000E+00 -0.22468580644E+04  0.22468580644E+04  0.50400001928E-02 0. -1.
    10030    2    1    2    0    0  0.00000000000E+00  0.00000000000E+00 -0.98106766524E+03  0.35126484637E+04  0.33728630962E+04 0.  0.
        2    1    3    3  502    0  0.19613550740E+03 -0.84340841493E+03 -0.19976601880E+04  0.21772581653E+04  0.25500000920E-02 0. -1.
       -2    1    3    3    0  502 -0.19613550740E+03  0.84340841493E+03  0.10165925228E+04  0.13353902984E+04  0.25500000920E-02 0.  1.
</event>
<event>
 5   0  0.2592200E-07  0.3374044E+04  0.7818609E-02  0.8144306E-01
       -1   -1    0    0    0  501  0.00000000000E+00  0.00000000000E+00  0.28090062198E+04  0.28090062198E+04  0.50400001928E-02 0.  1.
        1   -1    0    0  501    0  0.00000000000E+00  0.00000000000E+00 -0.10131851528E+04  0.10131851528E+04  0.50400001928E-02 0. -1.
    10030    2    1    2    0    0  0.00000000000E+00  0.00000000000E+00  0.17958210670E+04  0.38221913726E+04  0.33740440993E+04 0.  0.
        4    1    3    3  502    0 -0.12683533179E+04  0.73832535613E+03 -0.44579199065E+02  0.14682756513E+04  0.12699999809E+01 0. -1.
       -4    1    3    3    0  502  0.12683533179E+04 -0.73832535613E+03  0.18404002661E+04  0.23539157212E+04  0.12699999809E+01 0.  1.
</event>
<event>
 5   0  0.7899402E-07  0.3357881E+04  0.7818609E-02  0.8148322E-01
        2   -1    0    0  501    0  0.00000000000E+00  0.00000000000E+00  0.13943252673E+04  0.13943252674E+04  0.25500000920E-02 0. -1.
       -2   -1    0    0    0  501  0.00000000000E+00  0.00000000000E+00 -0.20216524793E+04  0.20216524793E+04  0.25500000920E-02 0.  1.
    10030    2    1    2    0    0  0.00000000000E+00  0.00000000000E+00 -0.62732721198E+03  0.34159777467E+04  0.33578809590E+04 0.  0.
        2    1    3    3  502    0 -0.49682878375E+03  0.11755861182E+04 -0.14234084595E+04  0.19117879600E+04  0.25500000920E-02 0.  1.
       -2    1    3    3    0  502  0.49682878375E+03 -0.11755861182E+04  0.79608124748E+03  0.15041897866E+04  0.25500000920E-02 0. -1.
</event>
<event>
 5   0  0.8489228E-07  0.3422899E+04  0.7818609E-02  0.8132309E-01
       -2   -1    0    0    0  501  0.00000000000E+00  0.00000000000E+00  0.14938088101E+04  0.14938088101E+04  0.25500000920E-02 0. -1.
        2   -1    0    0  501    0  0.00000000000E+00  0.00000000000E+00 -0.19607990136E+04  0.19607990136E+04  0.25500000920E-02 0.  1.
    10030    2    1    2    0    0  0.00000000000E+00  0.00000000000E+00 -0.46699020351E+03  0.34546078237E+04  0.34228986788E+04 0.  0.
        3    1    3    3  502    0 -0.29437113508E+03  0.14104828675E+03  0.14621011244E+04  0.14980950212E+04  0.10100000352E+00 0. -1.
       -3    1    3    3    0  502  0.29437113508E+03 -0.14104828675E+03 -0.19290913280E+04  0.19565128025E+04  0.10100000352E+00 0.  1.
</event>
<event>
 5   0  0.2641442E-07  0.3396369E+04  0.7818609E-02  0.8138798E-01
       -1   -1    0    0    0  501  0.00000000000E+00  0.00000000000E+00  0.17658715546E+04  0.17658715546E+04  0.50400001928E-02 0. -1.
        1   -1    0    0  501    0  0.00000000000E+00  0.00000000000E+00 -0.16330920864E+04  0.16330920864E+04  0.50400001928E-02 0.  1.
    10030    2    1    2    0    0  0.00000000000E+00  0.00000000000E+00  0.13277946816E+03  0.33989636410E+04  0.33963691563E+04 0.  0.
        1    1    3    3  502    0 -0.18178950934E+02 -0.49098556088E+02 -0.16322841976E+04  0.16331236463E+04  0.50400001928E-02 0.  1.
       -1    1    3    3    0  502  0.18178950934E+02  0.49098556088E+02  0.17650636658E+04  0.17658399947E+04  0.50400001928E-02 0. -1.
</event>
<event>
 5   0  0.7822003E-07  0.3357602E+04  0.7818609E-02  0.8148391E-01
       -2   -1    0    0    0  501  0.00000000000E+00  0.00000000000E+00  0.12605939298E+04  0.12605939298E+04  0.25500000920E-02 0.  1.
        2   -1    0    0  501    0  0.00000000000E+00  0.00000000000E+00 -0.22357497767E+04  0.22357497767E+04  0.25500000920E-02 0. -1.
    10030    2    1    2    0    0  0.00000000000E+00  0.00000000000E+00 -0.97515584695E+03  0.34963437066E+04  0.33576018806E+04 0.  0.
        5    1    3    3  502    0  0.11207376716E+04 -0.75503000868E+03 -0.15248447723E+04  0.20374731684E+04  0.46999998093E+01 0. -1.
       -5    1    3    3    0  502 -0.11207376716E+04  0.75503000868E+03  0.54968892531E+03  0.14588705382E+04  0.46999998093E+01 0.  1.
</event>
<event>
 5   0  0.2592200E-07  0.3381636E+04  0.7818609E-02  0.8142428E-01
       -1   -1    0    0    0  501  0.00000000000E+00  0.00000000000E+00  0.15436247561E+04  0.15436247561E+04  0.50400001928E-02 0.  1.
        1   -1    0    0  501    0  0.00000000000E+00  0.00000000000E+00 -0.18520472920E+04  0.18520472920E+04  0.50400001928E-02 0. -1.
    10030    2    1    2    0    0  0.00000000000E+00  0.00000000000E+00 -0.30842253585E+03  0.33956720481E+04  0.33816363195E+04 0.  0.
        4    1    3    3  502    0 -0.39414086945E+03  0.33923938521E+03  0.14613275313E+04  0.15510996590E+04  0.12699999809E+01 0.  1.
       -4    1    3    3    0  502  0.39414086945E+03 -0.33923938521E+03 -0.17697500672E+04  0.18445723891E+04  0.12699999809E+01 0. -1.
</event>
<event>
 5   0  0.2553250E-07  0.3420322E+04  0.7818609E-02  0.8132937E-01
       -1   -1    0    0    0  501  0.00000000000E+00  0.00000000000E+00  0.14189417282E+04  0.14189417282E+04  0.50400001928E-02 0.  1.
        1   -1    0    0  501    0  0.00000000000E+00  0.00000000000E+00 -0.20611489245E+04  0.20611489245E+04  0.50400001928E-02 0. -1.
    10030    2    1    2    0    0  0.00000000000E+00  0.00000000000E+00 -0.64220719623E+03  0.34800906527E+04  0.34203217492E+04 0.  0.
        5    1    3    3  502    0 -0.10743746058E+04  0.10422013844E+04 -0.11626994374E+04  0.18953513107E+04  0.46999998093E+01 0. -1.
       -5    1    3    3    0  502  0.10743746058E+04 -0.10422013844E+04  0.52049224117E+03  0.15847393420E+04  0.46999998093E+01 0.  1.
</event>
<event>
 5   0  0.7899402E-07  0.3409930E+04  0.7818609E-02  0.8135473E-01
       -2   -1    0    0    0  501  0.00000000000E+00  0.00000000000E+00  0.14521230504E+04  0.14521230504E+04  0.25500000920E-02 0.  1.
        2   -1    0    0  501    0  0.00000000000E+00  0.00000000000E+00 -0.20018313466E+04  0.20018313466E+04  0.25500000920E-02 0. -1.
    10030    2    1    2    0    0  0.00000000000E+00  0.00000000000E+00 -0.54970829615E+03  0.34539543970E+04  0.34099298770E+04 0.  0.
        2    1    3    3  502    0  0.42852981172E+03 -0.29945657352E+03  0.13689327476E+04  0.14653630630E+04  0.25500000920E-02 0.  1.
       -2    1    3    3    0  502 -0.42852981172E+03  0.29945657352E+03 -0.19186410438E+04  0.19885913340E+04  0.25500000920E-02 0. -1.
</event>
<event>
 5   0  0.2641442E-07  0.3398985E+04  0.7818609E-02  0.8138156E-01
       -1   -1    0    0    0  501  0.00000000000E+00  0.00000000000E+00  0.19059160301E+04  0.19059160301E+04  0.50400001928E-02 0.  1.
        1   -1    0    0  501    0  0.00000000000E+00  0.00000000000E+00 -0.15154257537E+04  0.15154257537E+04  0.50400001928E-02 0. -1.
    10030    2    1    2    0    0  0.00000000000E+00  0.00000000000E+00  0.39049027640E+03  0.34213417838E+04  0.33989846934E+04 0.  0.
        1    1    3    3  502    0 -0.11115263105E+04 -0.73096879273E+03 -0.86928768723E+03  0.15891718592E+04  0.50400001928E-02 0. -1.
       -1    1    3    3    0  502  0.11115263105E+04  0.73096879273E+03  0.12597779636E+04  0.18321699246E+04  0.50400001928E-02 0.  1.
</event>
<event>
 5   0  0.2599367E-07  0.3309213E+04  0.7818609E-02  0.8160555E-01
       -1   -1    0    0    0  501  0.00000000000E+00  0.00000000000E+00  0.20736805487E+04  0.20736805487E+04  0.50400001928E-02 0. -1.
        1   -1    0    0  501    0  0.00000000000E+00  0.00000000000E+00 -0.13202238124E+04  0.13202238124E+04  0.50400001928E-02 0.  1.
    10030    2    1    2    0    0  0.00000000000E+00  0.00000000000E+00  0.75345673632E+03  0.33939043611E+04  0.33092128609E+04 0.  0.
        2    1    3    3  502    0  0.81940589762E+03  0.12852308536E+03  0.18450741322E+04  0.20229292528E+04  0.25500000920E-02 0. -1.
       -2    1    3    3    0  502 -0.81940589762E+03 -0.12852308536E+03 -0.10916173959E+04  0.13709751083E+04  0.25500000920E-02 0.  1.
</event>
<event>
 5   0  0.7822003E-07  0.3392760E+04  0.7818609E-02  0.8139685E-01
       -2   -1    0    0    0  501  0.00000000000E+00  0.00000000000E+00  0.13999993411E+04  0.13999993411E+04  0.25500000920E-02 0. -1.
        2   -1    0    0  501    0  0.00000000000E+00  0.00000000000E+00 -0.20555047933E+04  0.20555047933E+04  0.25500000920E-02 0.  1.
    10030    2    1    2    0    0  0.00000000000E+00  0.00000000000E+00 -0.65550545223E+03  0.34555041344E+04  0.33927601485E+04 0.  0.
        5    1    3    3  502    0  0.33759949837E+03  0.42479144282E+03  0.13092239544E+04  0.14172193352E+04  0.46999998093E+01 0. -1.
       -5    1    3    3    0  502 -0.33759949837E+03 -0.42479144282E+03 -0.19647294067E+04  0.20382847992E+04  0.46999998093E+01 0.  1.
</event>
<event>
 5   0  0.7610412E-07  0.3399433E+04  0.7818609E-02  0.8138046E-01
       -2   -1    0    0    0  501  0.00000000000E+00  0.00000000000E+00  0.21915216762E+04  0.21915216762E+04  0.25500000920E-02 0. -1.
        2   -1    0    0  501    0  0.00000000000E+00  0.00000000000E+00 -0.13182785924E+04  0.13182785924E+04  0.25500000920E-02 0.  1.
    10030    2    1    2    0    0  0.00000000000E+00  0.00000000000E+00  0.87324308383E+03  0.35098002686E+04  0.33994329589E+04 0.  0.
        4    1    3    3  502    0  0.32640466822E+03 -0.89364632897E+03 -0.10176141384E+04  0.13930843177E+04  0.12699999809E+01 0.  1.
       -4    1    3    3    0  502 -0.32640466822E+03  0.89364632897E+03  0.18908572222E+04  0.21167159508E+04  0.12699999809E+01 0. -1.
</event>
<event>
 5   0  0.2599367E-07  0.3401592E+04  0.7818609E-02  0.8137516E-01
        1   -1    0    0  501    0  0.00000000000E+00  0.00000000000E+00  0.13189761950E+04  0.13189761951E+04  0.50400001928E-02 0. -1.
       -1   -1    0    0    0  501  0.00000000000E+00  0.00000000000E+00 -0.21931463292E+04  0.21931463292E+04  0.50400001928E-02 0.  1.
    10030    2    1    2    0    0  0.00000000000E+00  0.00000000000E+00 -0.87417013413E+03  0.35121225242E+04  0.34015924509E+04 0.  0.
        2    1    3    3  502    0  0.50600530679E+03  0.12767033803E+04 -0.14730291530E+04  0.20139085822E+04  0.25500000920E-02 0.  1.
       -2    1    3    3    0  502 -0.50600530679E+03 -0.12767033803E+04  0.59885901884E+03  0.14982139421E+04  0.25500000920E-02 0. -1.
</event>
<event>
 5   0  0.2622205E-07  0.3397632E+04  0.7818609E-02  0.8138488E-01
       -1   -1    0    0    0  501  0.00000000000E+00  0.00000000000E+00  0.93012334655E+03  0.93012334656E+03  0.50400001928E-02 0. -1.
        1   -1    0    0  501    0  0.00000000000E+00  0.00000000000E+00 -0.31027881537E+04  0.31027881537E+04  0.50400001928E-02 0.  1.
    10030    2    1    2    0    0  0.00000000000E+00  0.00000000000E+00 -0.21726648072E+04  0.40329115003E+04  0.33976319408E+04 0.  0.
        3    1    3    3  502    0  0.62919879631E+03  0.71438976871E+03  0.58377939156E+03  0.11167104616E+04  0.10100000352E+00 0. -1.
       -3    1    3    3    0  502 -0.62919879631E+03 -0.71438976871E+03 -0.27564441988E+04  0.29162010387E+04  0.10100000352E+00 0.  1.
</event>
<event>
 5   0  0.2599367E-07  0.3411815E+04  0.7818609E-02  0.8135013E-01
        1   -1    0    0  501    0  0.00000000000E+00  0.00000000000E+00  0.18688812252E+04  0.18688812252E+04  0.50400001928E-02 0. -1.
       -1   -1    0    0    0  501  0.00000000000E+00  0.00000000000E+00 -0.15571456439E+04  0.15571456439E+04  0.50400001928E-02 0.  1.
    10030    2    1    2    0    0  0.00000000000E+00  0.00000000000E+00  0.31173558130E+03  0.34260268691E+04  0.34118149181E+04 0.  0.
        2    1    3    3  502    0  0.10341128854E+04 -0.37964689786E+03 -0.11520935516E+04  0.15940014989E+04  0.25500000920E-02 0.  1.
       -2    1    3    3    0  502 -0.10341128854E+04  0.37964689786E+03  0.14638291329E+04  0.18320253702E+04  0.25500000920E-02 0. -1.
</event>
<event>
 5   0  0.8489228E-07  0.3419955E+04  0.7818609E-02  0.8133026E-01
       -2   -1    0    0    0  501  0.00000000000E+00  0.00000000000E+00  0.13932548122E+04  0.13932548122E+04  0.25500000920E-02 0.  1.
        2   -1    0    0  501    0  0.00000000000E+00  0.00000000000E+00 -0.20986992532E+04  0.20986992532E+04  0.25500000920E-02 0. -1.
    10030    2    1    2    0    0  0.00000000000E+00  0.00000000000E+00 -0.70544444097E+03  0.34919540654E+04  0.34199548733E+04 0.  0.
        3    1    3    3  502    0 -0.78518785727E+03  0.11659618791E+04  0.64144743611E+03  0.15451349126E+04  0.10100000352E+00 0.  1.
       -3    1    3    3    0  502  0.78518785727E+03 -0.11659618791E+04 -0.13468918771E+04  0.19468191528E+04  0.10100000352E+00 0. -1.
</event>
<event>
 5   0  0.2553250E-07  0.3396350E+04  0.7818609E-02  0.8138803E-01
        1   -1    0    0  501    0  0.00000000000E+00  0.00000000000E+00  0.16657863239E+04  0.16657863239E+04  0.50400001928E-02 0. -1.
       -1   -1    0    0    0  501  0.00000000000E+00  0.00000000000E+00 -0.17311935681E+04  0.17311935681E+04  0.50400001928E-02 0.  1.
    10030    2    1    2    0    0  0.00000000000E+00  0.00000000000E+00 -0.65407244177E+02  0.33969798921E+04  0.33963501409E+04 0.  0.
        5    1    3    3  502    0 -0.46072066165E+03 -0.19591775461E+03 -0.16556964580E+04  0.17297399069E+04  0.46999998093E+01 0.  1.
       -5    1    3    3    0  502  0.46072066165E+03  0.19591775461E+03  0.15902892138E+04  0.16672399852E+04  0.46999998093E+01 0. -1.
</event>
<event>
 5   0  0.2592200E-07  0.3408822E+04  0.7818609E-02  0.8135744E-01
        1   -1    0    0  501    0  0.00000000000E+00  0.00000000000E+00  0.14958653339E+04  0.14958653339E+04  0.50400001928E-02 0. -1.
       -1   -1    0    0    0  501  0.00000000000E+00  0.00000000000E+00 -0.19420314710E+04  0.19420314710E+04  0.50400001928E-02 0.  1.
    10030    2    1    2    0    0  0.00000000000E+00  0.00000000000E+00 -0.44616613708E+03  0.34378968049E+04  0.34088224095E+04 0.  0.
        4    1    3    3  502    0 -0.61261420755E+03 -0.13667397006E+04 -0.10434968175E+04  0.18254207179E+04  0.12699999809E+01 0.  1.
       -4    1    3    3    0  502  0.61261420755E+03  0.13667397006E+04  0.59733068045E+03  0.16124760870E+04  0.12699999809E+01 0. -1.
</event>
<event>
 5   0  0.2622205E-07  0.3401715E+04  0.7818609E-02  0.8137485E-01
       -1   -1    0    0    0  501  0.00000000000E+00  0.00000000000E+00  0.14383696068E+04  0.14383696068E+04  0.50400001928E-02 0.  1.
        1   -1    0    0  501    0  0.00000000000E+00  0.00000000000E+00 -0.20112471812E+04  0.20112471812E+04  0.50400001928E-02 0. -1.
    10030    2    1    2    0    0  0.00000000000E+00  0.00000000000E+00 -0.57287757436E+03  0.34496167880E+04  0.34017153421E+04 0.  0.
        3    1    3    3  502    0 -0.99425167161E+03  0.11639682207E+04 -0.10381998189E+04  0.18496532863E+04  0.10100000352E+00 0. -1.
       -3    1    3    3    0  502  0.99425167161E+03 -0.11639682207E+04  0.46532224454E+03  0.15999635017E+04  0.10100000352E+00 0.  1.
</event>
<event>
 5   0  0.7838333E-07  0.3343462E+04  0.7818609E-02  0.8151924E-01
       -2   -1    0    0    0  501  0.00000000000E+00  0.00000000000E+00  0.17062478514E+04  0.17062478514E+04  0.25500000920E-02 0.  1.
        2   -1    0    0  501    0  0.00000000000E+00  0.00000000000E+00 -0.16379123350E+04  0.16379123350E+04  0.25500000920E-02 0. -1.
    10030    2    1    2    0    0  0.00000000000E+00  0.00000000000E+00  0.68335516338E+02  0.33441601864E+04  0.33434619198E+04 0.  0.
        1    1    3    3  502    0  0.48332500270E+03 -0.14523704133E+04 -0.63806004404E+03  0.16583435999E+04  0.50400001928E-02 0. -1.
       -1    1    3    3    0  502 -0.48332500270E+03  0.14523704133E+04  0.70639556038E+03  0.16858165865E+04  0.50400001928E-02 0.  1.
</event>
<event>
 5   0  0.2641442E-07  0.3427687E+04  0.7818609E-02  0.8131144E-01
       -1   -1    0    0    0  501  0.00000000000E+00  0.00000000000E+00  0.15094334183E+04  0.15094334183E+04  0.50400001928E-02 0.  1.
        1   -1    0    0  501    0  0.00000000000E+00  0.00000000000E+00 -0.19459346486E+04  0.19459346486E+04  0.50400001928E-02 0. -1.
    10030    2    1    2    0    0  0.00000000000E+00  0.00000000000E+00 -0.43650123031E+03  0.34553680669E+04  0.34276865600E+04 0.  0.
        1    1    3    3  502    0  0.16233246463E+03  0.10704892084E+04 -0.15574974371E+04  0.18968651088E+04  0.50400001928E-02 0. -1.
       -1    1    3    3    0  502 -0.16233246463E+03 -0.10704892084E+04  0.11209962068E+04  0.15585029580E+04  0.50400001928E-02 0.  1.
</event>
<event>
 5   0  0.8489228E-07  0.3392032E+04  0.7818609E-02  0.8139865E-01
       -2   -1    0    0    0  501  0.00000000000E+00  0.00000000000E+00  0.10561400200E+04  0.10561400200E+04  0.25500000920E-02 0.  1.
        2   -1    0    0  501    0  0.00000000000E+00  0.00000000000E+00 -0.27235693947E+04  0.27235693947E+04  0.25500000920E-02 0. -1.
    10030    2    1    2    0    0  0.00000000000E+00  0.00000000000E+00 -0.16674293746E+04  0.37797094147E+04  0.33920322139E+04 0.  0.
        3    1    3    3  502    0  0.89402232880E+03  0.87880677501E+03 -0.21065902646E+04  0.24513873266E+04  0.10100000352E+00 0. -1.
       -3    1    3    3    0  502 -0.89402232880E+03 -0.87880677501E+03  0.43916088992E+03  0.13283220881E+04  0.10100000352E+00 0.  1.
</event>
<event>
 5   0  0.8489228E-07  0.3422500E+04  0.7818609E-02  0.8132406E-01
       -2   -1    0    0    0  501  0.00000000000E+00  0.00000000000E+00  0.91694356546E+03  0.91694356546E+03  0.25500000920E-02 0.  1.
        2   -1    0    0  501    0  0.00000000000E+00  0.00000000000E+00 -0.31936279196E+04  0.31936279196E+04  0.25500000920E-02 0. -1.
    10030    2    1    2    0    0  0.00000000000E+00  0.00000000000E+00 -0.22766843541E+04  0.41105714850E+04  0.34225000052E+04 0.  0.
        3    1    3    3  502    0  0.50668570458E+02 -0.54085415786E+03  0.81063954353E+03  0.97582119461E+03  0.10100000352E+00 0.  1.
       -3    1    3    3    0  502 -0.50668570458E+02  0.54085415786E+03 -0.30873238976E+04  0.31347502904E+04  0.10100000352E+00 0. -1.
</event>
<event>
 5   0  0.7610412E-07  0.3401347E+04  0.7818609E-02  0.8137576E-01
       -2   -1    0    0    0  501  0.00000000000E+00  0.00000000000E+00  0.14717503806E+04  0.14717503806E+04  0.25500000920E-02 0.  1.
        2   -1    0    0  501    0  0.00000000000E+00  0.00000000000E+00 -0.19652049439E+04  0.19652049439E+04  0.25500000920E-02 0. -1.
    10030    2    1    2    0    0  0.00000000000E+00  0.00000000000E+00 -0.49345456328E+03  0.34369553245E+04  0.34013474530E+04 0.  0.
        4    1    3    3  502    0  0.10880051967E+04  0.82055249595E+03  0.78138572367E+03  0.15708682213E+04  0.12699999809E+01 0.  1.
       -4    1    3    3    0  502 -0.10880051967E+04 -0.82055249595E+03 -0.12748402870E+04  0.18660871032E+04  0.12699999809E+01 0. -1.
</event>
<event>
 5   0  0.2622205E-07  0.3387869E+04  0.7818609E-02  0.8140890E-01
       -1   -1    0    0    0  501  0.00000000000E+00  0.00000000000E+00  0.18113005585E+04  0.18113005585E+04  0.50400001928E-02 0. -1.
        1   -1    0    0  501    0  0.00000000000E+00  0.00000000000E+00 -0.15841737808E+04  0.15841737808E+04  0.50400001928E-02 0.  1.
    10030    2    1    2    0    0  0.00000000000E+00  0.00000000000E+00  0.22712677767E+03  0.33954743393E+04  0.33878694508E+04 0.  0.
        3    1    3    3  502    0  0.24207268211E+03 -0.15804088406E+04 -0.44726715323E+03  0.16602226367E+04  0.10100000352E+00 0.  1.
       -3    1    3    3    0  502 -0.24207268211E+03  0.15804088406E+04  0.67439393089E+03  0.17352517025E+04  0.10100000352E+00 0. -1.
</event>
<event>
 5   0  0.7610412E-07  0.3282047E+04  0.7818609E-02  0.8167479E-01
        2   -1    0    0  501    0  0.00000000000E+00  0.00000000000E+00  0.29352117930E+04  0.29352117930E+04  0.25500000920E-02 0.  1.
       -2   -1    0    0    0  501  0.00000000000E+00  0.00000000000E+00 -0.91746656383E+03  0.91746656383E+03  0.25500000920E-02 0. -1.
    10030    2    1    2    0    0  0.00000000000E+00  0.00000000000E+00  0.20177452292E+04  0.38526783568E+04  0.32820473353E+04 0.  0.
        4    1    3    3  502    0  0.14366157346E+04  0.22823701933E+03  0.11719907489E+03  0.14593471630E+04  0.12699999809E+01 0. -1.
       -4    1    3    3    0  502 -0.14366157346E+04 -0.22823701933E+03  0.19005461543E+04  0.23933311938E+04  0.12699999809E+01 0.  1.
</event>
<event>
 5   0  0.2553250E-07  0.3407979E+04  0.7818609E-02  0.8135951E-01
        1   -1    0    0  501    0  0.00000000000E+00  0.00000000000E+00  0.19315437539E+04  0.19315437539E+04  0.50400001928E-02 0.  1.
       -1   -1    0    0    0  501  0.00000000000E+00  0.00000000000E+00 -0.15032435600E+04  0.15032435600E+04  0.50400001928E-02 0. -1.
    10030    2    1    2    0    0  0.00000000000E+00  0.00000000000E+00  0.42830019384E+03  0.34347873139E+04  0.34079792892E+04 0.  0.
        5    1    3    3  502    0 -0.47519728640E+03 -0.60248194416E+03 -0.13192519690E+04  0.15261863588E+04  0.46999998093E+01 0. -1.
       -5    1    3    3    0  502  0.47519728640E+03  0.60248194416E+03  0.17475521628E+04  0.19086009551E+04  0.46999998093E+01 0.  1.
</event>
<event>
 5   0  0.7838333E-07  0.3404412E+04  0.7818609E-02  0.8136824E-01
       -2   -1    0    0    0  501  0.00000000000E+00  0.00000000000E+00  0.13214104305E+04  0.13214104305E+04  0.25500000920E-02 0.  1.
        2   -1    0    0  501    0  0.00000000000E+00  0.00000000000E+00 -0.21927368865E+04  0.21927368865E+04  0.25500000920E-02 0. -1.
    10030    2    1    2    0    0  0.00000000000E+00  0.00000000000E+00 -0.87132645601E+03  0.35141473169E+04  0.34044120744E+04 0.  0.
        1    1    3    3  502    0  0.14402368948E+04 -0.24440655434E+03  0.46627977964E+03  0.15334385250E+04  0.50400001928E-02 0.  1.
       -1    1    3    3    0  502 -0.14402368948E+04  0.24440655434E+03 -0.13376062356E+04  0.19807087920E+04  0.50400001928E-02 0. -1.
</event>
<event>
 5   0  0.2599367E-07  0.3387824E+04  0.7818609E-02  0.8140901E-01
        1   -1    0    0  501    0  0.00000000000E+00  0.00000000000E+00  0.14661934410E+04  0.14661934410E+04  0.50400001928E-02 0.  1.
       -1   -1    0    0    0  501  0.00000000000E+00  0.00000000000E+00 -0.19569979070E+04  0.19569979070E+04  0.50400001928E-02 0. -1.
    10030    2    1    2    0    0  0.00000000000E+00  0.00000000000E+00 -0.49080446602E+03  0.34231913479E+04  0.33878237824E+04 0.  0.
        2    1    3    3  502    0  0.15609360015E+04  0.33529511931E+03 -0.81734450525E+03  0.17935986335E+04  0.25500000920E-02 0. -1.
       -2    1    3    3    0  502 -0.15609360015E+04 -0.33529511931E+03  0.32654003923E+03  0.16295927145E+04  0.25500000920E-02 0.  1.
</event>
<event>
 5   0  0.7822003E-07  0.3424604E+04  0.7818609E-02  0.8131894E-01
       -2   -1    0    0    0  501  0.00000000000E+00  0.00000000000E+00  0.12843215968E+04  0.12843215968E+04  0.25500000920E-02 0.  1.
        2   -1    0    0  501    0  0.00000000000E+00  0.00000000000E+00 -0.22829000714E+04  0.22829000714E+04  0.25500000920E-02 0. -1.
    10030    2    1    2    0    0  0.00000000000E+00  0.00000000000E+00 -0.99857847455E+03  0.35672216682E+04  0.34246038399E+04 0.  0.
        5    1    3    3  502    0  0.55478074336E+03  0.15883901482E+04 -0.83064181722E+03  0.18763669296E+04  0.46999998093E+01 0. -1.
       -5    1    3    3    0  502 -0.55478074336E+03 -0.15883901482E+04 -0.16793665733E+03  0.16908547386E+04  0.46999998093E+01 0.  1.
</event>
<event>
 5   0  0.2622205E-07  0.3397296E+04  0.7818609E-02  0.8138570E-01
       -1   -1    0    0    0  501  0.00000000000E+00  0.00000000000E+00  0.19403563651E+04  0.19403563651E+04  0.50400001928E-02 0. -1.
        1   -1    0    0  501    0  0.00000000000E+00  0.00000000000E+00 -0.14870492146E+04  0.14870492146E+04  0.50400001928E-02 0.  1.
    10030    2    1    2    0    0  0.00000000000E+00  0.00000000000E+00  0.45330715056E+03  0.34274055797E+04  0.33972962242E+04 0.  0.
        3    1    3    3  502    0 -0.15308875660E+04  0.47167621763E+03 -0.34342993863E+03  0.16383037957E+04  0.10100000352E+00 0.  1.
       -3    1    3    3    0  502  0.15308875660E+04 -0.47167621763E+03  0.79673708919E+03  0.17891017840E+04  0.10100000352E+00 0. -1.
</event>
<event>
 5   0  0.2622205E-07  0.3408003E+04  0.7818609E-02  0.8135945E-01
        1   -1    0    0  501    0  0.00000000000E+00  0.00000000000E+00  0.19399565385E+04  0.19399565386E+04  0.50400001928E-02 0. -1.
       -1   -1    0    0    0  501  0.00000000000E+00  0.00000000000E+00 -0.14967456105E+04  0.14967456105E+04  0.50400001928E-02 0.  1.
    10030    2    1    2    0    0  0.00000000000E+00  0.00000000000E+00  0.44321092807E+03  0.34367021490E+04  0.34080031887E+04 0.  0.
        3    1    3    3  502    0 -0.16106704424E+04 -0.50780025547E+03  0.45045495082E+03  0.17478644245E+04  0.10100000352E+00 0. -1.
       -3    1    3    3    0  502  0.16106704424E+04  0.50780025547E+03 -0.72440227460E+01  0.16888377245E+04  0.10100000352E+00 0.  1.
</event>
<event>
 5   0  0.2553250E-07  0.3094250E+04  0.7818609E-02  0.8217318E-01
        3   -1    0    0  501    0  0.00000000000E+00  0.00000000000E+00  0.12186513311E+04  0.12186513353E+04  0.10100000352E+00 0.  1.
       -3   -1    0    0    0  501  0.00000000000E+00  0.00000000000E+00 -0.19641352952E+04  0.19641352978E+04  0.10100000352E+00 0. -1.
    10030    2    1    2    0    0  0.00000000000E+00  0.00000000000E+00 -0.74548396409E+03  0.31827866331E+04  0.30942502179E+04 0.  0.
        3    1    3    3  502    0  0.72081923107E+03 -0.21420857661E+03 -0.17635131613E+04  0.19171448454E+04  0.10100000352E+00 0. -1.
       -3    1    3    3    0  502 -0.72081923107E+03  0.21420857661E+03  0.10180291972E+04  0.12656417877E+04  0.10100000352E+00 0.  1.
</event>
<event>
 5   0  0.2622205E-07  0.3382798E+04  0.7818609E-02  0.8142141E-01
       -1   -1    0    0    0  501  0.00000000000E+00  0.00000000000E+00  0.12999161704E+04  0.12999161705E+04  0.50400001928E-02 0. -1.
        1   -1    0    0  501    0  0.00000000000E+00  0.00000000000E+00 -0.22007805334E+04  0.22007805334E+04  0.50400001928E-02 0.  1.
    10030    2    1    2    0    0  0.00000000000E+00  0.00000000000E+00 -0.90086436295E+03  0.35006967039E+04  0.33827977788E+04 0.  0.
        3    1    3    3  502    0 -0.55966335022E+03  0.11330195306E+04  0.71297118599E+03  0.14509597667E+04  0.10100000352E+00 0. -1.
       -3    1    3    3    0  502  0.55966335022E+03 -0.11330195306E+04 -0.16138355489E+04  0.20497369372E+04  0.10100000352E+00 0.  1.
</event>
<event>
 5   0  0.2599367E-07  0.3456961E+04  0.7818609E-02  0.8124066E-01
       -1   -1    0    0    0  501  0.00000000000E+00  0.00000000000E+00  0.15990818113E+04  0.15990818113E+04  0.50400001928E-02 0.  1.
        1   -1    0    0  501    0  0.00000000000E+00  0.00000000000E+00 -0.18683505882E+04  0.18683505883E+04  0.50400001928E-02 0. -1.
    10030    2    1    2    0    0  0.00000000000E+00  0.00000000000E+00 -0.26926877693E+03  0.34674323996E+04  0.34569613494E+04 0.  0.
        2    1    3    3  502    0 -0.54743406344E+03 -0.39006465270E+03  0.14626120039E+04  0.16096795834E+04  0.25500000920E-02 0.  1.
       -2    1    3    3    0  502  0.54743406344E+03  0.39006465270E+03 -0.17318807808E+04  0.18577528162E+04  0.25500000920E-02 0. -1.
</event>
<event>
 5   0  0.2553250E-07  0.3423528E+04  0.7818609E-02  0.8132156E-01
       -1   -1    0    0    0  501  0.00000000000E+00  0.00000000000E+00  0.14785453082E+04  0.14785453082E+04  0.50400001928E-02 0.  1.
        1   -1    0    0  501    0  0.00000000000E+00  0.00000000000E+00 -0.19817699163E+04  0.19817699163E+04  0.50400001928E-02 0. -1.
    10030    2    1    2    0    0  0.00000000000E+00  0.00000000000E+00 -0.50322460806E+03  0.34603152245E+04  0.34235283622E+04 0.  0.
        5    1    3    3  502    0 -0.51741189228E+03  0.23299090527E+03  0.13807068484E+04  0.14927737000E+04  0.46999998093E+01 0.  1.
       -5    1    3    3    0  502  0.51741189228E+03 -0.23299090527E+03 -0.18839314564E+04  0.19675415245E+04  0.46999998093E+01 0. -1.
</event>
<event>
 5   0  0.7822003E-07  0.3395670E+04  0.7818609E-02  0.8138970E-01
       -2   -1    0    0    0  501  0.00000000000E+00  0.00000000000E+00  0.11384861665E+04  0.11384861665E+04  0.25500000920E-02 0. -1.
        2   -1    0    0  501    0  0.00000000000E+00  0.00000000000E+00 -0.25319971832E+04  0.25319971832E+04  0.25500000920E-02 0.  1.
    10030    2    1    2    0    0  0.00000000000E+00  0.00000000000E+00 -0.13935110166E+04  0.36704833497E+04  0.33956700468E+04 0.  0.
        5    1    3    3  502    0  0.28482480496E+03 -0.91151293223E+03  0.82064944220E+03  0.12591539192E+04  0.46999998093E+01 0. -1.
       -5    1    3    3    0  502 -0.28482480496E+03  0.91151293223E+03 -0.22141604588E+04  0.24113294305E+04  0.46999998093E+01 0.  1.
</event>
<event>
 5   0  0.2553250E-07  0.3433302E+04  0.7818609E-02  0.8129781E-01
        1   -1    0    0  501    0  0.00000000000E+00  0.00000000000E+00  0.20626706165E+04  0.20626706165E+04  0.50400001928E-02 0.  1.
       -1   -1    0    0    0  501  0.00000000000E+00  0.00000000000E+00 -0.14286773697E+04  0.14286773697E+04  0.50400001928E-02 0. -1.
    10030    2    1    2    0    0  0.00000000000E+00  0.00000000000E+00  0.63399324680E+03  0.34913479863E+04  0.34333021021E+04 0.  0.
        5    1    3    3  502    0  0.16836955262E+04 -0.32401183502E+03  0.23158586094E+03  0.17301642683E+04  0.46999998093E+01 0.  1.
       -5    1    3    3    0  502 -0.16836955262E+04  0.32401183502E+03  0.40240738585E+03  0.17611837180E+04  0.46999998093E+01 0. -1.
</event>
<event>
 5   0  0.7838333E-07  0.3402189E+04  0.7818609E-02  0.8137369E-01
        2   -1    0    0  501    0  0.00000000000E+00  0.00000000000E+00  0.27067410736E+04  0.27067410736E+04  0.25500000920E-02 0.  1.
       -2   -1    0    0    0  501  0.00000000000E+00  0.00000000000E+00 -0.10690800659E+04  0.10690800659E+04  0.25500000920E-02 0. -1.
    10030    2    1    2    0    0  0.00000000000E+00  0.00000000000E+00  0.16376610077E+04  0.37758211395E+04  0.34021892512E+04 0.  0.
        1    1    3    3  502    0 -0.90836542250E+03  0.14376257594E+04  0.86627272774E+03  0.19084873601E+04  0.50400001928E-02 0.  1.
       -1    1    3    3    0  502  0.90836542250E+03 -0.14376257594E+04  0.77138827995E+03  0.18673337793E+04  0.50400001928E-02 0. -1.
</event>
<event>
 5   0  0.2641442E-07  0.3487944E+04  0.7818609E-02  0.8116653E-01
       -1   -1    0    0    0  501  0.00000000000E+00  0.00000000000E+00  0.27057222903E+04  0.27057222904E+04  0.50400001928E-02 0.  1.
        1   -1    0    0  501    0  0.00000000000E+00  0.00000000000E+00 -0.11240762391E+04  0.11240762392E+04  0.50400001928E-02 0. -1.
    10030    2    1    2    0    0  0.00000000000E+00  0.00000000000E+00  0.15816460512E+04  0.38297985295E+04  0.34879438851E+04 0.  0.
        1    1    3    3  502    0 -0.56302949786E+03  0.69425500954E+03 -0.85342536780E+03  0.12358507564E+04  0.50400001928E-02 0. -1.
       -1    1    3    3    0  502  0.56302949786E+03 -0.69425500954E+03  0.24350714190E+04  0.25939477731E+04  0.50400001928E-02 0.  1.
</event>
<event>
 5   0  0.7610412E-07  0.3393614E+04  0.7818609E-02  0.8139475E-01
       -2   -1    0    0    0  501  0.00000000000E+00  0.00000000000E+00  0.19353486511E+04  0.19353486511E+04  0.25500000920E-02 0. -1.
        2   -1    0    0  501    0  0.00000000000E+00  0.00000000000E+00 -0.14876672424E+04  0.14876672424E+04  0.25500000920E-02 0.  1.
    10030    2    1    2    0    0  0.00000000000E+00  0.00000000000E+00  0.44768140868E+03  0.34230158935E+04  0.33936144689E+04 0.  0.
        4    1    3    3  502    0  0.14257628047E+04  0.47454145880E+03  0.10188085337E+04  0.18154783427E+04  0.12699999809E+01 0. -1.
       -4    1    3    3    0  502 -0.14257628047E+04 -0.47454145880E+03 -0.57112712504E+03  0.16075375508E+04  0.12699999809E+01 0.  1.
</event>
<event>
 5   0  0.8489228E-07  0.3404160E+04  0.7818609E-02  0.8136886E-01
       -2   -1    0    0    0  501  0.00000000000E+00  0.00000000000E+00  0.13139774175E+04  0.13139774175E+04  0.25500000920E-02 0.  1.
        2   -1    0    0  501    0  0.00000000000E+00  0.00000000000E+00 -0.22048146948E+04  0.22048146948E+04  0.25500000920E-02 0. -1.
    10030    2    1    2    0    0  0.00000000000E+00  0.00000000000E+00 -0.89083727727E+03  0.35187921123E+04  0.34041602305E+04 0.  0.
        3    1    3    3  502    0  0.15906070978E+04 -0.23521253914E+03  0.13170189737E+03  0.16132889630E+04  0.10100000352E+00 0.  1.
       -3    1    3    3    0  502 -0.15906070978E+04  0.23521253914E+03 -0.10225391746E+04  0.19055031493E+04  0.10100000352E+00 0. -1.
</event>
<event>
 5   0  0.2622205E-07  0.3396287E+04  0.7818609E-02  0.8138818E-01
        1   -1    0    0  501    0  0.00000000000E+00  0.00000000000E+00  0.17488743998E+04  0.17488743998E+04  0.50400001928E-02 0.  1.
       -1   -1    0    0    0  501  0.00000000000E+00  0.00000000000E+00 -0.16488843466E+04  0.16488843466E+04  0.50400001928E-02 0. -1.
    10030    2    1    2    0    0  0.00000000000E+00  0.00000000000E+00  0.99990053170E+02  0.33977587464E+04  0.33962871622E+04 0.  0.
        3    1    3    3  502    0 -0.16645138501E+04  0.52233467967E+02 -0.28234903245E+03  0.16890990731E+04  0.10100000352E+00 0.  1.
       -3    1    3    3    0  502  0.16645138501E+04 -0.52233467967E+02  0.38233908562E+03  0.17086596733E+04  0.10100000352E+00 0. -1.
</event>
<event>
 5   0  0.2553250E-07  0.3401157E+04  0.7818609E-02  0.8137622E-01
       -1   -1    0    0    0  501  0.00000000000E+00  0.00000000000E+00  0.10731633260E+04  0.10731633260E+04  0.50400001928E-02 0.  1.
        1   -1    0    0  501    0  0.00000000000E+00  0.00000000000E+00 -0.26948056865E+04  0.26948056865E+04  0.50400001928E-02 0. -1.
    10030    2    1    2    0    0  0.00000000000E+00  0.00000000000E+00 -0.16216423605E+04  0.37679690125E+04  0.34011566465E+04 0.  0.
        5    1    3    3  502    0  0.82189738949E+03 -0.21356650085E+03 -0.24430928855E+04  0.25864746096E+04  0.46999998093E+01 0. -1.
       -5    1    3    3    0  502 -0.82189738949E+03  0.21356650085E+03  0.82145052500E+03  0.11814944029E+04  0.46999998093E+01 0.  1.
</event>
<event>
 5   0  0.2592200E-07  0.3393200E+04  0.7818609E-02  0.8139577E-01
        1   -1    0    0  501    0  0.00000000000E+00  0.00000000000E+00  0.14283682925E+04  0.14283682925E+04  0.50400001928E-02 0. -1.
       -1   -1    0    0    0  501  0.00000000000E+00  0.00000000000E+00 -0.20152028381E+04  0.20152028381E+04  0.50400001928E-02 0.  1.
    10030    2    1    2    0    0  0.00000000000E+00  0.00000000000E+00 -0.58683454560E+03  0.34435711306E+04  0.33932001632E+04 0.  0.
        4    1    3    3  502    0 -0.43381411814E+03  0.13205884110E+04  0.69380378020E+03  0.15535487565E+04  0.12699999809E+01 0. -1.
       -4    1    3    3    0  502  0.43381411814E+03 -0.13205884110E+04 -0.12806383258E+04  0.18900223742E+04  0.12699999809E+01 0.  1.
</event>
<event>
 5   0  0.8489228E-07  0.3394807E+04  0.7818609E-02  0.8139182E-01
        2   -1    0    0  501    0  0.00000000000E+00  0.00000000000E+00  0.15379074167E+04  0.15379074167E+04  0.25500000920E-02 0. -1.
       -2   -1    0    0    0  501  0.00000000000E+00  0.00000000000E+00 -0.18734404368E+04  0.18734404368E+04  0.25500000920E-02 0.  1.
    10030    2    1    2    0    0  0.00000000000E+00  0.00000000000E+00 -0.33553302011E+03  0.34113478534E+04  0.33948065879E+04 0.  0.
        3    1    3    3  502    0 -0.63894950490E+03 -0.64408733451E+03 -0.16093551601E+04  0.18474655628E+04  0.10100000352E+00 0.  1.
       -3    1    3    3    0  502  0.63894950490E+03  0.64408733451E+03  0.12738221400E+04  0.15638822906E+04  0.10100000352E+00 0. -1.
</event>
<event>
 5   0  0.7899402E-07  0.3379767E+04  0.7818609E-02  0.8142890E-01
       -2   -1    0    0    0  501  0.00000000000E+00  0.00000000000E+00  0.12957302389E+04  0.12957302389E+04  0.25500000920E-02 0. -1.
        2   -1    0    0  501    0  0.00000000000E+00  0.00000000000E+00 -0.22039356017E+04  0.22039356017E+04  0.25500000920E-02 0.  1.
    10030    2    1    2    0    0  0.00000000000E+00  0.00000000000E+00 -0.90820536283E+03  0.34996658407E+04  0.33797668581E+04 0.  0.
        2    1    3    3  502    0  0.16635528245E+04  0.20503176887E+03 -0.23139123151E+03  0.16920366214E+04  0.25500000920E-02 0. -1.
       -2    1    3    3    0  502 -0.16635528245E+04 -0.20503176887E+03 -0.67681413132E+03  0.18076292193E+04  0.25500000920E-02 0.  1.
</event>
<event>
 5   0  0.8489228E-07  0.3378928E+04  0.7818609E-02  0.8143097E-01
       -2   -1    0    0    0  501  0.00000000000E+00  0.00000000000E+00  0.13273316772E+04  0.13273316772E+04  0.25500000920E-02 0. -1.
        2   -1    0    0  501    0  0.00000000000E+00  0.00000000000E+00 -0.21503961391E+04  0.21503961391E+04  0.25500000920E-02 0.  1.
    10030    2    1    2    0    0  0.00000000000E+00  0.00000000000E+00 -0.82306446182E+03  0.34777278163E+04  0.33789281815E+04 0.  0.
        3    1    3    3  502    0 -0.24865903655E+03  0.29430333051E+03 -0.21045750265E+04  0.21395517799E+04  0.10100000352E+00 0.  1.
       -3    1    3    3    0  502  0.24865903655E+03 -0.29430333051E+03  0.12815105646E+04  0.13381760364E+04  0.10100000352E+00 0. -1.
</event>
<event>
 5   0  0.7899402E-07  0.3446204E+04  0.7818609E-02  0.8126659E-01
       -2   -1    0    0    0  501  0.00000000000E+00  0.00000000000E+00  0.12616156668E+04  0.12616156668E+04  0.25500000920E-02 0.  1.
        2   -1    0    0  501    0  0.00000000000E+00  0.00000000000E+00 -0.23533950655E+04  0.23533950655E+04  0.25500000920E-02 0. -1.
    10030    2    1    2    0    0  0.00000000000E+00  0.00000000000E+00 -0.10917793987E+04  0.36150107323E+04  0.34462037577E+04 0.  0.
        2    1    3    3  502    0  0.10266572355E+04  0.65046659896E+03 -0.18271740243E+04  0.21944695921E+04  0.25500000920E-02 0. -1.
       -2    1    3    3    0  502 -0.10266572355E+04 -0.65046659896E+03  0.73539462559E+03  0.14205411402E+04  0.25500000920E-02 0.  1.
</event>
<event>
 5   0  0.8489228E-07  0.3390181E+04  0.7818609E-02  0.8140321E-01
        2   -1    0    0  501    0  0.00000000000E+00  0.00000000000E+00  0.13241270415E+04  0.13241270415E+04  0.25500000920E-02 0.  1.
       -2   -1    0    0    0  501  0.00000000000E+00  0.00000000000E+00 -0.21699814223E+04  0.21699814223E+04  0.25500000920E-02 0. -1.
    10030    2    1    2    0    0  0.00000000000E+00  0.00000000000E+00 -0.84585438076E+03  0.34941084638E+04  0.33901805738E+04 0.  0.
        3    1    3    3  502    0 -0.15108899416E+04 -0.51975839929E+03  0.16045832823E+03  0.16058281647E+04  0.10100000352E+00 0.  1.
       -3    1    3    3    0  502  0.15108899416E+04  0.51975839929E+03 -0.10063127090E+04  0.18882802991E+04  0.10100000352E+00 0. -1.
</event>
<event>
 5   0  0.7822003E-07  0.3389071E+04  0.7818609E-02  0.8140594E-01
       -2   -1    0    0    0  501  0.00000000000E+00  0.00000000000E+00  0.14323469332E+04  0.14323469333E+04  0.25500000920E-02 0. -1.
        2   -1    0    0  501    0  0.00000000000E+00  0.00000000000E+00 -0.20047167882E+04  0.20047167882E+04  0.25500000920E-02 0.  1.
    10030    2    1    2    0    0  0.00000000000E+00  0.00000000000E+00 -0.57236985496E+03  0.34370637215E+04  0.33890706358E+04 0.  0.
        5    1    3    3  502    0 -0.11768523378E+03  0.90478607204E+03  0.11619505984E+04  0.14773756914E+04  0.46999998093E+01 0. -1.
       -5    1    3    3    0  502  0.11768523378E+03 -0.90478607204E+03 -0.17343204533E+04  0.19596880301E+04  0.46999998093E+01 0.  1.
</event>
<event>
 5   0  0.7610412E-07  0.3408850E+04  0.7818609E-02  0.8135738E-01
       -2   -1    0    0    0  501  0.00000000000E+00  0.00000000000E+00  0.13968771983E+04  0.13968771983E+04  0.25500000920E-02 0. -1.
        2   -1    0    0  501    0  0.00000000000E+00  0.00000000000E+00 -0.20796844436E+04  0.20796844436E+04  0.25500000920E-02 0.  1.
    10030    2    1    2    0    0  0.00000000000E+00  0.00000000000E+00 -0.68280724534E+03  0.34765616419E+04  0.34088495296E+04 0.  0.
        4    1    3    3  502    0  0.11508732198E+04  0.12468350964E+04 -0.50571007934E+03  0.17705511071E+04  0.12699999809E+01 0. -1.
       -4    1    3    3    0  502 -0.11508732198E+04 -0.12468350964E+04 -0.17709716600E+03  0.17060105348E+04  0.12699999809E+01 0.  1.
</event>
<event>
 5   0  0.7610412E-07  0.3306516E+04  0.7818609E-02  0.8161239E-01
        2   -1    0    0  501    0  0.00000000000E+00  0.00000000000E+00  0.27984189057E+04  0.27984189057E+04  0.25500000920E-02 0.  1.
       -2   -1    0    0    0  501  0.00000000000E+00  0.00000000000E+00 -0.97671638676E+03  0.97671638677E+03  0.25500000920E-02 0. -1.
    10030    2    1    2    0    0  0.00000000000E+00  0.00000000000E+00  0.18217025189E+04  0.37751352924E+04  0.33065157506E+04 0.  0.
        4    1    3    3  502    0 -0.11277237838E+04  0.89736583543E+03 -0.14041034140E+02  0.14412581790E+04  0.12699999809E+01 0. -1.
       -4    1    3    3    0  502  0.11277237838E+04 -0.89736583543E+03  0.18357435530E+04  0.23338771134E+04  0.12699999809E+01 0.  1.
</event>
<event>
 5   0  0.2641442E-07  0.3432112E+04  0.7818609E-02  0.8130070E-01
        1   -1    0    0  501    0  0.00000000000E+00  0.00000000000E+00  0.24531387482E+04  0.24531387482E+04  0.50400001928E-02 0. -1.
       -1   -1    0    0    0  501  0.00000000000E+00  0.00000000000E+00 -0.12004407645E+04  0.12004407645E+04  0.50400001928E-02 0.  1.
    10030    2    1    2    0    0  0.00000000000E+00  0.00000000000E+00  0.12526979837E+04  0.36535795128E+04  0.34321117432E+04 0.  0.
        1    1    3    3  502    0 -0.16959857165E+04 -0.20580169229E+03  0.79841397700E+03  0.18857854507E+04  0.50400001928E-02 0.  1.
       -1    1    3    3    0  502  0.16959857165E+04  0.20580169229E+03  0.45428400674E+03  0.17677940621E+04  0.50400001928E-02 0. -1.
</event>
<event>
 5   0  0.7899402E-07  0.3395045E+04  0.7818609E-02  0.8139124E-01
       -2   -1    0    0    0  501  0.00000000000E+00  0.00000000000E+00  0.13934055162E+04  0.13934055162E+04  0.25500000920E-02 0. -1.
        2   -1    0    0  501    0  0.00000000000E+00  0.00000000000E+00 -0.20680141954E+04  0.20680141954E+04  0.25500000920E-02 0.  1.
    10030    2    1    2    0    0  0.00000000000E+00  0.00000000000E+00 -0.67460867925E+03  0.34614197116E+04  0.33950448524E+04 0.  0.
        2    1    3    3  502    0  0.76565983939E+02 -0.16542120762E+04 -0.71783365078E+03  0.18048725975E+04  0.25500000920E-02 0.  1.
       -2    1    3    3    0  502 -0.76565983939E+02  0.16542120762E+04  0.43224971527E+02  0.16565471141E+04  0.25500000920E-02 0. -1.
</event>
<event>
 5   0  0.2553250E-07  0.3411558E+04  0.7818609E-02  0.8135075E-01
       -1   -1    0    0    0  501  0.00000000000E+00  0.00000000000E+00  0.13176575420E+04  0.13176575420E+04  0.50400001928E-02 0.  1.
        1   -1    0    0  501    0  0.00000000000E+00  0.00000000000E+00 -0.22082236605E+04  0.22082236605E+04  0.50400001928E-02 0. -1.
    10030    2    1    2    0    0  0.00000000000E+00  0.00000000000E+00 -0.89056611846E+03  0.35258812025E+04  0.34115583306E+04 0.  0.
        5    1    3    3  502    0  0.12837190369E+04  0.68722816726E+03 -0.13635635550E+04  0.19948796400E+04  0.46999998093E+01 0. -1.
       -5    1    3    3    0  502 -0.12837190369E+04 -0.68722816726E+03  0.47299743651E+03  0.15310015625E+04  0.46999998093E+01 0.  1.
</event>
<event>
 5   0  0.2592200E-07  0.3406724E+04  0.7818609E-02  0.8136258E-01
       -1   -1    0    0    0  501  0.00000000000E+00  0.00000000000E+00  0.11133971336E+04  0.11133971336E+04  0.50400001928E-02 0.  1.
        1   -1    0    0  501    0  0.00000000000E+00  0.00000000000E+00 -0.26059363085E+04  0.26059363085E+04  0.50400001928E-02 0. -1.
    10030    2    1    2    0    0  0.00000000000E+00  0.00000000000E+00 -0.14925391749E+04  0.37193334421E+04  0.34067239491E+04 0.  0.
        4    1    3    3  502    0  0.14117583216E+04  0.91943689237E+03 -0.47220752548E+03  0.17496877772E+04  0.12699999809E+01 0.  1.
       -4    1    3    3    0  502 -0.14117583216E+04 -0.91943689237E+03 -0.10203316494E+04  0.19696456649E+04  0.12699999809E+01 0. -1.
</event>
<event>
 5   0  0.2553250E-07  0.3362112E+04  0.7818609E-02  0.8147268E-01
       -1   -1    0    0    0  501  0.00000000000E+00  0.00000000000E+00  0.15970365334E+04  0.15970365334E+04  0.50400001928E-02 0. -1.
        1   -1    0    0  501    0  0.00000000000E+00  0.00000000000E+00 -0.17694953798E+04  0.17694953798E+04  0.50400001928E-02 0.  1.
    10030    2    1    2    0    0  0.00000000000E+00  0.00000000000E+00 -0.17245884637E+03  0.33665319132E+04  0.33621116978E+04 0.  0.
        5    1    3    3  502    0 -0.43499369977E+03  0.98226720876E+03 -0.13809329451E+04  0.17495903169E+04  0.46999998093E+01 0.  1.
       -5    1    3    3    0  502  0.43499369977E+03 -0.98226720876E+03  0.12084740987E+04  0.16169415962E+04  0.46999998093E+01 0. -1.
</event>
<event>
 5   0  0.7838333E-07  0.3400428E+04  0.7818609E-02  0.8137801E-01
        2   -1    0    0  501    0  0.00000000000E+00  0.00000000000E+00  0.16077764506E+04  0.16077764506E+04  0.25500000920E-02 0. -1.
       -2   -1    0    0    0  501  0.00000000000E+00  0.00000000000E+00 -0.17979664488E+04  0.17979664488E+04  0.25500000920E-02 0.  1.
    10030    2    1    2    0    0  0.00000000000E+00  0.00000000000E+00 -0.19018999819E+03  0.34057428994E+04  0.34004282762E+04 0.  0.
        1    1    3    3  502    0  0.26597573341E+03 -0.55104897668E+03  0.14936787041E+04  0.16141481148E+04  0.50400001928E-02 0. -1.
       -1    1    3    3    0  502 -0.26597573341E+03  0.55104897668E+03 -0.16838687023E+04  0.17915947846E+04  0.50400001928E-02 0.  1.
</event>
<event>
 5   0  0.8489228E-07  0.3396409E+04  0.7818609E-02  0.8138788E-01
       -2   -1    0    0    0  501  0.00000000000E+00  0.00000000000E+00  0.12160980772E+04  0.12160980772E+04  0.25500000920E-02 0.  1.
        2   -1    0    0  501    0  0.00000000000E+00  0.00000000000E+00 -0.23714357784E+04  0.23714357784E+04  0.25500000920E-02 0. -1.
    10030    2    1    2    0    0  0.00000000000E+00  0.00000000000E+00 -0.11553377012E+04  0.35875338556E+04  0.33964089802E+04 0.  0.
        3    1    3    3  502    0 -0.13065812759E+04 -0.91474735008E+03 -0.11935592544E+04  0.19921096980E+04  0.10100000352E+00 0.  1.
       -3    1    3    3    0  502  0.13065812759E+04  0.91474735008E+03  0.38221553145E+02  0.15954241575E+04  0.10100000352E+00 0. -1.
</event>
<event>
 5   0  0.7822003E-07  0.3425265E+04  0.7818609E-02  0.8131733E-01
       -2   -1    0    0    0  501  0.00000000000E+00  0.00000000000E+00  0.18781045793E+04  0.18781045793E+04  0.25500000920E-02 0.  1.
        2   -1    0    0  501    0  0.00000000000E+00  0.00000000000E+00 -0.15617390391E+04  0.15617390391E+04  0.25500000920E-02 0. -1.
    10030    2    1    2    0    0  0.00000000000E+00  0.00000000000E+00  0.31636554021E+03  0.34398436184E+04  0.34252645101E+04 0.  0.
        5    1    3    3  502    0 -0.20230223857E+03  0.65261283755E+03  0.17352993180E+04  0.18649706498E+04  0.46999998093E+01 0.  1.
       -5    1    3    3    0  502  0.20230223857E+03 -0.65261283755E+03 -0.14189337778E+04  0.15748729686E+04  0.46999998093E+01 0. -1.
</event>
<event>
 5   0  0.2553250E-07  0.3369814E+04  0.7818609E-02  0.8145355E-01
       -1   -1    0    0    0  501  0.00000000000E+00  0.00000000000E+00  0.14658524025E+04  0.14658524025E+04  0.50400001928E-02 0.  1.
        1   -1    0    0  501    0  0.00000000000E+00  0.00000000000E+00 -0.19366965880E+04  0.19366965880E+04  0.50400001928E-02 0. -1.
    10030    2    1    2    0    0  0.00000000000E+00  0.00000000000E+00 -0.47084418548E+03  0.34025489904E+04  0.33698138502E+04 0.  0.
        5    1    3    3  502    0 -0.11037689006E+04 -0.26709884348E+03 -0.14921986235E+04  0.18751870307E+04  0.46999998093E+01 0. -1.
       -5    1    3    3    0  502  0.11037689006E+04  0.26709884348E+03  0.10213544380E+04  0.15273619598E+04  0.46999998093E+01 0.  1.
</event>
<event>
 5   0  0.8489228E-07  0.3400086E+04  0.7818609E-02  0.8137885E-01
        2   -1    0    0  501    0  0.00000000000E+00  0.00000000000E+00  0.10908210343E+04  0.10908210343E+04  0.25500000920E-02 0.  1.
       -2   -1    0    0    0  501  0.00000000000E+00  0.00000000000E+00 -0.26495147379E+04  0.26495147379E+04  0.25500000920E-02 0. -1.
    10030    2    1    2    0    0  0.00000000000E+00  0.00000000000E+00 -0.15586937036E+04  0.37403357723E+04  0.34000861206E+04 0.  0.
        3    1    3    3  502    0 -0.31662656341E+03  0.32375716991E+02 -0.26164473998E+04  0.26357347313E+04  0.10100000352E+00 0. -1.
       -3    1    3    3    0  502  0.31662656341E+03 -0.32375716991E+02  0.10577536962E+04  0.11046010410E+04  0.10100000352E+00 0.  1.
</event>
<event>
 5   0  0.7610412E-07  0.3330395E+04  0.7818609E-02  0.8155204E-01
        2   -1    0    0  501    0  0.00000000000E+00  0.00000000000E+00  0.13384107200E+04  0.13384107200E+04  0.25500000920E-02 0. -1.
       -2   -1    0    0    0  501  0.00000000000E+00  0.00000000000E+00 -0.20717724077E+04  0.20717724077E+04  0.25500000920E-02 0.  1.
    10030    2    1    2    0    0  0.00000000000E+00  0.00000000000E+00 -0.73336168772E+03  0.34101831277E+04  0.33303948113E+04 0.  0.
        4    1    3    3  502    0  0.10634372099E+04  0.96680794891E+03 -0.12278191394E+04  0.18902798104E+04  0.12699999809E+01 0.  1.
       -4    1    3    3    0  502 -0.10634372099E+04 -0.96680794891E+03  0.49445745169E+03  0.15199033173E+04  0.12699999809E+01 0. -1.
</event>
<event>
 5   0  0.7822003E-07  0.3397564E+04  0.7818609E-02  0.8138504E-01
       -2   -1    0    0    0  501  0.00000000000E+00  0.00000000000E+00  0.11481727487E+04  0.11481727487E+04  0.25500000920E-02 0.  1.
        2   -1    0    0  501    0  0.00000000000E+00  0.00000000000E+00 -0.25134373379E+04  0.25134373379E+04  0.25500000920E-02 0. -1.
    10030    2    1    2    0    0  0.00000000000E+00  0.00000000000E+00 -0.13652645893E+04  0.36616100866E+04  0.33975639844E+04 0.  0.
        5    1    3    3  502    0  0.70717795035E+03 -0.69937986536E+03  0.80156943510E+03  0.12774069433E+04  0.46999998093E+01 0.  1.
       -5    1    3    3    0  502 -0.70717795035E+03  0.69937986536E+03 -0.21668340244E+04  0.23842031433E+04  0.46999998093E+01 0. -1.
</event>
<event>
 5   0  0.2553250E-07  0.3412326E+04  0.7818609E-02  0.8134888E-01
       -1   -1    0    0    0  501  0.00000000000E+00  0.00000000000E+00  0.23625398920E+04  0.23625398920E+04  0.50400001928E-02 0. -1.
        1   -1    0    0  501    0  0.00000000000E+00  0.00000000000E+00 -0.12321450896E+04  0.12321450896E+04  0.50400001928E-02 0.  1.
    10030    2    1    2    0    0  0.00000000000E+00  0.00000000000E+00  0.11303948024E+04  0.35946849816E+04  0.34123258501E+04 0.  0.
        5    1    3    3  502    0  0.10119694539E+04 -0.92971866400E+03 -0.50003485105E+03  0.14623665451E+04  0.46999998093E+01 0.  1.
       -5    1    3    3    0  502 -0.10119694539E+04  0.92971866400E+03  0.16304296534E+04  0.21323184365E+04  0.46999998093E+01 0. -1.
</event>
<event>
 5   0  0.8489228E-07  0.3357536E+04  0.7818609E-02  0.8148408E-01
        2   -1    0    0  501    0  0.00000000000E+00  0.00000000000E+00  0.21019985141E+04  0.21019985141E+04  0.25500000920E-02 0. -1.
       -2   -1    0    0    0  501  0.00000000000E+00  0.00000000000E+00 -0.13407538307E+04  0.13407538307E+04  0.25500000920E-02 0.  1.
    10030    2    1    2    0    0  0.00000000000E+00  0.00000000000E+00  0.76124468341E+03  0.34427523448E+04  0.33575363348E+04 0.  0.
        3    1    3    3  502    0  0.62082398884E+03  0.15523188211E+04  0.53662313534E+03  0.17558703105E+04  0.10100000352E+00 0.  1.
       -3    1    3    3    0  502 -0.62082398884E+03 -0.15523188211E+04  0.22462154807E+03  0.16868820343E+04  0.10100000352E+00 0. -1.
</event>
<event>
 5   0  0.7838333E-07  0.3408535E+04  0.7818609E-02  0.8135815E-01
       -2   -1    0    0    0  501  0.00000000000E+00  0.00000000000E+00  0.15675536192E+04  0.15675536192E+04  0.25500000920E-02 0.  1.
        2   -1    0    0  501    0  0.00000000000E+00  0.00000000000E+00 -0.18529044766E+04  0.18529044766E+04  0.25500000920E-02 0. -1.
    10030    2    1    2    0    0  0.00000000000E+00  0.00000000000E+00 -0.28535085749E+03  0.34204580958E+04  0.34085346519E+04 0.  0.
        1    1    3    3  502    0 -0.13413163699E+04  0.39256529935E+03 -0.11214282489E+04  0.17918812561E+04  0.50400001928E-02 0. -1.
       -1    1    3    3    0  502  0.13413163699E+04 -0.39256529935E+03  0.83607739145E+03  0.16285768397E+04  0.50400001928E-02 0.  1.
</event>
<event>
 5   0  0.7610412E-07  0.3393489E+04  0.7818609E-02  0.8139506E-01
       -2   -1    0    0    0  501  0.00000000000E+00  0.00000000000E+00  0.15172674766E+04  0.15172674766E+04  0.25500000920E-02 0.  1.
        2   -1    0    0  501    0  0.00000000000E+00  0.00000000000E+00 -0.18974512679E+04  0.18974512679E+04  0.25500000920E-02 0. -1.
    10030    2    1    2    0    0  0.00000000000E+00  0.00000000000E+00 -0.38018379131E+03  0.34147187446E+04  0.33934885280E+04 0.  0.
        4    1    3    3  502    0 -0.25284056390E+03 -0.76106112469E+03  0.13145208876E+04  0.15398406291E+04  0.12699999809E+01 0.  1.
       -4    1    3    3    0  502  0.25284056390E+03  0.76106112469E+03 -0.16947046789E+04  0.18748781155E+04  0.12699999809E+01 0. -1.
</event>
<event>
 5   0  0.7838333E-07  0.3389462E+04  0.7818609E-02  0.8140497E-01
        2   -1    0    0  501    0  0.00000000000E+00  0.00000000000E+00  0.20339424957E+04  0.20339424957E+04  0.25500000920E-02 0.  1.
       -2   -1    0    0    0  501  0.00000000000E+00  0.00000000000E+00 -0.14120918995E+04  0.14120918995E+04  0.25500000920E-02 0. -1.
    10030    2    1    2    0    0  0.00000000000E+00  0.00000000000E+00  0.62185059614E+03  0.34460343952E+04  0.33894623303E+04 0.  0.
        1    1    3    3  502    0 -0.32708336991E+03 -0.14612803649E+04  0.11177638427E+04  0.18686144182E+04  0.50400001928E-02 0.  1.
       -1    1    3    3    0  502  0.32708336991E+03  0.14612803649E+04 -0.49591324660E+03  0.15774199770E+04  0.50400001928E-02 0. -1.
</event>
<event>
 5   0  0.8489228E-07  0.3419525E+04  0.7818609E-02  0.8133131E-01
       -2   -1    0    0    0  501  0.00000000000E+00  0.00000000000E+00  0.21890370457E+04  0.21890370457E+04  0.25500000920E-02 0.  1.
        2   -1    0    0  501    0  0.00000000000E+00  0.00000000000E+00 -0.13354214696E+04  0.13354214696E+04  0.25500000920E-02 0. -1.
    10030    2    1    2    0    0  0.00000000000E+00  0.00000000000E+00  0.85361557616E+03  0.35244585153E+04  0.34195245685E+04 0.  0.
        3    1    3    3  502    0  0.37194621811E+03  0.16103938522E+03  0.21388058300E+04  0.21768711632E+04  0.10100000352E+00 0.  1.
       -3    1    3    3    0  502 -0.37194621811E+03 -0.16103938522E+03 -0.12851902538E+04  0.13475873521E+04  0.10100000352E+00 0. -1.
</event>
<event>
 5   0  0.7899402E-07  0.3370402E+04  0.7818609E-02  0.8145209E-01
       -2   -1    0    0    0  501  0.00000000000E+00  0.00000000000E+00  0.12114034561E+04  0.12114034561E+04  0.25500000920E-02 0.  1.
        2   -1    0    0  501    0  0.00000000000E+00  0.00000000000E+00 -0.23443074302E+04  0.23443074302E+04  0.25500000920E-02 0. -1.
    10030    2    1    2    0    0  0.00000000000E+00  0.00000000000E+00 -0.11329039741E+04  0.35557108863E+04  0.33704018295E+04 0.  0.
        2    1    3    3  502    0 -0.10268143326E+04 -0.11788156436E+04  0.97388760406E+02  0.15663456087E+04  0.25500000920E-02 0.  1.
       -2    1    3    3    0  502  0.10268143326E+04  0.11788156436E+04 -0.12302927345E+04  0.19893652776E+04  0.25500000920E-02 0. -1.
</event>
<event>
 5   0  0.7838333E-07  0.3403394E+04  0.7818609E-02  0.8137074E-01
        2   -1    0    0  501    0  0.00000000000E+00  0.00000000000E+00  0.18294968653E+04  0.18294968653E+04  0.25500000920E-02 0. -1.
       -2   -1    0    0    0  501  0.00000000000E+00  0.00000000000E+00 -0.15828248485E+04  0.15828248485E+04  0.25500000920E-02 0.  1.
    10030    2    1    2    0    0  0.00000000000E+00  0.00000000000E+00  0.24667201684E+03  0.34123217138E+04  0.34033942461E+04 0.  0.
        1    1    3    3  502    0 -0.13934141059E+04 -0.12352223350E+03  0.10948527001E+04  0.17763904547E+04  0.50400001928E-02 0. -1.
       -1    1    3    3    0  502  0.13934141059E+04  0.12352223350E+03 -0.84818068324E+03  0.16359312590E+04  0.50400001928E-02 0.  1.
</event>
<event>
 5   0  0.7899402E-07  0.3362272E+04  0.7818609E-02  0.8147229E-01
        2   -1    0    0  501    0  0.00000000000E+00  0.00000000000E+00  0.15447272739E+04  0.15447272739E+04  0.25500000920E-02 0.  1.
       -2   -1    0    0    0  501  0.00000000000E+00  0.00000000000E+00 -0.18295900735E+04  0.18295900735E+04  0.25500000920E-02 0. -1.
    10030    2    1    2    0    0  0.00000000000E+00  0.00000000000E+00 -0.28486279962E+03  0.33743173474E+04  0.33622716645E+04 0.  0.
        2    1    3    3  502    0 -0.16394399146E+04 -0.26255404239E+03  0.12217934068E+03  0.16648200053E+04  0.25500000920E-02 0. -1.
       -2    1    3    3    0  502  0.16394399146E+04  0.26255404239E+03 -0.40704214030E+03  0.17094973421E+04  0.25500000920E-02 0.  1.
</event>
<event>
 5   0  0.2641442E-07  0.3346938E+04  0.7818609E-02  0.8151054E-01
       -1   -1    0    0    0  501  0.00000000000E+00  0.00000000000E+00  0.14174334228E+04  0.14174334228E+04  0.50400001928E-02 0.  1.
        1   -1    0    0  501    0  0.00000000000E+00  0.00000000000E+00 -0.19757536089E+04  0.19757536089E+04  0.50400001928E-02 0. -1.
    10030    2    1    2    0    0  0.00000000000E+00  0.00000000000E+00 -0.55832018608E+03  0.33931870317E+04  0.33469384222E+04 0.  0.
        1    1    3    3  502    0 -0.14751538069E+03 -0.37089443375E+03 -0.19267864299E+04  0.19676964743E+04  0.50400001928E-02 0. -1.
       -1    1    3    3    0  502  0.14751538069E+03  0.37089443375E+03  0.13684662438E+04  0.14254905573E+04  0.50400001928E-02 0.  1.
</event>
<event>
 5   0  0.2599367E-07  0.3419878E+04  0.7818609E-02  0.8133045E-01
       -1   -1    0    0    0  501  0.00000000000E+00  0.00000000000E+00  0.12561704321E+04  0.12561704321E+04  0.50400001928E-02 0.  1.
        1   -1    0    0  501    0  0.00000000000E+00  0.00000000000E+00 -0.23276235728E+04  0.23276235728E+04  0.50400001928E-02 0. -1.
    10030    2    1    2    0    0  0.00000000000E+00  0.00000000000E+00 -0.10714531408E+04  0.35837940049E+04  0.34198783073E+04 0.  0.
        2    1    3    3  502    0 -0.54380718056E+03  0.14677608496E+04  0.18562995311E+03  0.15762317852E+04  0.25500000920E-02 0.  1.
       -2    1    3    3    0  502  0.54380718056E+03 -0.14677608496E+04 -0.12570830939E+04  0.20075622197E+04  0.25500000920E-02 0. -1.
</event>
<event>
 5   0  0.2592200E-07  0.3364349E+04  0.7818609E-02  0.8146712E-01
        1   -1    0    0  501    0  0.00000000000E+00  0.00000000000E+00  0.19967778350E+04  0.19967778350E+04  0.50400001928E-02 0. -1.
       -1   -1    0    0    0  501  0.00000000000E+00  0.00000000000E+00 -0.14171390023E+04  0.14171390023E+04  0.50400001928E-02 0.  1.
    10030    2    1    2    0    0  0.00000000000E+00  0.00000000000E+00  0.57963883266E+03  0.34139168373E+04  0.33643494165E+04 0.  0.
        4    1    3    3  502    0  0.77201335855E+03  0.92026453532E+02  0.18035198809E+04  0.19639651391E+04  0.12699999809E+01 0. -1.
       -4    1    3    3    0  502 -0.77201335855E+03 -0.92026453532E+02 -0.12238810483E+04  0.14499516982E+04  0.12699999809E+01 0.  1.
</event>
<event>
 5   0  0.2553250E-07  0.3339197E+04  0.7818609E-02  0.8152993E-01
        1   -1    0    0  501    0  0.00000000000E+00  0.00000000000E+00  0.23749811917E+04  0.23749811917E+04  0.50400001928E-02 0.  1.
       -1   -1    0    0    0  501  0.00000000000E+00  0.00000000000E+00 -0.11737185032E+04  0.11737185032E+04  0.50400001928E-02 0. -1.
    10030    2    1    2    0    0  0.00000000000E+00  0.00000000000E+00  0.12012626885E+04  0.35486996949E+04  0.33391971307E+04 0.  0.
        5    1    3    3  502    0 -0.74460313280E+02 -0.14748103579E+04 -0.22730232583E+03  0.14940878045E+04  0.46999998093E+01 0. -1.
       -5    1    3    3    0  502  0.74460313280E+02  0.14748103579E+04  0.14285650143E+04  0.20546118904E+04  0.46999998093E+01 0.  1.
</event>
<event>
 5   0  0.8489228E-07  0.3405506E+04  0.7818609E-02  0.8136556E-01
        2   -1    0    0  501    0  0.00000000000E+00  0.00000000000E+00  0.28396957446E+04  0.28396957446E+04  0.25500000920E-02 0. -1.
       -2   -1    0    0    0  501  0.00000000000E+00  0.00000000000E+00 -0.10210135825E+04  0.10210135825E+04  0.25500000920E-02 0.  1.
    10030    2    1    2    0    0  0.00000000000E+00  0.00000000000E+00  0.18186821621E+04  0.38607093271E+04  0.34055060860E+04 0.  0.
        3    1    3    3  502    0 -0.12510549366E+04 -0.84284129204E+03  0.18047570671E+04  0.23521624050E+04  0.10100000352E+00 0. -1.
       -3    1    3    3    0  502  0.12510549366E+04  0.84284129204E+03  0.13925094990E+02  0.15085469222E+04  0.10100000352E+00 0.  1.
</event>
<event>
 5   0  0.8489228E-07  0.3401142E+04  0.7818609E-02  0.8137626E-01
        2   -1    0    0  501    0  0.00000000000E+00  0.00000000000E+00  0.27150405968E+04  0.27150405968E+04  0.25500000920E-02 0. -1.
       -2   -1    0    0    0  501  0.00000000000E+00  0.00000000000E+00 -0.10651560337E+04  0.10651560337E+04  0.25500000920E-02 0.  1.
    10030    2    1    2    0    0  0.00000000000E+00  0.00000000000E+00  0.16498845630E+04  0.37801966305E+04  0.34011420867E+04 0.  0.
        3    1    3    3  502    0 -0.69100497982E+03 -0.14683350462E+03  0.25442409893E+04  0.26404943064E+04  0.10100000352E+00 0. -1.
       -3    1    3    3    0  502  0.69100497982E+03  0.14683350462E+03 -0.89435642626E+03  0.11397023241E+04  0.10100000352E+00 0.  1.
</event>
<event>
 5   0  0.2622205E-07  0.3420957E+04  0.7818609E-02  0.8132782E-01
        1   -1    0    0  501    0  0.00000000000E+00  0.00000000000E+00  0.23904775767E+04  0.23904775767E+04  0.50400001928E-02 0.  1.
       -1   -1    0    0    0  501  0.00000000000E+00  0.00000000000E+00 -0.12239132387E+04  0.12239132387E+04  0.50400001928E-02 0. -1.
    10030    2    1    2    0    0  0.00000000000E+00  0.00000000000E+00  0.11665643381E+04  0.36143908154E+04  0.34209572654E+04 0.  0.
        3    1    3    3  502    0 -0.78090750989E+03  0.14801497013E+04  0.20962183576E+03  0.16865944983E+04  0.10100000352E+00 0. -1.
       -3    1    3    3    0  502  0.78090750989E+03 -0.14801497013E+04  0.95694250229E+03  0.19277963171E+04  0.10100000352E+00 0.  1.
</event>
<event>
 5   0  0.2592200E-07  0.3489270E+04  0.7818609E-02  0.8116338E-01
       -1   -1    0    0    0  501  0.00000000000E+00  0.00000000000E+00  0.15479594112E+04  0.15479594112E+04  0.50400001928E-02 0. -1.
        1   -1    0    0  501    0  0.00000000000E+00  0.00000000000E+00 -0.19662986351E+04  0.19662986351E+04  0.50400001928E-02 0.  1.
    10030    2    1    2    0    0  0.00000000000E+00  0.00000000000E+00 -0.41833922392E+03  0.35142580463E+04  0.34892695381E+04 0.  0.
        4    1    3    3  502    0 -0.92856516443E+02  0.11212082032E+04 -0.15521426405E+04  0.19169972762E+04  0.12699999809E+01 0.  1.
       -4    1    3    3    0  502  0.92856516443E+02 -0.11212082032E+04  0.11338034166E+04  0.15972607701E+04  0.12699999809E+01 0. -1.
</event>
<event>
 5   0  0.2553250E-07  0.3406949E+04  0.7818609E-02  0.8136203E-01
       -1   -1    0    0    0  501  0.00000000000E+00  0.00000000000E+00  0.14907631371E+04  0.14907631371E+04  0.50400001928E-02 0.  1.
        1   -1    0    0  501    0  0.00000000000E+00  0.00000000000E+00 -0.19465365499E+04  0.19465365499E+04  0.50400001928E-02 0. -1.
    10030    2    1    2    0    0  0.00000000000E+00  0.00000000000E+00 -0.45577341274E+03  0.34372996870E+04  0.34069487426E+04 0.  0.
        5    1    3    3  502    0  0.45497016626E+03  0.36360202519E+02  0.14279172364E+04  0.14990962746E+04  0.46999998093E+01 0.  1.
       -5    1    3    3    0  502 -0.45497016626E+03 -0.36360202519E+02 -0.18836906491E+04  0.19382034124E+04  0.46999998093E+01 0. -1.
</event>
<event>
 5   0  0.7610412E-07  0.3403399E+04  0.7818609E-02  0.8137073E-01
        2   -1    0    0  501    0  0.00000000000E+00  0.00000000000E+00  0.16335065153E+04  0.16335065153E+04  0.25500000920E-02 0.  1.
       -2   -1    0    0    0  501  0.00000000000E+00  0.00000000000E+00 -0.17727393691E+04  0.17727393691E+04  0.25500000920E-02 0. -1.
    10030    2    1    2    0    0  0.00000000000E+00  0.00000000000E+00 -0.13923285377E+03  0.34062458843E+04  0.34033990711E+04 0.  0.
        4    1    3    3  502    0  0.13995461214E+03  0.15879601003E+04 -0.66557661682E+03  0.17274832617E+04  0.12699999809E+01 0. -1.
       -4    1    3    3    0  502 -0.13995461214E+03 -0.15879601003E+04  0.52634376304E+03  0.16787626227E+04  0.12699999809E+01 0.  1.
</event>
<event>
 5   0  0.7610412E-07  0.3453163E+04  0.7818609E-02  0.8124980E-01
        2   -1    0    0  501    0  0.00000000000E+00  0.00000000000E+00  0.21694220604E+04  0.21694220604E+04  0.25500000920E-02 0.  1.
       -2   -1    0    0    0  501  0.00000000000E+00  0.00000000000E+00 -0.13741369533E+04  0.13741369533E+04  0.25500000920E-02 0. -1.
    10030    2    1    2    0    0  0.00000000000E+00  0.00000000000E+00  0.79528510710E+03  0.35435590137E+04  0.34531626202E+04 0.  0.
        4    1    3    3  502    0 -0.14587787838E+04 -0.77575607427E+03  0.91201094691E+03  0.18872198089E+04  0.12699999809E+01 0.  1.
       -4    1    3    3    0  502  0.14587787838E+04  0.77575607427E+03 -0.11672583981E+03  0.16563392048E+04  0.12699999809E+01 0. -1.
</event>
<event>
 5   0  0.8489228E-07  0.3408855E+04  0.7818609E-02  0.8135736E-01
       -2   -1    0    0    0  501  0.00000000000E+00  0.00000000000E+00  0.13395954961E+04  0.13395954961E+04  0.25500000920E-02 0.  1.
        2   -1    0    0  501    0  0.00000000000E+00  0.00000000000E+00 -0.21686199408E+04  0.21686199408E+04  0.25500000920E-02 0. -1.
    10030    2    1    2    0    0  0.00000000000E+00  0.00000000000E+00 -0.82902444468E+03  0.35082154369E+04  0.34088552362E+04 0.  0.
        3    1    3    3  502    0 -0.15646518538E+04  0.26323185516E+03  0.22624859280E+03  0.16026898855E+04  0.10100000352E+00 0.  1.
       -3    1    3    3    0  502  0.15646518538E+04 -0.26323185516E+03 -0.10552730375E+04  0.19055255514E+04  0.10100000352E+00 0. -1.
</event>
<event>
 5   0  0.2641442E-07  0.3387010E+04  0.7818609E-02  0.8141102E-01
        1   -1    0    0  501    0  0.00000000000E+00  0.00000000000E+00  0.25267945997E+04  0.25267945997E+04  0.50400001928E-02 0.  1.
       -1   -1    0    0    0  501  0.00000000000E+00  0.00000000000E+00 -0.11350186582E+04  0.11350186582E+04  0.50400001928E-02 0. -1.
    10030    2    1    2    0    0  0.00000000000E+00  0.00000000000E+00  0.13917759415E+04  0.36618132579E+04  0.33870099002E+04 0.  0.
        1    1    3    3  502    0  0.14544441996E+03 -0.16521110437E+04  0.32555555205E+03  0.16901512942E+04  0.50400001928E-02 0. -1.
       -1    1    3    3    0  502 -0.14544441996E+03  0.16521110437E+04  0.10662203894E+04  0.19716619636E+04  0.50400001928E-02 0.  1.
</event>
<event>
 5   0  0.7610412E-07  0.3384248E+04  0.7818609E-02  0.8141783E-01
        2   -1    0    0  501    0  0.00000000000E+00  0.00000000000E+00  0.23658816571E+04  0.23658816571E+04  0.25500000920E-02 0. -1.
       -2   -1    0    0    0  501  0.00000000000E+00  0.00000000000E+00 -0.12102395945E+04  0.12102395945E+04  0.25500000920E-02 0.  1.
    10030    2    1    2    0    0  0.00000000000E+00  0.00000000000E+00  0.11556420625E+04  0.35761212516E+04  0.33842480154E+04 0.  0.
        4    1    3    3  502    0  0.61411809200E+03  0.88097238432E+03 -0.80399984203E+03  0.13415180698E+04  0.12699999809E+01 0.  1.
       -4    1    3    3    0  502 -0.61411809200E+03 -0.88097238432E+03  0.19596419046E+04  0.22346031818E+04  0.12699999809E+01 0. -1.
</event>
<event>
 5   0  0.2592200E-07  0.3245346E+04  0.7818609E-02  0.8176943E-01
        1   -1    0    0  501    0  0.00000000000E+00  0.00000000000E+00  0.18458001929E+04  0.18458001929E+04  0.50400001928E-02 0.  1.
       -1   -1    0    0    0  501  0.00000000000E+00  0.00000000000E+00 -0.14265184048E+04  0.14265184048E+04  0.50400001928E-02 0. -1.
    10030    2    1    2    0    0  0.00000000000E+00  0.00000000000E+00  0.41928178810E+03  0.32723185977E+04  0.32453461737E+04 0.  0.
        4    1    3    3  502    0 -0.12234310931E+04  0.33443037034E+03  0.12301986983E+04  0.17669232475E+04  0.12699999809E+01 0.  1.
       -4    1    3    3    0  502  0.12234310931E+04 -0.33443037034E+03 -0.81091691025E+03  0.15053953502E+04  0.12699999809E+01 0. -1.
</event>
<event>
 5   0  0.7838333E-07  0.3394457E+04  0.7818609E-02  0.8139268E-01
       -2   -1    0    0    0  501  0.00000000000E+00  0.00000000000E+00  0.12708245677E+04  0.12708245677E+04  0.25500000920E-02 0. -1.
        2   -1    0    0  501    0  0.00000000000E+00  0.00000000000E+00 -0.22667055579E+04  0.22667055579E+04  0.25500000920E-02 0.  1.
    10030    2    1    2    0    0  0.00000000000E+00  0.00000000000E+00 -0.99588099013E+03  0.35375301256E+04  0.33944573120E+04 0.  0.
        1    1    3    3  502    0 -0.68977758041E+01 -0.38050939871E+03  0.12257846212E+04  0.12835041563E+04  0.50400001928E-02 0. -1.
       -1    1    3    3    0  502  0.68977758041E+01  0.38050939871E+03 -0.22216656113E+04  0.22540259693E+04  0.50400001928E-02 0.  1.
</event>
<event>
 5   0  0.7822003E-07  0.3396812E+04  0.7818609E-02  0.8138689E-01
        2   -1    0    0  501    0  0.00000000000E+00  0.00000000000E+00  0.27476248798E+04  0.27476248798E+04  0.25500000920E-02 0. -1.
       -2   -1    0    0    0  501  0.00000000000E+00  0.00000000000E+00 -0.10498461174E+04  0.10498461174E+04  0.25500000920E-02 0.  1.
    10030    2    1    2    0    0  0.00000000000E+00  0.00000000000E+00  0.16977787624E+04  0.37974709972E+04  0.33968122186E+04 0.  0.
        5    1    3    3  502    0 -0.16411787343E+04  0.30615589976E+03  0.11977227345E+04  0.20546924129E+04  0.46999998093E+01 0. -1.
       -5    1    3    3    0  502  0.16411787343E+04 -0.30615589976E+03  0.50005602794E+03  0.17427785843E+04  0.46999998093E+01 0.  1.
</event>
<event>
 5   0  0.2641442E-07  0.3393340E+04  0.7818609E-02  0.8139543E-01
       -1   -1    0    0    0  501  0.00000000000E+00  0.00000000000E+00  0.21576285150E+04  0.21576285151E+04  0.50400001928E-02 0. -1.
        1   -1    0    0  501    0  0.00000000000E+00  0.00000000000E+00 -0.13341913604E+04  0.13341913604E+04  0.50400001928E-02 0.  1.
    10030    2    1    2    0    0  0.00000000000E+00  0.00000000000E+00  0.82343715464E+03  0.34918198755E+04  0.33933401384E+04 0.  0.
        1    1    3    3  502    0  0.14122291658E+04 -0.72936230530E+03 -0.19908063812E+03  0.16018719329E+04  0.50400001928E-02 0.  1.
       -1    1    3    3    0  502 -0.14122291658E+04  0.72936230530E+03  0.10225177928E+04  0.18899479425E+04  0.50400001928E-02 0. -1.
</event>
<event>
 5   0  0.2641442E-07  0.3333833E+04  0.7818609E-02  0.8154339E-01
        1   -1    0    0  501    0  0.00000000000E+00  0.00000000000E+00  0.15598127848E+04  0.15598127848E+04  0.50400001928E-02 0. -1.
       -1   -1    0    0    0  501  0.00000000000E+00  0.00000000000E+00 -0.17813747920E+04  0.17813747921E+04  0.50400001928E-02 0.  1.
    10030    2    1    2    0    0  0.00000000000E+00  0.00000000000E+00 -0.22156200729E+03  0.33411875768E+04  0.33338333342E+04 0.  0.
        1    1    3    3  502    0  0.24726466899E+03 -0.53649742894E+03  0.14513883175E+04  0.15670026662E+04  0.50400001928E-02 0. -1.
       -1    1    3    3    0  502 -0.24726466899E+03  0.53649742894E+03 -0.16729503248E+04  0.17741849106E+04  0.50400001928E-02 0.  1.
</event>
<event>
 5   0  0.2592200E-07  0.3408172E+04  0.7818609E-02  0.8135903E-01
        1   -1    0    0  501    0  0.00000000000E+00  0.00000000000E+00  0.25083859014E+04  0.25083859014E+04  0.50400001928E-02 0.  1.
       -1   -1    0    0    0  501  0.00000000000E+00  0.00000000000E+00 -0.11576805428E+04  0.11576805428E+04  0.50400001928E-02 0. -1.
    10030    2    1    2    0    0  0.00000000000E+00  0.00000000000E+00  0.13507053585E+04  0.36660664442E+04  0.34081722679E+04 0.  0.
        4    1    3    3  502    0 -0.12390443909E+04 -0.11097643971E+04  0.10736408366E+04  0.19797763203E+04  0.12699999809E+01 0.  1.
       -4    1    3    3    0  502  0.12390443909E+04  0.11097643971E+04  0.27706452194E+03  0.16862901239E+04  0.12699999809E+01 0. -1.
</event>
<event>
 5   0  0.7610412E-07  0.3381365E+04  0.7818609E-02  0.8142495E-01
        2   -1    0    0  501    0  0.00000000000E+00  0.00000000000E+00  0.18512236666E+04  0.18512236666E+04  0.25500000920E-02 0.  1.
       -2   -1    0    0    0  501  0.00000000000E+00  0.00000000000E+00 -0.15440633138E+04  0.15440633138E+04  0.25500000920E-02 0. -1.
    10030    2    1    2    0    0  0.00000000000E+00  0.00000000000E+00  0.30716035283E+03  0.33952869804E+04  0.33813645465E+04 0.  0.
        4    1    3    3  502    0 -0.15582039151E+04 -0.25135825993E+03 -0.45490545788E+03  0.16425958129E+04  0.12699999809E+01 0.  1.
       -4    1    3    3    0  502  0.15582039151E+04  0.25135825993E+03  0.76206581071E+03  0.17526911675E+04  0.12699999809E+01 0. -1.
</event>
<event>
 5   0  0.2641442E-07  0.3229024E+04  0.7818609E-02  0.8181194E-01
        1   -1    0    0  501    0  0.00000000000E+00  0.00000000000E+00  0.21134779352E+04  0.21134779352E+04  0.50400001928E-02 0. -1.
       -1   -1    0    0    0  501  0.00000000000E+00  0.00000000000E+00 -0.12333460541E+04  0.12333460541E+04  0.50400001928E-02 0.  1.
    10030    2    1    2    0    0  0.00000000000E+00  0.00000000000E+00  0.88013188105E+03  0.33468239893E+04  0.32290244172E+04 0.  0.
        1    1    3    3  502    0 -0.77155265608E+03 -0.42415702879E+03  0.18427463132E+04  0.20422822187E+04  0.50400001928E-02 0.  1.
       -1    1    3    3    0  502  0.77155265608E+03  0.42415702879E+03 -0.96261443212E+03  0.13045417706E+04  0.50400001928E-02 0. -1.
</event>
<event>
 5   0  0.7838333E-07  0.3430615E+04  0.7818609E-02  0.8130433E-01
        2   -1    0    0  501    0  0.00000000000E+00  0.00000000000E+00  0.15255169719E+04  0.15255169719E+04  0.25500000920E-02 0.  1.
       -2   -1    0    0    0  501  0.00000000000E+00  0.00000000000E+00 -0.19287104949E+04  0.19287104949E+04  0.25500000920E-02 0. -1.
    10030    2    1    2    0    0  0.00000000000E+00  0.00000000000E+00 -0.40319352296E+03  0.34542274668E+04  0.34306154514E+04 0.  0.
        1    1    3    3  502    0 -0.14518112150E+04 -0.91347741513E+03 -0.19237942260E+03  0.17260378427E+04  0.50400001928E-02 0.  1.
       -1    1    3    3    0  502  0.14518112150E+04  0.91347741513E+03 -0.21081410036E+03  0.17281896242E+04  0.50400001928E-02 0. -1.
</event>
<event>
 5   0  0.2553250E-07  0.3379765E+04  0.7818609E-02  0.8142891E-01
       -3   -1    0    0    0  501  0.00000000000E+00  0.00000000000E+00  0.21418000715E+04  0.21418000739E+04  0.10100000352E+00 0.  1.
        3   -1    0    0  501    0  0.00000000000E+00  0.00000000000E+00 -0.13333190526E+04  0.13333190564E+04  0.10100000352E+00 0. -1.
    10030    2    1    2    0    0  0.00000000000E+00  0.00000000000E+00  0.80848101891E+03  0.34751191303E+04  0.33797649936E+04 0.  0.
        5    1    3    3  502    0 -0.49590518267E+03  0.91004879273E+03  0.17766529313E+04  0.20568491640E+04  0.46999998093E+01 0.  1.
       -5    1    3    3    0  502  0.49590518267E+03 -0.91004879273E+03 -0.96817191235E+03  0.14182699663E+04  0.46999998093E+01 0. -1.
</event>
<event>
 5   0  0.2553250E-07  0.3365901E+04  0.7818609E-02  0.8146326E-01
       -1   -1    0    0    0  501  0.00000000000E+00  0.00000000000E+00  0.18023625292E+04  0.18023625293E+04  0.50400001928E-02 0.  1.
        1   -1    0    0  501    0  0.00000000000E+00  0.00000000000E+00 -0.15714494850E+04  0.15714494851E+04  0.50400001928E-02 0. -1.
    10030    2    1    2    0    0  0.00000000000E+00  0.00000000000E+00  0.23091304421E+03  0.33738120143E+04  0.33659005740E+04 0.  0.
        5    1    3    3  502    0 -0.25836775777E+03 -0.14767274116E+04 -0.65107741224E+03  0.16344423004E+04  0.46999998093E+01 0.  1.
       -5    1    3    3    0  502  0.25836775777E+03  0.14767274116E+04  0.88199045645E+03  0.17393697139E+04  0.46999998093E+01 0. -1.
</event>
<event>
 5   0  0.8489228E-07  0.3393167E+04  0.7818609E-02  0.8139585E-01
        2   -1    0    0  501    0  0.00000000000E+00  0.00000000000E+00  0.17840369448E+04  0.17840369448E+04  0.25500000920E-02 0.  1.
       -2   -1    0    0    0  501  0.00000000000E+00  0.00000000000E+00 -0.16134173575E+04  0.16134173575E+04  0.25500000920E-02 0. -1.
    10030    2    1    2    0    0  0.00000000000E+00  0.00000000000E+00  0.17061958735E+03  0.33974543023E+04  0.33931673541E+04 0.  0.
        3    1    3    3  502    0  0.51696879688E+02  0.15753813946E+03 -0.16052858360E+04  0.16138257211E+04  0.10100000352E+00 0. -1.
       -3    1    3    3    0  502 -0.51696879688E+02 -0.15753813946E+03  0.17759054233E+04  0.17836285812E+04  0.10100000352E+00 0.  1.
</event>
<event>
 5   0  0.2641442E-07  0.3391189E+04  0.7818609E-02  0.8140072E-01
        1   -1    0    0  501    0  0.00000000000E+00  0.00000000000E+00  0.19472028515E+04  0.19472028515E+04  0.50400001928E-02 0.  1.
       -1   -1    0    0    0  501  0.00000000000E+00  0.00000000000E+00 -0.14764980848E+04  0.14764980848E+04  0.50400001928E-02 0. -1.
    10030    2    1    2    0    0  0.00000000000E+00  0.00000000000E+00  0.47070476674E+03  0.34237009363E+04  0.33911893376E+04 0.  0.
        1    1    3    3  502    0  0.47969904145E+03 -0.73742924396E+03 -0.12280712403E+04  0.15106528495E+04  0.50400001928E-02 0. -1.
       -1    1    3    3    0  502 -0.47969904145E+03  0.73742924396E+03  0.16987760071E+04  0.19130480868E+04  0.50400001928E-02 0.  1.
</event>
<event>
 5   0  0.2553250E-07  0.3418444E+04  0.7818609E-02  0.8133394E-01
        1   -1    0    0  501    0  0.00000000000E+00  0.00000000000E+00  0.18385696893E+04  0.18385696893E+04  0.50400001928E-02 0. -1.
       -1   -1    0    0    0  501  0.00000000000E+00  0.00000000000E+00 -0.15889742262E+04  0.15889742262E+04  0.50400001928E-02 0.  1.
    10030    2    1    2    0    0  0.00000000000E+00  0.00000000000E+00  0.24959546314E+03  0.34275439155E+04  0.34184440024E+04 0.  0.
        5    1    3    3  502    0 -0.20300321596E+03  0.27640325651E+03  0.18037128767E+04  0.18360313988E+04  0.46999998093E+01 0. -1.
       -5    1    3    3    0  502  0.20300321596E+03 -0.27640325651E+03 -0.15541174135E+04  0.15915125167E+04  0.46999998093E+01 0.  1.
</event>
<event>
 5   0  0.7822003E-07  0.3354724E+04  0.7818609E-02  0.8149109E-01
        2   -1    0    0  501    0  0.00000000000E+00  0.00000000000E+00  0.27715715479E+04  0.27715715479E+04  0.25500000920E-02 0. -1.
       -2   -1    0    0    0  501  0.00000000000E+00  0.00000000000E+00 -0.10151437236E+04  0.10151437236E+04  0.25500000920E-02 0.  1.
    10030    2    1    2    0    0  0.00000000000E+00  0.00000000000E+00  0.17564278243E+04  0.37867152715E+04  0.33547241087E+04 0.  0.
        5    1    3    3  502    0 -0.14092149424E+04 -0.90963622694E+03  0.86238887166E+03  0.18860173581E+04  0.46999998093E+01 0. -1.
       -5    1    3    3    0  502  0.14092149424E+04  0.90963622694E+03  0.89403895265E+03  0.19006979134E+04  0.46999998093E+01 0.  1.
</event>
<event>
 5   0  0.2641442E-07  0.3371041E+04  0.7818609E-02  0.8145051E-01
        1   -1    0    0  501    0  0.00000000000E+00  0.00000000000E+00  0.16475316030E+04  0.16475316030E+04  0.50400001928E-02 0.  1.
       -1   -1    0    0    0  501  0.00000000000E+00  0.00000000000E+00 -0.17243851632E+04  0.17243851632E+04  0.50400001928E-02 0. -1.
    10030    2    1    2    0    0  0.00000000000E+00  0.00000000000E+00 -0.76853560225E+02  0.33719167662E+04  0.33710408198E+04 0.  0.
        1    1    3    3  502    0  0.43988497496E+03 -0.73637021816E+03  0.14128944712E+04  0.16528795105E+04  0.50400001928E-02 0.  1.
       -1    1    3    3    0  502 -0.43988497496E+03  0.73637021816E+03 -0.14897480315E+04  0.17190372557E+04  0.50400001928E-02 0. -1.
</event>
<event>
 5   0  0.2553250E-07  0.3396867E+04  0.7818609E-02  0.8138676E-01
       -1   -1    0    0    0  501  0.00000000000E+00  0.00000000000E+00  0.15140775349E+04  0.15140775349E+04  0.50400001928E-02 0. -1.
        1   -1    0    0  501    0  0.00000000000E+00  0.00000000000E+00 -0.19052368309E+04  0.19052368309E+04  0.50400001928E-02 0.  1.
    10030    2    1    2    0    0  0.00000000000E+00  0.00000000000E+00 -0.39115929602E+03  0.34193143658E+04  0.33968669590E+04 0.  0.
        5    1    3    3  502    0 -0.98202008090E+03 -0.58315031159E+02 -0.15892469210E+04  0.18690885341E+04  0.46999998093E+01 0.  1.
       -5    1    3    3    0  502  0.98202008090E+03  0.58315031159E+02  0.11980876250E+04  0.15502258317E+04  0.46999998093E+01 0. -1.
</event>
<event>
 5   0  0.2622205E-07  0.3397449E+04  0.7818609E-02  0.8138533E-01
        1   -1    0    0  501    0  0.00000000000E+00  0.00000000000E+00  0.29110279924E+04  0.29110279924E+04  0.50400001928E-02 0.  1.
       -1   -1    0    0    0  501  0.00000000000E+00  0.00000000000E+00 -0.99128720013E+03  0.99128720015E+03  0.50400001928E-02 0. -1.
    10030    2    1    2    0    0  0.00000000000E+00  0.00000000000E+00  0.19197407923E+04  0.39023151925E+04  0.33974489183E+04 0.  0.
        3    1    3    3  502    0  0.40688363699E+03 -0.25371917488E+03 -0.91194039375E+03  0.10303217972E+04  0.10100000352E+00 0. -1.
       -3    1    3    3    0  502 -0.40688363699E+03  0.25371917488E+03  0.28316811860E+04  0.28719933954E+04  0.10100000352E+00 0.  1.
</event>
<event>
 5   0  0.7610412E-07  0.3400840E+04  0.7818609E-02  0.8137700E-01
       -2   -1    0    0    0  501  0.00000000000E+00  0.00000000000E+00  0.23640404470E+04  0.23640404470E+04  0.25500000920E-02 0.  1.
        2   -1    0    0  501    0  0.00000000000E+00  0.00000000000E+00 -0.12230874953E+04  0.12230874953E+04  0.25500000920E-02 0. -1.
    10030    2    1    2    0    0  0.00000000000E+00  0.00000000000E+00  0.11409529516E+04  0.35871279423E+04  0.34008400780E+04 0.  0.
        4    1    3    3  502    0 -0.83150551829E+03  0.11608410433E+04  0.15443466386E+04  0.21033215417E+04  0.12699999809E+01 0.  1.
       -4    1    3    3    0  502  0.83150551829E+03 -0.11608410433E+04 -0.40339368696E+03  0.14838064006E+04  0.12699999809E+01 0. -1.
</event>
<event>
 5   0  0.2599367E-07  0.3413809E+04  0.7818609E-02  0.8134525E-01
        1   -1    0    0  501    0  0.00000000000E+00  0.00000000000E+00  0.14497323016E+04  0.14497323016E+04  0.50400001928E-02 0.  1.
       -1   -1    0    0    0  501  0.00000000000E+00  0.00000000000E+00 -0.20096972489E+04  0.20096972489E+04  0.50400001928E-02 0. -1.
    10030    2    1    2    0    0  0.00000000000E+00  0.00000000000E+00 -0.55996494728E+03  0.34594295505E+04  0.34138090269E+04 0.  0.
        2    1    3    3  502    0  0.64048788858E+03  0.15605986883E+04 -0.16060086315E+02  0.16869946436E+04  0.25500000920E-02 0. -1.
       -2    1    3    3    0  502 -0.64048788858E+03 -0.15605986883E+04 -0.54390486096E+03  0.17724349068E+04  0.25500000920E-02 0.  1.
</event>
<event>
 5   0  0.2553250E-07  0.3338151E+04  0.7818609E-02  0.8153255E-01
       -3   -1    0    0    0  501  0.00000000000E+00  0.00000000000E+00  0.97991140227E+03  0.97991140748E+03  0.10100000352E+00 0. -1.
        3   -1    0    0  501    0  0.00000000000E+00  0.00000000000E+00 -0.28429235308E+04  0.28429235326E+04  0.10100000352E+00 0.  1.
    10030    2    1    2    0    0  0.00000000000E+00  0.00000000000E+00 -0.18630121285E+04  0.38228349401E+04  0.33381511032E+04 0.  0.
        1    1    3    3  502    0  0.15585700755E+04  0.69397589866E+01 -0.24761795008E+03  0.15781329126E+04  0.50400001928E-02 0.  1.
       -1    1    3    3    0  502 -0.15585700755E+04 -0.69397589866E+01 -0.16153941785E+04  0.22447020275E+04  0.50400001928E-02 0. -1.
</event>
<event>
 5   0  0.7838333E-07  0.3414309E+04  0.7818609E-02  0.8134403E-01
       -2   -1    0    0    0  501  0.00000000000E+00  0.00000000000E+00  0.11414655651E+04  0.11414655651E+04  0.25500000920E-02 0. -1.
        2   -1    0    0  501    0  0.00000000000E+00  0.00000000000E+00 -0.25531876763E+04  0.25531876763E+04  0.25500000920E-02 0.  1.
    10030    2    1    2    0    0  0.00000000000E+00  0.00000000000E+00 -0.14117221112E+04  0.36946532414E+04  0.34143086057E+04 0.  0.
        1    1    3    3  502    0 -0.14889782830E+04 -0.80683377443E+03 -0.93880051009E+03  0.19363324778E+04  0.50400001928E-02 0.  1.
       -1    1    3    3    0  502  0.14889782830E+04  0.80683377443E+03 -0.47292160110E+03  0.17583207636E+04  0.50400001928E-02 0. -1.
</event>
<event>
 5   0  0.7610412E-07  0.3398090E+04  0.7818609E-02  0.8138375E-01
        2   -1    0    0  501    0  0.00000000000E+00  0.00000000000E+00  0.15462131230E+04  0.15462131230E+04  0.25500000920E-02 0. -1.
       -2   -1    0    0    0  501  0.00000000000E+00  0.00000000000E+00 -0.18669836151E+04  0.18669836151E+04  0.25500000920E-02 0.  1.
    10030    2    1    2    0    0  0.00000000000E+00  0.00000000000E+00 -0.32077049213E+03  0.34131967381E+04  0.33980903849E+04 0.  0.
        4    1    3    3  502    0  0.88901100093E+03  0.41901469660E+03 -0.15524899044E+04  0.18374276562E+04  0.12699999809E+01 0.  1.
       -4    1    3    3    0  502 -0.88901100093E+03 -0.41901469660E+03  0.12317194123E+04  0.15757690818E+04  0.12699999809E+01 0. -1.
</event>
<event>
 5   0  0.7610412E-07  0.3409145E+04  0.7818609E-02  0.8135666E-01
        2   -1    0    0  501    0  0.00000000000E+00  0.00000000000E+00  0.18946662246E+04  0.18946662246E+04  0.25500000920E-02 0.  1.
       -2   -1    0    0    0  501  0.00000000000E+00  0.00000000000E+00 -0.15335509883E+04  0.15335509883E+04  0.25500000920E-02 0. -1.
    10030    2    1    2    0    0  0.00000000000E+00  0.00000000000E+00  0.36111523625E+03  0.34282172129E+04  0.34091449141E+04 0.  0.
        4    1    3    3  502    0 -0.68995084208E+03  0.82483927648E+03 -0.11494046876E+04  0.15740154845E+04  0.12699999809E+01 0. -1.
       -4    1    3    3    0  502  0.68995084208E+03 -0.82483927648E+03  0.15105199239E+04  0.18542017285E+04  0.12699999809E+01 0.  1.
</event>
<event>
 5   0  0.7899402E-07  0.3403195E+04  0.7818609E-02  0.8137123E-01
       -2   -1    0    0    0  501  0.00000000000E+00  0.00000000000E+00  0.24242616553E+04  0.24242616553E+04  0.25500000920E-02 0.  1.
        2   -1    0    0  501    0  0.00000000000E+00  0.00000000000E+00 -0.11943573420E+04  0.11943573420E+04  0.25500000920E-02 0. -1.
    10030    2    1    2    0    0  0.00000000000E+00  0.00000000000E+00  0.12299043134E+04  0.36186189973E+04  0.34031953849E+04 0.  0.
        2    1    3    3  502    0  0.32110518151E+02 -0.11093890727E+03  0.24200893317E+04  0.24228435567E+04  0.25500000920E-02 0.  1.
       -2    1    3    3    0  502 -0.32110518151E+02  0.11093890727E+03 -0.11901850184E+04  0.11957754406E+04  0.25500000920E-02 0. -1.
</event>
<event>
 5   0  0.8489228E-07  0.3413274E+04  0.7818609E-02  0.8134656E-01
        2   -1    0    0  501    0  0.00000000000E+00  0.00000000000E+00  0.22352541586E+04  0.22352541586E+04  0.25500000920E-02 0. -1.
       -2   -1    0    0    0  501  0.00000000000E+00  0.00000000000E+00 -0.13030330565E+04  0.13030330565E+04  0.25500000920E-02 0.  1.
    10030    2    1    2    0    0  0.00000000000E+00  0.00000000000E+00  0.93222110211E+03  0.35382872151E+04  0.34132741222E+04 0.  0.
        3    1    3    3  502    0 -0.15830032111E+04 -0.36513862760E+03 -0.75901558629E+02  0.16263414280E+04  0.10100000352E+00 0. -1.
       -3    1    3    3    0  502  0.15830032111E+04  0.36513862760E+03  0.10081226607E+04  0.19119457871E+04  0.10100000352E+00 0.  1.
</event>
<event>
 5   0  0.2622205E-07  0.3368053E+04  0.7818609E-02  0.8145792E-01
        1   -1    0    0  501    0  0.00000000000E+00  0.00000000000E+00  0.23205642602E+04  0.23205642602E+04  0.50400001928E-02 0.  1.
       -1   -1    0    0    0  501  0.00000000000E+00  0.00000000000E+00 -0.12220932145E+04  0.12220932145E+04  0.50400001928E-02 0. -1.
    10030    2    1    2    0    0  0.00000000000E+00  0.00000000000E+00  0.10984710457E+04  0.35426574747E+04  0.33680533465E+04 0.  0.
        3    1    3    3  502    0  0.35207003864E+03 -0.91210476653E+03  0.19914696170E+04  0.22185219546E+04  0.10100000352E+00 0.  1.
       -3    1    3    3    0  502 -0.35207003864E+03  0.91210476653E+03 -0.89299857124E+03  0.13241355201E+04  0.10100000352E+00 0. -1.
</event>
<event>
 5   0  0.2592200E-07  0.3386105E+04  0.7818609E-02  0.8141325E-01
       -1   -1    0    0    0  501  0.00000000000E+00  0.00000000000E+00  0.14987365852E+04  0.14987365852E+04  0.50400001928E-02 0. -1.
        1   -1    0    0  501    0  0.00000000000E+00  0.00000000000E+00 -0.19125626135E+04  0.19125626135E+04  0.50400001928E-02 0.  1.
    10030    2    1    2    0    0  0.00000000000E+00  0.00000000000E+00 -0.41382602824E+03  0.34112991987E+04  0.33861054682E+04 0.  0.
        4    1    3    3  502    0  0.74191007140E+03  0.11750615633E+04 -0.11811790240E+04  0.18238381867E+04  0.12699999809E+01 0.  1.
       -4    1    3    3    0  502 -0.74191007140E+03 -0.11750615633E+04  0.76735299577E+03  0.15874610120E+04  0.12699999809E+01 0. -1.
</event>
<event>
 5   0  0.8489228E-07  0.3416190E+04  0.7818609E-02  0.8133944E-01
        2   -1    0    0  501    0  0.00000000000E+00  0.00000000000E+00  0.31221214816E+04  0.31221214816E+04  0.25500000920E-02 0. -1.
       -2   -1    0    0    0  501  0.00000000000E+00  0.00000000000E+00 -0.93448920102E+03  0.93448920103E+03  0.25500000920E-02 0.  1.
    10030    2    1    2    0    0  0.00000000000E+00  0.00000000000E+00  0.21876322805E+04  0.40566106826E+04  0.34161901638E+04 0.  0.
        3    1    3    3  502    0  0.72814204768E+03  0.10364558830E+04 -0.26693793937E+03  0.12944834926E+04  0.10100000352E+00 0.  1.
       -3    1    3    3    0  502 -0.72814204768E+03 -0.10364558830E+04  0.24545702199E+04  0.27621271900E+04  0.10100000352E+00 0. -1.
</event>
<event>
 5   0  0.7899402E-07  0.3401957E+04  0.7818609E-02  0.8137426E-01
        2   -1    0    0  501    0  0.00000000000E+00  0.00000000000E+00  0.18402413480E+04  0.18402413480E+04  0.25500000920E-02 0.  1.
       -2   -1    0    0    0  501  0.00000000000E+00  0.00000000000E+00 -0.15722547558E+04  0.15722547558E+04  0.25500000920E-02 0. -1.
    10030    2    1    2    0    0  0.00000000000E+00  0.00000000000E+00  0.26798659221E+03  0.34124961037E+04  0.34019572079E+04 0.  0.
        2    1    3    3  502    0  0.38519601496E+03 -0.99880256843E+03  0.14599603454E+04  0.18103775161E+04  0.25500000920E-02 0.  1.
       -2    1    3    3    0  502 -0.38519601496E+03  0.99880256843E+03 -0.11919737532E+04  0.16021185877E+04  0.25500000920E-02 0. -1.
</event>
<event>
 5   0  0.2641442E-07  0.3361227E+04  0.7818609E-02  0.8147489E-01
       -1   -1    0    0    0  501  0.00000000000E+00  0.00000000000E+00  0.26642830180E+04  0.26642830180E+04  0.50400001928E-02 0. -1.
        1   -1    0    0  501    0  0.00000000000E+00  0.00000000000E+00 -0.10601208331E+04  0.10601208331E+04  0.50400001928E-02 0.  1.
    10030    2    1    2    0    0  0.00000000000E+00  0.00000000000E+00  0.16041621850E+04  0.37244038511E+04  0.33612271168E+04 0.  0.
        1    1    3    3  502    0 -0.25477419733E+03  0.16608378865E+04  0.83997499716E+03  0.18785234555E+04  0.50400001928E-02 0. -1.
       -1    1    3    3    0  502  0.25477419733E+03 -0.16608378865E+04  0.76418718780E+03  0.18458803956E+04  0.50400001928E-02 0.  1.
</event>
<event>
 5   0  0.7838333E-07  0.3394832E+04  0.7818609E-02  0.8139176E-01
       -2   -1    0    0    0  501  0.00000000000E+00  0.00000000000E+00  0.16119085365E+04  0.16119085365E+04  0.25500000920E-02 0. -1.
        2   -1    0    0  501    0  0.00000000000E+00  0.00000000000E+00 -0.17874591107E+04  0.17874591107E+04  0.25500000920E-02 0.  1.
    10030    2    1    2    0    0  0.00000000000E+00  0.00000000000E+00 -0.17555057425E+03  0.33993676472E+04  0.33948317185E+04 0.  0.
        1    1    3    3  502    0 -0.13428582582E+04 -0.49542801879E+03  0.82586004698E+03  0.16525017521E+04  0.50400001928E-02 0. -1.
       -1    1    3    3    0  502  0.13428582582E+04  0.49542801879E+03 -0.10014106212E+04  0.17468658952E+04  0.50400001928E-02 0.  1.
</event>
<event>
 5   0  0.2599367E-07  0.3400690E+04  0.7818609E-02  0.8137737E-01
        1   -1    0    0  501    0  0.00000000000E+00  0.00000000000E+00  0.14884192870E+04  0.14884192870E+04  0.50400001928E-02 0.  1.
       -1   -1    0    0    0  501  0.00000000000E+00  0.00000000000E+00 -0.19424459036E+04  0.19424459036E+04  0.50400001928E-02 0. -1.
    10030    2    1    2    0    0  0.00000000000E+00  0.00000000000E+00 -0.45402661659E+03  0.34308651907E+04  0.34006904869E+04 0.  0.
        2    1    3    3  502    0 -0.12314532246E+03  0.11934201941E+04  0.98856676959E+03  0.15545677174E+04  0.25500000920E-02 0.  1.
       -2    1    3    3    0  502  0.12314532246E+03 -0.11934201941E+04 -0.14425933862E+04  0.18762974732E+04  0.25500000920E-02 0. -1.
</event>
<event>
 5   0  0.7822003E-07  0.3377523E+04  0.7818609E-02  0.8143445E-01
       -2   -1    0    0    0  501  0.00000000000E+00  0.00000000000E+00  0.14180923550E+04  0.14180923550E+04  0.25500000920E-02 0. -1.
        2   -1    0    0  501    0  0.00000000000E+00  0.00000000000E+00 -0.20110926832E+04  0.20110926832E+04  0.25500000920E-02 0.  1.
    10030    2    1    2    0    0  0.00000000000E+00  0.00000000000E+00 -0.59300032816E+03  0.34291850382E+04  0.33775228552E+04 0.  0.
        5    1    3    3  502    0 -0.20460443568E+03 -0.16762557139E+04 -0.28225429450E+03  0.17121290168E+04  0.46999998093E+01 0. -1.
       -5    1    3    3    0  502  0.20460443568E+03  0.16762557139E+04 -0.31074603366E+03  0.17170560214E+04  0.46999998093E+01 0.  1.
</event>
<event>
 5   0  0.2599367E-07  0.3413161E+04  0.7818609E-02  0.8134684E-01
        1   -1    0    0  501    0  0.00000000000E+00  0.00000000000E+00  0.24808735030E+04  0.24808735030E+04  0.50400001928E-02 0.  1.
       -1   -1    0    0    0  501  0.00000000000E+00  0.00000000000E+00 -0.11739479570E+04  0.11739479571E+04  0.50400001928E-02 0. -1.
    10030    2    1    2    0    0  0.00000000000E+00  0.00000000000E+00  0.13069255459E+04  0.36548214600E+04  0.34131606352E+04 0.  0.
        2    1    3    3  502    0  0.63255798657E+03 -0.90119955681E+03  0.20496704114E+04  0.23266798325E+04  0.25500000920E-02 0.  1.
       -2    1    3    3    0  502 -0.63255798657E+03  0.90119955681E+03 -0.74274486548E+03  0.13281416275E+04  0.25500000920E-02 0. -1.
</event>
<event>
 5   0  0.2622205E-07  0.3390434E+04  0.7818609E-02  0.8140258E-01
       -1   -1    0    0    0  501  0.00000000000E+00  0.00000000000E+00  0.18950020528E+04  0.18950020528E+04  0.50400001928E-02 0.  1.
        1   -1    0    0  501    0  0.00000000000E+00  0.00000000000E+00 -0.15164943607E+04  0.15164943607E+04  0.50400001928E-02 0. -1.
    10030    2    1    2    0    0  0.00000000000E+00  0.00000000000E+00  0.37850769209E+03  0.34114964135E+04  0.33904335573E+04 0.  0.
        3    1    3    3  502    0  0.11015887229E+04  0.41159837790E+01 -0.11072559596E+04  0.15618996210E+04  0.10100000352E+00 0. -1.
       -3    1    3    3    0  502 -0.11015887229E+04 -0.41159837790E+01  0.14857636517E+04  0.18495967925E+04  0.10100000352E+00 0.  1.
</event>
<event>
 5   0  0.2553250E-07  0.3433243E+04  0.7818609E-02  0.8129795E-01
       -1   -1    0    0    0  501  0.00000000000E+00  0.00000000000E+00  0.19750964656E+04  0.19750964656E+04  0.50400001928E-02 0. -1.
        1   -1    0    0  501    0  0.00000000000E+00  0.00000000000E+00 -0.14919719504E+04  0.14919719504E+04  0.50400001928E-02 0.  1.
    10030    2    1    2    0    0  0.00000000000E+00  0.00000000000E+00  0.48312451526E+03  0.34670684160E+04  0.34332425058E+04 0.  0.
        5    1    3    3  502    0  0.10250464561E+04 -0.47317413264E+02  0.16312774962E+04  0.19271864295E+04  0.46999998093E+01 0. -1.
       -5    1    3    3    0  502 -0.10250464561E+04  0.47317413264E+02 -0.11481529809E+04  0.15398819865E+04  0.46999998093E+01 0.  1.
</event>
<event>
 5   0  0.7838333E-07  0.3297206E+04  0.7818609E-02  0.8163607E-01
        2   -1    0    0  501    0  0.00000000000E+00  0.00000000000E+00  0.26530500921E+04  0.26530500921E+04  0.25500000920E-02 0. -1.
       -2   -1    0    0    0  501  0.00000000000E+00  0.00000000000E+00 -0.10244405326E+04  0.10244405326E+04  0.25500000920E-02 0.  1.
    10030    2    1    2    0    0  0.00000000000E+00  0.00000000000E+00  0.16286095595E+04  0.36774906248E+04  0.32972061200E+04 0.  0.
        1    1    3    3  502    0  0.15082020122E+03  0.89946921282E+03  0.23460547708E+04  0.25170944729E+04  0.50400001928E-02 0. -1.
       -1    1    3    3    0  502 -0.15082020122E+03 -0.89946921282E+03 -0.71744521131E+03  0.11603961518E+04  0.50400001928E-02 0.  1.
</event>
<event>
 5   0  0.2622205E-07  0.3431895E+04  0.7818609E-02  0.8130122E-01
        1   -1    0    0  501    0  0.00000000000E+00  0.00000000000E+00  0.23984772272E+04  0.23984772272E+04  0.50400001928E-02 0.  1.
       -1   -1    0    0    0  501  0.00000000000E+00  0.00000000000E+00 -0.12276441558E+04  0.12276441558E+04  0.50400001928E-02 0. -1.
    10030    2    1    2    0    0  0.00000000000E+00  0.00000000000E+00  0.11708330714E+04  0.36261213830E+04  0.34318954242E+04 0.  0.
        3    1    3    3  502    0  0.15446925167E+04 -0.50112637083E+03 -0.27796929440E+00  0.16239466427E+04  0.10100000352E+00 0. -1.
       -3    1    3    3    0  502 -0.15446925167E+04  0.50112637083E+03  0.11711110407E+04  0.20021747403E+04  0.10100000352E+00 0.  1.
</event>
<event>
 5   0  0.7899402E-07  0.3477901E+04  0.7818609E-02  0.8119047E-01
       -2   -1    0    0    0  501  0.00000000000E+00  0.00000000000E+00  0.13511206356E+04  0.13511206356E+04  0.25500000920E-02 0. -1.
        2   -1    0    0  501    0  0.00000000000E+00  0.00000000000E+00 -0.22381048024E+04  0.22381048024E+04  0.25500000920E-02 0.  1.
    10030    2    1    2    0    0  0.00000000000E+00  0.00000000000E+00 -0.88698416678E+03  0.35892254379E+04  0.34779014265E+04 0.  0.
        2    1    3    3  502    0  0.53094138546E+02  0.67024256771E+03  0.12115573565E+04  0.13856100877E+04  0.25500000920E-02 0. -1.
       -2    1    3    3    0  502 -0.53094138546E+02 -0.67024256771E+03 -0.20985415232E+04  0.22036153502E+04  0.25500000920E-02 0.  1.
</event>
<event>
 5   0  0.2592200E-07  0.3409767E+04  0.7818609E-02  0.8135513E-01
       -1   -1    0    0    0  501  0.00000000000E+00  0.00000000000E+00  0.15320024578E+04  0.15320024578E+04  0.50400001928E-02 0.  1.
        1   -1    0    0  501    0  0.00000000000E+00  0.00000000000E+00 -0.18972731341E+04  0.18972731341E+04  0.50400001928E-02 0. -1.
    10030    2    1    2    0    0  0.00000000000E+00  0.00000000000E+00 -0.36527067629E+03  0.34292755919E+04  0.34097666223E+04 0.  0.
        4    1    3    3  502    0  0.16852764529E+04 -0.25602147198E+03 -0.21316979613E+03  0.17178901861E+04  0.12699999809E+01 0. -1.
       -4    1    3    3    0  502 -0.16852764529E+04  0.25602147198E+03 -0.15210088016E+03  0.17113854058E+04  0.12699999809E+01 0.  1.
</event>
<event>
 5   0  0.2553250E-07  0.3408931E+04  0.7818609E-02  0.8135718E-01
       -1   -1    0    0    0  501  0.00000000000E+00  0.00000000000E+00  0.90973647593E+03  0.90973647594E+03  0.50400001928E-02 0.  1.
        1   -1    0    0  501    0  0.00000000000E+00  0.00000000000E+00 -0.31934550259E+04  0.31934550259E+04  0.50400001928E-02 0. -1.
    10030    2    1    2    0    0  0.00000000000E+00  0.00000000000E+00 -0.22837185500E+04  0.41031915019E+04  0.34089309300E+04 0.  0.
        5    1    3    3  502    0  0.13625536797E+03  0.16636552752E+04 -0.15568443393E+04  0.22825645198E+04  0.46999998093E+01 0.  1.
       -5    1    3    3    0  502 -0.13625536797E+03 -0.16636552752E+04 -0.72687421066E+03  0.18206269821E+04  0.46999998093E+01 0. -1.
</event>
<event>
 5   0  0.7822003E-07  0.3407231E+04  0.7818609E-02  0.8136134E-01
        2   -1    0    0  501    0  0.00000000000E+00  0.00000000000E+00  0.19983643090E+04  0.19983643090E+04  0.25500000920E-02 0. -1.
       -2   -1    0    0    0  501  0.00000000000E+00  0.00000000000E+00 -0.14523408457E+04  0.14523408457E+04  0.25500000920E-02 0.  1.
    10030    2    1    2    0    0  0.00000000000E+00  0.00000000000E+00  0.54602346328E+03  0.34507051548E+04  0.34072311989E+04 0.  0.
        5    1    3    3  502    0  0.16335087176E+04 -0.29976055331E+03  0.65742947760E+03  0.17861810457E+04  0.46999998093E+01 0. -1.
       -5    1    3    3    0  502 -0.16335087176E+04  0.29976055331E+03 -0.11140601432E+03  0.16645241091E+04  0.46999998093E+01 0.  1.
</event>
<event>
 5   0  0.2553250E-07  0.3372970E+04  0.7818609E-02  0.8144572E-01
       -1   -1    0    0    0  501  0.00000000000E+00  0.00000000000E+00  0.20622901758E+04  0.20622901758E+04  0.50400001928E-02 0. -1.
        1   -1    0    0  501    0  0.00000000000E+00  0.00000000000E+00 -0.13791621010E+04  0.13791621010E+04  0.50400001928E-02 0.  1.
    10030    2    1    2    0    0  0.00000000000E+00  0.00000000000E+00  0.68312807477E+03  0.34414522768E+04  0.33729704723E+04 0.  0.
        5    1    3    3  502    0  0.11749970877E+04  0.39901755583E+03 -0.82371735343E+03  0.14894178508E+04  0.46999998093E+01 0.  1.
       -5    1    3    3    0  502 -0.11749970877E+04 -0.39901755583E+03  0.15068454282E+04  0.19520344260E+04  0.46999998093E+01 0. -1.
</event>
<event>
 5   0  0.2599367E-07  0.3399287E+04  0.7818609E-02  0.8138081E-01
        1   -1    0    0  501    0  0.00000000000E+00  0.00000000000E+00  0.16393763822E+04  0.16393763822E+04  0.50400001928E-02 0.  1.
       -1   -1    0    0    0  501  0.00000000000E+00  0.00000000000E+00 -0.17621266536E+04  0.17621266536E+04  0.50400001928E-02 0. -1.
    10030    2    1    2    0    0  0.00000000000E+00  0.00000000000E+00 -0.12275027146E+03  0.34015030358E+04  0.33992874656E+04 0.  0.
        2    1    3    3  502    0 -0.12303007264E+03 -0.47349430966E+03  0.15674005950E+04  0.16419737773E+04  0.25500000920E-02 0.  1.
       -2    1    3    3    0  502  0.12303007264E+03  0.47349430966E+03 -0.16901508665E+04  0.17595292585E+04  0.25500000920E-02 0. -1.
</event>
<event>
 5   0  0.7838333E-07  0.3408488E+04  0.7818609E-02  0.8135826E-01
        2   -1    0    0  501    0  0.00000000000E+00  0.00000000000E+00  0.21900721451E+04  0.21900721451E+04  0.25500000920E-02 0.  1.
       -2   -1    0    0    0  501  0.00000000000E+00  0.00000000000E+00 -0.13261881869E+04  0.13261881869E+04  0.25500000920E-02 0. -1.
    10030    2    1    2    0    0  0.00000000000E+00  0.00000000000E+00  0.86388395815E+03  0.35162603320E+04  0.34084881149E+04 0.  0.
        1    1    3    3  502    0 -0.22546658500E+02  0.16323882150E+04 -0.72653727070E+02  0.16341597842E+04  0.50400001928E-02 0. -1.
       -1    1    3    3    0  502  0.22546658500E+02 -0.16323882150E+04  0.93653768522E+03  0.18821005478E+04  0.50400001928E-02 0.  1.
</event>
<event>
 5   0  0.2592200E-07  0.3407945E+04  0.7818609E-02  0.8135959E-01
        1   -1    0    0  501    0  0.00000000000E+00  0.00000000000E+00  0.11446304906E+04  0.11446304906E+04  0.50400001928E-02 0.  1.
       -1   -1    0    0    0  501  0.00000000000E+00  0.00000000000E+00 -0.25366455357E+04  0.25366455357E+04  0.50400001928E-02 0. -1.
    10030    2    1    2    0    0  0.00000000000E+00  0.00000000000E+00 -0.13920150451E+04  0.36812760263E+04  0.34079447320E+04 0.  0.
        4    1    3    3  502    0  0.11135006511E+04  0.12166985715E+04 -0.11584574094E+04  0.20155059653E+04  0.12699999809E+01 0. -1.
       -4    1    3    3    0  502 -0.11135006511E+04 -0.12166985715E+04 -0.23355763570E+03  0.16657700610E+04  0.12699999809E+01 0.  1.
</event>
<event>
 5   0  0.7838333E-07  0.3358884E+04  0.7818609E-02  0.8148072E-01
        2   -1    0    0  501    0  0.00000000000E+00  0.00000000000E+00  0.27905153508E+04  0.27905153508E+04  0.25500000920E-02 0. -1.
       -2   -1    0    0    0  501  0.00000000000E+00  0.00000000000E+00 -0.10107541202E+04  0.10107541202E+04  0.25500000920E-02 0.  1.
    10030    2    1    2    0    0  0.00000000000E+00  0.00000000000E+00  0.17797612306E+04  0.38012694710E+04  0.33588836767E+04 0.  0.
        1    1    3    3  502    0  0.19193229029E+03  0.43750671755E+03 -0.93222778055E+03  0.10475202942E+04  0.50400001928E-02 0.  1.
       -1    1    3    3    0  502 -0.19193229029E+03 -0.43750671755E+03  0.27119890112E+04  0.27537491768E+04  0.50400001928E-02 0. -1.
</event>
<event>
 5   0  0.7838333E-07  0.3399335E+04  0.7818609E-02  0.8138070E-01
       -2   -1    0    0    0  501  0.00000000000E+00  0.00000000000E+00  0.11730834810E+04  0.11730834810E+04  0.25500000920E-02 0.  1.
        2   -1    0    0  501    0  0.00000000000E+00  0.00000000000E+00 -0.24626285627E+04  0.24626285627E+04  0.25500000920E-02 0. -1.
    10030    2    1    2    0    0  0.00000000000E+00  0.00000000000E+00 -0.12895450817E+04  0.36357120437E+04  0.33993345742E+04 0.  0.
        1    1    3    3  502    0  0.79589834177E+03  0.59436906881E+02  0.96020285576E+03  0.12485897807E+04  0.50400001928E-02 0.  1.
       -1    1    3    3    0  502 -0.79589834177E+03 -0.59436906881E+02 -0.22497479375E+04  0.23871222630E+04  0.50400001928E-02 0. -1.
</event>
<event>
 5   0  0.2592200E-07  0.3383382E+04  0.7818609E-02  0.8141997E-01
       -1   -1    0    0    0  501  0.00000000000E+00  0.00000000000E+00  0.10073252697E+04  0.10073252697E+04  0.50400001928E-02 0.  1.
        1   -1    0    0  501    0  0.00000000000E+00  0.00000000000E+00 -0.28410064864E+04  0.28410064864E+04  0.50400001928E-02 0. -1.
    10030    2    1    2    0    0  0.00000000000E+00  0.00000000000E+00 -0.18336812166E+04  0.38483317561E+04  0.33833815187E+04 0.  0.
        4    1    3    3  502    0 -0.44446122146E+03 -0.10887767561E+04 -0.23000293723E+04  0.25832377607E+04  0.12699999809E+01 0. -1.
       -4    1    3    3    0  502  0.44446122146E+03  0.10887767561E+04  0.46634815565E+03  0.12650939954E+04  0.12699999809E+01 0.  1.
</event>
<event>
 5   0  0.2622205E-07  0.3482586E+04  0.7818609E-02  0.8117929E-01
       -1   -1    0    0    0  501  0.00000000000E+00  0.00000000000E+00  0.19301118900E+04  0.19301118900E+04  0.50400001928E-02 0.  1.
        1   -1    0    0  501    0  0.00000000000E+00  0.00000000000E+00 -0.15709458503E+04  0.15709458504E+04  0.50400001928E-02 0. -1.
    10030    2    1    2    0    0  0.00000000000E+00  0.00000000000E+00  0.35916603962E+03  0.35010577403E+04  0.34825859727E+04 0.  0.
        3    1    3    3  502    0  0.22736449802E+02 -0.16680636987E+04 -0.32221155274E+03  0.16990508362E+04  0.10100000352E+00 0.  1.
       -3    1    3    3    0  502 -0.22736449802E+02  0.16680636987E+04  0.68137759236E+03  0.18020069041E+04  0.10100000352E+00 0. -1.
</event>
<event>
 5   0  0.7610412E-07  0.3415234E+04  0.7818609E-02  0.8134178E-01
       -2   -1    0    0    0  501  0.00000000000E+00  0.00000000000E+00  0.19415996961E+04  0.19415996961E+04  0.25500000920E-02 0. -1.
        2   -1    0    0  501    0  0.00000000000E+00  0.00000000000E+00 -0.15018313331E+04  0.15018313331E+04  0.25500000920E-02 0.  1.
    10030    2    1    2    0    0  0.00000000000E+00  0.00000000000E+00  0.43976836293E+03  0.34434310292E+04  0.34152336728E+04 0.  0.
        4    1    3    3  502    0 -0.26442189135E+03  0.22727040623E+03  0.19053266014E+04  0.19369671771E+04  0.12699999809E+01 0. -1.
       -4    1    3    3    0  502  0.26442189135E+03 -0.22727040623E+03 -0.14655582385E+04  0.15064638521E+04  0.12699999809E+01 0.  1.
</event>
<event>
 5   0  0.2592200E-07  0.3387094E+04  0.7818609E-02  0.8141081E-01
        1   -1    0    0  501    0  0.00000000000E+00  0.00000000000E+00  0.13770568300E+04  0.13770568300E+04  0.50400001928E-02 0.  1.
       -1   -1    0    0    0  501  0.00000000000E+00  0.00000000000E+00 -0.20827761761E+04  0.20827761761E+04  0.50400001928E-02 0. -1.
    10030    2    1    2    0    0  0.00000000000E+00  0.00000000000E+00 -0.70571934607E+03  0.34598330061E+04  0.33870938332E+04 0.  0.
        4    1    3    3  502    0  0.37690606840E+03  0.16410259849E+04 -0.53863085729E+03  0.17678091755E+04  0.12699999809E+01 0. -1.
       -4    1    3    3    0  502 -0.37690606840E+03 -0.16410259849E+04 -0.16708848879E+03  0.16920238306E+04  0.12699999809E+01 0.  1.
</event>
<event>
 5   0  0.2641442E-07  0.3398519E+04  0.7818609E-02  0.8138270E-01
        1   -1    0    0  501    0  0.00000000000E+00  0.00000000000E+00  0.16852083006E+04  0.16852083006E+04  0.50400001928E-02 0. -1.
       -1   -1    0    0    0  501  0.00000000000E+00  0.00000000000E+00 -0.17134275236E+04  0.17134275236E+04  0.50400001928E-02 0.  1.
    10030    2    1    2    0    0  0.00000000000E+00  0.00000000000E+00 -0.28219223051E+02  0.33986358242E+04  0.33985186687E+04 0.  0.
        1    1    3    3  502    0  0.16421766346E+04  0.24548352076E+03  0.34711749557E+03  0.16963186063E+04  0.50400001928E-02 0.  1.
       -1    1    3    3    0  502 -0.16421766346E+04 -0.24548352076E+03 -0.37533671862E+03  0.17023172180E+04  0.50400001928E-02 0. -1.
</event>
<event>
 5   0  0.2553250E-07  0.3434712E+04  0.7818609E-02  0.8129439E-01
        1   -1    0    0  501    0  0.00000000000E+00  0.00000000000E+00  0.13028520228E+04  0.13028520229E+04  0.50400001928E-02 0. -1.
       -1   -1    0    0    0  501  0.00000000000E+00  0.00000000000E+00 -0.22637355350E+04  0.22637355350E+04  0.50400001928E-02 0.  1.
    10030    2    1    2    0    0  0.00000000000E+00  0.00000000000E+00 -0.96088351212E+03  0.35665875578E+04  0.34347124601E+04 0.  0.
        5    1    3    3  502    0  0.43087644072E+03  0.13747352457E+04 -0.14510708894E+04  0.20447934661E+04  0.46999998093E+01 0.  1.
       -5    1    3    3    0  502 -0.43087644072E+03 -0.13747352457E+04  0.49018737724E+03  0.15217940918E+04  0.46999998093E+01 0. -1.
</event>
<event>
 5   0  0.7610412E-07  0.3404313E+04  0.7818609E-02  0.8136849E-01
       -2   -1    0    0    0  501  0.00000000000E+00  0.00000000000E+00  0.17921528511E+04  0.17921528511E+04  0.25500000920E-02 0. -1.
        2   -1    0    0  501    0  0.00000000000E+00  0.00000000000E+00 -0.16166790799E+04  0.16166790799E+04  0.25500000920E-02 0.  1.
    10030    2    1    2    0    0  0.00000000000E+00  0.00000000000E+00  0.17547377121E+03  0.34088319311E+04  0.34043125723E+04 0.  0.
        4    1    3    3  502    0  0.11340705653E+03 -0.10263973718E+04 -0.12671971761E+04  0.16346690861E+04  0.12699999809E+01 0. -1.
       -4    1    3    3    0  502 -0.11340705653E+03  0.10263973718E+04  0.14426709473E+04  0.17741628449E+04  0.12699999809E+01 0.  1.
</event>
<event>
 5   0  0.7899402E-07  0.3440256E+04  0.7818609E-02  0.8128096E-01
        2   -1    0    0  501    0  0.00000000000E+00  0.00000000000E+00  0.18016279533E+04  0.18016279533E+04  0.25500000920E-02 0.  1.
       -2   -1    0    0    0  501  0.00000000000E+00  0.00000000000E+00 -0.16423147355E+04  0.16423147355E+04  0.25500000920E-02 0. -1.
    10030    2    1    2    0    0  0.00000000000E+00  0.00000000000E+00  0.15931321781E+03  0.34439426887E+04  0.34402558832E+04 0.  0.
        2    1    3    3  502    0 -0.33133976493E+03 -0.45734254242E+03 -0.15468590202E+04  0.16467304179E+04  0.25500000920E-02 0. -1.
       -2    1    3    3    0  502  0.33133976493E+03  0.45734254242E+03  0.17061722380E+04  0.17972122709E+04  0.25500000920E-02 0.  1.
</event>
<event>
 5   0  0.2553250E-07  0.3347529E+04  0.7818609E-02  0.8150906E-01
       -1   -1    0    0    0  501  0.00000000000E+00  0.00000000000E+00  0.98841620652E+03  0.98841620653E+03  0.50400001928E-02 0.  1.
        1   -1    0    0  501    0  0.00000000000E+00  0.00000000000E+00 -0.28343196953E+04  0.28343196953E+04  0.50400001928E-02 0. -1.
    10030    2    1    2    0    0  0.00000000000E+00  0.00000000000E+00 -0.18459034888E+04  0.38227359018E+04  0.33475289521E+04 0.  0.
        5    1    3    3  502    0  0.91622550998E+03  0.57921107170E+03 -0.23793442202E+04  0.26146234258E+04  0.46999998093E+01 0. -1.
       -5    1    3    3    0  502 -0.91622550998E+03 -0.57921107170E+03  0.53344073142E+03  0.12081124760E+04  0.46999998093E+01 0.  1.
</event>
<event>
 5   0  0.2641442E-07  0.2986802E+04  0.7818609E-02  0.8247510E-01
        1   -1    0    0  501    0  0.00000000000E+00  0.00000000000E+00  0.18307806119E+04  0.18307806119E+04  0.50400001928E-02 0. -1.
       -1   -1    0    0    0  501  0.00000000000E+00  0.00000000000E+00 -0.12181944929E+04  0.12181944929E+04  0.50400001928E-02 0.  1.
    10030    2    1    2    0    0  0.00000000000E+00  0.00000000000E+00  0.61258611898E+03  0.30489751048E+04  0.29868022092E+04 0.  0.
        1    1    3    3  502    0 -0.12011889610E+04 -0.88662533296E+03  0.34292112492E+03  0.15318466956E+04  0.50400001928E-02 0. -1.
       -1    1    3    3    0  502  0.12011889610E+04  0.88662533296E+03  0.26966499406E+03  0.15171284092E+04  0.50400001928E-02 0.  1.
</event>
<event>
 5   0  0.8489228E-07  0.3405040E+04  0.7818609E-02  0.8136670E-01
        2   -1    0    0  501    0  0.00000000000E+00  0.00000000000E+00  0.23796236926E+04  0.23796236926E+04  0.25500000920E-02 0. -1.
       -2   -1    0    0    0  501  0.00000000000E+00  0.00000000000E+00 -0.12180810895E+04  0.12180810895E+04  0.25500000920E-02 0.  1.
    10030    2    1    2    0    0  0.00000000000E+00  0.00000000000E+00  0.11615426031E+04  0.35977047821E+04  0.34050401584E+04 0.  0.
        3    1    3    3  502    0  0.80968249939E+03  0.12074852190E+04 -0.35534400426E+03  0.14966214202E+04  0.10100000352E+00 0.  1.
       -3    1    3    3    0  502 -0.80968249939E+03 -0.12074852190E+04  0.15168866073E+04  0.21010833619E+04  0.10100000352E+00 0. -1.
</event>
<event>
 5   0  0.7610412E-07  0.3395017E+04  0.7818609E-02  0.8139130E-01
       -2   -1    0    0    0  501  0.00000000000E+00  0.00000000000E+00  0.20014810209E+04  0.20014810209E+04  0.25500000920E-02 0. -1.
        2   -1    0    0  501    0  0.00000000000E+00  0.00000000000E+00 -0.14397013302E+04  0.14397013302E+04  0.25500000920E-02 0.  1.
    10030    2    1    2    0    0  0.00000000000E+00  0.00000000000E+00  0.56177969067E+03  0.34411823511E+04  0.33950168708E+04 0.  0.
        4    1    3    3  502    0 -0.47803951326E+03  0.76515175362E+03  0.17383416807E+04  0.19585230134E+04  0.12699999809E+01 0. -1.
       -4    1    3    3    0  502  0.47803951326E+03 -0.76515175362E+03 -0.11765619901E+04  0.14826593377E+04  0.12699999809E+01 0.  1.
</event>
<event>
 5   0  0.7610412E-07  0.3387835E+04  0.7818609E-02  0.8140898E-01
        2   -1    0    0  501    0  0.00000000000E+00  0.00000000000E+00  0.22035628924E+04  0.22035628924E+04  0.25500000920E-02 0. -1.
       -2   -1    0    0    0  501  0.00000000000E+00  0.00000000000E+00 -0.13021442821E+04  0.13021442821E+04  0.25500000920E-02 0.  1.
    10030    2    1    2    0    0  0.00000000000E+00  0.00000000000E+00  0.90141861021E+03  0.35057071745E+04  0.33878351912E+04 0.  0.
        4    1    3    3  502    0 -0.99470210339E+02  0.18590662616E+03  0.21899307108E+04  0.22000576646E+04  0.12699999809E+01 0. -1.
       -4    1    3    3    0  502  0.99470210339E+02 -0.18590662616E+03 -0.12885121006E+04  0.13056495099E+04  0.12699999809E+01 0.  1.
</event>
<event>
 5   0  0.2622205E-07  0.3347109E+04  0.7818609E-02  0.8151011E-01
        1   -1    0    0  501    0  0.00000000000E+00  0.00000000000E+00  0.15492983087E+04  0.15492983087E+04  0.50400001928E-02 0. -1.
       -1   -1    0    0    0  501  0.00000000000E+00  0.00000000000E+00 -0.18077762665E+04  0.18077762665E+04  0.50400001928E-02 0.  1.
    10030    2    1    2    0    0  0.00000000000E+00  0.00000000000E+00 -0.25847795782E+03  0.33570745753E+04  0.33471090286E+04 0.  0.
        3    1    3    3  502    0 -0.93808495475E+03 -0.98226725766E+03 -0.11098679285E+04  0.17540408139E+04  0.10100000352E+00 0.  1.
       -3    1    3    3    0  502  0.93808495475E+03  0.98226725766E+03  0.85138997068E+03  0.16030337614E+04  0.10100000352E+00 0. -1.
</event>
<event>
 5   0  0.2622205E-07  0.3419641E+04  0.7818609E-02  0.8133103E-01
       -1   -1    0    0    0  501  0.00000000000E+00  0.00000000000E+00  0.20258417241E+04  0.20258417241E+04  0.50400001928E-02 0.  1.
        1   -1    0    0  501    0  0.00000000000E+00  0.00000000000E+00 -0.14430970827E+04  0.14430970827E+04  0.50400001928E-02 0. -1.
    10030    2    1    2    0    0  0.00000000000E+00  0.00000000000E+00  0.58274464137E+03  0.34689388068E+04  0.34196410818E+04 0.  0.
        3    1    3    3  502    0  0.49962134364E+03 -0.55335911225E+03  0.18522743381E+04  0.19966842585E+04  0.10100000352E+00 0.  1.
       -3    1    3    3    0  502 -0.49962134364E+03  0.55335911225E+03 -0.12695296967E+04  0.14722545484E+04  0.10100000352E+00 0. -1.
</event>
<event>
 5   0  0.2641442E-07  0.3266318E+04  0.7818609E-02  0.8171519E-01
        1   -1    0    0  501    0  0.00000000000E+00  0.00000000000E+00  0.21292833261E+04  0.21292833261E+04  0.50400001928E-02 0. -1.
       -1   -1    0    0    0  501  0.00000000000E+00  0.00000000000E+00 -0.12526321379E+04  0.12526321379E+04  0.50400001928E-02 0.  1.
    10030    2    1    2    0    0  0.00000000000E+00  0.00000000000E+00  0.87665118821E+03  0.33819154640E+04  0.32663182484E+04 0.  0.
        1    1    3    3  502    0 -0.85230931314E+03 -0.13401540883E+04  0.83227042532E+03  0.17930750699E+04  0.50400001928E-02 0. -1.
       -1    1    3    3    0  502  0.85230931314E+03  0.13401540883E+04  0.44380762894E+02  0.15888403940E+04  0.50400001928E-02 0.  1.
</event>
<event>
 5   0  0.2599367E-07  0.3460415E+04  0.7818609E-02  0.8123236E-01
        1   -1    0    0  501    0  0.00000000000E+00  0.00000000000E+00  0.29120474213E+04  0.29120474213E+04  0.50400001928E-02 0. -1.
       -1   -1    0    0    0  501  0.00000000000E+00  0.00000000000E+00 -0.10280111807E+04  0.10280111807E+04  0.50400001928E-02 0.  1.
    10030    2    1    2    0    0  0.00000000000E+00  0.00000000000E+00  0.18840362406E+04  0.39400586019E+04  0.34604146039E+04 0.  0.
        2    1    3    3  502    0 -0.93149213502E+03  0.12792697596E+04  0.14547307611E+03  0.15891416335E+04  0.25500000920E-02 0.  1.
       -2    1    3    3    0  502  0.93149213502E+03 -0.12792697596E+04  0.17385631645E+04  0.23509169684E+04  0.25500000920E-02 0. -1.
</event>
<event>
 5   0  0.8489228E-07  0.3454602E+04  0.7818609E-02  0.8124634E-01
        2   -1    0    0  501    0  0.00000000000E+00  0.00000000000E+00  0.25886339678E+04  0.25886339678E+04  0.25500000920E-02 0.  1.
       -2   -1    0    0    0  501  0.00000000000E+00  0.00000000000E+00 -0.11525650213E+04  0.11525650213E+04  0.25500000920E-02 0. -1.
    10030    2    1    2    0    0  0.00000000000E+00  0.00000000000E+00  0.14360689465E+04  0.37411989891E+04  0.34546021272E+04 0.  0.
        3    1    3    3  502    0 -0.47994396806E+03  0.11676136537E+04  0.19947811060E+04  0.23606820048E+04  0.10100000352E+00 0.  1.
       -3    1    3    3    0  502  0.47994396806E+03 -0.11676136537E+04 -0.55871215945E+03  0.13805169843E+04  0.10100000352E+00 0. -1.
</event>
<event>
 5   0  0.8489228E-07  0.3409388E+04  0.7818609E-02  0.8135606E-01
       -2   -1    0    0    0  501  0.00000000000E+00  0.00000000000E+00  0.15836757115E+04  0.15836757115E+04  0.25500000920E-02 0.  1.
        2   -1    0    0  501    0  0.00000000000E+00  0.00000000000E+00 -0.18349603097E+04  0.18349603097E+04  0.25500000920E-02 0. -1.
    10030    2    1    2    0    0  0.00000000000E+00  0.00000000000E+00 -0.25128459826E+03  0.34186360212E+04  0.34093882583E+04 0.  0.
        3    1    3    3  502    0  0.14850667230E+04 -0.75092243815E+03 -0.49634006237E+03  0.17365659065E+04  0.10100000352E+00 0.  1.
       -3    1    3    3    0  502 -0.14850667230E+04  0.75092243815E+03  0.24505546410E+03  0.16820701147E+04  0.10100000352E+00 0. -1.
</event>
<event>
 5   0  0.2622205E-07  0.3400456E+04  0.7818609E-02  0.8137794E-01
       -1   -1    0    0    0  501  0.00000000000E+00  0.00000000000E+00  0.31021651565E+04  0.31021651565E+04  0.50400001928E-02 0. -1.
        1   -1    0    0  501    0  0.00000000000E+00  0.00000000000E+00 -0.93185726069E+03  0.93185726070E+03  0.50400001928E-02 0.  1.
    10030    2    1    2    0    0  0.00000000000E+00  0.00000000000E+00  0.21703078958E+04  0.40340224172E+04  0.34004559253E+04 0.  0.
        3    1    3    3  502    0  0.54563763705E+03  0.14656943696E+04  0.29396364013E+03  0.15913500708E+04  0.10100000352E+00 0.  1.
       -3    1    3    3    0  502 -0.54563763705E+03 -0.14656943696E+04  0.18763442557E+04  0.24426723464E+04  0.10100000352E+00 0. -1.
</event>
<event>
 5   0  0.7899402E-07  0.3412919E+04  0.7818609E-02  0.8134743E-01
       -2   -1    0    0    0  501  0.00000000000E+00  0.00000000000E+00  0.14783771187E+04  0.14783771187E+04  0.25500000920E-02 0.  1.
        2   -1    0    0  501    0  0.00000000000E+00  0.00000000000E+00 -0.19697305616E+04  0.19697305616E+04  0.25500000920E-02 0. -1.
    10030    2    1    2    0    0  0.00000000000E+00  0.00000000000E+00 -0.49135344292E+03  0.34481076804E+04  0.34129193324E+04 0.  0.
        2    1    3    3  502    0 -0.13718143683E+04 -0.25214642222E+03  0.74759354205E+03  0.15825133754E+04  0.25500000920E-02 0.  1.
       -2    1    3    3    0  502  0.13718143683E+04  0.25214642222E+03 -0.12389469850E+04  0.18655943050E+04  0.25500000920E-02 0. -1.
</event>
<event>
 5   0  0.7838333E-07  0.3378259E+04  0.7818609E-02  0.8143263E-01
        2   -1    0    0  501    0  0.00000000000E+00  0.00000000000E+00  0.15766223888E+04  0.15766223888E+04  0.25500000920E-02 0. -1.
       -2   -1    0    0    0  501  0.00000000000E+00  0.00000000000E+00 -0.18096645982E+04  0.18096645982E+04  0.25500000920E-02 0.  1.
    10030    2    1    2    0    0  0.00000000000E+00  0.00000000000E+00 -0.23304220945E+03  0.33862869870E+04  0.33782585584E+04 0.  0.
        1    1    3    3  502    0  0.74102685759E+03 -0.14891687896E+04 -0.41118098348E+03  0.17134218070E+04  0.50400001928E-02 0.  1.
       -1    1    3    3    0  502 -0.74102685759E+03  0.14891687896E+04  0.17813877403E+03  0.16728651800E+04  0.50400001928E-02 0. -1.
</event>
<event>
 5   0  0.7610412E-07  0.3378127E+04  0.7818609E-02  0.8143296E-01
       -2   -1    0    0    0  501  0.00000000000E+00  0.00000000000E+00  0.15453494251E+04  0.15453494251E+04  0.25500000920E-02 0.  1.
        2   -1    0    0  501    0  0.00000000000E+00  0.00000000000E+00 -0.18461425807E+04  0.18461425807E+04  0.25500000920E-02 0. -1.
    10030    2    1    2    0    0  0.00000000000E+00  0.00000000000E+00 -0.30079315560E+03  0.33914920059E+04  0.33781269223E+04 0.  0.
        4    1    3    3  502    0  0.11485044093E+04  0.10787968570E+04  0.46034294800E+03  0.16415792029E+04  0.12699999809E+01 0.  1.
       -4    1    3    3    0  502 -0.11485044093E+04 -0.10787968570E+04 -0.76113610360E+03  0.17499128029E+04  0.12699999809E+01 0. -1.
</event>
<event>
 5   0  0.2553250E-07  0.3399595E+04  0.7818609E-02  0.8138006E-01
       -1   -1    0    0    0  501  0.00000000000E+00  0.00000000000E+00  0.12114500472E+04  0.12114500472E+04  0.50400001928E-02 0.  1.
        1   -1    0    0  501    0  0.00000000000E+00  0.00000000000E+00 -0.23850028730E+04  0.23850028730E+04  0.50400001928E-02 0. -1.
    10030    2    1    2    0    0  0.00000000000E+00  0.00000000000E+00 -0.11735528258E+04  0.35964529202E+04  0.33995951777E+04 0.  0.
        5    1    3    3  502    0  0.22441226538E+03 -0.27461236797E+03  0.11718688241E+04  0.12243657331E+04  0.46999998093E+01 0.  1.
       -5    1    3    3    0  502 -0.22441226538E+03  0.27461236797E+03 -0.23454216499E+04  0.23720871871E+04  0.46999998093E+01 0. -1.
</event>
<event>
 5   0  0.7838333E-07  0.3414313E+04  0.7818609E-02  0.8134402E-01
       -2   -1    0    0    0  501  0.00000000000E+00  0.00000000000E+00  0.11555311311E+04  0.11555311311E+04  0.25500000920E-02 0.  1.
        2   -1    0    0  501    0  0.00000000000E+00  0.00000000000E+00 -0.25221153966E+04  0.25221153966E+04  0.25500000920E-02 0. -1.
    10030    2    1    2    0    0  0.00000000000E+00  0.00000000000E+00 -0.13665842655E+04  0.36776465277E+04  0.34143127314E+04 0.  0.
        1    1    3    3  502    0  0.74354645618E+03  0.44584011125E+03 -0.22673449540E+04  0.24274447219E+04  0.50400001928E-02 0. -1.
       -1    1    3    3    0  502 -0.74354645618E+03 -0.44584011125E+03  0.90076068852E+03  0.12502018058E+04  0.50400001928E-02 0.  1.
</event>
<event>
 5   0  0.8489228E-07  0.3219291E+04  0.7818609E-02  0.8183741E-01
       -2   -1    0    0    0  501  0.00000000000E+00  0.00000000000E+00  0.94696117018E+03  0.94696117018E+03  0.25500000920E-02 0.  1.
        2   -1    0    0  501    0  0.00000000000E+00  0.00000000000E+00 -0.27360769534E+04  0.27360769534E+04  0.25500000920E-02 0. -1.
    10030    2    1    2    0    0  0.00000000000E+00  0.00000000000E+00 -0.17891157832E+04  0.36830381235E+04  0.32192909986E+04 0.  0.
        3    1    3    3  502    0 -0.15002917315E+04 -0.56556463848E+03 -0.73187706261E+03  0.17624933148E+04  0.10100000352E+00 0. -1.
       -3    1    3    3    0  502  0.15002917315E+04  0.56556463848E+03 -0.10572387206E+04  0.19205448087E+04  0.10100000352E+00 0.  1.
</event>
<event>
 5   0  0.2592200E-07  0.3393419E+04  0.7818609E-02  0.8139523E-01
        1   -1    0    0  501    0  0.00000000000E+00  0.00000000000E+00  0.13776455146E+04  0.13776455146E+04  0.50400001928E-02 0.  1.
       -1   -1    0    0    0  501  0.00000000000E+00  0.00000000000E+00 -0.20896688152E+04  0.20896688152E+04  0.50400001928E-02 0. -1.
    10030    2    1    2    0    0  0.00000000000E+00  0.00000000000E+00 -0.71202330063E+03  0.34673143298E+04  0.33934188484E+04 0.  0.
        4    1    3    3  502    0  0.76068655355E+03  0.10877013737E+04  0.72392544090E+03  0.15118888742E+04  0.12699999809E+01 0.  1.
       -4    1    3    3    0  502 -0.76068655355E+03 -0.10877013737E+04 -0.14359487415E+04  0.19554254556E+04  0.12699999809E+01 0. -1.
</event>
<event>
 5   0  0.7822003E-07  0.3377306E+04  0.7818609E-02  0.8143499E-01
        2   -1    0    0  501    0  0.00000000000E+00  0.00000000000E+00  0.17562987628E+04  0.17562987628E+04  0.25500000920E-02 0.  1.
       -2   -1    0    0    0  501  0.00000000000E+00  0.00000000000E+00 -0.16236124414E+04  0.16236124414E+04  0.25500000920E-02 0. -1.
    10030    2    1    2    0    0  0.00000000000E+00  0.00000000000E+00  0.13268632142E+03  0.33799112043E+04  0.33773057441E+04 0.  0.
        5    1    3    3  502    0  0.10578472154E+04  0.10175816978E+04 -0.76917406918E+03  0.16571554186E+04  0.46999998093E+01 0. -1.
       -5    1    3    3    0  502 -0.10578472154E+04 -0.10175816978E+04  0.90186039059E+03  0.17227557856E+04  0.46999998093E+01 0.  1.
</event>
<event>
 5   0  0.7899402E-07  0.3395553E+04  0.7818609E-02  0.8138999E-01
        2   -1    0    0  501    0  0.00000000000E+00  0.00000000000E+00  0.28176555203E+04  0.28176555203E+04  0.25500000920E-02 0. -1.
       -2   -1    0    0    0  501  0.00000000000E+00  0.00000000000E+00 -0.10229942862E+04  0.10229942862E+04  0.25500000920E-02 0.  1.
    10030    2    1    2    0    0  0.00000000000E+00  0.00000000000E+00  0.17946612340E+04  0.38406498065E+04  0.33955532673E+04 0.  0.
        2    1    3    3  502    0  0.14973079939E+04  0.43188779268E+03  0.13522358710E+03  0.15642070556E+04  0.25500000920E-02 0.  1.
       -2    1    3    3    0  502 -0.14973079939E+04 -0.43188779268E+03  0.16594376469E+04  0.22764427509E+04  0.25500000920E-02 0. -1.
</event>
<event>
 5   0  0.7899402E-07  0.3399052E+04  0.7818609E-02  0.8138139E-01
       -2   -1    0    0    0  501  0.00000000000E+00  0.00000000000E+00  0.91678125321E+03  0.91678125321E+03  0.25500000920E-02 0. -1.
        2   -1    0    0  501    0  0.00000000000E+00  0.00000000000E+00 -0.31505752615E+04  0.31505752615E+04  0.25500000920E-02 0.  1.
    10030    2    1    2    0    0  0.00000000000E+00  0.00000000000E+00 -0.22337940083E+04  0.40673565147E+04  0.33990518305E+04 0.  0.
        2    1    3    3  502    0 -0.62195736916E+03 -0.23009644822E+03  0.75557153245E+03  0.10053177036E+04  0.25500000920E-02 0. -1.
       -2    1    3    3    0  502  0.62195736916E+03  0.23009644822E+03 -0.29893655407E+04  0.30620388111E+04  0.25500000920E-02 0.  1.
</event>
<event>
 5   0  0.2622205E-07  0.3396738E+04  0.7818609E-02  0.8138707E-01
       -1   -1    0    0    0  501  0.00000000000E+00  0.00000000000E+00  0.17729939288E+04  0.17729939289E+04  0.50400001928E-02 0. -1.
        1   -1    0    0  501    0  0.00000000000E+00  0.00000000000E+00 -0.16268850563E+04  0.16268850563E+04  0.50400001928E-02 0.  1.
    10030    2    1    2    0    0  0.00000000000E+00  0.00000000000E+00  0.14610887252E+03  0.33998789852E+04  0.33967380398E+04 0.  0.
        3    1    3    3  502    0 -0.13439720736E+03  0.14584449812E+04  0.93369425158E+03  0.17369252540E+04  0.10100000352E+00 0. -1.
       -3    1    3    3    0  502  0.13439720736E+03 -0.14584449812E+04 -0.78758537906E+03  0.16629537312E+04  0.10100000352E+00 0.  1.
</event>
<event>
 5   0  0.2599367E-07  0.3394624E+04  0.7818609E-02  0.8139227E-01
       -1   -1    0    0    0  501  0.00000000000E+00  0.00000000000E+00  0.18703930783E+04  0.18703930783E+04  0.50400001928E-02 0. -1.
        1   -1    0    0  501    0  0.00000000000E+00  0.00000000000E+00 -0.15402469995E+04  0.15402469995E+04  0.50400001928E-02 0.  1.
    10030    2    1    2    0    0  0.00000000000E+00  0.00000000000E+00  0.33014607876E+03  0.34106400778E+04  0.33946235884E+04 0.  0.
        2    1    3    3  502    0 -0.18588456238E+03 -0.15731332757E+03 -0.15226043523E+04  0.15419547877E+04  0.25500000920E-02 0.  1.
       -2    1    3    3    0  502  0.18588456238E+03  0.15731332757E+03  0.18527504311E+04  0.18686852901E+04  0.25500000920E-02 0. -1.
</event>
<event>
 5   0  0.7838333E-07  0.3403388E+04  0.7818609E-02  0.8137075E-01
        2   -1    0    0  501    0  0.00000000000E+00  0.00000000000E+00  0.19466460159E+04  0.19466460159E+04  0.25500000920E-02 0. -1.
       -2   -1    0    0    0  501  0.00000000000E+00  0.00000000000E+00 -0.14875650837E+04  0.14875650837E+04  0.25500000920E-02 0.  1.
    10030    2    1    2    0    0  0.00000000000E+00  0.00000000000E+00  0.45908093223E+03  0.34342110996E+04  0.34033881022E+04 0.  0.
        1    1    3    3  502    0 -0.27935643317E+03  0.18219259330E+03 -0.14542627853E+04  0.14920168922E+04  0.50400001928E-02 0.  1.
       -1    1    3    3    0  502  0.27935643317E+03 -0.18219259330E+03  0.19133437175E+04  0.19421942074E+04  0.50400001928E-02 0. -1.
</event>
<event>
 5   0  0.2599367E-07  0.3060362E+04  0.7818609E-02  0.8226701E-01
       -1   -1    0    0    0  501  0.00000000000E+00  0.00000000000E+00  0.11987972085E+04  0.11987972086E+04  0.50400001928E-02 0.  1.
        1   -1    0    0  501    0  0.00000000000E+00  0.00000000000E+00 -0.19531695860E+04  0.19531695860E+04  0.50400001928E-02 0. -1.
    10030    2    1    2    0    0  0.00000000000E+00  0.00000000000E+00 -0.75437237742E+03  0.31519667945E+04  0.30603622318E+04 0.  0.
        2    1    3    3  502    0 -0.55721978083E+03  0.17375675952E+03  0.10796384222E+04  0.12273159408E+04  0.25500000920E-02 0.  1.
       -2    1    3    3    0  502  0.55721978083E+03 -0.17375675952E+03 -0.18340107997E+04  0.19246508538E+04  0.25500000920E-02 0. -1.
</event>
<event>
 5   0  0.2553250E-07  0.3393268E+04  0.7818609E-02  0.8139561E-01
       -1   -1    0    0    0  501  0.00000000000E+00  0.00000000000E+00  0.12971473700E+04  0.12971473700E+04  0.50400001928E-02 0. -1.
        1   -1    0    0  501    0  0.00000000000E+00  0.00000000000E+00 -0.22191513094E+04  0.22191513094E+04  0.50400001928E-02 0.  1.
    10030    2    1    2    0    0  0.00000000000E+00  0.00000000000E+00 -0.92200393935E+03  0.35162986794E+04  0.33932676196E+04 0.  0.
        5    1    3    3  502    0  0.41139983437E+03  0.56614587467E+03  0.11406018853E+04  0.13381949507E+04  0.46999998093E+01 0. -1.
       -5    1    3    3    0  502 -0.41139983437E+03 -0.56614587467E+03 -0.20626058247E+04  0.21781037287E+04  0.46999998093E+01 0.  1.
</event>
<event>
 5   0  0.7822003E-07  0.3344951E+04  0.7818609E-02  0.8151551E-01
        2   -1    0    0  501    0  0.00000000000E+00  0.00000000000E+00  0.24019911483E+04  0.24019911483E+04  0.25500000920E-02 0.  1.
       -2   -1    0    0    0  501  0.00000000000E+00  0.00000000000E+00 -0.11645228287E+04  0.11645228287E+04  0.25500000920E-02 0. -1.
    10030    2    1    2    0    0  0.00000000000E+00  0.00000000000E+00  0.12374683195E+04  0.35665139770E+04  0.33449505387E+04 0.  0.
        5    1    3    3  502    0  0.92406206636E+03 -0.13896412121E+04  0.73630129563E+03  0.18240490916E+04  0.46999998093E+01 0. -1.
       -5    1    3    3    0  502 -0.92406206636E+03  0.13896412121E+04  0.50116702392E+03  0.17424648853E+04  0.46999998093E+01 0.  1.
</event>
<event>
 5   0  0.2599367E-07  0.3395929E+04  0.7818609E-02  0.8138906E-01
        1   -1    0    0  501    0  0.00000000000E+00  0.00000000000E+00  0.20209255345E+04  0.20209255345E+04  0.50400001928E-02 0. -1.
       -1   -1    0    0    0  501  0.00000000000E+00  0.00000000000E+00 -0.14266152904E+04  0.14266152904E+04  0.50400001928E-02 0.  1.
    10030    2    1    2    0    0  0.00000000000E+00  0.00000000000E+00  0.59431024411E+03  0.34475408249E+04  0.33959288969E+04 0.  0.
        2    1    3    3  502    0  0.16387165702E+04 -0.20068354415E+03  0.69994372833E+03  0.17932058179E+04  0.25500000920E-02 0. -1.
       -2    1    3    3    0  502 -0.16387165702E+04  0.20068354415E+03 -0.10563348422E+03  0.16543350070E+04  0.25500000920E-02 0.  1.
</event>
<event>
 5   0  0.2622205E-07  0.3399065E+04  0.7818609E-02  0.8138136E-01
       -1   -1    0    0    0  501  0.00000000000E+00  0.00000000000E+00  0.17861388715E+04  0.17861388715E+04  0.50400001928E-02 0.  1.
        1   -1    0    0  501    0  0.00000000000E+00  0.00000000000E+00 -0.16171256840E+04  0.16171256840E+04  0.50400001928E-02 0. -1.
    10030    2    1    2    0    0  0.00000000000E+00  0.00000000000E+00  0.16901318751E+03  0.34032645556E+04  0.33990651917E+04 0.  0.
        3    1    3    3  502    0 -0.12816620336E+04  0.13007917834E+03  0.11944034646E+04  0.17567520620E+04  0.10100000352E+00 0.  1.
       -3    1    3    3    0  502  0.12816620336E+04 -0.13007917834E+03 -0.10253902771E+04  0.16465124936E+04  0.10100000352E+00 0. -1.
</event>
<event>
 5   0  0.2553250E-07  0.3410035E+04  0.7818609E-02  0.8135448E-01
       -1   -1    0    0    0  501  0.00000000000E+00  0.00000000000E+00  0.21036538840E+04  0.21036538840E+04  0.50400001928E-02 0. -1.
        1   -1    0    0  501    0  0.00000000000E+00  0.00000000000E+00 -0.13819216775E+04  0.13819216775E+04  0.50400001928E-02 0.  1.
    10030    2    1    2    0    0  0.00000000000E+00  0.00000000000E+00  0.72173220658E+03  0.34855755615E+04  0.34100351343E+04 0.  0.
        5    1    3    3  502    0 -0.66724615765E+02 -0.15715124209E+04  0.10334387646E+04  0.18820523993E+04  0.46999998093E+01 0. -1.
       -5    1    3    3    0  502  0.66724615765E+02  0.15715124209E+04 -0.31170655799E+03  0.16035231622E+04  0.46999998093E+01 0.  1.
</event>
<event>
 5   0  0.7899402E-07  0.3373193E+04  0.7818609E-02  0.8144517E-01
        2   -1    0    0  501    0  0.00000000000E+00  0.00000000000E+00  0.16778253136E+04  0.16778253136E+04  0.25500000920E-02 0. -1.
       -2   -1    0    0    0  501  0.00000000000E+00  0.00000000000E+00 -0.16954132978E+04  0.16954132978E+04  0.25500000920E-02 0.  1.
    10030    2    1    2    0    0  0.00000000000E+00  0.00000000000E+00 -0.17587984171E+02  0.33732386114E+04  0.33731927594E+04 0.  0.
        2    1    3    3  502    0  0.15651279825E+04 -0.17418449678E+03  0.59506975129E+03  0.16834707748E+04  0.25500000920E-02 0. -1.
       -2    1    3    3    0  502 -0.15651279825E+04  0.17418449678E+03 -0.61265773547E+03  0.16897678366E+04  0.25500000920E-02 0.  1.
</event>
<event>
 5   0  0.7838333E-07  0.3402781E+04  0.7818609E-02  0.8137224E-01
        2   -1    0    0  501    0  0.00000000000E+00  0.00000000000E+00  0.10857538811E+04  0.10857538811E+04  0.25500000920E-02 0.  1.
       -2   -1    0    0    0  501  0.00000000000E+00  0.00000000000E+00 -0.26661016837E+04  0.26661016837E+04  0.25500000920E-02 0. -1.
    10030    2    1    2    0    0  0.00000000000E+00  0.00000000000E+00 -0.15803478026E+04  0.37518555648E+04  0.34027813626E+04 0.  0.
        1    1    3    3  502    0  0.76591656446E+03 -0.75174764041E+02 -0.24632174550E+04  0.25806432647E+04  0.50400001928E-02 0. -1.
       -1    1    3    3    0  502 -0.76591656446E+03  0.75174764041E+02  0.88286965236E+03  0.11712123001E+04  0.50400001928E-02 0.  1.
</event>
<event>
 5   0  0.2622205E-07  0.3387563E+04  0.7818609E-02  0.8140966E-01
        1   -1    0    0  501    0  0.00000000000E+00  0.00000000000E+00  0.96251235296E+03  0.96251235297E+03  0.50400001928E-02 0.  1.
       -1   -1    0    0    0  501  0.00000000000E+00  0.00000000000E+00 -0.29806327159E+04  0.29806327159E+04  0.50400001928E-02 0. -1.
    10030    2    1    2    0    0  0.00000000000E+00  0.00000000000E+00 -0.20181203629E+04  0.39431450688E+04  0.33875630230E+04 0.  0.
        3    1    3    3  502    0  0.10119059458E+04  0.10116629985E+04 -0.20640636897E+04  0.25115283377E+04  0.10100000352E+00 0. -1.
       -3    1    3    3    0  502 -0.10119059458E+04 -0.10116629985E+04  0.45943326784E+02  0.14316167312E+04  0.10100000352E+00 0.  1.
</event>
<event>
 5   0  0.7838333E-07  0.3407559E+04  0.7818609E-02  0.8136054E-01
       -2   -1    0    0    0  501  0.00000000000E+00  0.00000000000E+00  0.18123313321E+04  0.18123313321E+04  0.25500000920E-02 0. -1.
        2   -1    0    0  501    0  0.00000000000E+00  0.00000000000E+00 -0.16017294776E+04  0.16017294776E+04  0.25500000920E-02 0.  1.
    10030    2    1    2    0    0  0.00000000000E+00  0.00000000000E+00  0.21060185449E+03  0.34140608097E+04  0.34075589608E+04 0.  0.
        1    1    3    3  502    0  0.53571483757E+02 -0.16737653313E+04  0.41975361597E+03  0.17264279268E+04  0.50400001928E-02 0. -1.
       -1    1    3    3    0  502 -0.53571483757E+02  0.16737653313E+04 -0.20915176147E+03  0.16876328829E+04  0.50400001928E-02 0.  1.
</event>
<event>
 5   0  0.7838333E-07  0.3465496E+04  0.7818609E-02  0.8122016E-01
       -2   -1    0    0    0  501  0.00000000000E+00  0.00000000000E+00  0.16482032993E+04  0.16482032993E+04  0.25500000920E-02 0.  1.
        2   -1    0    0  501    0  0.00000000000E+00  0.00000000000E+00 -0.18216291393E+04  0.18216291393E+04  0.25500000920E-02 0. -1.
    10030    2    1    2    0    0  0.00000000000E+00  0.00000000000E+00 -0.17342584005E+03  0.34698324386E+04  0.34654957265E+04 0.  0.
        1    1    3    3  502    0  0.12222857402E+04 -0.59601657499E+03 -0.11619268477E+04  0.17886565315E+04  0.50400001928E-02 0. -1.
       -1    1    3    3    0  502 -0.12222857402E+04  0.59601657499E+03  0.98850100766E+03  0.16811759071E+04  0.50400001928E-02 0.  1.
</event>
<event>
 5   0  0.7822003E-07  0.3370328E+04  0.7818609E-02  0.8145227E-01
       -2   -1    0    0    0  501  0.00000000000E+00  0.00000000000E+00  0.29036068010E+04  0.29036068010E+04  0.25500000920E-02 0. -1.
        2   -1    0    0  501    0  0.00000000000E+00  0.00000000000E+00 -0.97801728940E+03  0.97801728940E+03  0.25500000920E-02 0.  1.
    10030    2    1    2    0    0  0.00000000000E+00  0.00000000000E+00  0.19255895116E+04  0.38816240904E+04  0.33703279680E+04 0.  0.
        5    1    3    3  502    0 -0.28004036474E+03 -0.16004177939E+04  0.44774190706E+03  0.16853054994E+04  0.46999998093E+01 0.  1.
       -5    1    3    3    0  502  0.28004036474E+03  0.16004177939E+04  0.14778476045E+04  0.21963185910E+04  0.46999998093E+01 0. -1.
</event>
<event>
 5   0  0.7838333E-07  0.3408855E+04  0.7818609E-02  0.8135736E-01
       -2   -1    0    0    0  501  0.00000000000E+00  0.00000000000E+00  0.13619183253E+04  0.13619183253E+04  0.25500000920E-02 0. -1.
        2   -1    0    0  501    0  0.00000000000E+00  0.00000000000E+00 -0.21330748767E+04  0.21330748768E+04  0.25500000920E-02 0.  1.
    10030    2    1    2    0    0  0.00000000000E+00  0.00000000000E+00 -0.77115655148E+03  0.34949932020E+04  0.34088553879E+04 0.  0.
        1    1    3    3  502    0  0.42961433058E+02 -0.51165956849E+03 -0.20518948782E+04  0.21151628283E+04  0.50400001928E-02 0.  1.
       -1    1    3    3    0  502 -0.42961433058E+02  0.51165956849E+03  0.12807383267E+04  0.13798303738E+04  0.50400001928E-02 0. -1.
</event>
<event>
 5   0  0.2641442E-07  0.3387631E+04  0.7818609E-02  0.8140949E-01
        1   -1    0    0  501    0  0.00000000000E+00  0.00000000000E+00  0.24293589500E+04  0.24293589500E+04  0.50400001928E-02 0.  1.
       -1   -1    0    0    0  501  0.00000000000E+00  0.00000000000E+00 -0.11809741557E+04  0.11809741558E+04  0.50400001928E-02 0. -1.
    10030    2    1    2    0    0  0.00000000000E+00  0.00000000000E+00  0.12483847943E+04  0.36103331058E+04  0.33876305200E+04 0.  0.
        1    1    3    3  502    0  0.13243263111E+04 -0.93657649303E+02 -0.49681109989E+03  0.14175447798E+04  0.50400001928E-02 0. -1.
       -1    1    3    3    0  502 -0.13243263111E+04  0.93657649303E+02  0.17451958942E+04  0.21927883260E+04  0.50400001928E-02 0.  1.
</event>
<event>
 5   0  0.2641442E-07  0.3394033E+04  0.7818609E-02  0.8139372E-01
       -1   -1    0    0    0  501  0.00000000000E+00  0.00000000000E+00  0.15896521068E+04  0.15896521068E+04  0.50400001928E-02 0.  1.
        1   -1    0    0  501    0  0.00000000000E+00  0.00000000000E+00 -0.18116324464E+04  0.18116324464E+04  0.50400001928E-02 0. -1.
    10030    2    1    2    0    0  0.00000000000E+00  0.00000000000E+00 -0.22198033962E+03  0.34012845532E+04  0.33940331967E+04 0.  0.
        1    1    3    3  502    0 -0.65895504730E+03 -0.13556542711E+04 -0.89230008025E+03  0.17516334349E+04  0.50400001928E-02 0. -1.
       -1    1    3    3    0  502  0.65895504730E+03  0.13556542711E+04  0.67031974063E+03  0.16496511182E+04  0.50400001928E-02 0.  1.
</event>
<event>
 5   0  0.2641442E-07  0.3649076E+04  0.7818609E-02  0.8079342E-01
        1   -1    0    0  501    0  0.00000000000E+00  0.00000000000E+00  0.22890364693E+04  0.22890364693E+04  0.50400001928E-02 0.  1.
       -1   -1    0    0    0  501  0.00000000000E+00  0.00000000000E+00 -0.14542966843E+04  0.14542966843E+04  0.50400001928E-02 0. -1.
    10030    2    1    2    0    0  0.00000000000E+00  0.00000000000E+00  0.83473978500E+03  0.37433331536E+04  0.36490755803E+04 0.  0.
        1    1    3    3  502    0  0.48799373743E+03  0.75321968891E+02  0.22191929308E+04  0.22734617988E+04  0.50400001928E-02 0.  1.
       -1    1    3    3    0  502 -0.48799373743E+03 -0.75321968891E+02 -0.13844531458E+04  0.14698713548E+04  0.50400001928E-02 0. -1.
</event>
<event>
 5   0  0.7822003E-07  0.3401661E+04  0.7818609E-02  0.8137499E-01
        2   -1    0    0  501    0  0.00000000000E+00  0.00000000000E+00  0.20010895238E+04  0.20010895238E+04  0.25500000920E-02 0. -1.
       -2   -1    0    0    0  501  0.00000000000E+00  0.00000000000E+00 -0.14456244788E+04  0.14456244788E+04  0.25500000920E-02 0.  1.
    10030    2    1    2    0    0  0.00000000000E+00  0.00000000000E+00  0.55546504499E+03  0.34467140027E+04  0.34016607709E+04 0.  0.
        5    1    3    3  502    0  0.58312157946E+02 -0.14811045648E+04 -0.56741959491E+03  0.15871540966E+04  0.46999998093E+01 0.  1.
       -5    1    3    3    0  502 -0.58312157946E+02  0.14811045648E+04  0.11228846399E+04  0.18595599061E+04  0.46999998093E+01 0. -1.
</event>
<event>
 5   0  0.7838333E-07  0.3395941E+04  0.7818609E-02  0.8138903E-01
        2   -1    0    0  501    0  0.00000000000E+00  0.00000000000E+00  0.12620135160E+04  0.12620135160E+04  0.25500000920E-02 0. -1.
       -2   -1    0    0    0  501  0.00000000000E+00  0.00000000000E+00 -0.22845270039E+04  0.22845270039E+04  0.25500000920E-02 0.  1.
    10030    2    1    2    0    0  0.00000000000E+00  0.00000000000E+00 -0.10225134879E+04  0.35465405198E+04  0.33959410810E+04 0.  0.
        1    1    3    3  502    0  0.12573965848E+04  0.10638372029E+04 -0.94224213263E+03  0.18975289200E+04  0.50400001928E-02 0. -1.
       -1    1    3    3    0  502 -0.12573965848E+04 -0.10638372029E+04 -0.80271355249E+02  0.16490115998E+04  0.50400001928E-02 0.  1.
</event>
<event>
 5   0  0.2553250E-07  0.3398377E+04  0.7818609E-02  0.8138305E-01
       -1   -1    0    0    0  501  0.00000000000E+00  0.00000000000E+00  0.12857794921E+04  0.12857794921E+04  0.50400001928E-02 0. -1.
        1   -1    0    0  501    0  0.00000000000E+00  0.00000000000E+00 -0.22455185649E+04  0.22455185649E+04  0.50400001928E-02 0.  1.
    10030    2    1    2    0    0  0.00000000000E+00  0.00000000000E+00 -0.95973907285E+03  0.35312980570E+04  0.33983770949E+04 0.  0.
        5    1    3    3  502    0 -0.17653642070E+02  0.12676881188E+04  0.69569520998E+03  0.14461530807E+04  0.46999998093E+01 0. -1.
       -5    1    3    3    0  502  0.17653642070E+02 -0.12676881188E+04 -0.16554342828E+04  0.20851449763E+04  0.46999998093E+01 0.  1.
</event>
<event>
 5   0  0.2622205E-07  0.3490731E+04  0.7818609E-02  0.8115990E-01
       -1   -1    0    0    0  501  0.00000000000E+00  0.00000000000E+00  0.13748766036E+04  0.13748766036E+04  0.50400001928E-02 0. -1.
        1   -1    0    0  501    0  0.00000000000E+00  0.00000000000E+00 -0.22156900713E+04  0.22156900713E+04  0.50400001928E-02 0.  1.
    10030    2    1    2    0    0  0.00000000000E+00  0.00000000000E+00 -0.84081346767E+03  0.35905666749E+04  0.34907308346E+04 0.  0.
        3    1    3    3  502    0  0.51791890459E+03 -0.15113200440E+04 -0.11433394368E+04  0.19645745964E+04  0.10100000352E+00 0.  1.
       -3    1    3    3    0  502 -0.51791890459E+03  0.15113200440E+04  0.30252596912E+03  0.16259920785E+04  0.10100000352E+00 0. -1.
</event>
<event>
 5   0  0.7838333E-07  0.3398326E+04  0.7818609E-02  0.8138317E-01
       -2   -1    0    0    0  501  0.00000000000E+00  0.00000000000E+00  0.93333724642E+03  0.93333724642E+03  0.25500000920E-02 0.  1.
        2   -1    0    0  501    0  0.00000000000E+00  0.00000000000E+00 -0.30933667699E+04  0.30933667699E+04  0.25500000920E-02 0. -1.
    10030    2    1    2    0    0  0.00000000000E+00  0.00000000000E+00 -0.21600295235E+04  0.40267040163E+04  0.33983257191E+04 0.  0.
        1    1    3    3  502    0 -0.14624584206E+04  0.47094194901E+03 -0.22017343005E+03  0.15521105922E+04  0.50400001928E-02 0.  1.
       -1    1    3    3    0  502  0.14624584206E+04 -0.47094194901E+03 -0.19398560935E+04  0.24745934241E+04  0.50400001928E-02 0. -1.
</event>
<event>
 5   0  0.2622205E-07  0.3417398E+04  0.7818609E-02  0.8133649E-01
       -1   -1    0    0    0  501  0.00000000000E+00  0.00000000000E+00  0.29498472018E+04  0.29498472018E+04  0.50400001928E-02 0.  1.
        1   -1    0    0  501    0  0.00000000000E+00  0.00000000000E+00 -0.98976392676E+03  0.98976392677E+03  0.50400001928E-02 0. -1.
    10030    2    1    2    0    0  0.00000000000E+00  0.00000000000E+00  0.19600832750E+04  0.39396111285E+04  0.34173980452E+04 0.  0.
        3    1    3    3  502    0 -0.82538096400E+03  0.13532517923E+04  0.17155924996E+04  0.23357657811E+04  0.10100000352E+00 0. -1.
       -3    1    3    3    0  502  0.82538096400E+03 -0.13532517923E+04  0.24449077541E+03  0.16038453475E+04  0.10100000352E+00 0.  1.
</event>
<event>
 5   0  0.2599367E-07  0.3369427E+04  0.7818609E-02  0.8145451E-01
        1   -1    0    0  501    0  0.00000000000E+00  0.00000000000E+00  0.25161370165E+04  0.25161370165E+04  0.50400001928E-02 0.  1.
       -1   -1    0    0    0  501  0.00000000000E+00  0.00000000000E+00 -0.11280226375E+04  0.11280226376E+04  0.50400001928E-02 0. -1.
    10030    2    1    2    0    0  0.00000000000E+00  0.00000000000E+00  0.13881143789E+04  0.36441596540E+04  0.33694269624E+04 0.  0.
        2    1    3    3  502    0  0.16168603096E+03  0.30320924028E+03 -0.10897186363E+04  0.11426131989E+04  0.25500000920E-02 0. -1.
       -2    1    3    3    0  502 -0.16168603096E+03 -0.30320924028E+03  0.24778330152E+04  0.25015464551E+04  0.25500000920E-02 0.  1.
</event>
<event>
 5   0  0.2592200E-07  0.3392672E+04  0.7818609E-02  0.8139707E-01
       -1   -1    0    0    0  501  0.00000000000E+00  0.00000000000E+00  0.13721402388E+04  0.13721402389E+04  0.50400001928E-02 0.  1.
        1   -1    0    0  501    0  0.00000000000E+00  0.00000000000E+00 -0.20971291670E+04  0.20971291670E+04  0.50400001928E-02 0. -1.
    10030    2    1    2    0    0  0.00000000000E+00  0.00000000000E+00 -0.72498892818E+03  0.34692694059E+04  0.33926717001E+04 0.  0.
        4    1    3    3  502    0 -0.13574267325E+04  0.82312601296E+03  0.24884087423E+03  0.16068811906E+04  0.12699999809E+01 0.  1.
       -4    1    3    3    0  502  0.13574267325E+04 -0.82312601296E+03 -0.97382980241E+03  0.18623882152E+04  0.12699999809E+01 0. -1.
</event>
<event>
 5   0  0.2592200E-07  0.3380887E+04  0.7818609E-02  0.8142613E-01
        1   -1    0    0  501    0  0.00000000000E+00  0.00000000000E+00  0.18765965214E+04  0.18765965214E+04  0.50400001928E-02 0.  1.
       -1   -1    0    0    0  501  0.00000000000E+00  0.00000000000E+00 -0.15227567708E+04  0.15227567708E+04  0.50400001928E-02 0. -1.
    10030    2    1    2    0    0  0.00000000000E+00  0.00000000000E+00  0.35383975060E+03  0.33993532923E+04  0.33808874925E+04 0.  0.
        4    1    3    3  502    0  0.14129015339E+04 -0.24344075781E+03 -0.72354082285E+03  0.16059474096E+04  0.12699999809E+01 0.  1.
       -4    1    3    3    0  502 -0.14129015339E+04  0.24344075781E+03  0.10773805734E+04  0.17934058827E+04  0.12699999809E+01 0. -1.
</event>
<event>
 5   0  0.2641442E-07  0.3396946E+04  0.7818609E-02  0.8138656E-01
        1   -1    0    0  501    0  0.00000000000E+00  0.00000000000E+00  0.18834289908E+04  0.18834289908E+04  0.50400001928E-02 0.  1.
       -1   -1    0    0    0  501  0.00000000000E+00  0.00000000000E+00 -0.15316801907E+04  0.15316801908E+04  0.50400001928E-02 0. -1.
    10030    2    1    2    0    0  0.00000000000E+00  0.00000000000E+00  0.35174880007E+03  0.34151091816E+04  0.33969462027E+04 0.  0.
        1    1    3    3  502    0  0.12349175441E+04  0.84943590578E+03 -0.62730158624E+03  0.16248292153E+04  0.50400001928E-02 0. -1.
       -1    1    3    3    0  502 -0.12349175441E+04 -0.84943590578E+03  0.97905038630E+03  0.17902799663E+04  0.50400001928E-02 0.  1.
</event>
<event>
 5   0  0.2622205E-07  0.3402513E+04  0.7818609E-02  0.8137290E-01
        1   -1    0    0  501    0  0.00000000000E+00  0.00000000000E+00  0.25387897794E+04  0.25387897794E+04  0.50400001928E-02 0. -1.
       -1   -1    0    0    0  501  0.00000000000E+00  0.00000000000E+00 -0.11400208347E+04  0.11400208347E+04  0.50400001928E-02 0.  1.
    10030    2    1    2    0    0  0.00000000000E+00  0.00000000000E+00  0.13987689448E+04  0.36788106141E+04  0.34025127441E+04 0.  0.
        3    1    3    3  502    0 -0.28691170123E+03 -0.57348444893E+03  0.24031200603E+04  0.24872050120E+04  0.10100000352E+00 0. -1.
       -3    1    3    3    0  502  0.28691170123E+03  0.57348444893E+03 -0.10043511155E+04  0.11916056021E+04  0.10100000352E+00 0.  1.
</event>
<event>
 5   0  0.2592200E-07  0.3387174E+04  0.7818609E-02  0.8141061E-01
        1   -1    0    0  501    0  0.00000000000E+00  0.00000000000E+00  0.21348982894E+04  0.21348982894E+04  0.50400001928E-02 0.  1.
       -1   -1    0    0    0  501  0.00000000000E+00  0.00000000000E+00 -0.13435005108E+04  0.13435005108E+04  0.50400001928E-02 0. -1.
    10030    2    1    2    0    0  0.00000000000E+00  0.00000000000E+00  0.79139777859E+03  0.34783988002E+04  0.33871740093E+04 0.  0.
        4    1    3    3  502    0  0.67568687310E+03  0.12604109759E+04  0.13273517391E+04  0.19511670433E+04  0.12699999809E+01 0.  1.
       -4    1    3    3    0  502 -0.67568687310E+03 -0.12604109759E+04 -0.53595396055E+03  0.15272317569E+04  0.12699999809E+01 0. -1.
</event>
<event>
 5   0  0.8489228E-07  0.3425728E+04  0.7818609E-02  0.8131621E-01
        2   -1    0    0  501    0  0.00000000000E+00  0.00000000000E+00  0.22369878244E+04  0.22369878244E+04  0.25500000920E-02 0. -1.
       -2   -1    0    0    0  501  0.00000000000E+00  0.00000000000E+00 -0.13115416422E+04  0.13115416422E+04  0.25500000920E-02 0.  1.
    10030    2    1    2    0    0  0.00000000000E+00  0.00000000000E+00  0.92544618216E+03  0.35485294666E+04  0.34257277678E+04 0.  0.
        3    1    3    3  502    0  0.73998946356E+03  0.29204420744E+03 -0.11085676886E+04  0.13644766600E+04  0.10100000352E+00 0.  1.
       -3    1    3    3    0  502 -0.73998946356E+03 -0.29204420744E+03  0.20340138708E+04  0.21840528066E+04  0.10100000352E+00 0. -1.
</event>
<event>
 5   0  0.2599367E-07  0.3482672E+04  0.7818609E-02  0.8117909E-01
       -1   -1    0    0    0  501  0.00000000000E+00  0.00000000000E+00  0.12531583927E+04  0.12531583927E+04  0.50400001928E-02 0. -1.
        1   -1    0    0  501    0  0.00000000000E+00  0.00000000000E+00 -0.24196874342E+04  0.24196874342E+04  0.50400001928E-02 0.  1.
    10030    2    1    2    0    0  0.00000000000E+00  0.00000000000E+00 -0.11665290416E+04  0.36728458269E+04  0.34826723164E+04 0.  0.
        2    1    3    3  502    0 -0.41361018720E+02  0.10534108885E+04  0.87836956634E+03  0.13721947125E+04  0.25500000920E-02 0. -1.
       -2    1    3    3    0  502  0.41361018720E+02 -0.10534108885E+04 -0.20448986079E+04  0.23006511145E+04  0.25500000920E-02 0.  1.
</event>
<event>
 5   0  0.2622205E-07  0.3403262E+04  0.7818609E-02  0.8137106E-01
       -1   -1    0    0    0  501  0.00000000000E+00  0.00000000000E+00  0.13635974914E+04  0.13635974914E+04  0.50400001928E-02 0. -1.
        1   -1    0    0  501    0  0.00000000000E+00  0.00000000000E+00 -0.21234624984E+04  0.21234624984E+04  0.50400001928E-02 0.  1.
    10030    2    1    2    0    0  0.00000000000E+00  0.00000000000E+00 -0.75986500706E+03  0.34870599898E+04  0.34032620445E+04 0.  0.
        3    1    3    3  502    0 -0.14475517013E+04 -0.49605586396E+03 -0.11426200435E+04  0.19097271853E+04  0.10100000352E+00 0.  1.
       -3    1    3    3    0  502  0.14475517013E+04  0.49605586396E+03  0.38275503649E+03  0.15773328045E+04  0.10100000352E+00 0. -1.
</event>
<event>
 5   0  0.2599367E-07  0.3412011E+04  0.7818609E-02  0.8134965E-01
        1   -1    0    0  501    0  0.00000000000E+00  0.00000000000E+00  0.98972681573E+03  0.98972681575E+03  0.50400001928E-02 0. -1.
       -1   -1    0    0    0  501  0.00000000000E+00  0.00000000000E+00 -0.29406653732E+04  0.29406653732E+04  0.50400001928E-02 0.  1.
    10030    2    1    2    0    0  0.00000000000E+00  0.00000000000E+00 -0.19509385574E+04  0.39303921889E+04  0.34120113575E+04 0.  0.
        2    1    3    3  502    0  0.12231326713E+04 -0.38024745437E+03 -0.22735312510E+04  0.26095183478E+04  0.25500000920E-02 0.  1.
       -2    1    3    3    0  502 -0.12231326713E+04  0.38024745437E+03  0.32259269358E+03  0.13208738411E+04  0.25500000920E-02 0. -1.
</event>
<event>
 5   0  0.7838333E-07  0.3405414E+04  0.7818609E-02  0.8136579E-01
        2   -1    0    0  501    0  0.00000000000E+00  0.00000000000E+00  0.15135510989E+04  0.15135510989E+04  0.25500000920E-02 0.  1.
       -2   -1    0    0    0  501  0.00000000000E+00  0.00000000000E+00 -0.19155031436E+04  0.19155031436E+04  0.25500000920E-02 0. -1.
    10030    2    1    2    0    0  0.00000000000E+00  0.00000000000E+00 -0.40195204468E+03  0.34290542425E+04  0.34054144464E+04 0.  0.
        1    1    3    3  502    0  0.49292063838E+03  0.13623530044E+04  0.69979263650E+03  0.16089394639E+04  0.50400001928E-02 0.  1.
       -1    1    3    3    0  502 -0.49292063838E+03 -0.13623530044E+04 -0.11017446812E+04  0.18201147785E+04  0.50400001928E-02 0. -1.
</event>
<event>
 5   0  0.2641442E-07  0.3415144E+04  0.7818609E-02  0.8134200E-01
        1   -1    0    0  501    0  0.00000000000E+00  0.00000000000E+00  0.23874863360E+04  0.23874863360E+04  0.50400001928E-02 0. -1.
       -1   -1    0    0    0  501  0.00000000000E+00  0.00000000000E+00 -0.12212852149E+04  0.12212852150E+04  0.50400001928E-02 0.  1.
    10030    2    1    2    0    0  0.00000000000E+00  0.00000000000E+00  0.11662011211E+04  0.36087715510E+04  0.34151437821E+04 0.  0.
        1    1    3    3  502    0  0.89641777549E+03  0.11151162682E+03 -0.94812644405E+03  0.13095584848E+04  0.50400001928E-02 0.  1.
       -1    1    3    3    0  502 -0.89641777549E+03 -0.11151162682E+03  0.21143275651E+04  0.22992130662E+04  0.50400001928E-02 0. -1.
</event>
<event>
 5   0  0.7899402E-07  0.3397364E+04  0.7818609E-02  0.8138553E-01
        2   -1    0    0  501    0  0.00000000000E+00  0.00000000000E+00  0.11961287533E+04  0.11961287533E+04  0.25500000920E-02 0.  1.
       -2   -1    0    0    0  501  0.00000000000E+00  0.00000000000E+00 -0.24123835788E+04  0.24123835788E+04  0.25500000920E-02 0. -1.
    10030    2    1    2    0    0  0.00000000000E+00  0.00000000000E+00 -0.12162548255E+04  0.36085123321E+04  0.33973644859E+04 0.  0.
        2    1    3    3  502    0 -0.21050134511E+03  0.11732333123E+04 -0.18936077958E+04  0.22375293753E+04  0.25500000920E-02 0. -1.
       -2    1    3    3    0  502  0.21050134511E+03 -0.11732333123E+04  0.67735297029E+03  0.13709829567E+04  0.25500000920E-02 0.  1.
</event>
<event>
 5   0  0.2553250E-07  0.3413666E+04  0.7818609E-02  0.8134560E-01
        1   -1    0    0  501    0  0.00000000000E+00  0.00000000000E+00  0.13951791758E+04  0.13951791758E+04  0.50400001928E-02 0. -1.
       -1   -1    0    0    0  501  0.00000000000E+00  0.00000000000E+00 -0.20881034446E+04  0.20881034446E+04  0.50400001928E-02 0.  1.
    10030    2    1    2    0    0  0.00000000000E+00  0.00000000000E+00 -0.69292426884E+03  0.34832826204E+04  0.34136657380E+04 0.  0.
        5    1    3    3  502    0  0.86305427044E+03 -0.40218582847E+03 -0.17919101526E+04  0.20291821503E+04  0.46999998093E+01 0.  1.
       -5    1    3    3    0  502 -0.86305427044E+03  0.40218582847E+03  0.10989858837E+04  0.14541004700E+04  0.46999998093E+01 0. -1.
</event>
<event>
 5   0  0.2641442E-07  0.3365788E+04  0.7818609E-02  0.8146354E-01
       -1   -1    0    0    0  501  0.00000000000E+00  0.00000000000E+00  0.16975499633E+04  0.16975499633E+04  0.50400001928E-02 0.  1.
        1   -1    0    0  501    0  0.00000000000E+00  0.00000000000E+00 -0.16683648639E+04  0.16683648639E+04  0.50400001928E-02 0. -1.
    10030    2    1    2    0    0  0.00000000000E+00  0.00000000000E+00  0.29185099365E+02  0.33659148272E+04  0.33657882961E+04 0.  0.
        1    1    3    3  502    0 -0.11253394376E+04  0.11725194625E+04 -0.42239295389E+03  0.16791684094E+04  0.50400001928E-02 0.  1.
       -1    1    3    3    0  502  0.11253394376E+04 -0.11725194625E+04  0.45157805325E+03  0.16867464178E+04  0.50400001928E-02 0. -1.
</event>
<event>
 5   0  0.2622205E-07  0.3433921E+04  0.7818609E-02  0.8129631E-01
        1   -1    0    0  501    0  0.00000000000E+00  0.00000000000E+00  0.19139051038E+04  0.19139051039E+04  0.50400001928E-02 0. -1.
       -1   -1    0    0    0  501  0.00000000000E+00  0.00000000000E+00 -0.15402814409E+04  0.15402814409E+04  0.50400001928E-02 0.  1.
    10030    2    1    2    0    0  0.00000000000E+00  0.00000000000E+00  0.37362366294E+03  0.34541865448E+04  0.34339205064E+04 0.  0.
        3    1    3    3  502    0  0.12751641649E+04 -0.53156676544E+02  0.13421035200E+04  0.18520559248E+04  0.10100000352E+00 0. -1.
       -3    1    3    3    0  502 -0.12751641649E+04  0.53156676544E+02 -0.96847985711E+03  0.16021306200E+04  0.10100000352E+00 0.  1.
</event>
<event>
 5   0  0.8489228E-07  0.3378963E+04  0.7818609E-02  0.8143089E-01
        2   -1    0    0  501    0  0.00000000000E+00  0.00000000000E+00  0.26464373558E+04  0.26464373558E+04  0.25500000920E-02 0. -1.
       -2   -1    0    0    0  501  0.00000000000E+00  0.00000000000E+00 -0.10785621126E+04  0.10785621126E+04  0.25500000920E-02 0.  1.
    10030    2    1    2    0    0  0.00000000000E+00  0.00000000000E+00  0.15678752432E+04  0.37249994684E+04  0.33789626014E+04 0.  0.
        3    1    3    3  502    0  0.79410100021E+03  0.14699800346E+04  0.50743424156E+03  0.17461177567E+04  0.10100000352E+00 0.  1.
       -3    1    3    3    0  502 -0.79410100021E+03 -0.14699800346E+04  0.10604410016E+04  0.19788817117E+04  0.10100000352E+00 0. -1.
</event>
<event>
 5   0  0.7610412E-07  0.3401749E+04  0.7818609E-02  0.8137477E-01
       -2   -1    0    0    0  501  0.00000000000E+00  0.00000000000E+00  0.12391701393E+04  0.12391701393E+04  0.25500000920E-02 0.  1.
        2   -1    0    0  501    0  0.00000000000E+00  0.00000000000E+00 -0.23346066002E+04  0.23346066002E+04  0.25500000920E-02 0. -1.
    10030    2    1    2    0    0  0.00000000000E+00  0.00000000000E+00 -0.10954364609E+04  0.35737767395E+04  0.34017494240E+04 0.  0.
        4    1    3    3  502    0  0.12225374613E+04  0.96352159396E+03 -0.12679540304E+04  0.20076555338E+04  0.12699999809E+01 0. -1.
       -4    1    3    3    0  502 -0.12225374613E+04 -0.96352159396E+03  0.17251756952E+03  0.15661212057E+04  0.12699999809E+01 0.  1.
</event>
<event>
 5   0  0.2641442E-07  0.3384290E+04  0.7818609E-02  0.8141773E-01
        1   -1    0    0  501    0  0.00000000000E+00  0.00000000000E+00  0.15102258529E+04  0.15102258530E+04  0.50400001928E-02 0. -1.
       -1   -1    0    0    0  501  0.00000000000E+00  0.00000000000E+00 -0.18959780006E+04  0.18959780006E+04  0.50400001928E-02 0.  1.
    10030    2    1    2    0    0  0.00000000000E+00  0.00000000000E+00 -0.38575214761E+03  0.34062038535E+04  0.33842901726E+04 0.  0.
        1    1    3    3  502    0  0.81093464440E+03  0.14846213971E+04 -0.15212560059E+03  0.16984869409E+04  0.50400001928E-02 0. -1.
       -1    1    3    3    0  502 -0.81093464440E+03 -0.14846213971E+04 -0.23362654702E+03  0.17077169126E+04  0.50400001928E-02 0.  1.
</event>
<event>
 5   0  0.2553250E-07  0.3413389E+04  0.7818609E-02  0.8134628E-01
       -1   -1    0    0    0  501  0.00000000000E+00  0.00000000000E+00  0.11388377984E+04  0.11388377985E+04  0.50400001928E-02 0.  1.
        1   -1    0    0  501    0  0.00000000000E+00  0.00000000000E+00 -0.25577008760E+04  0.25577008760E+04  0.50400001928E-02 0. -1.
    10030    2    1    2    0    0  0.00000000000E+00  0.00000000000E+00 -0.14188630775E+04  0.36965386745E+04  0.34133891866E+04 0.  0.
        5    1    3    3  502    0 -0.16445149365E+04  0.91545911252E+02 -0.22515151590E+03  0.16623854323E+04  0.46999998093E+01 0.  1.
       -5    1    3    3    0  502  0.16445149365E+04 -0.91545911252E+02 -0.11937115617E+04  0.20341532422E+04  0.46999998093E+01 0. -1.
</event>
<event>
 5   0  0.8489228E-07  0.3380494E+04  0.7818609E-02  0.8142710E-01
       -2   -1    0    0    0  501  0.00000000000E+00  0.00000000000E+00  0.10910102613E+04  0.10910102613E+04  0.25500000920E-02 0. -1.
        2   -1    0    0  501    0  0.00000000000E+00  0.00000000000E+00 -0.26186137883E+04  0.26186137883E+04  0.25500000920E-02 0.  1.
    10030    2    1    2    0    0  0.00000000000E+00  0.00000000000E+00 -0.15276035270E+04  0.37096240497E+04  0.33804937589E+04 0.  0.
        3    1    3    3  502    0 -0.15501249449E+04  0.53196091199E+03 -0.12176702392E+04  0.20417126582E+04  0.10100000352E+00 0.  1.
       -3    1    3    3    0  502  0.15501249449E+04 -0.53196091199E+03 -0.30993328779E+03  0.16679113915E+04  0.10100000352E+00 0. -1.
</event>
<event>
 5   0  0.2592200E-07  0.3400296E+04  0.7818609E-02  0.8137834E-01
        1   -1    0    0  501    0  0.00000000000E+00  0.00000000000E+00  0.24735761419E+04  0.24735761419E+04  0.50400001928E-02 0. -1.
       -1   -1    0    0    0  501  0.00000000000E+00  0.00000000000E+00 -0.11685524750E+04  0.11685524750E+04  0.50400001928E-02 0.  1.
    10030    2    1    2    0    0  0.00000000000E+00  0.00000000000E+00  0.13050236669E+04  0.36421286170E+04  0.34002961770E+04 0.  0.
        4    1    3    3  502    0 -0.78276123469E+03  0.70738386998E+03 -0.77549565916E+03  0.13093900184E+04  0.12699999809E+01 0.  1.
       -4    1    3    3    0  502  0.78276123469E+03 -0.70738386998E+03  0.20805193261E+04  0.23327385985E+04  0.12699999809E+01 0. -1.
</event>
<event>
 5   0  0.8489228E-07  0.3396358E+04  0.7818609E-02  0.8138801E-01
        2   -1    0    0  501    0  0.00000000000E+00  0.00000000000E+00  0.24756464223E+04  0.24756464223E+04  0.25500000920E-02 0.  1.
       -2   -1    0    0    0  501  0.00000000000E+00  0.00000000000E+00 -0.11648721399E+04  0.11648721399E+04  0.25500000920E-02 0. -1.
    10030    2    1    2    0    0  0.00000000000E+00  0.00000000000E+00  0.13107742825E+04  0.36405185622E+04  0.33963577818E+04 0.  0.
        3    1    3    3  502    0  0.12284687295E+04 -0.11822498046E+03  0.19057349692E+04  0.22704489310E+04  0.10100000352E+00 0.  1.
       -3    1    3    3    0  502 -0.12284687295E+04  0.11822498046E+03 -0.59496068670E+03  0.13700696312E+04  0.10100000352E+00 0. -1.
</event>
<event>
 5   0  0.2553250E-07  0.3378391E+04  0.7818609E-02  0.8143230E-01
        1   -1    0    0  501    0  0.00000000000E+00  0.00000000000E+00  0.12005109493E+04  0.12005109493E+04  0.50400001928E-02 0.  1.
       -1   -1    0    0    0  501  0.00000000000E+00  0.00000000000E+00 -0.23768062188E+04  0.23768062188E+04  0.50400001928E-02 0. -1.
    10030    2    1    2    0    0  0.00000000000E+00  0.00000000000E+00 -0.11762952696E+04  0.35773171681E+04  0.33783912680E+04 0.  0.
        5    1    3    3  502    0 -0.61783558981E+03  0.11713855275E+03  0.10719405383E+04  0.12427875379E+04  0.46999998093E+01 0.  1.
       -5    1    3    3    0  502  0.61783558981E+03 -0.11713855275E+03 -0.22482358079E+04  0.23345296302E+04  0.46999998093E+01 0. -1.
</event>
<event>
 5   0  0.2599367E-07  0.3400571E+04  0.7818609E-02  0.8137766E-01
       -1   -1    0    0    0  501  0.00000000000E+00  0.00000000000E+00  0.18970313963E+04  0.18970313963E+04  0.50400001928E-02 0. -1.
        1   -1    0    0  501    0  0.00000000000E+00  0.00000000000E+00 -0.15239442313E+04  0.15239442313E+04  0.50400001928E-02 0.  1.
    10030    2    1    2    0    0  0.00000000000E+00  0.00000000000E+00  0.37308716501E+03  0.34209756277E+04  0.34005705716E+04 0.  0.
        2    1    3    3  502    0  0.12563582677E+04  0.47912769811E+03 -0.86035960577E+03  0.15963139099E+04  0.25500000920E-02 0.  1.
       -2    1    3    3    0  502 -0.12563582677E+04 -0.47912769811E+03  0.12334467708E+04  0.18246617177E+04  0.25500000920E-02 0. -1.
</event>
<event>
 5   0  0.7822003E-07  0.3395130E+04  0.7818609E-02  0.8139103E-01
       -2   -1    0    0    0  501  0.00000000000E+00  0.00000000000E+00  0.27792997764E+04  0.27792997764E+04  0.25500000920E-02 0.  1.
        2   -1    0    0  501    0  0.00000000000E+00  0.00000000000E+00 -0.10368537386E+04  0.10368537386E+04  0.25500000920E-02 0. -1.
    10030    2    1    2    0    0  0.00000000000E+00  0.00000000000E+00  0.17424460378E+04  0.38161535150E+04  0.33951302560E+04 0.  0.
        5    1    3    3  502    0  0.20984719310E+03 -0.72476375420E+03  0.25804496434E+04  0.26885053089E+04  0.46999998093E+01 0.  1.
       -5    1    3    3    0  502 -0.20984719310E+03  0.72476375420E+03 -0.83800360555E+03  0.11276482061E+04  0.46999998093E+01 0. -1.
</event>
<event>
 5   0  0.2641442E-07  0.3410754E+04  0.7818609E-02  0.8135272E-01
        1   -1    0    0  501    0  0.00000000000E+00  0.00000000000E+00  0.21015381178E+04  0.21015381178E+04  0.50400001928E-02 0.  1.
       -1   -1    0    0    0  501  0.00000000000E+00  0.00000000000E+00 -0.13838963084E+04  0.13838963084E+04  0.50400001928E-02 0. -1.
    10030    2    1    2    0    0  0.00000000000E+00  0.00000000000E+00  0.71764180942E+03  0.34854344262E+04  0.34107540768E+04 0.  0.
        1    1    3    3  502    0  0.31644469565E+03  0.16081295316E+04  0.84040701420E+03  0.18418745303E+04  0.50400001928E-02 0. -1.
       -1    1    3    3    0  502 -0.31644469565E+03 -0.16081295316E+04 -0.12276520478E+03  0.16435598959E+04  0.50400001928E-02 0.  1.
</event>
<event>
 5   0  0.2641442E-07  0.3410168E+04  0.7818609E-02  0.8135415E-01
       -1   -1    0    0    0  501  0.00000000000E+00  0.00000000000E+00  0.12663399266E+04  0.12663399266E+04  0.50400001928E-02 0. -1.
        1   -1    0    0  501    0  0.00000000000E+00  0.00000000000E+00 -0.22958382613E+04  0.22958382613E+04  0.50400001928E-02 0.  1.
    10030    2    1    2    0    0  0.00000000000E+00  0.00000000000E+00 -0.10294983347E+04  0.35621781879E+04  0.34101681221E+04 0.  0.
        1    1    3    3  502    0 -0.10879107453E+04 -0.11070491293E+04 -0.12520479118E+04  0.19941744001E+04  0.50400001928E-02 0.  1.
       -1    1    3    3    0  502  0.10879107453E+04  0.11070491293E+04  0.22254957709E+03  0.15680037878E+04  0.50400001928E-02 0. -1.
</event>
<event>
 5   0  0.8489228E-07  0.3472875E+04  0.7818609E-02  0.8120248E-01
        2   -1    0    0  501    0  0.00000000000E+00  0.00000000000E+00  0.17961906678E+04  0.17961906678E+04  0.25500000920E-02 0. -1.
       -2   -1    0    0    0  501  0.00000000000E+00  0.00000000000E+00 -0.16786721427E+04  0.16786721427E+04  0.25500000920E-02 0.  1.
    10030    2    1    2    0    0  0.00000000000E+00  0.00000000000E+00  0.11751852501E+03  0.34748628105E+04  0.34728750263E+04 0.  0.
        3    1    3    3  502    0  0.10919790972E+04 -0.11272820873E+04  0.80217307216E+03  0.17625733746E+04  0.10100000352E+00 0. -1.
       -3    1    3    3    0  502 -0.10919790972E+04  0.11272820873E+04 -0.68465454715E+03  0.17122894359E+04  0.10100000352E+00 0.  1.
</event>
<event>
 5   0  0.2592200E-07  0.3400231E+04  0.7818609E-02  0.8137850E-01
        1   -1    0    0  501    0  0.00000000000E+00  0.00000000000E+00  0.12916370273E+04  0.12916370273E+04  0.50400001928E-02 0.  1.
       -1   -1    0    0    0  501  0.00000000000E+00  0.00000000000E+00 -0.22377745060E+04  0.22377745060E+04  0.50400001928E-02 0. -1.
    10030    2    1    2    0    0  0.00000000000E+00  0.00000000000E+00 -0.94613747867E+03  0.35294115333E+04  0.34002308220E+04 0.  0.
        4    1    3    3  502    0  0.36688304333E+03  0.46849886299E+03  0.11800113967E+04  0.13215607672E+04  0.12699999809E+01 0.  1.
       -4    1    3    3    0  502 -0.36688304333E+03 -0.46849886299E+03 -0.21261488754E+04  0.22078507661E+04  0.12699999809E+01 0. -1.
</event>
<event>
 5   0  0.2641442E-07  0.3400373E+04  0.7818609E-02  0.8137815E-01
        1   -1    0    0  501    0  0.00000000000E+00  0.00000000000E+00  0.25249058344E+04  0.25249058344E+04  0.50400001928E-02 0. -1.
       -1   -1    0    0    0  501  0.00000000000E+00  0.00000000000E+00 -0.11448479569E+04  0.11448479569E+04  0.50400001928E-02 0.  1.
    10030    2    1    2    0    0  0.00000000000E+00  0.00000000000E+00  0.13800578775E+04  0.36697537913E+04  0.34003725007E+04 0.  0.
        1    1    3    3  502    0 -0.12210319790E+04 -0.41680779802E+03  0.18849881761E+04  0.22842566096E+04  0.50400001928E-02 0. -1.
       -1    1    3    3    0  502  0.12210319790E+04  0.41680779802E+03 -0.50493029859E+03  0.13854971818E+04  0.50400001928E-02 0.  1.
</event>
<event>
 5   0  0.7822003E-07  0.3174106E+04  0.7818609E-02  0.8195689E-01
        2   -1    0    0  501    0  0.00000000000E+00  0.00000000000E+00  0.20035935256E+04  0.20035935256E+04  0.25500000920E-02 0. -1.
       -2   -1    0    0    0  501  0.00000000000E+00  0.00000000000E+00 -0.12571095414E+04  0.12571095414E+04  0.25500000920E-02 0.  1.
    10030    2    1    2    0    0  0.00000000000E+00  0.00000000000E+00  0.74648398416E+03  0.32607030670E+04  0.31741055673E+04 0.  0.
        5    1    3    3  502    0  0.13410121590E+04 -0.46650290671E+03  0.11016540068E+04  0.17971094049E+04  0.46999998093E+01 0. -1.
       -5    1    3    3    0  502 -0.13410121590E+04  0.46650290671E+03 -0.35517002268E+03  0.14635936620E+04  0.46999998093E+01 0.  1.
</event>
<event>
 5   0  0.2553250E-07  0.3382360E+04  0.7818609E-02  0.8142249E-01
        1   -1    0    0  501    0  0.00000000000E+00  0.00000000000E+00  0.13804618985E+04  0.13804618985E+04  0.50400001928E-02 0. -1.
       -1   -1    0    0    0  501  0.00000000000E+00  0.00000000000E+00 -0.20718356814E+04  0.20718356814E+04  0.50400001928E-02 0.  1.
    10030    2    1    2    0    0  0.00000000000E+00  0.00000000000E+00 -0.69137378292E+03  0.34522975799E+04  0.33823602518E+04 0.  0.
        5    1    3    3  502    0 -0.14233651512E+03  0.35833747910E+03  0.13349944303E+04  0.13895674332E+04  0.46999998093E+01 0. -1.
       -5    1    3    3    0  502  0.14233651512E+03 -0.35833747910E+03 -0.20263682133E+04  0.20627301467E+04  0.46999998093E+01 0.  1.
</event>
<event>
 5   0  0.8489228E-07  0.3406820E+04  0.7818609E-02  0.8136235E-01
       -2   -1    0    0    0  501  0.00000000000E+00  0.00000000000E+00  0.13528484221E+04  0.13528484221E+04  0.25500000920E-02 0. -1.
        2   -1    0    0  501    0  0.00000000000E+00  0.00000000000E+00 -0.21448118956E+04  0.21448118956E+04  0.25500000920E-02 0.  1.
    10030    2    1    2    0    0  0.00000000000E+00  0.00000000000E+00 -0.79196347342E+03  0.34976603177E+04  0.34068198595E+04 0.  0.
        3    1    3    3  502    0  0.97884819280E+03  0.65037151522E+02 -0.18256764707E+04  0.20725511336E+04  0.10100000352E+00 0.  1.
       -3    1    3    3    0  502 -0.97884819280E+03 -0.65037151522E+02  0.10337129973E+04  0.14251091841E+04  0.10100000352E+00 0. -1.
</event>
<event>
 5   0  0.2599367E-07  0.3147279E+04  0.7818609E-02  0.8202881E-01
       -1   -1    0    0    0  501  0.00000000000E+00  0.00000000000E+00  0.11454282854E+04  0.11454282854E+04  0.50400001928E-02 0.  1.
        1   -1    0    0  501    0  0.00000000000E+00  0.00000000000E+00 -0.21619342974E+04  0.21619342974E+04  0.50400001928E-02 0. -1.
    10030    2    1    2    0    0  0.00000000000E+00  0.00000000000E+00 -0.10165060120E+04  0.33073625828E+04  0.31472786311E+04 0.  0.
        2    1    3    3  502    0 -0.93901249811E+03 -0.62155922441E+03 -0.16633724079E+04  0.20087030912E+04  0.25500000920E-02 0. -1.
       -2    1    3    3    0  502  0.93901249811E+03  0.62155922441E+03  0.64686639596E+03  0.12986594917E+04  0.25500000920E-02 0.  1.
</event>
<event>
 5   0  0.2592200E-07  0.3395657E+04  0.7818609E-02  0.8138973E-01
       -1   -1    0    0    0  501  0.00000000000E+00  0.00000000000E+00  0.11355943531E+04  0.11355943532E+04  0.50400001928E-02 0.  1.
        1   -1    0    0  501    0  0.00000000000E+00  0.00000000000E+00 -0.25384250912E+04  0.25384250913E+04  0.50400001928E-02 0. -1.
    10030    2    1    2    0    0  0.00000000000E+00  0.00000000000E+00 -0.14028307381E+04  0.36740194444E+04  0.33956567550E+04 0.  0.
        4    1    3    3  502    0  0.58686184715E+03  0.64445033155E+03  0.87504145266E+03  0.12350798412E+04  0.12699999809E+01 0.  1.
       -4    1    3    3    0  502 -0.58686184715E+03 -0.64445033155E+03 -0.22778721908E+04  0.24389396032E+04  0.12699999809E+01 0. -1.
</event>
<event>
 5   0  0.2641442E-07  0.3398134E+04  0.7818609E-02  0.8138364E-01
        1   -1    0    0  501    0  0.00000000000E+00  0.00000000000E+00  0.27337036393E+04  0.27337036393E+04  0.50400001928E-02 0.  1.
       -1   -1    0    0    0  501  0.00000000000E+00  0.00000000000E+00 -0.10560137410E+04  0.10560137410E+04  0.50400001928E-02 0. -1.
    10030    2    1    2    0    0  0.00000000000E+00  0.00000000000E+00  0.16776898983E+04  0.37897173803E+04  0.33981339626E+04 0.  0.
        1    1    3    3  502    0  0.78594398187E+03 -0.14984089662E+04  0.66646544797E+03  0.18185471031E+04  0.50400001928E-02 0. -1.
       -1    1    3    3    0  502 -0.78594398187E+03  0.14984089662E+04  0.10112244504E+04  0.19711702772E+04  0.50400001928E-02 0.  1.
</event>
<event>
 5   0  0.2592200E-07  0.3430280E+04  0.7818609E-02  0.8130514E-01
       -1   -1    0    0    0  501  0.00000000000E+00  0.00000000000E+00  0.12035651967E+04  0.12035651968E+04  0.50400001928E-02 0. -1.
        1   -1    0    0  501    0  0.00000000000E+00  0.00000000000E+00 -0.24441592443E+04  0.24441592443E+04  0.50400001928E-02 0.  1.
    10030    2    1    2    0    0  0.00000000000E+00  0.00000000000E+00 -0.12405940476E+04  0.36477244411E+04  0.34302798730E+04 0.  0.
        4    1    3    3  502    0 -0.24985761200E+03  0.76563027189E+03 -0.22305812192E+04  0.23715211844E+04  0.12699999809E+01 0.  1.
       -4    1    3    3    0  502  0.24985761200E+03 -0.76563027189E+03  0.98998717164E+03  0.12762032567E+04  0.12699999809E+01 0. -1.
</event>
<event>
 5   0  0.7899402E-07  0.3373492E+04  0.7818609E-02  0.8144443E-01
       -2   -1    0    0    0  501  0.00000000000E+00  0.00000000000E+00  0.13925796174E+04  0.13925796174E+04  0.25500000920E-02 0.  1.
        2   -1    0    0  501    0  0.00000000000E+00  0.00000000000E+00 -0.20430517110E+04  0.20430517110E+04  0.25500000920E-02 0. -1.
    10030    2    1    2    0    0  0.00000000000E+00  0.00000000000E+00 -0.65047209368E+03  0.34356313284E+04  0.33734920602E+04 0.  0.
        2    1    3    3  502    0 -0.10346297250E+04 -0.12940536420E+04 -0.30567475788E+01  0.16568170810E+04  0.25500000920E-02 0.  1.
       -2    1    3    3    0  502  0.10346297250E+04  0.12940536420E+04 -0.64741534610E+03  0.17788142474E+04  0.25500000920E-02 0. -1.
</event>
<event>
 5   0  0.7838333E-07  0.3345938E+04  0.7818609E-02  0.8151304E-01
        2   -1    0    0  501    0  0.00000000000E+00  0.00000000000E+00  0.14194194858E+04  0.14194194858E+04  0.25500000920E-02 0. -1.
       -2   -1    0    0    0  501  0.00000000000E+00  0.00000000000E+00 -0.19718096286E+04  0.19718096286E+04  0.25500000920E-02 0.  1.
    10030    2    1    2    0    0  0.00000000000E+00  0.00000000000E+00 -0.55239014283E+03  0.33912291144E+04  0.33459378411E+04 0.  0.
        1    1    3    3  502    0 -0.40502132229E+02 -0.25200833576E+03  0.13995687652E+04  0.14226529277E+04  0.50400001928E-02 0. -1.
       -1    1    3    3    0  502  0.40502132229E+02  0.25200833576E+03 -0.19519589081E+04  0.19685761867E+04  0.50400001928E-02 0.  1.
</event>
<event>
 5   0  0.8489228E-07  0.3435530E+04  0.7818609E-02  0.8129241E-01
        2   -1    0    0  501    0  0.00000000000E+00  0.00000000000E+00  0.18187125632E+04  0.18187125632E+04  0.25500000920E-02 0.  1.
       -2   -1    0    0    0  501  0.00000000000E+00  0.00000000000E+00 -0.16224205901E+04  0.16224205901E+04  0.25500000920E-02 0. -1.
    10030    2    1    2    0    0  0.00000000000E+00  0.00000000000E+00  0.19629197309E+03  0.34411331533E+04  0.34355300668E+04 0.  0.
        3    1    3    3  502    0 -0.32056062830E+03 -0.12934189953E+04 -0.98760755951E+03  0.16586321218E+04  0.10100000352E+00 0. -1.
       -3    1    3    3    0  502  0.32056062830E+03  0.12934189953E+04  0.11838995326E+04  0.17825010315E+04  0.10100000352E+00 0.  1.
</event>
<event>
 5   0  0.7838333E-07  0.3402077E+04  0.7818609E-02  0.8137397E-01
        2   -1    0    0  501    0  0.00000000000E+00  0.00000000000E+00  0.16151764125E+04  0.16151764125E+04  0.25500000920E-02 0. -1.
       -2   -1    0    0    0  501  0.00000000000E+00  0.00000000000E+00 -0.17914649736E+04  0.17914649736E+04  0.25500000920E-02 0.  1.
    10030    2    1    2    0    0  0.00000000000E+00  0.00000000000E+00 -0.17628856112E+03  0.34066413861E+04  0.34020769945E+04 0.  0.
        1    1    3    3  502    0  0.10838328103E+04  0.10136734519E+04  0.74441848650E+03  0.16602368237E+04  0.50400001928E-02 0. -1.
       -1    1    3    3    0  502 -0.10838328103E+04 -0.10136734519E+04 -0.92070704762E+03  0.17464045623E+04  0.50400001928E-02 0.  1.
</event>
<event>
 5   0  0.7610412E-07  0.3385311E+04  0.7818609E-02  0.8141521E-01
       -2   -1    0    0    0  501  0.00000000000E+00  0.00000000000E+00  0.91777473410E+03  0.91777473411E+03  0.25500000920E-02 0. -1.
        2   -1    0    0  501    0  0.00000000000E+00  0.00000000000E+00 -0.31217703230E+04  0.31217703230E+04  0.25500000920E-02 0.  1.
    10030    2    1    2    0    0  0.00000000000E+00  0.00000000000E+00 -0.22039955889E+04  0.40395450571E+04  0.33853105785E+04 0.  0.
        4    1    3    3  502    0  0.88103252713E+03  0.57373490558E+03  0.48089700901E+03  0.11561373629E+04  0.12699999809E+01 0. -1.
       -4    1    3    3    0  502 -0.88103252713E+03 -0.57373490558E+03 -0.26848925979E+04  0.28834076942E+04  0.12699999809E+01 0.  1.
</event>
<event>
 5   0  0.2622205E-07  0.3407619E+04  0.7818609E-02  0.8136039E-01
        1   -1    0    0  501    0  0.00000000000E+00  0.00000000000E+00  0.18380541702E+04  0.18380541702E+04  0.50400001928E-02 0.  1.
       -1   -1    0    0    0  501  0.00000000000E+00  0.00000000000E+00 -0.15793698866E+04  0.15793698866E+04  0.50400001928E-02 0. -1.
    10030    2    1    2    0    0  0.00000000000E+00  0.00000000000E+00  0.25868428362E+03  0.34174240568E+04  0.34076193486E+04 0.  0.
        3    1    3    3  502    0  0.96936415426E+03  0.90052153634E+03 -0.94722759168E+03  0.16272203359E+04  0.10100000352E+00 0. -1.
       -3    1    3    3    0  502 -0.96936415426E+03 -0.90052153634E+03  0.12059118753E+04  0.17902037209E+04  0.10100000352E+00 0.  1.
</event>
<event>
 5   0  0.2641442E-07  0.3304541E+04  0.7818609E-02  0.8161741E-01
       -1   -1    0    0    0  501  0.00000000000E+00  0.00000000000E+00  0.14163169541E+04  0.14163169542E+04  0.50400001928E-02 0. -1.
        1   -1    0    0  501    0  0.00000000000E+00  0.00000000000E+00 -0.19275330406E+04  0.19275330406E+04  0.50400001928E-02 0.  1.
    10030    2    1    2    0    0  0.00000000000E+00  0.00000000000E+00 -0.51121608643E+03  0.33438499947E+04  0.33045409515E+04 0.  0.
        1    1    3    3  502    0 -0.19854084050E+03  0.76940541012E+03 -0.17214931125E+04  0.18960331450E+04  0.50400001928E-02 0.  1.
       -1    1    3    3    0  502  0.19854084050E+03 -0.76940541012E+03  0.12102770261E+04  0.14478168497E+04  0.50400001928E-02 0. -1.
</event>
<event>
 5   0  0.2553250E-07  0.3367839E+04  0.7818609E-02  0.8145845E-01
        3   -1    0    0  501    0  0.00000000000E+00  0.00000000000E+00  0.14513665077E+04  0.14513665112E+04  0.10100000352E+00 0.  1.
       -3   -1    0    0    0  501  0.00000000000E+00  0.00000000000E+00 -0.19537346503E+04  0.19537346529E+04  0.10100000352E+00 0. -1.
    10030    2    1    2    0    0  0.00000000000E+00  0.00000000000E+00 -0.50236814267E+03  0.34051011641E+04  0.33678390976E+04 0.  0.
        2    1    3    3  502    0  0.12126368859E+04 -0.87312699309E+03 -0.10361411014E+04  0.18183584204E+04  0.25500000920E-02 0. -1.
       -2    1    3    3    0  502 -0.12126368859E+04  0.87312699309E+03  0.53377295869E+03  0.15867427437E+04  0.25500000920E-02 0.  1.
</event>
<event>
 5   0  0.2641442E-07  0.3402916E+04  0.7818609E-02  0.8137191E-01
        1   -1    0    0  501    0  0.00000000000E+00  0.00000000000E+00  0.11343160567E+04  0.11343160567E+04  0.50400001928E-02 0.  1.
       -1   -1    0    0    0  501  0.00000000000E+00  0.00000000000E+00 -0.25521634650E+04  0.25521634650E+04  0.50400001928E-02 0. -1.
    10030    2    1    2    0    0  0.00000000000E+00  0.00000000000E+00 -0.14178474083E+04  0.36864795216E+04  0.34029163948E+04 0.  0.
        1    1    3    3  502    0 -0.11987156841E+04  0.10532193092E+04 -0.13487027006E+04  0.20893035153E+04  0.50400001928E-02 0.  1.
       -1    1    3    3    0  502  0.11987156841E+04 -0.10532193092E+04 -0.69144707684E+02  0.15971760063E+04  0.50400001928E-02 0. -1.
</event>
<event>
 5   0  0.2592200E-07  0.3403811E+04  0.7818609E-02  0.8136972E-01
        1   -1    0    0  501    0  0.00000000000E+00  0.00000000000E+00  0.15554192375E+04  0.15554192375E+04  0.50400001928E-02 0. -1.
       -1   -1    0    0    0  501  0.00000000000E+00  0.00000000000E+00 -0.18621873394E+04  0.18621873394E+04  0.50400001928E-02 0.  1.
    10030    2    1    2    0    0  0.00000000000E+00  0.00000000000E+00 -0.30676810183E+03  0.34176065769E+04  0.34038108123E+04 0.  0.
        4    1    3    3  502    0  0.12288459654E+03  0.12855232147E+04 -0.12663938637E+04  0.18087082658E+04  0.12699999809E+01 0. -1.
       -4    1    3    3    0  502 -0.12288459654E+03 -0.12855232147E+04  0.95962576192E+03  0.16088983111E+04  0.12699999809E+01 0.  1.
</event>
<event>
 5   0  0.2622205E-07  0.3373440E+04  0.7818609E-02  0.8144456E-01
       -1   -1    0    0    0  501  0.00000000000E+00  0.00000000000E+00  0.15065316897E+04  0.15065316897E+04  0.50400001928E-02 0. -1.
        1   -1    0    0  501    0  0.00000000000E+00  0.00000000000E+00 -0.18884602154E+04  0.18884602154E+04  0.50400001928E-02 0.  1.
    10030    2    1    2    0    0  0.00000000000E+00  0.00000000000E+00 -0.38192852573E+03  0.33949919051E+04  0.33734404748E+04 0.  0.
        3    1    3    3  502    0  0.12191204223E+04  0.10297762724E+04  0.35872234435E+03  0.16356575148E+04  0.10100000352E+00 0. -1.
       -3    1    3    3    0  502 -0.12191204223E+04 -0.10297762724E+04 -0.74065087008E+03  0.17593343903E+04  0.10100000352E+00 0.  1.
</event>
<event>
 5   0  0.7610412E-07  0.3411146E+04  0.7818609E-02  0.8135176E-01
        2   -1    0    0  501    0  0.00000000000E+00  0.00000000000E+00  0.19269383569E+04  0.19269383569E+04  0.25500000920E-02 0. -1.
       -2   -1    0    0    0  501  0.00000000000E+00  0.00000000000E+00 -0.15096375602E+04  0.15096375602E+04  0.25500000920E-02 0.  1.
    10030    2    1    2    0    0  0.00000000000E+00  0.00000000000E+00  0.41730079669E+03  0.34365759171E+04  0.34111455670E+04 0.  0.
        4    1    3    3  502    0 -0.72007068357E+03 -0.33355308931E+03 -0.13123123259E+04  0.15335986132E+04  0.12699999809E+01 0.  1.
       -4    1    3    3    0  502  0.72007068357E+03  0.33355308931E+03  0.17296131226E+04  0.19029773040E+04  0.12699999809E+01 0. -1.
</event>
<event>
 5   0  0.2599367E-07  0.3406394E+04  0.7818609E-02  0.8136339E-01
        1   -1    0    0  501    0  0.00000000000E+00  0.00000000000E+00  0.29142248236E+04  0.29142248236E+04  0.50400001928E-02 0.  1.
       -1   -1    0    0    0  501  0.00000000000E+00  0.00000000000E+00 -0.99542088357E+03  0.99542088358E+03  0.50400001928E-02 0. -1.
    10030    2    1    2    0    0  0.00000000000E+00  0.00000000000E+00  0.19188039400E+04  0.39096457072E+04  0.34063941339E+04 0.  0.
        2    1    3    3  502    0 -0.82649621903E+03 -0.30550621851E+02  0.26682787560E+04  0.27935176499E+04  0.25500000920E-02 0.  1.
       -2    1    3    3    0  502  0.82649621903E+03  0.30550621851E+02 -0.74947481595E+03  0.11161280573E+04  0.25500000920E-02 0. -1.
</event>
<event>
 5   0  0.2622205E-07  0.3408741E+04  0.7818609E-02  0.8135764E-01
       -1   -1    0    0    0  501  0.00000000000E+00  0.00000000000E+00  0.19217670934E+04  0.19217670934E+04  0.50400001928E-02 0. -1.
        1   -1    0    0  501    0  0.00000000000E+00  0.00000000000E+00 -0.15115668641E+04  0.15115668641E+04  0.50400001928E-02 0.  1.
    10030    2    1    2    0    0  0.00000000000E+00  0.00000000000E+00  0.41020022929E+03  0.34333339575E+04  0.34087413858E+04 0.  0.
        3    1    3    3  502    0  0.74454774294E+02 -0.50832208716E+03  0.18419228179E+04  0.19122276368E+04  0.10100000352E+00 0. -1.
       -3    1    3    3    0  502 -0.74454774294E+02  0.50832208716E+03 -0.14317225886E+04  0.15211063206E+04  0.10100000352E+00 0.  1.
</event>
<event>
 5   0  0.7822003E-07  0.3372670E+04  0.7818609E-02  0.8144647E-01
       -2   -1    0    0    0  501  0.00000000000E+00  0.00000000000E+00  0.11014281626E+04  0.11014281626E+04  0.25500000920E-02 0. -1.
        2   -1    0    0  501    0  0.00000000000E+00  0.00000000000E+00 -0.25818525794E+04  0.25818525794E+04  0.25500000920E-02 0.  1.
    10030    2    1    2    0    0  0.00000000000E+00  0.00000000000E+00 -0.14804244169E+04  0.36832807420E+04  0.33726696504E+04 0.  0.
        5    1    3    3  502    0 -0.31052690505E+03 -0.25946843948E+03  0.10476108883E+04  0.11230589891E+04  0.46999998093E+01 0. -1.
       -5    1    3    3    0  502  0.31052690505E+03  0.25946843948E+03 -0.25280353052E+04  0.25602217529E+04  0.46999998093E+01 0.  1.
</event>
<event>
 5   0  0.2599367E-07  0.3428861E+04  0.7818609E-02  0.8130859E-01
        1   -1    0    0  501    0  0.00000000000E+00  0.00000000000E+00  0.23392803437E+04  0.23392803437E+04  0.50400001928E-02 0. -1.
       -1   -1    0    0    0  501  0.00000000000E+00  0.00000000000E+00 -0.12564852387E+04  0.12564852387E+04  0.50400001928E-02 0.  1.
    10030    2    1    2    0    0  0.00000000000E+00  0.00000000000E+00  0.10827951050E+04  0.35957655824E+04  0.34288605810E+04 0.  0.
        2    1    3    3  502    0  0.16834454754E+04 -0.21339226243E+02  0.20186726919E+03  0.16956398278E+04  0.25500000920E-02 0.  1.
       -2    1    3    3    0  502 -0.16834454754E+04  0.21339226243E+02  0.88092783579E+03  0.19001257546E+04  0.25500000920E-02 0. -1.
</event>
<event>
 5   0  0.2553250E-07  0.3394473E+04  0.7818609E-02  0.8139264E-01
       -1   -1    0    0    0  501  0.00000000000E+00  0.00000000000E+00  0.17266829039E+04  0.17266829039E+04  0.50400001928E-02 0. -1.
        1   -1    0    0  501    0  0.00000000000E+00  0.00000000000E+00 -0.16682922181E+04  0.16682922181E+04  0.50400001928E-02 0.  1.
    10030    2    1    2    0    0  0.00000000000E+00  0.00000000000E+00  0.58390685713E+02  0.33949751220E+04  0.33944729498E+04 0.  0.
        5    1    3    3  502    0  0.10160714477E+04  0.78276158248E+03 -0.10824872801E+04  0.16783675650E+04  0.46999998093E+01 0.  1.
       -5    1    3    3    0  502 -0.10160714477E+04 -0.78276158248E+03  0.11408779658E+04  0.17166075570E+04  0.46999998093E+01 0. -1.
</event>
<event>
 5   0  0.2553250E-07  0.3376236E+04  0.7818609E-02  0.8143763E-01
       -1   -1    0    0    0  501  0.00000000000E+00  0.00000000000E+00  0.14215221911E+04  0.14215221911E+04  0.50400001928E-02 0. -1.
        1   -1    0    0  501    0  0.00000000000E+00  0.00000000000E+00 -0.20047122611E+04  0.20047122611E+04  0.50400001928E-02 0.  1.
    10030    2    1    2    0    0  0.00000000000E+00  0.00000000000E+00 -0.58319006998E+03  0.34262344522E+04  0.33762363460E+04 0.  0.
        5    1    3    3  502    0 -0.11517673604E+04  0.65765993552E+03 -0.13513957245E+04  0.18935092124E+04  0.46999998093E+01 0.  1.
       -5    1    3    3    0  502  0.11517673604E+04 -0.65765993552E+03  0.76820565451E+03  0.15327252399E+04  0.46999998093E+01 0. -1.
</event>
<event>
 5   0  0.7899402E-07  0.3355691E+04  0.7818609E-02  0.8148868E-01
        2   -1    0    0  501    0  0.00000000000E+00  0.00000000000E+00  0.18930407399E+04  0.18930407399E+04  0.25500000920E-02 0.  1.
       -2   -1    0    0    0  501  0.00000000000E+00  0.00000000000E+00 -0.14871132906E+04  0.14871132906E+04  0.25500000920E-02 0. -1.
    10030    2    1    2    0    0  0.00000000000E+00  0.00000000000E+00  0.40592744932E+03  0.33801540305E+04  0.33556913111E+04 0.  0.
        2    1    3    3  502    0 -0.15774821615E+04  0.41048466634E+03  0.60363019413E+03  0.17381936148E+04  0.25500000920E-02 0. -1.
       -2    1    3    3    0  502  0.15774821615E+04 -0.41048466634E+03 -0.19770274481E+03  0.16419604157E+04  0.25500000920E-02 0.  1.
</event>
<event>
 5   0  0.7899402E-07  0.3420938E+04  0.7818609E-02  0.8132787E-01
       -2   -1    0    0    0  501  0.00000000000E+00  0.00000000000E+00  0.13877321272E+04  0.13877321272E+04  0.25500000920E-02 0. -1.
        2   -1    0    0  501    0  0.00000000000E+00  0.00000000000E+00 -0.21082626813E+04  0.21082626813E+04  0.25500000920E-02 0.  1.
    10030    2    1    2    0    0  0.00000000000E+00  0.00000000000E+00 -0.72053055407E+03  0.34959948085E+04  0.34209377986E+04 0.  0.
        2    1    3    3  502    0  0.39772633171E+03 -0.12075885921E+04  0.80906303091E+03  0.15069968251E+04  0.25500000920E-02 0. -1.
       -2    1    3    3    0  502 -0.39772633171E+03  0.12075885921E+04 -0.15295935850E+04  0.19889979834E+04  0.25500000920E-02 0.  1.
</event>
<event>
 5   0  0.7822003E-07  0.3401514E+04  0.7818609E-02  0.8137535E-01
        2   -1    0    0  501    0  0.00000000000E+00  0.00000000000E+00  0.23401881274E+04  0.23401881274E+04  0.25500000920E-02 0.  1.
       -2   -1    0    0    0  501  0.00000000000E+00  0.00000000000E+00 -0.12360432091E+04  0.12360432091E+04  0.25500000920E-02 0. -1.
    10030    2    1    2    0    0  0.00000000000E+00  0.00000000000E+00  0.11041449183E+04  0.35762313365E+04  0.34015135707E+04 0.  0.
        5    1    3    3  502    0  0.16365058763E+04 -0.43686663151E+03  0.71340681807E+03  0.18379269069E+04  0.46999998093E+01 0.  1.
       -5    1    3    3    0  502 -0.16365058763E+04  0.43686663151E+03  0.39073810024E+03  0.17383044296E+04  0.46999998093E+01 0. -1.
</event>
<event>
 5   0  0.7610412E-07  0.3367013E+04  0.7818609E-02  0.8146050E-01
        2   -1    0    0  501    0  0.00000000000E+00  0.00000000000E+00  0.18605076995E+04  0.18605076995E+04  0.25500000920E-02 0.  1.
       -2   -1    0    0    0  501  0.00000000000E+00  0.00000000000E+00 -0.15233441853E+04  0.15233441853E+04  0.25500000920E-02 0. -1.
    10030    2    1    2    0    0  0.00000000000E+00  0.00000000000E+00  0.33716351412E+03  0.33838518848E+04  0.33670126734E+04 0.  0.
        4    1    3    3  502    0 -0.47409231810E+03 -0.17899918383E+03 -0.14448718162E+04  0.15311630913E+04  0.12699999809E+01 0. -1.
       -4    1    3    3    0  502  0.47409231810E+03  0.17899918383E+03  0.17820353304E+04  0.18526887935E+04  0.12699999809E+01 0.  1.
</event>
<event>
 5   0  0.2641442E-07  0.3403211E+04  0.7818609E-02  0.8137119E-01
       -1   -1    0    0    0  501  0.00000000000E+00  0.00000000000E+00  0.15690996045E+04  0.15690996045E+04  0.50400001928E-02 0.  1.
        1   -1    0    0  501    0  0.00000000000E+00  0.00000000000E+00 -0.18453016707E+04  0.18453016707E+04  0.50400001928E-02 0. -1.
    10030    2    1    2    0    0  0.00000000000E+00  0.00000000000E+00 -0.27620206614E+03  0.34144012752E+04  0.34032114961E+04 0.  0.
        1    1    3    3  502    0  0.13432535442E+04  0.74154966402E+03  0.60000543604E+03  0.16474927956E+04  0.50400001928E-02 0.  1.
       -1    1    3    3    0  502 -0.13432535442E+04 -0.74154966402E+03 -0.87620750218E+03  0.17669084796E+04  0.50400001928E-02 0. -1.
</event>
<event>
 5   0  0.7610412E-07  0.3456748E+04  0.7818609E-02  0.8124117E-01
       -2   -1    0    0    0  501  0.00000000000E+00  0.00000000000E+00  0.12029044569E+04  0.12029044569E+04  0.25500000920E-02 0. -1.
        2   -1    0    0  501    0  0.00000000000E+00  0.00000000000E+00 -0.24833858975E+04  0.24833858975E+04  0.25500000920E-02 0.  1.
    10030    2    1    2    0    0  0.00000000000E+00  0.00000000000E+00 -0.12804814405E+04  0.36862903544E+04  0.34567475837E+04 0.  0.
        4    1    3    3  502    0 -0.10076854340E+04  0.13202216727E+04 -0.11504002629E+04  0.20203558045E+04  0.12699999809E+01 0.  1.
       -4    1    3    3    0  502  0.10076854340E+04 -0.13202216727E+04 -0.13008117762E+03  0.16659345499E+04  0.12699999809E+01 0. -1.
</event>
<event>
 5   0  0.2592200E-07  0.3112900E+04  0.7818609E-02  0.8212206E-01
       -1   -1    0    0    0  501  0.00000000000E+00  0.00000000000E+00  0.22263013122E+04  0.22263013122E+04  0.50400001928E-02 0. -1.
        1   -1    0    0  501    0  0.00000000000E+00  0.00000000000E+00 -0.10881442501E+04  0.10881442501E+04  0.50400001928E-02 0.  1.
    10030    2    1    2    0    0  0.00000000000E+00  0.00000000000E+00  0.11381570621E+04  0.33144455623E+04  0.31129002374E+04 0.  0.
        4    1    3    3  502    0  0.89021852191E+03  0.30557433499E+03  0.18889635168E+04  0.21104619095E+04  0.12699999809E+01 0. -1.
       -4    1    3    3    0  502 -0.89021852191E+03 -0.30557433499E+03 -0.75080645471E+03  0.12039836528E+04  0.12699999809E+01 0.  1.
</event>
<event>
 5   0  0.7838333E-07  0.3334107E+04  0.7818609E-02  0.8154271E-01
       -2   -1    0    0    0  501  0.00000000000E+00  0.00000000000E+00  0.11996503401E+04  0.11996503401E+04  0.25500000920E-02 0.  1.
        2   -1    0    0  501    0  0.00000000000E+00  0.00000000000E+00 -0.23165641993E+04  0.23165641993E+04  0.25500000920E-02 0. -1.
    10030    2    1    2    0    0  0.00000000000E+00  0.00000000000E+00 -0.11169138592E+04  0.35162145394E+04  0.33341067946E+04 0.  0.
        1    1    3    3  502    0  0.73329887781E+03  0.21616218628E+03  0.10038807294E+04  0.12618359061E+04  0.50400001928E-02 0.  1.
       -1    1    3    3    0  502 -0.73329887781E+03 -0.21616218628E+03 -0.21207945886E+04  0.22543786333E+04  0.50400001928E-02 0. -1.
</event>
<event>
 5   0  0.2622205E-07  0.3405039E+04  0.7818609E-02  0.8136671E-01
       -1   -1    0    0    0  501  0.00000000000E+00  0.00000000000E+00  0.14277107924E+04  0.14277107924E+04  0.50400001928E-02 0.  1.
        1   -1    0    0  501    0  0.00000000000E+00  0.00000000000E+00 -0.20302234499E+04  0.20302234499E+04  0.50400001928E-02 0. -1.
    10030    2    1    2    0    0  0.00000000000E+00  0.00000000000E+00 -0.60251265754E+03  0.34579342423E+04  0.34050385786E+04 0.  0.
        3    1    3    3  502    0  0.12752416388E+04  0.85305358798E+03 -0.10507113554E+04  0.18595526407E+04  0.10100000352E+00 0. -1.
       -3    1    3    3    0  502 -0.12752416388E+04 -0.85305358798E+03  0.44819869782E+03  0.15983816015E+04  0.10100000352E+00 0.  1.
</event>
<event>
 5   0  0.8489228E-07  0.3400307E+04  0.7818609E-02  0.8137831E-01
       -2   -1    0    0    0  501  0.00000000000E+00  0.00000000000E+00  0.29858768941E+04  0.29858768941E+04  0.25500000920E-02 0. -1.
        2   -1    0    0  501    0  0.00000000000E+00  0.00000000000E+00 -0.96806442614E+03  0.96806442615E+03  0.25500000920E-02 0.  1.
    10030    2    1    2    0    0  0.00000000000E+00  0.00000000000E+00  0.20178124679E+04  0.39539413202E+04  0.34003065756E+04 0.  0.
        3    1    3    3  502    0  0.13969253085E+03 -0.11412700993E+04 -0.44741021762E+03  0.12337695716E+04  0.10100000352E+00 0.  1.
       -3    1    3    3    0  502 -0.13969253085E+03  0.11412700993E+04  0.24652226856E+04  0.27201717487E+04  0.10100000352E+00 0. -1.
</event>
<event>
 5   0  0.2553250E-07  0.3599880E+04  0.7818609E-02  0.8090519E-01
        1   -1    0    0  501    0  0.00000000000E+00  0.00000000000E+00  0.25087008085E+04  0.25087008086E+04  0.50400001928E-02 0.  1.
       -1   -1    0    0    0  501  0.00000000000E+00  0.00000000000E+00 -0.12914193013E+04  0.12914193013E+04  0.50400001928E-02 0. -1.
    10030    2    1    2    0    0  0.00000000000E+00  0.00000000000E+00  0.12172815073E+04  0.38001201098E+04  0.35998803565E+04 0.  0.
        5    1    3    3  502    0  0.11265286178E+03  0.87148405852E+03 -0.10495921581E+04  0.13688830921E+04  0.46999998093E+01 0. -1.
       -5    1    3    3    0  502 -0.11265286178E+03 -0.87148405852E+03  0.22668736654E+04  0.24312370177E+04  0.46999998093E+01 0.  1.
</event>
<event>
 5   0  0.7838333E-07  0.3392318E+04  0.7818609E-02  0.8139794E-01
        2   -1    0    0  501    0  0.00000000000E+00  0.00000000000E+00  0.16778509555E+04  0.16778509555E+04  0.25500000920E-02 0. -1.
       -2   -1    0    0    0  501  0.00000000000E+00  0.00000000000E+00 -0.17146663457E+04  0.17146663457E+04  0.25500000920E-02 0.  1.
    10030    2    1    2    0    0  0.00000000000E+00  0.00000000000E+00 -0.36815390129E+02  0.33925173012E+04  0.33923175361E+04 0.  0.
        1    1    3    3  502    0 -0.16089948261E+04 -0.25957616162E+03  0.45141825929E+03  0.16911601281E+04  0.50400001928E-02 0.  1.
       -1    1    3    3    0  502  0.16089948261E+04  0.25957616162E+03 -0.48823364942E+03  0.17013571731E+04  0.50400001928E-02 0. -1.
</event>
<event>
 5   0  0.8489228E-07  0.3506123E+04  0.7818609E-02  0.8112340E-01
        2   -1    0    0  501    0  0.00000000000E+00  0.00000000000E+00  0.24520561502E+04  0.24520561502E+04  0.25500000920E-02 0.  1.
       -2   -1    0    0    0  501  0.00000000000E+00  0.00000000000E+00 -0.12533258563E+04  0.12533258563E+04  0.25500000920E-02 0. -1.
    10030    2    1    2    0    0  0.00000000000E+00  0.00000000000E+00  0.11987302939E+04  0.37053820066E+04  0.35061234287E+04 0.  0.
        3    1    3    3  502    0  0.94827687890E+02 -0.12818255231E+04 -0.66050772696E+03  0.14451087951E+04  0.10100000352E+00 0. -1.
       -3    1    3    3    0  502 -0.94827687890E+02  0.12818255231E+04  0.18592380209E+04  0.22602732115E+04  0.10100000352E+00 0.  1.
</event>
<event>
 5   0  0.2553250E-07  0.3395128E+04  0.7818609E-02  0.8139103E-01
       -3   -1    0    0    0  501  0.00000000000E+00  0.00000000000E+00  0.14717614578E+04  0.14717614613E+04  0.10100000352E+00 0. -1.
        3   -1    0    0  501    0  0.00000000000E+00  0.00000000000E+00 -0.19580094797E+04  0.19580094823E+04  0.10100000352E+00 0.  1.
    10030    2    1    2    0    0  0.00000000000E+00  0.00000000000E+00 -0.48624802185E+03  0.34297709436E+04  0.33951276245E+04 0.  0.
        2    1    3    3  502    0  0.21618296132E+03 -0.16777202520E+04 -0.38685219654E+03  0.17352622104E+04  0.25500000920E-02 0.  1.
       -2    1    3    3    0  502 -0.21618296132E+03  0.16777202520E+04 -0.99395825310E+02  0.16945087332E+04  0.25500000920E-02 0. -1.
</event>
<event>
 5   0  0.2592200E-07  0.3396273E+04  0.7818609E-02  0.8138822E-01
        1   -1    0    0  501    0  0.00000000000E+00  0.00000000000E+00  0.15102272519E+04  0.15102272519E+04  0.50400001928E-02 0.  1.
       -1   -1    0    0    0  501  0.00000000000E+00  0.00000000000E+00 -0.19094262490E+04  0.19094262490E+04  0.50400001928E-02 0. -1.
    10030    2    1    2    0    0  0.00000000000E+00  0.00000000000E+00 -0.39919899707E+03  0.34196535009E+04  0.33962729906E+04 0.  0.
        4    1    3    3  502    0 -0.85137565922E+03 -0.12078986056E+04  0.64270372621E+03  0.16114990683E+04  0.12699999809E+01 0.  1.
       -4    1    3    3    0  502  0.85137565922E+03  0.12078986056E+04 -0.10419027233E+04  0.18081544326E+04  0.12699999809E+01 0. -1.
</event>
<event>
 5   0  0.2599367E-07  0.3401023E+04  0.7818609E-02  0.8137655E-01
        1   -1    0    0  501    0  0.00000000000E+00  0.00000000000E+00  0.23213766327E+04  0.23213766327E+04  0.50400001928E-02 0.  1.
       -1   -1    0    0    0  501  0.00000000000E+00  0.00000000000E+00 -0.12457005290E+04  0.12457005290E+04  0.50400001928E-02 0. -1.
    10030    2    1    2    0    0  0.00000000000E+00  0.00000000000E+00  0.10756761036E+04  0.35670771617E+04  0.34010234338E+04 0.  0.
        2    1    3    3  502    0  0.63436884724E+03 -0.15762857502E+04  0.46639855076E+03  0.17619955189E+04  0.25500000920E-02 0.  1.
       -2    1    3    3    0  502 -0.63436884724E+03  0.15762857502E+04  0.60927755288E+03  0.18050816428E+04  0.25500000920E-02 0. -1.
</event>
<event>
 5   0  0.7610412E-07  0.3400996E+04  0.7818609E-02  0.8137662E-01
       -2   -1    0    0    0  501  0.00000000000E+00  0.00000000000E+00  0.11155270923E+04  0.11155270923E+04  0.25500000920E-02 0. -1.
        2   -1    0    0  501    0  0.00000000000E+00  0.00000000000E+00 -0.25922216649E+04  0.25922216649E+04  0.25500000920E-02 0.  1.
    10030    2    1    2    0    0  0.00000000000E+00  0.00000000000E+00 -0.14766945726E+04  0.37077487572E+04  0.34009960284E+04 0.  0.
        4    1    3    3  502    0  0.20464134335E+03 -0.13364461206E+04  0.38604788759E+03  0.14060586393E+04  0.12699999809E+01 0. -1.
       -4    1    3    3    0  502 -0.20464134335E+03  0.13364461206E+04 -0.18627424602E+04  0.23016901179E+04  0.12699999809E+01 0.  1.
</event>
<event>
 5   0  0.7838333E-07  0.3410575E+04  0.7818609E-02  0.8135316E-01
        2   -1    0    0  501    0  0.00000000000E+00  0.00000000000E+00  0.20371963053E+04  0.20371963053E+04  0.25500000920E-02 0.  1.
       -2   -1    0    0    0  501  0.00000000000E+00  0.00000000000E+00 -0.14274546480E+04  0.14274546480E+04  0.25500000920E-02 0. -1.
    10030    2    1    2    0    0  0.00000000000E+00  0.00000000000E+00  0.60974165724E+03  0.34646509533E+04  0.34105749281E+04 0.  0.
        1    1    3    3  502    0 -0.92412326920E+03 -0.19637719320E+03 -0.11372995203E+04  0.14785188594E+04  0.50400001928E-02 0. -1.
       -1    1    3    3    0  502  0.92412326920E+03  0.19637719320E+03  0.17470411775E+04  0.19861320940E+04  0.50400001928E-02 0.  1.
</event>
<event>
 5   0  0.2641442E-07  0.3434953E+04  0.7818609E-02  0.8129381E-01
        1   -1    0    0  501    0  0.00000000000E+00  0.00000000000E+00  0.20848923919E+04  0.20848923920E+04  0.50400001928E-02 0. -1.
       -1   -1    0    0    0  501  0.00000000000E+00  0.00000000000E+00 -0.14148096444E+04  0.14148096444E+04  0.50400001928E-02 0.  1.
    10030    2    1    2    0    0  0.00000000000E+00  0.00000000000E+00  0.67008274755E+03  0.34997020364E+04  0.34349531954E+04 0.  0.
        1    1    3    3  502    0 -0.70669454300E+03 -0.77656107497E+03  0.17198011686E+04  0.20149889180E+04  0.50400001928E-02 0. -1.
       -1    1    3    3    0  502  0.70669454300E+03  0.77656107497E+03 -0.10497184210E+04  0.14847131183E+04  0.50400001928E-02 0.  1.
</event>
<event>
 5   0  0.7822003E-07  0.3433964E+04  0.7818609E-02  0.8129620E-01
        2   -1    0    0  501    0  0.00000000000E+00  0.00000000000E+00  0.18550612531E+04  0.18550612531E+04  0.25500000920E-02 0.  1.
       -2   -1    0    0    0  501  0.00000000000E+00  0.00000000000E+00 -0.15891807758E+04  0.15891807758E+04  0.25500000920E-02 0. -1.
    10030    2    1    2    0    0  0.00000000000E+00  0.00000000000E+00  0.26588047738E+03  0.34442420289E+04  0.34339642871E+04 0.  0.
        5    1    3    3  502    0  0.10573643793E+03  0.17005830529E+04 -0.79454450890E+02  0.17057250699E+04  0.46999998093E+01 0. -1.
       -5    1    3    3    0  502 -0.10573643793E+03 -0.17005830529E+04  0.34533492827E+03  0.17385169590E+04  0.46999998093E+01 0.  1.
</event>
<event>
 5   0  0.2592200E-07  0.3402899E+04  0.7818609E-02  0.8137195E-01
        1   -1    0    0  501    0  0.00000000000E+00  0.00000000000E+00  0.18202353032E+04  0.18202353032E+04  0.50400001928E-02 0.  1.
       -1   -1    0    0    0  501  0.00000000000E+00  0.00000000000E+00 -0.15904155944E+04  0.15904155944E+04  0.50400001928E-02 0. -1.
    10030    2    1    2    0    0  0.00000000000E+00  0.00000000000E+00  0.22981970879E+03  0.34106508977E+04  0.34028991239E+04 0.  0.
        4    1    3    3  502    0 -0.65771701089E+03  0.18081069385E+03 -0.14473727231E+04  0.16000542447E+04  0.12699999809E+01 0. -1.
       -4    1    3    3    0  502  0.65771701089E+03 -0.18081069385E+03  0.16771924319E+04  0.18105966530E+04  0.12699999809E+01 0.  1.
</event>
<event>
 5   0  0.2622205E-07  0.3415761E+04  0.7818609E-02  0.8134049E-01
       -1   -1    0    0    0  501  0.00000000000E+00  0.00000000000E+00  0.10433777613E+04  0.10433777613E+04  0.50400001928E-02 0.  1.
        1   -1    0    0  501    0  0.00000000000E+00  0.00000000000E+00 -0.27955888307E+04  0.27955888307E+04  0.50400001928E-02 0. -1.
    10030    2    1    2    0    0  0.00000000000E+00  0.00000000000E+00 -0.17522110695E+04  0.38389665920E+04  0.34157606565E+04 0.  0.
        3    1    3    3  502    0  0.16255404992E+04 -0.50911029693E+03 -0.73717793692E+03  0.18560728784E+04  0.10100000352E+00 0.  1.
       -3    1    3    3    0  502 -0.16255404992E+04  0.50911029693E+03 -0.10150331325E+04  0.19828937136E+04  0.10100000352E+00 0. -1.
</event>
<event>
 5   0  0.2599367E-07  0.3402821E+04  0.7818609E-02  0.8137214E-01
        1   -1    0    0  501    0  0.00000000000E+00  0.00000000000E+00  0.78666982044E+03  0.78666982045E+03  0.50400001928E-02 0.  1.
       -1   -1    0    0    0  501  0.00000000000E+00  0.00000000000E+00 -0.36798118233E+04  0.36798118233E+04  0.50400001928E-02 0. -1.
    10030    2    1    2    0    0  0.00000000000E+00  0.00000000000E+00 -0.28931420029E+04  0.44664816438E+04  0.34028205397E+04 0.  0.
        2    1    3    3  502    0 -0.99168583367E+03  0.21895442792E+03 -0.32383370780E+04  0.33938486804E+04  0.25500000920E-02 0. -1.
       -2    1    3    3    0  502  0.99168583367E+03 -0.21895442792E+03  0.34519507517E+03  0.10726329634E+04  0.25500000920E-02 0.  1.
</event>
<event>
 5   0  0.7610412E-07  0.3391946E+04  0.7818609E-02  0.8139886E-01
       -2   -1    0    0    0  501  0.00000000000E+00  0.00000000000E+00  0.12733136312E+04  0.12733136312E+04  0.25500000920E-02 0. -1.
        2   -1    0    0  501    0  0.00000000000E+00  0.00000000000E+00 -0.22589289022E+04  0.22589289022E+04  0.25500000920E-02 0.  1.
    10030    2    1    2    0    0  0.00000000000E+00  0.00000000000E+00 -0.98561527102E+03  0.35322425334E+04  0.33919463222E+04 0.  0.
        4    1    3    3  502    0  0.14730286097E+03 -0.35210948819E+03 -0.22136222939E+04  0.22462868244E+04  0.12699999809E+01 0.  1.
       -4    1    3    3    0  502 -0.14730286097E+03  0.35210948819E+03  0.12280070229E+04  0.12859557090E+04  0.12699999809E+01 0. -1.
</event>
<event>
 5   0  0.2641442E-07  0.3453860E+04  0.7818609E-02  0.8124812E-01
       -1   -1    0    0    0  501  0.00000000000E+00  0.00000000000E+00  0.15591946706E+04  0.15591946706E+04  0.50400001928E-02 0. -1.
        1   -1    0    0  501    0  0.00000000000E+00  0.00000000000E+00 -0.19127103278E+04  0.19127103278E+04  0.50400001928E-02 0.  1.
    10030    2    1    2    0    0  0.00000000000E+00  0.00000000000E+00 -0.35351565722E+03  0.34719049985E+04  0.34538603038E+04 0.  0.
        1    1    3    3  502    0 -0.87430241771E+03 -0.10709734645E+04 -0.12170068008E+04  0.18418725343E+04  0.50400001928E-02 0.  1.
       -1    1    3    3    0  502  0.87430241771E+03  0.10709734645E+04  0.86349114353E+03  0.16300324642E+04  0.50400001928E-02 0. -1.
</event>
<event>
 5   0  0.2622205E-07  0.3372245E+04  0.7818609E-02  0.8144752E-01
       -1   -1    0    0    0  501  0.00000000000E+00  0.00000000000E+00  0.20081589115E+04  0.20081589115E+04  0.50400001928E-02 0. -1.
        1   -1    0    0  501    0  0.00000000000E+00  0.00000000000E+00 -0.14157293866E+04  0.14157293867E+04  0.50400001928E-02 0.  1.
    10030    2    1    2    0    0  0.00000000000E+00  0.00000000000E+00  0.59242952483E+03  0.34238882981E+04  0.33722452960E+04 0.  0.
        3    1    3    3  502    0  0.31069418416E+03  0.66590127567E+02 -0.13850560585E+04  0.14210367401E+04  0.10100000352E+00 0.  1.
       -3    1    3    3    0  502 -0.31069418416E+03 -0.66590127567E+02  0.19774855833E+04  0.20028515581E+04  0.10100000352E+00 0. -1.
</event>
<event>
 5   0  0.7899402E-07  0.3364343E+04  0.7818609E-02  0.8146714E-01
        2   -1    0    0  501    0  0.00000000000E+00  0.00000000000E+00  0.14575640046E+04  0.14575640046E+04  0.25500000920E-02 0. -1.
       -2   -1    0    0    0  501  0.00000000000E+00  0.00000000000E+00 -0.19413903490E+04  0.19413903490E+04  0.25500000920E-02 0.  1.
    10030    2    1    2    0    0  0.00000000000E+00  0.00000000000E+00 -0.48382634442E+03  0.33989543536E+04  0.33643428431E+04 0.  0.
        2    1    3    3  502    0 -0.19185745381E+02  0.11543786718E+04  0.99408727709E+03  0.15235378976E+04  0.25500000920E-02 0. -1.
       -2    1    3    3    0  502  0.19185745381E+02 -0.11543786718E+04 -0.14779136215E+04  0.18754164560E+04  0.25500000920E-02 0.  1.
</event>
<event>
 5   0  0.7610412E-07  0.3414175E+04  0.7818609E-02  0.8134436E-01
       -2   -1    0    0    0  501  0.00000000000E+00  0.00000000000E+00  0.17647043826E+04  0.17647043826E+04  0.25500000920E-02 0. -1.
        2   -1    0    0  501    0  0.00000000000E+00  0.00000000000E+00 -0.16513515466E+04  0.16513515466E+04  0.25500000920E-02 0.  1.
    10030    2    1    2    0    0  0.00000000000E+00  0.00000000000E+00  0.11335283599E+03  0.34160559291E+04  0.34141747532E+04 0.  0.
        4    1    3    3  502    0 -0.11509453628E+04  0.30401465593E+03  0.12808887068E+04  0.17486502312E+04  0.12699999809E+01 0. -1.
       -4    1    3    3    0  502  0.11509453628E+04 -0.30401465593E+03 -0.11675358708E+04  0.16674056979E+04  0.12699999809E+01 0.  1.
</event>
<event>
 5   0  0.2553250E-07  0.3412528E+04  0.7818609E-02  0.8134838E-01
        1   -1    0    0  501    0  0.00000000000E+00  0.00000000000E+00  0.16636875455E+04  0.16636875455E+04  0.50400001928E-02 0. -1.
       -1   -1    0    0    0  501  0.00000000000E+00  0.00000000000E+00 -0.17499299501E+04  0.17499299501E+04  0.50400001928E-02 0.  1.
    10030    2    1    2    0    0  0.00000000000E+00  0.00000000000E+00 -0.86242404522E+02  0.34136174956E+04  0.34125278979E+04 0.  0.
        5    1    3    3  502    0 -0.16377762421E+04  0.43938804778E+03  0.14652228751E+03  0.17020175518E+04  0.46999998093E+01 0. -1.
       -5    1    3    3    0  502  0.16377762421E+04 -0.43938804778E+03 -0.23276469203E+03  0.17115999438E+04  0.46999998093E+01 0.  1.
</event>
<event>
 5   0  0.7610412E-07  0.3373606E+04  0.7818609E-02  0.8144415E-01
       -2   -1    0    0    0  501  0.00000000000E+00  0.00000000000E+00  0.14990668884E+04  0.14990668884E+04  0.25500000920E-02 0. -1.
        2   -1    0    0  501    0  0.00000000000E+00  0.00000000000E+00 -0.18980504583E+04  0.18980504583E+04  0.25500000920E-02 0.  1.
    10030    2    1    2    0    0  0.00000000000E+00  0.00000000000E+00 -0.39898356983E+03  0.33971173467E+04  0.33736061386E+04 0.  0.
        4    1    3    3  502    0  0.13459612982E+04  0.58324324653E+03  0.63908954671E+03  0.16000692368E+04  0.12699999809E+01 0. -1.
       -4    1    3    3    0  502 -0.13459612982E+04 -0.58324324653E+03 -0.10380731165E+04  0.17970481099E+04  0.12699999809E+01 0.  1.
</event>
<event>
 5   0  0.2599367E-07  0.3410346E+04  0.7818609E-02  0.8135372E-01
       -1   -1    0    0    0  501  0.00000000000E+00  0.00000000000E+00  0.10140188476E+04  0.10140188476E+04  0.50400001928E-02 0. -1.
        1   -1    0    0  501    0  0.00000000000E+00  0.00000000000E+00 -0.28674176291E+04  0.28674176291E+04  0.50400001928E-02 0.  1.
    10030    2    1    2    0    0  0.00000000000E+00  0.00000000000E+00 -0.18533987815E+04  0.38814364767E+04  0.34103463284E+04 0.  0.
        2    1    3    3  502    0 -0.69063313838E+03  0.18244436103E+03  0.83552096188E+03  0.10992521796E+04  0.25500000920E-02 0. -1.
       -2    1    3    3    0  502  0.69063313838E+03 -0.18244436103E+03 -0.26889197434E+04  0.27821842971E+04  0.25500000920E-02 0.  1.
</event>
<event>
 5   0  0.7822003E-07  0.3403224E+04  0.7818609E-02  0.8137115E-01
        2   -1    0    0  501    0  0.00000000000E+00  0.00000000000E+00  0.12388406553E+04  0.12388406553E+04  0.25500000920E-02 0.  1.
       -2   -1    0    0    0  501  0.00000000000E+00  0.00000000000E+00 -0.23372530116E+04  0.23372530116E+04  0.25500000920E-02 0. -1.
    10030    2    1    2    0    0  0.00000000000E+00  0.00000000000E+00 -0.10984123563E+04  0.35760936669E+04  0.34032243843E+04 0.  0.
        5    1    3    3  502    0  0.91448566474E+03  0.67489710116E+03 -0.18799018985E+04  0.21967756750E+04  0.46999998093E+01 0. -1.
       -5    1    3    3    0  502 -0.91448566474E+03 -0.67489710116E+03  0.78148954221E+03  0.13793179919E+04  0.46999998093E+01 0.  1.
</event>
<event>
 5   0  0.2592200E-07  0.3419639E+04  0.7818609E-02  0.8133103E-01
        1   -1    0    0  501    0  0.00000000000E+00  0.00000000000E+00  0.15140447034E+04  0.15140447034E+04  0.50400001928E-02 0. -1.
       -1   -1    0    0    0  501  0.00000000000E+00  0.00000000000E+00 -0.19309089863E+04  0.19309089863E+04  0.50400001928E-02 0.  1.
    10030    2    1    2    0    0  0.00000000000E+00  0.00000000000E+00 -0.41686428292E+03  0.34449536898E+04  0.34196388836E+04 0.  0.
        4    1    3    3  502    0  0.17751145196E+03 -0.29584771163E+03  0.14786125353E+04  0.15183322517E+04  0.12699999809E+01 0. -1.
       -4    1    3    3    0  502 -0.17751145196E+03  0.29584771163E+03 -0.18954768183E+04  0.19266214380E+04  0.12699999809E+01 0.  1.
</event>
<event>
 5   0  0.8489228E-07  0.3412050E+04  0.7818609E-02  0.8134955E-01
       -2   -1    0    0    0  501  0.00000000000E+00  0.00000000000E+00  0.14992859129E+04  0.14992859129E+04  0.25500000920E-02 0.  1.
        2   -1    0    0  501    0  0.00000000000E+00  0.00000000000E+00 -0.19412721404E+04  0.19412721404E+04  0.25500000920E-02 0. -1.
    10030    2    1    2    0    0  0.00000000000E+00  0.00000000000E+00 -0.44198622754E+03  0.34405580533E+04  0.34120503943E+04 0.  0.
        3    1    3    3  502    0  0.16318332815E+04  0.25861157315E+03 -0.64970666664E+03  0.17753530824E+04  0.10100000352E+00 0. -1.
       -3    1    3    3    0  502 -0.16318332815E+04 -0.25861157315E+03  0.20772043911E+03  0.16652049709E+04  0.10100000352E+00 0.  1.
</event>
<event>
 5   0  0.2599367E-07  0.3468126E+04  0.7818609E-02  0.8121385E-01
        1   -1    0    0  501    0  0.00000000000E+00  0.00000000000E+00  0.24980154761E+04  0.24980154761E+04  0.50400001928E-02 0.  1.
       -1   -1    0    0    0  501  0.00000000000E+00  0.00000000000E+00 -0.12037455185E+04  0.12037455185E+04  0.50400001928E-02 0. -1.
    10030    2    1    2    0    0  0.00000000000E+00  0.00000000000E+00  0.12942699575E+04  0.37017609946E+04  0.34681262576E+04 0.  0.
        2    1    3    3  502    0  0.11718872347E+04  0.58367541036E+03 -0.56655869027E+03  0.14265291532E+04  0.25500000920E-02 0. -1.
       -2    1    3    3    0  502 -0.11718872347E+04 -0.58367541036E+03  0.18608286478E+04  0.22752318414E+04  0.25500000920E-02 0.  1.
</event>
<event>
 5   0  0.7899402E-07  0.3399491E+04  0.7818609E-02  0.8138031E-01
        2   -1    0    0  501    0  0.00000000000E+00  0.00000000000E+00  0.11946018098E+04  0.11946018098E+04  0.25500000920E-02 0. -1.
       -2   -1    0    0    0  501  0.00000000000E+00  0.00000000000E+00 -0.24184911809E+04  0.24184911809E+04  0.25500000920E-02 0.  1.
    10030    2    1    2    0    0  0.00000000000E+00  0.00000000000E+00 -0.12238893711E+04  0.36130929907E+04  0.33994905158E+04 0.  0.
        2    1    3    3  502    0  0.70981839192E+02 -0.22774771402E+03 -0.24006108688E+04  0.24124344522E+04  0.25500000920E-02 0.  1.
       -2    1    3    3    0  502 -0.70981839192E+02  0.22774771402E+03  0.11767214977E+04  0.12006585385E+04  0.25500000920E-02 0. -1.
</event>
<event>
 5   0  0.2553250E-07  0.3382849E+04  0.7818609E-02  0.8142129E-01
       -3   -1    0    0    0  501  0.00000000000E+00  0.00000000000E+00  0.16763637140E+04  0.16763637170E+04  0.10100000352E+00 0. -1.
        3   -1    0    0  501    0  0.00000000000E+00  0.00000000000E+00 -0.17066202967E+04  0.17066202997E+04  0.10100000352E+00 0.  1.
    10030    2    1    2    0    0  0.00000000000E+00  0.00000000000E+00 -0.30256582734E+02  0.33829840167E+04  0.33828487103E+04 0.  0.
        1    1    3    3  502    0 -0.68185235982E+03 -0.15456778521E+04 -0.98039304374E+02  0.16922335442E+04  0.50400001928E-02 0. -1.
       -1    1    3    3    0  502  0.68185235982E+03  0.15456778521E+04  0.67782721640E+02  0.16907504725E+04  0.50400001928E-02 0.  1.
</event>
<event>
 5   0  0.7610412E-07  0.3409330E+04  0.7818609E-02  0.8135620E-01
       -2   -1    0    0    0  501  0.00000000000E+00  0.00000000000E+00  0.18471896271E+04  0.18471896271E+04  0.25500000920E-02 0.  1.
        2   -1    0    0  501    0  0.00000000000E+00  0.00000000000E+00 -0.15731371544E+04  0.15731371544E+04  0.25500000920E-02 0. -1.
    10030    2    1    2    0    0  0.00000000000E+00  0.00000000000E+00  0.27405247263E+03  0.34203267815E+04  0.34093299246E+04 0.  0.
        4    1    3    3  502    0 -0.12940825806E+04  0.92513546148E+03 -0.47761269162E+03  0.16609156642E+04  0.12699999809E+01 0. -1.
       -4    1    3    3    0  502  0.12940825806E+04 -0.92513546148E+03  0.75166516425E+03  0.17594111173E+04  0.12699999809E+01 0.  1.
</event>
<event>
 5   0  0.7822003E-07  0.3406977E+04  0.7818609E-02  0.8136196E-01
       -2   -1    0    0    0  501  0.00000000000E+00  0.00000000000E+00  0.18788606249E+04  0.18788606249E+04  0.25500000920E-02 0.  1.
        2   -1    0    0  501    0  0.00000000000E+00  0.00000000000E+00 -0.15444852581E+04  0.15444852582E+04  0.25500000920E-02 0. -1.
    10030    2    1    2    0    0  0.00000000000E+00  0.00000000000E+00  0.33437536678E+03  0.34233458831E+04  0.34069766875E+04 0.  0.
        5    1    3    3  502    0 -0.95665542628E+02  0.88600201422E+03  0.16259546221E+04  0.18541580269E+04  0.46999998093E+01 0.  1.
       -5    1    3    3    0  502  0.95665542628E+02 -0.88600201422E+03 -0.12915792554E+04  0.15691878562E+04  0.46999998093E+01 0. -1.
</event>
<event>
 5   0  0.2592200E-07  0.3520895E+04  0.7818609E-02  0.8108856E-01
        1   -1    0    0  501    0  0.00000000000E+00  0.00000000000E+00  0.10416308253E+04  0.10416308253E+04  0.50400001928E-02 0. -1.
       -1   -1    0    0    0  501  0.00000000000E+00  0.00000000000E+00 -0.29753113095E+04  0.29753113095E+04  0.50400001928E-02 0.  1.
    10030    2    1    2    0    0  0.00000000000E+00  0.00000000000E+00 -0.19336804842E+04  0.40169421348E+04  0.35208953264E+04 0.  0.
        4    1    3    3  502    0  0.14349960852E+04  0.32738840014E+03  0.13503259420E+03  0.14780501830E+04  0.12699999809E+01 0. -1.
       -4    1    3    3    0  502 -0.14349960852E+04 -0.32738840014E+03 -0.20687130783E+04  0.25388919517E+04  0.12699999809E+01 0.  1.
</event>
<event>
 5   0  0.2599367E-07  0.3446198E+04  0.7818609E-02  0.8126660E-01
       -1   -1    0    0    0  501  0.00000000000E+00  0.00000000000E+00  0.20181328244E+04  0.20181328244E+04  0.50400001928E-02 0. -1.
        1   -1    0    0  501    0  0.00000000000E+00  0.00000000000E+00 -0.14711963994E+04  0.14711963994E+04  0.50400001928E-02 0.  1.
    10030    2    1    2    0    0  0.00000000000E+00  0.00000000000E+00  0.54693642502E+03  0.34893292238E+04  0.34461977568E+04 0.  0.
        2    1    3    3  502    0  0.10297303506E+04  0.46570896635E+02  0.16715306573E+04  0.19638045171E+04  0.25500000920E-02 0. -1.
       -2    1    3    3    0  502 -0.10297303506E+04 -0.46570896635E+02 -0.11245942323E+04  0.15255247066E+04  0.25500000920E-02 0.  1.
</event>
<event>
 5   0  0.7822003E-07  0.2974366E+04  0.7818609E-02  0.8251089E-01
        2   -1    0    0  501    0  0.00000000000E+00  0.00000000000E+00  0.16009761139E+04  0.16009761139E+04  0.25500000920E-02 0.  1.
       -2   -1    0    0    0  501  0.00000000000E+00  0.00000000000E+00 -0.13814776145E+04  0.13814776145E+04  0.25500000920E-02 0. -1.
    10030    2    1    2    0    0  0.00000000000E+00  0.00000000000E+00  0.21949849938E+03  0.29824537284E+04  0.29743655880E+04 0.  0.
        5    1    3    3  502    0 -0.83388560902E+03  0.15627745420E+03  0.13345053736E+04  0.15813647694E+04  0.46999998093E+01 0.  1.
       -5    1    3    3    0  502  0.83388560902E+03 -0.15627745420E+03 -0.11150068742E+04  0.14010889591E+04  0.46999998093E+01 0. -1.
</event>
<event>
 5   0  0.2622205E-07  0.3403405E+04  0.7818609E-02  0.8137071E-01
       -1   -1    0    0    0  501  0.00000000000E+00  0.00000000000E+00  0.13608332679E+04  0.13608332680E+04  0.50400001928E-02 0.  1.
        1   -1    0    0  501    0  0.00000000000E+00  0.00000000000E+00 -0.21279546547E+04  0.21279546547E+04  0.50400001928E-02 0. -1.
    10030    2    1    2    0    0  0.00000000000E+00  0.00000000000E+00 -0.76712138674E+03  0.34887879226E+04  0.34034050519E+04 0.  0.
        3    1    3    3  502    0  0.53065800432E+03  0.66443752470E+03  0.11274322838E+04  0.14121539245E+04  0.10100000352E+00 0.  1.
       -3    1    3    3    0  502 -0.53065800432E+03 -0.66443752470E+03 -0.18945536705E+04  0.20766339982E+04  0.10100000352E+00 0. -1.
</event>
<event>
 5   0  0.7838333E-07  0.3441886E+04  0.7818609E-02  0.8127702E-01
        2   -1    0    0  501    0  0.00000000000E+00  0.00000000000E+00  0.20809930523E+04  0.20809930523E+04  0.25500000920E-02 0. -1.
       -2   -1    0    0    0  501  0.00000000000E+00  0.00000000000E+00 -0.14231878258E+04  0.14231878258E+04  0.25500000920E-02 0.  1.
    10030    2    1    2    0    0  0.00000000000E+00  0.00000000000E+00  0.65780522650E+03  0.35041808782E+04  0.34418855168E+04 0.  0.
        1    1    3    3  502    0 -0.26689593805E+03 -0.15834755239E+04 -0.30118137006E+03  0.16338110032E+04  0.50400001928E-02 0. -1.
       -1    1    3    3    0  502  0.26689593805E+03  0.15834755239E+04  0.95898659656E+03  0.18703698749E+04  0.50400001928E-02 0.  1.
</event>
<event>
 5   0  0.2641442E-07  0.3418402E+04  0.7818609E-02  0.8133405E-01
       -1   -1    0    0    0  501  0.00000000000E+00  0.00000000000E+00  0.12763792317E+04  0.12763792317E+04  0.50400001928E-02 0. -1.
        1   -1    0    0  501    0  0.00000000000E+00  0.00000000000E+00 -0.22887925986E+04  0.22887925986E+04  0.50400001928E-02 0.  1.
    10030    2    1    2    0    0  0.00000000000E+00  0.00000000000E+00 -0.10124133669E+04  0.35651718303E+04  0.34184015788E+04 0.  0.
        1    1    3    3  502    0  0.15064999240E+03  0.86784403034E+03 -0.20338555202E+04  0.22163972925E+04  0.50400001928E-02 0.  1.
       -1    1    3    3    0  502 -0.15064999240E+03 -0.86784403034E+03  0.10214421533E+04  0.13487745378E+04  0.50400001928E-02 0. -1.
</event>
<event>
 5   0  0.7838333E-07  0.3413591E+04  0.7818609E-02  0.8134579E-01
       -2   -1    0    0    0  501  0.00000000000E+00  0.00000000000E+00  0.12458435929E+04  0.12458435929E+04  0.25500000920E-02 0.  1.
        2   -1    0    0  501    0  0.00000000000E+00  0.00000000000E+00 -0.23382958333E+04  0.23382958333E+04  0.25500000920E-02 0. -1.
    10030    2    1    2    0    0  0.00000000000E+00  0.00000000000E+00 -0.10924522405E+04  0.35841394262E+04  0.34135910020E+04 0.  0.
        1    1    3    3  502    0 -0.66320198755E+03  0.78853353958E+03  0.88246601477E+03  0.13566017421E+04  0.50400001928E-02 0.  1.
       -1    1    3    3    0  502  0.66320198755E+03 -0.78853353958E+03 -0.19749182553E+04  0.22275376841E+04  0.50400001928E-02 0. -1.
</event>
<event>
 5   0  0.7838333E-07  0.3420723E+04  0.7818609E-02  0.8132839E-01
        2   -1    0    0  501    0  0.00000000000E+00  0.00000000000E+00  0.30106034634E+04  0.30106034634E+04  0.25500000920E-02 0.  1.
       -2   -1    0    0    0  501  0.00000000000E+00  0.00000000000E+00 -0.97167780347E+03  0.97167780347E+03  0.25500000920E-02 0. -1.
    10030    2    1    2    0    0  0.00000000000E+00  0.00000000000E+00  0.20389256599E+04  0.39822812668E+04  0.34207230583E+04 0.  0.
        1    1    3    3  502    0  0.97552872032E+03  0.63438780951E+03  0.24787280322E+04  0.27382835563E+04  0.50400001928E-02 0.  1.
       -1    1    3    3    0  502 -0.97552872032E+03 -0.63438780951E+03 -0.43980237234E+03  0.12439977105E+04  0.50400001928E-02 0. -1.
</event>
<event>
 5   0  0.7822003E-07  0.3426319E+04  0.7818609E-02  0.8131477E-01
        2   -1    0    0  501    0  0.00000000000E+00  0.00000000000E+00  0.18176523292E+04  0.18176523292E+04  0.25500000920E-02 0.  1.
       -2   -1    0    0    0  501  0.00000000000E+00  0.00000000000E+00 -0.16146735651E+04  0.16146735651E+04  0.25500000920E-02 0. -1.
    10030    2    1    2    0    0  0.00000000000E+00  0.00000000000E+00  0.20297876411E+03  0.34323258944E+04  0.34263188215E+04 0.  0.
        5    1    3    3  502    0 -0.14698636441E+04  0.87976169928E+03  0.81124038500E+02  0.17149585941E+04  0.46999998093E+01 0. -1.
       -5    1    3    3    0  502  0.14698636441E+04 -0.87976169928E+03  0.12185472561E+03  0.17173673003E+04  0.46999998093E+01 0.  1.
</event>
<event>
 5   0  0.8489228E-07  0.3421162E+04  0.7818609E-02  0.8132732E-01
        2   -1    0    0  501    0  0.00000000000E+00  0.00000000000E+00  0.17612686962E+04  0.17612686962E+04  0.25500000920E-02 0. -1.
       -2   -1    0    0    0  501  0.00000000000E+00  0.00000000000E+00 -0.16613520377E+04  0.16613520377E+04  0.25500000920E-02 0.  1.
    10030    2    1    2    0    0  0.00000000000E+00  0.00000000000E+00  0.99916658523E+02  0.34226207340E+04  0.34211619883E+04 0.  0.
        3    1    3    3  502    0 -0.91378392605E+03  0.20566124484E+03  0.14819280396E+04  0.17531138970E+04  0.10100000352E+00 0. -1.
       -3    1    3    3    0  502  0.91378392605E+03 -0.20566124484E+03 -0.13820113810E+04  0.16695068370E+04  0.10100000352E+00 0.  1.
</event>
<event>
 5   0  0.2599367E-07  0.3392497E+04  0.7818609E-02  0.8139750E-01
        1   -1    0    0  501    0  0.00000000000E+00  0.00000000000E+00  0.26665988916E+04  0.26665988916E+04  0.50400001928E-02 0. -1.
       -1   -1    0    0    0  501  0.00000000000E+00  0.00000000000E+00 -0.10789995535E+04  0.10789995535E+04  0.50400001928E-02 0.  1.
    10030    2    1    2    0    0  0.00000000000E+00  0.00000000000E+00  0.15875993381E+04  0.37455984452E+04  0.33924970234E+04 0.  0.
        2    1    3    3  502    0  0.25768945258E+03 -0.14946870713E+04  0.16322965672E+04  0.22282022750E+04  0.25500000920E-02 0. -1.
       -2    1    3    3    0  502 -0.25768945258E+03  0.14946870713E+04 -0.44697229039E+02  0.15173961702E+04  0.25500000920E-02 0.  1.
</event>
<event>
 5   0  0.2622205E-07  0.3383308E+04  0.7818609E-02  0.8142015E-01
        1   -1    0    0  501    0  0.00000000000E+00  0.00000000000E+00  0.15779554009E+04  0.15779554009E+04  0.50400001928E-02 0.  1.
       -1   -1    0    0    0  501  0.00000000000E+00  0.00000000000E+00 -0.18135454671E+04  0.18135454672E+04  0.50400001928E-02 0. -1.
    10030    2    1    2    0    0  0.00000000000E+00  0.00000000000E+00 -0.23559006624E+03  0.33915008681E+04  0.33833083600E+04 0.  0.
        3    1    3    3  502    0  0.35813978096E+03 -0.12421773129E+04  0.97591304624E+03  0.16197761769E+04  0.10100000352E+00 0.  1.
       -3    1    3    3    0  502 -0.35813978096E+03  0.12421773129E+04 -0.12115031125E+04  0.17717246911E+04  0.10100000352E+00 0. -1.
</event>
<event>
 5   0  0.2553250E-07  0.3275129E+04  0.7818609E-02  0.8169253E-01
       -3   -1    0    0    0  501  0.00000000000E+00  0.00000000000E+00  0.15908383825E+04  0.15908383857E+04  0.10100000352E+00 0. -1.
        3   -1    0    0  501    0  0.00000000000E+00  0.00000000000E+00 -0.16856625609E+04  0.16856625639E+04  0.10100000352E+00 0.  1.
    10030    2    1    2    0    0  0.00000000000E+00  0.00000000000E+00 -0.94824178356E+02  0.32765009496E+04  0.32751285239E+04 0.  0.
        5    1    3    3  502    0 -0.13247734309E+04 -0.95882405114E+03  0.37631872486E+02  0.16357892444E+04  0.46999998093E+01 0.  1.
       -5    1    3    3    0  502  0.13247734309E+04  0.95882405114E+03 -0.13245605084E+03  0.16407117052E+04  0.46999998093E+01 0. -1.
</event>
<event>
 5   0  0.2599367E-07  0.3403936E+04  0.7818609E-02  0.8136941E-01
        1   -1    0    0  501    0  0.00000000000E+00  0.00000000000E+00  0.16067845591E+04  0.16067845591E+04  0.50400001928E-02 0. -1.
       -1   -1    0    0    0  501  0.00000000000E+00  0.00000000000E+00 -0.18027903652E+04  0.18027903652E+04  0.50400001928E-02 0.  1.
    10030    2    1    2    0    0  0.00000000000E+00  0.00000000000E+00 -0.19600580607E+03  0.34095749244E+04  0.34039363814E+04 0.  0.
        2    1    3    3  502    0  0.13031386111E+03 -0.45992139368E+03 -0.17341670856E+04  0.17988454273E+04  0.25500000920E-02 0.  1.
       -2    1    3    3    0  502 -0.13031386111E+03  0.45992139368E+03  0.15381612795E+04  0.16107294970E+04  0.25500000920E-02 0. -1.
</event>
<event>
 5   0  0.2641442E-07  0.3408358E+04  0.7818609E-02  0.8135858E-01
       -1   -1    0    0    0  501  0.00000000000E+00  0.00000000000E+00  0.17552427548E+04  0.17552427548E+04  0.50400001928E-02 0. -1.
        1   -1    0    0  501    0  0.00000000000E+00  0.00000000000E+00 -0.16546010626E+04  0.16546010626E+04  0.50400001928E-02 0.  1.
    10030    2    1    2    0    0  0.00000000000E+00  0.00000000000E+00  0.10064169221E+03  0.34098438175E+04  0.34083582719E+04 0.  0.
        1    1    3    3  502    0 -0.62330176808E+03 -0.11391650604E+04  0.11544432989E+04  0.17375101321E+04  0.50400001928E-02 0. -1.
       -1    1    3    3    0  502  0.62330176808E+03  0.11391650604E+04 -0.10538016067E+04  0.16723336853E+04  0.50400001928E-02 0.  1.
</event>
<event>
 5   0  0.7610412E-07  0.3441087E+04  0.7818609E-02  0.8127895E-01
       -2   -1    0    0    0  501  0.00000000000E+00  0.00000000000E+00  0.16650245923E+04  0.16650245923E+04  0.25500000920E-02 0.  1.
        2   -1    0    0  501    0  0.00000000000E+00  0.00000000000E+00 -0.17779131704E+04  0.17779131704E+04  0.25500000920E-02 0. -1.
    10030    2    1    2    0    0  0.00000000000E+00  0.00000000000E+00 -0.11288857819E+03  0.34429377627E+04  0.34410865445E+04 0.  0.
        4    1    3    3  502    0 -0.40680426532E+03  0.60713432601E+03  0.15020090703E+04  0.16703696179E+04  0.12699999809E+01 0.  1.
       -4    1    3    3    0  502  0.40680426532E+03 -0.60713432601E+03 -0.16148976485E+04  0.17725681448E+04  0.12699999809E+01 0. -1.
</event>
<event>
 5   0  0.2622205E-07  0.3411672E+04  0.7818609E-02  0.8135047E-01
       -1   -1    0    0    0  501  0.00000000000E+00  0.00000000000E+00  0.21238153501E+04  0.21238153501E+04  0.50400001928E-02 0. -1.
        1   -1    0    0  501    0  0.00000000000E+00  0.00000000000E+00 -0.13701177753E+04  0.13701177753E+04  0.50400001928E-02 0.  1.
    10030    2    1    2    0    0  0.00000000000E+00  0.00000000000E+00  0.75369757480E+03  0.34939331254E+04  0.34116724126E+04 0.  0.
        3    1    3    3  502    0 -0.41375177609E+03 -0.14596113869E+04  0.11755384224E+04  0.19192567638E+04  0.10100000352E+00 0. -1.
       -3    1    3    3    0  502  0.41375177609E+03  0.14596113869E+04 -0.42184084756E+03  0.15746763616E+04  0.10100000352E+00 0.  1.
</event>
<event>
 5   0  0.7899402E-07  0.3437293E+04  0.7818609E-02  0.8128814E-01
       -2   -1    0    0    0  501  0.00000000000E+00  0.00000000000E+00  0.11118938118E+04  0.11118938118E+04  0.25500000920E-02 0. -1.
        2   -1    0    0  501    0  0.00000000000E+00  0.00000000000E+00 -0.26564999292E+04  0.26564999292E+04  0.25500000920E-02 0.  1.
    10030    2    1    2    0    0  0.00000000000E+00  0.00000000000E+00 -0.15446061174E+04  0.37683937409E+04  0.34372930234E+04 0.  0.
        2    1    3    3  502    0  0.25995345750E+03 -0.13182125747E+04  0.40260126464E+03  0.14026218202E+04  0.25500000920E-02 0. -1.
       -2    1    3    3    0  502 -0.25995345750E+03  0.13182125747E+04 -0.19472073820E+04  0.23657719207E+04  0.25500000920E-02 0.  1.
</event>
<event>
 5   0  0.2553250E-07  0.3416641E+04  0.7818609E-02  0.8133834E-01
        1   -1    0    0  501    0  0.00000000000E+00  0.00000000000E+00  0.18030153430E+04  0.18030153431E+04  0.50400001928E-02 0.  1.
       -1   -1    0    0    0  501  0.00000000000E+00  0.00000000000E+00 -0.16185987531E+04  0.16185987531E+04  0.50400001928E-02 0. -1.
    10030    2    1    2    0    0  0.00000000000E+00  0.00000000000E+00  0.18441658994E+03  0.34216140962E+04  0.34166406812E+04 0.  0.
        5    1    3    3  502    0 -0.23814188563E+03 -0.92998774544E+03 -0.13229117963E+04  0.16345355533E+04  0.46999998093E+01 0. -1.
       -5    1    3    3    0  502  0.23814188563E+03  0.92998774544E+03  0.15073283862E+04  0.17870785428E+04  0.46999998093E+01 0.  1.
</event>
<event>
 5   0  0.7610412E-07  0.3402724E+04  0.7818609E-02  0.8137238E-01
       -2   -1    0    0    0  501  0.00000000000E+00  0.00000000000E+00  0.16304977583E+04  0.16304977583E+04  0.25500000920E-02 0. -1.
        2   -1    0    0  501    0  0.00000000000E+00  0.00000000000E+00 -0.17753064930E+04  0.17753064930E+04  0.25500000920E-02 0.  1.
    10030    2    1    2    0    0  0.00000000000E+00  0.00000000000E+00 -0.14480873472E+03  0.34058042513E+04  0.34027243539E+04 0.  0.
        4    1    3    3  502    0 -0.97279820684E+03 -0.75033456892E+03 -0.12504545340E+04  0.17529907219E+04  0.12699999809E+01 0.  1.
       -4    1    3    3    0  502  0.97279820684E+03  0.75033456892E+03  0.11056457993E+04  0.16528135294E+04  0.12699999809E+01 0. -1.
</event>
<event>
 5   0  0.7838333E-07  0.3457978E+04  0.7818609E-02  0.8123821E-01
       -2   -1    0    0    0  501  0.00000000000E+00  0.00000000000E+00  0.11274146852E+04  0.11274146852E+04  0.25500000920E-02 0.  1.
        2   -1    0    0  501    0  0.00000000000E+00  0.00000000000E+00 -0.26515565371E+04  0.26515565371E+04  0.25500000920E-02 0. -1.
    10030    2    1    2    0    0  0.00000000000E+00  0.00000000000E+00 -0.15241418519E+04  0.37789712223E+04  0.34579784722E+04 0.  0.
        1    1    3    3  502    0  0.57133424121E+03 -0.82351770524E+03  0.77753518469E+03  0.12685287500E+04  0.50400001928E-02 0.  1.
       -1    1    3    3    0  502 -0.57133424121E+03  0.82351770524E+03 -0.23016770366E+04  0.25104424723E+04  0.50400001928E-02 0. -1.
</event>
<event>
 5   0  0.7838333E-07  0.3430468E+04  0.7818609E-02  0.8130469E-01
       -2   -1    0    0    0  501  0.00000000000E+00  0.00000000000E+00  0.17232463433E+04  0.17232463433E+04  0.25500000920E-02 0.  1.
        2   -1    0    0  501    0  0.00000000000E+00  0.00000000000E+00 -0.17072590486E+04  0.17072590486E+04  0.25500000920E-02 0. -1.
    10030    2    1    2    0    0  0.00000000000E+00  0.00000000000E+00  0.15987294708E+02  0.34305053918E+04  0.34304681386E+04 0.  0.
        1    1    3    3  502    0  0.16798231883E+04 -0.25971745251E+03  0.23771077691E+03  0.17163232541E+04  0.50400001928E-02 0.  1.
       -1    1    3    3    0  502 -0.16798231883E+04  0.25971745251E+03 -0.22172348221E+03  0.17141821378E+04  0.50400001928E-02 0. -1.
</event>
<event>
 5   0  0.2592200E-07  0.3395684E+04  0.7818609E-02  0.8138966E-01
        1   -1    0    0  501    0  0.00000000000E+00  0.00000000000E+00  0.15908454205E+04  0.15908454205E+04  0.50400001928E-02 0. -1.
       -1   -1    0    0    0  501  0.00000000000E+00  0.00000000000E+00 -0.18120349055E+04  0.18120349055E+04  0.50400001928E-02 0.  1.
    10030    2    1    2    0    0  0.00000000000E+00  0.00000000000E+00 -0.22118948496E+03  0.34028803260E+04  0.33956839849E+04 0.  0.
        4    1    3    3  502    0  0.15802177907E+04  0.40197799401E+03  0.36368538831E+03  0.16706116390E+04  0.12699999809E+01 0. -1.
       -4    1    3    3    0  502 -0.15802177907E+04 -0.40197799401E+03 -0.58487487327E+03  0.17322686870E+04  0.12699999809E+01 0.  1.
</event>
<event>
 5   0  0.7610412E-07  0.3412235E+04  0.7818609E-02  0.8134910E-01
        2   -1    0    0  501    0  0.00000000000E+00  0.00000000000E+00  0.29162547057E+04  0.29162547057E+04  0.25500000920E-02 0. -1.
       -2   -1    0    0    0  501  0.00000000000E+00  0.00000000000E+00 -0.99814233117E+03  0.99814233117E+03  0.25500000920E-02 0.  1.
    10030    2    1    2    0    0  0.00000000000E+00  0.00000000000E+00  0.19181123746E+04  0.39143970369E+04  0.34122352031E+04 0.  0.
        4    1    3    3  502    0 -0.11554452731E+04  0.32450899397E+02 -0.48050060306E+03  0.12517944250E+04  0.12699999809E+01 0.  1.
       -4    1    3    3    0  502  0.11554452731E+04 -0.32450899397E+02  0.23986129776E+04  0.26626026120E+04  0.12699999809E+01 0. -1.
</event>
<event>
 5   0  0.7610412E-07  0.3408453E+04  0.7818609E-02  0.8135835E-01
       -2   -1    0    0    0  501  0.00000000000E+00  0.00000000000E+00  0.15877660653E+04  0.15877660653E+04  0.25500000920E-02 0.  1.
        2   -1    0    0  501    0  0.00000000000E+00  0.00000000000E+00 -0.18292293930E+04  0.18292293930E+04  0.25500000920E-02 0. -1.
    10030    2    1    2    0    0  0.00000000000E+00  0.00000000000E+00 -0.24146332769E+03  0.34169954583E+04  0.34084532303E+04 0.  0.
        4    1    3    3  502    0 -0.37987679433E+03 -0.33385829988E+03  0.15108048865E+04  0.15932045573E+04  0.12699999809E+01 0.  1.
       -4    1    3    3    0  502  0.37987679433E+03  0.33385829988E+03 -0.17522682142E+04  0.18237909010E+04  0.12699999809E+01 0. -1.
</event>
<event>
 5   0  0.2599367E-07  0.3398219E+04  0.7818609E-02  0.8138343E-01
        1   -1    0    0  501    0  0.00000000000E+00  0.00000000000E+00  0.22049236115E+04  0.22049236115E+04  0.50400001928E-02 0. -1.
       -1   -1    0    0    0  501  0.00000000000E+00  0.00000000000E+00 -0.13093304683E+04  0.13093304683E+04  0.50400001928E-02 0.  1.
    10030    2    1    2    0    0  0.00000000000E+00  0.00000000000E+00  0.89559314322E+03  0.35142540798E+04  0.33982193365E+04 0.  0.
        2    1    3    3  502    0 -0.43272735753E+03  0.21393944996E+03  0.21325182690E+04  0.21864714089E+04  0.25500000920E-02 0. -1.
       -2    1    3    3    0  502  0.43272735753E+03 -0.21393944996E+03 -0.12369251258E+04  0.13277826709E+04  0.25500000920E-02 0.  1.
</event>
<event>
 5   0  0.7610412E-07  0.3379273E+04  0.7818609E-02  0.8143012E-01
        2   -1    0    0  501    0  0.00000000000E+00  0.00000000000E+00  0.24567409639E+04  0.24567409639E+04  0.25500000920E-02 0. -1.
       -2   -1    0    0    0  501  0.00000000000E+00  0.00000000000E+00 -0.11620566654E+04  0.11620566654E+04  0.25500000920E-02 0.  1.
    10030    2    1    2    0    0  0.00000000000E+00  0.00000000000E+00  0.12946842984E+04  0.36187976293E+04  0.33792734203E+04 0.  0.
        4    1    3    3  502    0  0.16531293103E+04 -0.31978670525E+03  0.79791625619E+03  0.18632691749E+04  0.12699999809E+01 0. -1.
       -4    1    3    3    0  502 -0.16531293103E+04  0.31978670525E+03  0.49676804224E+03  0.17555284544E+04  0.12699999809E+01 0.  1.
</event>
<event>
 5   0  0.2553250E-07  0.3371930E+04  0.7818609E-02  0.8144830E-01
        1   -1    0    0  501    0  0.00000000000E+00  0.00000000000E+00  0.20351332562E+04  0.20351332562E+04  0.50400001928E-02 0. -1.
       -1   -1    0    0    0  501  0.00000000000E+00  0.00000000000E+00 -0.13967034870E+04  0.13967034870E+04  0.50400001928E-02 0.  1.
    10030    2    1    2    0    0  0.00000000000E+00  0.00000000000E+00  0.63842976924E+03  0.34318367432E+04  0.33719298424E+04 0.  0.
        5    1    3    3  502    0  0.13065179841E+04 -0.10655758292E+04  0.31533467517E+03  0.17151965304E+04  0.46999998093E+01 0. -1.
       -5    1    3    3    0  502 -0.13065179841E+04  0.10655758292E+04  0.32309509407E+03  0.17166402128E+04  0.46999998093E+01 0.  1.
</event>
<event>
 5   0  0.2553250E-07  0.3366187E+04  0.7818609E-02  0.8146255E-01
        1   -1    0    0  501    0  0.00000000000E+00  0.00000000000E+00  0.22283903875E+04  0.22283903875E+04  0.50400001928E-02 0. -1.
       -1   -1    0    0    0  501  0.00000000000E+00  0.00000000000E+00 -0.12712330582E+04  0.12712330582E+04  0.50400001928E-02 0.  1.
    10030    2    1    2    0    0  0.00000000000E+00  0.00000000000E+00  0.95715732925E+03  0.34996234457E+04  0.33661868797E+04 0.  0.
        5    1    3    3  502    0 -0.92044775408E+03  0.32801409516E+03  0.19032895419E+04  0.21394743478E+04  0.46999998093E+01 0. -1.
       -5    1    3    3    0  502  0.92044775408E+03 -0.32801409516E+03 -0.94613221268E+03  0.13601490979E+04  0.46999998093E+01 0.  1.
</event>
<event>
 5   0  0.2553250E-07  0.3389743E+04  0.7818609E-02  0.8140428E-01
        1   -1    0    0  501    0  0.00000000000E+00  0.00000000000E+00  0.19830910648E+04  0.19830910648E+04  0.50400001928E-02 0. -1.
       -1   -1    0    0    0  501  0.00000000000E+00  0.00000000000E+00 -0.14485410582E+04  0.14485410582E+04  0.50400001928E-02 0.  1.
    10030    2    1    2    0    0  0.00000000000E+00  0.00000000000E+00  0.53455000662E+03  0.34316321231E+04  0.33897426626E+04 0.  0.
        5    1    3    3  502    0  0.11263247090E+04  0.51138209378E+03  0.14402336197E+04  0.18985294217E+04  0.46999998093E+01 0. -1.
       -5    1    3    3    0  502 -0.11263247090E+04 -0.51138209378E+03 -0.90568361307E+03  0.15331027013E+04  0.46999998093E+01 0.  1.
</event>
<event>
 5   0  0.2599367E-07  0.3383750E+04  0.7818609E-02  0.8141906E-01
        1   -1    0    0  501    0  0.00000000000E+00  0.00000000000E+00  0.26034999328E+04  0.26034999328E+04  0.50400001928E-02 0.  1.
       -1   -1    0    0    0  501  0.00000000000E+00  0.00000000000E+00 -0.10994588616E+04  0.10994588617E+04  0.50400001928E-02 0. -1.
    10030    2    1    2    0    0  0.00000000000E+00  0.00000000000E+00  0.15040410712E+04  0.37029587945E+04  0.33837500336E+04 0.  0.
        2    1    3    3  502    0  0.14478902963E+04 -0.72493122143E+02 -0.20250097147E+03  0.14637787423E+04  0.25500000920E-02 0. -1.
       -2    1    3    3    0  502 -0.14478902963E+04  0.72493122143E+02  0.17065420427E+04  0.22391800522E+04  0.25500000920E-02 0.  1.
</event>
<event>
 5   0  0.8489228E-07  0.3437872E+04  0.7818609E-02  0.8128673E-01
        2   -1    0    0  501    0  0.00000000000E+00  0.00000000000E+00  0.19230805853E+04  0.19230805853E+04  0.25500000920E-02 0. -1.
       -2   -1    0    0    0  501  0.00000000000E+00  0.00000000000E+00 -0.15364624046E+04  0.15364624046E+04  0.25500000920E-02 0.  1.
    10030    2    1    2    0    0  0.00000000000E+00  0.00000000000E+00  0.38661818073E+03  0.34595429899E+04  0.34378720280E+04 0.  0.
        3    1    3    3  502    0 -0.98361328034E+03  0.12664578050E+03  0.16061560340E+04  0.18876629611E+04  0.10100000352E+00 0. -1.
       -3    1    3    3    0  502  0.98361328034E+03 -0.12664578050E+03 -0.12195378533E+04  0.15718800288E+04  0.10100000352E+00 0.  1.
</event>
<event>
 5   0  0.7822003E-07  0.3398140E+04  0.7818609E-02  0.8138363E-01
        2   -1    0    0  501    0  0.00000000000E+00  0.00000000000E+00  0.17289148120E+04  0.17289148120E+04  0.25500000920E-02 0.  1.
       -2   -1    0    0    0  501  0.00000000000E+00  0.00000000000E+00 -0.16697402838E+04  0.16697402838E+04  0.25500000920E-02 0. -1.
    10030    2    1    2    0    0  0.00000000000E+00  0.00000000000E+00  0.59174528210E+02  0.33986550959E+04  0.33981399082E+04 0.  0.
        5    1    3    3  502    0 -0.13203297953E+04 -0.10537775507E+04  0.21154539434E+03  0.17024956501E+04  0.46999998093E+01 0.  1.
       -5    1    3    3    0  502  0.13203297953E+04  0.10537775507E+04 -0.15237086613E+03  0.16961594458E+04  0.46999998093E+01 0. -1.
</event>
<event>
 5   0  0.7899402E-07  0.3315970E+04  0.7818609E-02  0.8158844E-01
        2   -1    0    0  501    0  0.00000000000E+00  0.00000000000E+00  0.18279268236E+04  0.18279268236E+04  0.25500000920E-02 0.  1.
       -2   -1    0    0    0  501  0.00000000000E+00  0.00000000000E+00 -0.15038430711E+04  0.15038430711E+04  0.25500000920E-02 0. -1.
    10030    2    1    2    0    0  0.00000000000E+00  0.00000000000E+00  0.32408375258E+03  0.33317698947E+04  0.33159704993E+04 0.  0.
        2    1    3    3  502    0 -0.83900798238E+03 -0.11728575100E+04  0.98410021558E+03  0.17458471776E+04  0.25500000920E-02 0. -1.
       -2    1    3    3    0  502  0.83900798238E+03  0.11728575100E+04 -0.66001646300E+03  0.15859227171E+04  0.25500000920E-02 0.  1.
</event>
<event>
 5   0  0.2592200E-07  0.3446997E+04  0.7818609E-02  0.8126467E-01
       -1   -1    0    0    0  501  0.00000000000E+00  0.00000000000E+00  0.13594229267E+04  0.13594229267E+04  0.50400001928E-02 0. -1.
        1   -1    0    0  501    0  0.00000000000E+00  0.00000000000E+00 -0.21850796655E+04  0.21850796655E+04  0.50400001928E-02 0.  1.
    10030    2    1    2    0    0  0.00000000000E+00  0.00000000000E+00 -0.82565673886E+03  0.35445025922E+04  0.34469971824E+04 0.  0.
        4    1    3    3  502    0 -0.34384329562E+03  0.10579105258E+04 -0.17665177599E+04  0.20875798192E+04  0.12699999809E+01 0.  1.
       -4    1    3    3    0  502  0.34384329562E+03 -0.10579105258E+04  0.94086102108E+03  0.14569227730E+04  0.12699999809E+01 0. -1.
</event>
<event>
 5   0  0.7838333E-07  0.3389291E+04  0.7818609E-02  0.8140540E-01
        2   -1    0    0  501    0  0.00000000000E+00  0.00000000000E+00  0.97358420506E+03  0.97358420506E+03  0.25500000920E-02 0.  1.
       -2   -1    0    0    0  501  0.00000000000E+00  0.00000000000E+00 -0.29497428677E+04  0.29497428677E+04  0.25500000920E-02 0. -1.
    10030    2    1    2    0    0  0.00000000000E+00  0.00000000000E+00 -0.19761586626E+04  0.39233270727E+04  0.33892908196E+04 0.  0.
        1    1    3    3  502    0 -0.36621948701E+03 -0.74950599090E+03 -0.26956152518E+04  0.28217401597E+04  0.50400001928E-02 0. -1.
       -1    1    3    3    0  502  0.36621948701E+03  0.74950599090E+03  0.71945658924E+03  0.11015869130E+04  0.50400001928E-02 0.  1.
</event>
<event>
 5   0  0.2599367E-07  0.3350954E+04  0.7818609E-02  0.8150050E-01
        1   -1    0    0  501    0  0.00000000000E+00  0.00000000000E+00  0.18750203336E+04  0.18750203336E+04  0.50400001928E-02 0. -1.
       -1   -1    0    0    0  501  0.00000000000E+00  0.00000000000E+00 -0.14971696909E+04  0.14971696910E+04  0.50400001928E-02 0.  1.
    10030    2    1    2    0    0  0.00000000000E+00  0.00000000000E+00  0.37785064269E+03  0.33721900246E+04  0.33509542602E+04 0.  0.
        2    1    3    3  502    0  0.14674743752E+04 -0.80384757981E+03  0.27649192809E+03  0.16959067662E+04  0.25500000920E-02 0.  1.
       -2    1    3    3    0  502 -0.14674743752E+04  0.80384757981E+03  0.10135871461E+03  0.16762832584E+04  0.25500000920E-02 0. -1.
</event>
<event>
 5   0  0.2641442E-07  0.3395474E+04  0.7818609E-02  0.8139018E-01
        1   -1    0    0  501    0  0.00000000000E+00  0.00000000000E+00  0.15316252380E+04  0.15316252380E+04  0.50400001928E-02 0. -1.
       -1   -1    0    0    0  501  0.00000000000E+00  0.00000000000E+00 -0.18818648574E+04  0.18818648574E+04  0.50400001928E-02 0.  1.
    10030    2    1    2    0    0  0.00000000000E+00  0.00000000000E+00 -0.35023961948E+03  0.34134900954E+04  0.33954744647E+04 0.  0.
        1    1    3    3  502    0 -0.40482620802E+03 -0.76755224962E+03  0.12918314589E+04  0.15562291711E+04  0.50400001928E-02 0. -1.
       -1    1    3    3    0  502  0.40482620802E+03  0.76755224962E+03 -0.16420710784E+04  0.18572609243E+04  0.50400001928E-02 0.  1.
</event>
<event>
 5   0  0.2622205E-07  0.3386839E+04  0.7818609E-02  0.8141144E-01
       -1   -1    0    0    0  501  0.00000000000E+00  0.00000000000E+00  0.12915519066E+04  0.12915519066E+04  0.50400001928E-02 0. -1.
        1   -1    0    0  501    0  0.00000000000E+00  0.00000000000E+00 -0.22203291915E+04  0.22203291915E+04  0.50400001928E-02 0.  1.
    10030    2    1    2    0    0  0.00000000000E+00  0.00000000000E+00 -0.92877728482E+03  0.35118810981E+04  0.33868394710E+04 0.  0.
        3    1    3    3  502    0 -0.10793096948E+04 -0.11295510022E+04  0.21309031300E+03  0.15767696013E+04  0.10100000352E+00 0. -1.
       -3    1    3    3    0  502  0.10793096948E+04  0.11295510022E+04 -0.11418675978E+04  0.19351114968E+04  0.10100000352E+00 0.  1.
</event>
<event>
 5   0  0.2599367E-07  0.3416409E+04  0.7818609E-02  0.8133891E-01
       -1   -1    0    0    0  501  0.00000000000E+00  0.00000000000E+00  0.22456902527E+04  0.22456902527E+04  0.50400001928E-02 0. -1.
        1   -1    0    0  501    0  0.00000000000E+00  0.00000000000E+00 -0.12993608077E+04  0.12993608077E+04  0.50400001928E-02 0.  1.
    10030    2    1    2    0    0  0.00000000000E+00  0.00000000000E+00  0.94632944498E+03  0.35450510604E+04  0.34164085824E+04 0.  0.
        2    1    3    3  502    0  0.31560990468E+03 -0.16054282407E+03 -0.12608603366E+04  0.13096382702E+04  0.25500000920E-02 0.  1.
       -2    1    3    3    0  502 -0.31560990468E+03  0.16054282407E+03  0.22071897816E+04  0.22354127902E+04  0.25500000920E-02 0. -1.
</event>
<event>
 5   0  0.2622205E-07  0.3426312E+04  0.7818609E-02  0.8131479E-01
        1   -1    0    0  501    0  0.00000000000E+00  0.00000000000E+00  0.13844625449E+04  0.13844625449E+04  0.50400001928E-02 0. -1.
       -1   -1    0    0    0  501  0.00000000000E+00  0.00000000000E+00 -0.21198860363E+04  0.21198860363E+04  0.50400001928E-02 0.  1.
    10030    2    1    2    0    0  0.00000000000E+00  0.00000000000E+00 -0.73542349143E+03  0.35043485812E+04  0.34263116126E+04 0.  0.
        3    1    3    3  502    0 -0.14721685823E+04  0.69723333394E+03  0.17492662415E+03  0.16382960632E+04  0.10100000352E+00 0.  1.
       -3    1    3    3    0  502  0.14721685823E+04 -0.69723333394E+03 -0.91035011558E+03  0.18660525180E+04  0.10100000352E+00 0. -1.
</event>
<event>
 5   0  0.2592200E-07  0.3411277E+04  0.7818609E-02  0.8135144E-01
       -1   -1    0    0    0  501  0.00000000000E+00  0.00000000000E+00  0.11124572842E+04  0.11124572842E+04  0.50400001928E-02 0.  1.
        1   -1    0    0  501    0  0.00000000000E+00  0.00000000000E+00 -0.26151142050E+04  0.26151142050E+04  0.50400001928E-02 0. -1.
    10030    2    1    2    0    0  0.00000000000E+00  0.00000000000E+00 -0.15026569208E+04  0.37275714892E+04  0.34112770901E+04 0.  0.
        4    1    3    3  502    0  0.12301541947E+04 -0.10815176190E+04 -0.23157768176E+03  0.16542640474E+04  0.12699999809E+01 0. -1.
       -4    1    3    3    0  502 -0.12301541947E+04  0.10815176190E+04 -0.12710792390E+04  0.20733074417E+04  0.12699999809E+01 0.  1.
</event>
<event>
 5   0  0.2599367E-07  0.3422451E+04  0.7818609E-02  0.8132418E-01
       -1   -1    0    0    0  501  0.00000000000E+00  0.00000000000E+00  0.16178275507E+04  0.16178275507E+04  0.50400001928E-02 0.  1.
        1   -1    0    0  501    0  0.00000000000E+00  0.00000000000E+00 -0.18100149364E+04  0.18100149364E+04  0.50400001928E-02 0. -1.
    10030    2    1    2    0    0  0.00000000000E+00  0.00000000000E+00 -0.19218738569E+03  0.34278424872E+04  0.34224506024E+04 0.  0.
        2    1    3    3  502    0 -0.14824584485E+04  0.97682571197E+02 -0.94658818949E+03  0.17616055565E+04  0.25500000920E-02 0. -1.
       -2    1    3    3    0  502  0.14824584485E+04 -0.97682571197E+02  0.75440080380E+03  0.16662369307E+04  0.25500000920E-02 0.  1.
</event>
<event>
 5   0  0.7899402E-07  0.3409811E+04  0.7818609E-02  0.8135503E-01
        2   -1    0    0  501    0  0.00000000000E+00  0.00000000000E+00  0.20745241734E+04  0.20745241734E+04  0.25500000920E-02 0.  1.
       -2   -1    0    0    0  501  0.00000000000E+00  0.00000000000E+00 -0.14011415560E+04  0.14011415560E+04  0.25500000920E-02 0. -1.
    10030    2    1    2    0    0  0.00000000000E+00  0.00000000000E+00  0.67338261740E+03  0.34756657295E+04  0.34098105686E+04 0.  0.
        2    1    3    3  502    0 -0.12080531547E+04 -0.73263359483E+03 -0.63596960837E+03  0.15493875408E+04  0.25500000920E-02 0. -1.
       -2    1    3    3    0  502  0.12080531547E+04  0.73263359483E+03  0.13093522258E+04  0.19262781886E+04  0.25500000920E-02 0.  1.
</event>
<event>
 5   0  0.2599367E-07  0.3385554E+04  0.7818609E-02  0.8141461E-01
        1   -1    0    0  501    0  0.00000000000E+00  0.00000000000E+00  0.15721585793E+04  0.15721585793E+04  0.50400001928E-02 0.  1.
       -1   -1    0    0    0  501  0.00000000000E+00  0.00000000000E+00 -0.18226499306E+04  0.18226499306E+04  0.50400001928E-02 0. -1.
    10030    2    1    2    0    0  0.00000000000E+00  0.00000000000E+00 -0.25049135134E+03  0.33948085099E+04  0.33855544452E+04 0.  0.
        2    1    3    3  502    0  0.13661914688E+04 -0.99950751007E+03 -0.12466669562E+03  0.16973615340E+04  0.25500000920E-02 0.  1.
       -2    1    3    3    0  502 -0.13661914688E+04  0.99950751007E+03 -0.12582465572E+03  0.16974469759E+04  0.25500000920E-02 0. -1.
</event>
<event>
 5   0  0.2553250E-07  0.3400672E+04  0.7818609E-02  0.8137741E-01
        1   -1    0    0  501    0  0.00000000000E+00  0.00000000000E+00  0.10414170668E+04  0.10414170668E+04  0.50400001928E-02 0. -1.
       -1   -1    0    0    0  501  0.00000000000E+00  0.00000000000E+00 -0.27761620236E+04  0.27761620236E+04  0.50400001928E-02 0.  1.
    10030    2    1    2    0    0  0.00000000000E+00  0.00000000000E+00 -0.17347449567E+04  0.38175790904E+04  0.34006719993E+04 0.  0.
        5    1    3    3  502    0  0.27532660853E+03 -0.11453384747E+04 -0.22438757459E+04  0.25342859775E+04  0.46999998093E+01 0.  1.
       -5    1    3    3    0  502 -0.27532660853E+03  0.11453384747E+04  0.50913078913E+03  0.12832931129E+04  0.46999998093E+01 0. -1.
</event>
<event>
 5   0  0.2553250E-07  0.3397255E+04  0.7818609E-02  0.8138580E-01
       -3   -1    0    0    0  501  0.00000000000E+00  0.00000000000E+00  0.16199030386E+04  0.16199030417E+04  0.10100000352E+00 0.  1.
        3   -1    0    0  501    0  0.00000000000E+00  0.00000000000E+00 -0.17811778650E+04  0.17811778678E+04  0.10100000352E+00 0. -1.
    10030    2    1    2    0    0  0.00000000000E+00  0.00000000000E+00 -0.16127482638E+03  0.34010809096E+04  0.33972550366E+04 0.  0.
        3    1    3    3  502    0  0.10910961268E+04  0.96733766115E+03 -0.95288350273E+03  0.17419012281E+04  0.10100000352E+00 0. -1.
       -3    1    3    3    0  502 -0.10910961268E+04 -0.96733766115E+03  0.79160867635E+03  0.16591796814E+04  0.10100000352E+00 0.  1.
</event>
<event>
 5   0  0.8489228E-07  0.3371315E+04  0.7818609E-02  0.8144983E-01
       -2   -1    0    0    0  501  0.00000000000E+00  0.00000000000E+00  0.13415462902E+04  0.13415462902E+04  0.25500000920E-02 0. -1.
        2   -1    0    0  501    0  0.00000000000E+00  0.00000000000E+00 -0.21180347156E+04  0.21180347156E+04  0.25500000920E-02 0.  1.
    10030    2    1    2    0    0  0.00000000000E+00  0.00000000000E+00 -0.77648842538E+03  0.34595810057E+04  0.33713152419E+04 0.  0.
        3    1    3    3  502    0  0.34737162208E+03  0.40971012686E+03 -0.20278599461E+04  0.20977953673E+04  0.10100000352E+00 0.  1.
       -3    1    3    3    0  502 -0.34737162208E+03 -0.40971012686E+03  0.12513715207E+04  0.13617856384E+04  0.10100000352E+00 0. -1.
</event>
<event>
 5   0  0.8489228E-07  0.3328291E+04  0.7818609E-02  0.8155734E-01
        2   -1    0    0  501    0  0.00000000000E+00  0.00000000000E+00  0.15149342461E+04  0.15149342461E+04  0.25500000920E-02 0.  1.
       -2   -1    0    0    0  501  0.00000000000E+00  0.00000000000E+00 -0.18280527055E+04  0.18280527055E+04  0.25500000920E-02 0. -1.
    10030    2    1    2    0    0  0.00000000000E+00  0.00000000000E+00 -0.31311845940E+03  0.33429869516E+04  0.33282906407E+04 0.  0.
        3    1    3    3  502    0 -0.14390024288E+04  0.64187283827E+03  0.38120275428E+03  0.16211243878E+04  0.10100000352E+00 0.  1.
       -3    1    3    3    0  502  0.14390024288E+04 -0.64187283827E+03 -0.69432121368E+03  0.17218625638E+04  0.10100000352E+00 0. -1.
</event>
<event>
 5   0  0.7610412E-07  0.3421970E+04  0.7818609E-02  0.8132535E-01
       -2   -1    0    0    0  501  0.00000000000E+00  0.00000000000E+00  0.10419242939E+04  0.10419242939E+04  0.25500000920E-02 0. -1.
        2   -1    0    0  501    0  0.00000000000E+00  0.00000000000E+00 -0.28096764998E+04  0.28096764998E+04  0.25500000920E-02 0.  1.
    10030    2    1    2    0    0  0.00000000000E+00  0.00000000000E+00 -0.17677522059E+04  0.38516007937E+04  0.34219703114E+04 0.  0.
        4    1    3    3  502    0 -0.94966435901E+03  0.48423250669E+03 -0.23902333706E+04  0.26171665392E+04  0.12699999809E+01 0.  1.
       -4    1    3    3    0  502  0.94966435901E+03 -0.48423250669E+03  0.62248116463E+03  0.12344342544E+04  0.12699999809E+01 0. -1.
</event>
<event>
 5   0  0.8489228E-07  0.3331437E+04  0.7818609E-02  0.8154942E-01
        2   -1    0    0  501    0  0.00000000000E+00  0.00000000000E+00  0.21464968193E+04  0.21464968193E+04  0.25500000920E-02 0. -1.
       -2   -1    0    0    0  501  0.00000000000E+00  0.00000000000E+00 -0.12926264010E+04  0.12926264010E+04  0.25500000920E-02 0.  1.
    10030    2    1    2    0    0  0.00000000000E+00  0.00000000000E+00  0.85387041825E+03  0.34391232203E+04  0.33314372023E+04 0.  0.
        3    1    3    3  502    0  0.91743666078E+03 -0.80802076033E+03  0.15948907931E+04  0.20095432883E+04  0.10100000352E+00 0. -1.
       -3    1    3    3    0  502 -0.91743666078E+03  0.80802076033E+03 -0.74102037482E+03  0.14295799319E+04  0.10100000352E+00 0.  1.
</event>
<event>
 5   0  0.7838333E-07  0.3355430E+04  0.7818609E-02  0.8148933E-01
       -2   -1    0    0    0  501  0.00000000000E+00  0.00000000000E+00  0.15662540121E+04  0.15662540121E+04  0.25500000920E-02 0. -1.
        2   -1    0    0  501    0  0.00000000000E+00  0.00000000000E+00 -0.17971085367E+04  0.17971085367E+04  0.25500000920E-02 0.  1.
    10030    2    1    2    0    0  0.00000000000E+00  0.00000000000E+00 -0.23085452462E+03  0.33633625487E+04  0.33554304974E+04 0.  0.
        1    1    3    3  502    0 -0.10462693155E+04 -0.12845820595E+04 -0.38043437128E+03  0.16998708359E+04  0.50400001928E-02 0.  1.
       -1    1    3    3    0  502  0.10462693155E+04  0.12845820595E+04  0.14957984666E+03  0.16634917128E+04  0.50400001928E-02 0. -1.
</event>
<event>
 5   0  0.8489228E-07  0.3400909E+04  0.7818609E-02  0.8137683E-01
        2   -1    0    0  501    0  0.00000000000E+00  0.00000000000E+00  0.13043006617E+04  0.13043006617E+04  0.25500000920E-02 0. -1.
       -2   -1    0    0    0  501  0.00000000000E+00  0.00000000000E+00 -0.22169317210E+04  0.22169317210E+04  0.25500000920E-02 0.  1.
    10030    2    1    2    0    0  0.00000000000E+00  0.00000000000E+00 -0.91263105925E+03  0.35212323827E+04  0.34009090025E+04 0.  0.
        3    1    3    3  502    0 -0.58150732798E+03  0.12573922394E+04 -0.14772858157E+04  0.20252307048E+04  0.10100000352E+00 0.  1.
       -3    1    3    3    0  502  0.58150732798E+03 -0.12573922394E+04  0.56465475649E+03  0.14960016779E+04  0.10100000352E+00 0. -1.
</event>
<event>
 5   0  0.7822003E-07  0.3362506E+04  0.7818609E-02  0.8147170E-01
        2   -1    0    0  501    0  0.00000000000E+00  0.00000000000E+00  0.22516554844E+04  0.22516554844E+04  0.25500000920E-02 0.  1.
       -2   -1    0    0    0  501  0.00000000000E+00  0.00000000000E+00 -0.12553483277E+04  0.12553483277E+04  0.25500000920E-02 0. -1.
    10030    2    1    2    0    0  0.00000000000E+00  0.00000000000E+00  0.99630715673E+03  0.35070038121E+04  0.33625061765E+04 0.  0.
        5    1    3    3  502    0  0.11958826502E+04 -0.41093314181E+03 -0.65742518569E+03  0.14252127297E+04  0.46999998093E+01 0. -1.
       -5    1    3    3    0  502 -0.11958826502E+04  0.41093314181E+03  0.16537323424E+04  0.20817910823E+04  0.46999998093E+01 0.  1.
</event>
<event>
 5   0  0.2622205E-07  0.3387695E+04  0.7818609E-02  0.8140933E-01
        1   -1    0    0  501    0  0.00000000000E+00  0.00000000000E+00  0.14553304390E+04  0.14553304390E+04  0.50400001928E-02 0.  1.
       -1   -1    0    0    0  501  0.00000000000E+00  0.00000000000E+00 -0.19714553513E+04  0.19714553513E+04  0.50400001928E-02 0. -1.
    10030    2    1    2    0    0  0.00000000000E+00  0.00000000000E+00 -0.51612491230E+03  0.34267857904E+04  0.33876947808E+04 0.  0.
        3    1    3    3  502    0 -0.14151582906E+04 -0.21573603762E+03 -0.11739964354E+04  0.18513461767E+04  0.10100000352E+00 0. -1.
       -3    1    3    3    0  502  0.14151582906E+04  0.21573603762E+03  0.65787152312E+03  0.15754396137E+04  0.10100000352E+00 0.  1.
</event>
<event>
 5   0  0.2641442E-07  0.3394796E+04  0.7818609E-02  0.8139185E-01
       -1   -1    0    0    0  501  0.00000000000E+00  0.00000000000E+00  0.11914092822E+04  0.11914092822E+04  0.50400001928E-02 0. -1.
        1   -1    0    0  501    0  0.00000000000E+00  0.00000000000E+00 -0.24182794584E+04  0.24182794584E+04  0.50400001928E-02 0.  1.
    10030    2    1    2    0    0  0.00000000000E+00  0.00000000000E+00 -0.12268701762E+04  0.36096887406E+04  0.33947963672E+04 0.  0.
        1    1    3    3  502    0  0.13267293695E+04 -0.75213130023E+03 -0.14057532979E+04  0.20741394956E+04  0.50400001928E-02 0.  1.
       -1    1    3    3    0  502 -0.13267293695E+04  0.75213130023E+03  0.17888312170E+03  0.15355492450E+04  0.50400001928E-02 0. -1.
</event>
<event>
 5   0  0.2622205E-07  0.3411451E+04  0.7818609E-02  0.8135101E-01
       -1   -1    0    0    0  501  0.00000000000E+00  0.00000000000E+00  0.13504563916E+04  0.13504563916E+04  0.50400001928E-02 0. -1.
        1   -1    0    0  501    0  0.00000000000E+00  0.00000000000E+00 -0.21544568635E+04  0.21544568635E+04  0.50400001928E-02 0.  1.
    10030    2    1    2    0    0  0.00000000000E+00  0.00000000000E+00 -0.80400047192E+03  0.35049132551E+04  0.34114513285E+04 0.  0.
        3    1    3    3  502    0 -0.23271925297E+03 -0.74790922100E+03 -0.19587597812E+04  0.21095654397E+04  0.10100000352E+00 0.  1.
       -3    1    3    3    0  502  0.23271925297E+03  0.74790922100E+03  0.11547593093E+04  0.13953478155E+04  0.10100000352E+00 0. -1.
</event>
<event>
 5   0  0.2641442E-07  0.3640061E+04  0.7818609E-02  0.8081376E-01
       -1   -1    0    0    0  501  0.00000000000E+00  0.00000000000E+00  0.13750837578E+04  0.13750837578E+04  0.50400001928E-02 0.  1.
        1   -1    0    0  501    0  0.00000000000E+00  0.00000000000E+00 -0.24089517737E+04  0.24089517737E+04  0.50400001928E-02 0. -1.
    10030    2    1    2    0    0  0.00000000000E+00  0.00000000000E+00 -0.10338680159E+04  0.37840355314E+04  0.36400606903E+04 0.  0.
        1    1    3    3  502    0 -0.15188690414E+03  0.28350421634E+03  0.13453071383E+04  0.13832192772E+04  0.50400001928E-02 0.  1.
       -1    1    3    3    0  502  0.15188690414E+03 -0.28350421634E+03 -0.23791751542E+04  0.24008162543E+04  0.50400001928E-02 0. -1.
</event>
<event>
 5   0  0.2592200E-07  0.3405086E+04  0.7818609E-02  0.8136659E-01
        1   -1    0    0  501    0  0.00000000000E+00  0.00000000000E+00  0.28471563681E+04  0.28471563681E+04  0.50400001928E-02 0. -1.
       -1   -1    0    0    0  501  0.00000000000E+00  0.00000000000E+00 -0.10180866596E+04  0.10180866596E+04  0.50400001928E-02 0.  1.
    10030    2    1    2    0    0  0.00000000000E+00  0.00000000000E+00  0.18290697085E+04  0.38652430277E+04  0.34050855591E+04 0.  0.
        4    1    3    3  502    0 -0.99519497725E+03  0.24593194849E+03  0.24575526640E+04  0.26627921953E+04  0.12699999809E+01 0. -1.
       -4    1    3    3    0  502  0.99519497725E+03 -0.24593194849E+03 -0.62848295554E+03  0.12024508324E+04  0.12699999809E+01 0.  1.
</event>
<event>
 5   0  0.7610412E-07  0.3396194E+04  0.7818609E-02  0.8138841E-01
        2   -1    0    0  501    0  0.00000000000E+00  0.00000000000E+00  0.32456939915E+04  0.32456939915E+04  0.25500000920E-02 0.  1.
       -2   -1    0    0    0  501  0.00000000000E+00  0.00000000000E+00 -0.88841801019E+03  0.88841801019E+03  0.25500000920E-02 0. -1.
    10030    2    1    2    0    0  0.00000000000E+00  0.00000000000E+00  0.23572759814E+04  0.41341120017E+04  0.33961937505E+04 0.  0.
        4    1    3    3  502    0  0.25611020775E+02 -0.51195582124E+03  0.31492666258E+04  0.31907109836E+04  0.12699999809E+01 0.  1.
       -4    1    3    3    0  502 -0.25611020775E+02  0.51195582124E+03 -0.79199064446E+03  0.94340101817E+03  0.12699999809E+01 0. -1.
</event>
<event>
 5   0  0.7822003E-07  0.3403290E+04  0.7818609E-02  0.8137099E-01
        2   -1    0    0  501    0  0.00000000000E+00  0.00000000000E+00  0.16342519159E+04  0.16342519159E+04  0.25500000920E-02 0. -1.
       -2   -1    0    0    0  501  0.00000000000E+00  0.00000000000E+00 -0.17718175498E+04  0.17718175498E+04  0.25500000920E-02 0.  1.
    10030    2    1    2    0    0  0.00000000000E+00  0.00000000000E+00 -0.13756563396E+03  0.34060694657E+04  0.34032903052E+04 0.  0.
        5    1    3    3  502    0  0.21711199319E+03 -0.10451986371E+04  0.12574394215E+04  0.16494707627E+04  0.46999998093E+01 0. -1.
       -5    1    3    3    0  502 -0.21711199319E+03  0.10451986371E+04 -0.13950050554E+04  0.17565987029E+04  0.46999998093E+01 0.  1.
</event>
<event>
 5   0  0.2641442E-07  0.3404043E+04  0.7818609E-02  0.8136915E-01
       -1   -1    0    0    0  501  0.00000000000E+00  0.00000000000E+00  0.21663803729E+04  0.21663803729E+04  0.50400001928E-02 0.  1.
        1   -1    0    0  501    0  0.00000000000E+00  0.00000000000E+00 -0.13371973107E+04  0.13371973107E+04  0.50400001928E-02 0. -1.
    10030    2    1    2    0    0  0.00000000000E+00  0.00000000000E+00  0.82918306224E+03  0.35035776836E+04  0.34040434830E+04 0.  0.
        1    1    3    3  502    0 -0.65281672002E+03 -0.12762547997E+03  0.20270595122E+04  0.21334076495E+04  0.50400001928E-02 0.  1.
       -1    1    3    3    0  502  0.65281672002E+03  0.12762547997E+03 -0.11978764499E+04  0.13701700341E+04  0.50400001928E-02 0. -1.
</event>
<event>
 5   0  0.8489228E-07  0.3361270E+04  0.7818609E-02  0.8147478E-01
       -2   -1    0    0    0  501  0.00000000000E+00  0.00000000000E+00  0.13335565468E+04  0.13335565468E+04  0.25500000920E-02 0. -1.
        2   -1    0    0  501    0  0.00000000000E+00  0.00000000000E+00 -0.21180459671E+04  0.21180459671E+04  0.25500000920E-02 0.  1.
    10030    2    1    2    0    0  0.00000000000E+00  0.00000000000E+00 -0.78448942022E+03  0.34516025139E+04  0.33612700373E+04 0.  0.
        3    1    3    3  502    0 -0.10255343366E+04 -0.13280685057E+04 -0.48991890826E+03  0.17480009091E+04  0.10100000352E+00 0.  1.
       -3    1    3    3    0  502  0.10255343366E+04  0.13280685057E+04 -0.29457051196E+03  0.17036016048E+04  0.10100000352E+00 0. -1.
</event>
<event>
 5   0  0.7838333E-07  0.3409134E+04  0.7818609E-02  0.8135668E-01
       -2   -1    0    0    0  501  0.00000000000E+00  0.00000000000E+00  0.13812436621E+04  0.13812436621E+04  0.25500000920E-02 0. -1.
        2   -1    0    0  501    0  0.00000000000E+00  0.00000000000E+00 -0.21035741193E+04  0.21035741193E+04  0.25500000920E-02 0.  1.
    10030    2    1    2    0    0  0.00000000000E+00  0.00000000000E+00 -0.72233045720E+03  0.34848177814E+04  0.34091338607E+04 0.  0.
        1    1    3    3  502    0  0.27282967743E+03  0.21930778744E+03  0.13441077445E+04  0.13889411677E+04  0.50400001928E-02 0. -1.
       -1    1    3    3    0  502 -0.27282967743E+03 -0.21930778744E+03 -0.20664382017E+04  0.20958766137E+04  0.50400001928E-02 0.  1.
</event>
<event>
 5   0  0.7899402E-07  0.3387101E+04  0.7818609E-02  0.8141079E-01
       -2   -1    0    0    0  501  0.00000000000E+00  0.00000000000E+00  0.15417158259E+04  0.15417158259E+04  0.25500000920E-02 0.  1.
        2   -1    0    0  501    0  0.00000000000E+00  0.00000000000E+00 -0.18603385221E+04  0.18603385221E+04  0.25500000920E-02 0. -1.
    10030    2    1    2    0    0  0.00000000000E+00  0.00000000000E+00 -0.31862269627E+03  0.34020543480E+04  0.33871010266E+04 0.  0.
        2    1    3    3  502    0 -0.48615213358E+03  0.15268933916E+04 -0.70978747964E+03  0.17525825495E+04  0.25500000920E-02 0. -1.
       -2    1    3    3    0  502  0.48615213358E+03 -0.15268933916E+04  0.39116478337E+03  0.16494717985E+04  0.25500000920E-02 0.  1.
</event>
<event>
 5   0  0.2599367E-07  0.3412466E+04  0.7818609E-02  0.8134853E-01
        1   -1    0    0  501    0  0.00000000000E+00  0.00000000000E+00  0.16448516037E+04  0.16448516037E+04  0.50400001928E-02 0. -1.
       -1   -1    0    0    0  501  0.00000000000E+00  0.00000000000E+00 -0.17699054739E+04  0.17699054739E+04  0.50400001928E-02 0.  1.
    10030    2    1    2    0    0  0.00000000000E+00  0.00000000000E+00 -0.12505387023E+03  0.34147570776E+04  0.34124664729E+04 0.  0.
        2    1    3    3  502    0 -0.82567104556E+03  0.26062039666E+03 -0.15337438000E+04  0.17612568554E+04  0.25500000920E-02 0.  1.
       -2    1    3    3    0  502  0.82567104556E+03 -0.26062039666E+03  0.14086899298E+04  0.16535002222E+04  0.25500000920E-02 0. -1.
</event>
<event>
 5   0  0.2592200E-07  0.3384781E+04  0.7818609E-02  0.8141652E-01
        1   -1    0    0  501    0  0.00000000000E+00  0.00000000000E+00  0.27005810231E+04  0.27005810231E+04  0.50400001928E-02 0.  1.
       -1   -1    0    0    0  501  0.00000000000E+00  0.00000000000E+00 -0.10605813171E+04  0.10605813171E+04  0.50400001928E-02 0. -1.
    10030    2    1    2    0    0  0.00000000000E+00  0.00000000000E+00  0.16399997060E+04  0.37611623402E+04  0.33847811028E+04 0.  0.
        4    1    3    3  502    0 -0.50152349398E+03  0.14534234487E+04  0.16059073328E+04  0.22232646066E+04  0.12699999809E+01 0.  1.
       -4    1    3    3    0  502  0.50152349398E+03 -0.14534234487E+04  0.34092373164E+02  0.15378977336E+04  0.12699999809E+01 0. -1.
</event>
<event>
 5   0  0.7822003E-07  0.3373451E+04  0.7818609E-02  0.8144453E-01
        2   -1    0    0  501    0  0.00000000000E+00  0.00000000000E+00  0.18580586481E+04  0.18580586481E+04  0.25500000920E-02 0. -1.
       -2   -1    0    0    0  501  0.00000000000E+00  0.00000000000E+00 -0.15311914841E+04  0.15311914841E+04  0.25500000920E-02 0.  1.
    10030    2    1    2    0    0  0.00000000000E+00  0.00000000000E+00  0.32686716401E+03  0.33892501323E+04  0.33734513952E+04 0.  0.
        5    1    3    3  502    0  0.76495367468E+03  0.84337404654E+03  0.14136841217E+04  0.18152021355E+04  0.46999998093E+01 0. -1.
       -5    1    3    3    0  502 -0.76495367468E+03 -0.84337404654E+03 -0.10868169576E+04  0.15740479968E+04  0.46999998093E+01 0.  1.
</event>
<event>
 5   0  0.2599367E-07  0.3330626E+04  0.7818609E-02  0.8155146E-01
       -1   -1    0    0    0  501  0.00000000000E+00  0.00000000000E+00  0.13020031543E+04  0.13020031543E+04  0.50400001928E-02 0. -1.
        1   -1    0    0  501    0  0.00000000000E+00  0.00000000000E+00 -0.21300009867E+04  0.21300009867E+04  0.50400001928E-02 0.  1.
    10030    2    1    2    0    0  0.00000000000E+00  0.00000000000E+00 -0.82799783246E+03  0.34320041410E+04  0.33306263695E+04 0.  0.
        2    1    3    3  502    0 -0.45401833711E+03 -0.24083253707E+03 -0.20462384966E+04  0.21097926311E+04  0.25500000920E-02 0.  1.
       -2    1    3    3    0  502  0.45401833711E+03  0.24083253707E+03  0.12182406641E+04  0.13222115099E+04  0.25500000920E-02 0. -1.
</event>
<event>
 5   0  0.2553250E-07  0.3375125E+04  0.7818609E-02  0.8144039E-01
        1   -1    0    0  501    0  0.00000000000E+00  0.00000000000E+00  0.13072661698E+04  0.13072661699E+04  0.50400001928E-02 0. -1.
       -1   -1    0    0    0  501  0.00000000000E+00  0.00000000000E+00 -0.21784905104E+04  0.21784905104E+04  0.50400001928E-02 0.  1.
    10030    2    1    2    0    0  0.00000000000E+00  0.00000000000E+00 -0.87122434051E+03  0.34857566802E+04  0.33751248543E+04 0.  0.
        5    1    3    3  502    0 -0.13381577670E+04 -0.86850227162E+03  0.13277501833E+03  0.16008165731E+04  0.46999998093E+01 0.  1.
       -5    1    3    3    0  502  0.13381577670E+04  0.86850227162E+03 -0.10039993588E+04  0.18849401072E+04  0.46999998093E+01 0. -1.
</event>
<event>
 5   0  0.2592200E-07  0.3391639E+04  0.7818609E-02  0.8139962E-01
       -1   -1    0    0    0  501  0.00000000000E+00  0.00000000000E+00  0.23261519465E+04  0.23261519465E+04  0.50400001928E-02 0. -1.
        1   -1    0    0  501    0  0.00000000000E+00  0.00000000000E+00 -0.12362920648E+04  0.12362920649E+04  0.50400001928E-02 0.  1.
    10030    2    1    2    0    0  0.00000000000E+00  0.00000000000E+00  0.10898598816E+04  0.35624440113E+04  0.33916386559E+04 0.  0.
        4    1    3    3  502    0 -0.40715093665E+03  0.16817165260E+03 -0.11751453334E+04  0.12549987082E+04  0.12699999809E+01 0.  1.
       -4    1    3    3    0  502  0.40715093665E+03 -0.16817165260E+03  0.22650052151E+04  0.23074453032E+04  0.12699999809E+01 0. -1.
</event>
<event>
 5   0  0.2622205E-07  0.3416209E+04  0.7818609E-02  0.8133940E-01
        1   -1    0    0  501    0  0.00000000000E+00  0.00000000000E+00  0.12965872381E+04  0.12965872381E+04  0.50400001928E-02 0. -1.
       -1   -1    0    0    0  501  0.00000000000E+00  0.00000000000E+00 -0.22502306692E+04  0.22502306692E+04  0.50400001928E-02 0.  1.
    10030    2    1    2    0    0  0.00000000000E+00  0.00000000000E+00 -0.95364343110E+03  0.35468179074E+04  0.34162086403E+04 0.  0.
        3    1    3    3  502    0 -0.38606126447E+03  0.70638079101E+02 -0.22027832055E+04  0.22374733292E+04  0.10100000352E+00 0.  1.
       -3    1    3    3    0  502  0.38606126447E+03 -0.70638079101E+02  0.12491397744E+04  0.13093445782E+04  0.10100000352E+00 0. -1.
</event>
<event>
 5   0  0.2553250E-07  0.3384893E+04  0.7818609E-02  0.8141624E-01
        1   -1    0    0  501    0  0.00000000000E+00  0.00000000000E+00  0.17452001570E+04  0.17452001570E+04  0.50400001928E-02 0.  1.
       -1   -1    0    0    0  501  0.00000000000E+00  0.00000000000E+00 -0.16412872912E+04  0.16412872912E+04  0.50400001928E-02 0. -1.
    10030    2    1    2    0    0  0.00000000000E+00  0.00000000000E+00  0.10391286586E+03  0.33864874482E+04  0.33848928126E+04 0.  0.
        5    1    3    3  502    0  0.11435334772E+04  0.11070781662E+04 -0.52369439099E+03  0.16755801338E+04  0.46999998093E+01 0. -1.
       -5    1    3    3    0  502 -0.11435334772E+04 -0.11070781662E+04  0.62760725686E+03  0.17109073144E+04  0.46999998093E+01 0.  1.
</event>
<event>
 5   0  0.2641442E-07  0.3325927E+04  0.7818609E-02  0.8156329E-01
       -1   -1    0    0    0  501  0.00000000000E+00  0.00000000000E+00  0.14474491036E+04  0.14474491036E+04  0.50400001928E-02 0.  1.
        1   -1    0    0  501    0  0.00000000000E+00  0.00000000000E+00 -0.19105665426E+04  0.19105665426E+04  0.50400001928E-02 0. -1.
    10030    2    1    2    0    0  0.00000000000E+00  0.00000000000E+00 -0.46311743898E+03  0.33580156462E+04  0.33259271365E+04 0.  0.
        1    1    3    3  502    0 -0.47250765845E+03  0.37262443756E+03  0.13336677146E+04  0.14631411524E+04  0.50400001928E-02 0.  1.
       -1    1    3    3    0  502  0.47250765845E+03 -0.37262443756E+03 -0.17967851536E+04  0.18948744937E+04  0.50400001928E-02 0. -1.
</event>
<event>
 5   0  0.2553250E-07  0.3409716E+04  0.7818609E-02  0.8135526E-01
        3   -1    0    0  501    0  0.00000000000E+00  0.00000000000E+00  0.16351466555E+04  0.16351466586E+04  0.10100000352E+00 0. -1.
       -3   -1    0    0    0  501  0.00000000000E+00  0.00000000000E+00 -0.17775415600E+04  0.17775415629E+04  0.10100000352E+00 0.  1.
    10030    2    1    2    0    0  0.00000000000E+00  0.00000000000E+00 -0.14239490450E+03  0.34126882215E+04  0.34097162035E+04 0.  0.
        5    1    3    3  502    0  0.15837653945E+04 -0.62122529187E+03 -0.18213344706E+03  0.17109729310E+04  0.46999998093E+01 0. -1.
       -5    1    3    3    0  502 -0.15837653945E+04  0.62122529187E+03  0.39738542554E+02  0.17017152905E+04  0.46999998093E+01 0.  1.
</event>
<event>
 5   0  0.7838333E-07  0.3567701E+04  0.7818609E-02  0.8097931E-01
       -2   -1    0    0    0  501  0.00000000000E+00  0.00000000000E+00  0.15796741310E+04  0.15796741310E+04  0.25500000920E-02 0. -1.
        2   -1    0    0  501    0  0.00000000000E+00  0.00000000000E+00 -0.20144168841E+04  0.20144168841E+04  0.25500000920E-02 0.  1.
    10030    2    1    2    0    0  0.00000000000E+00  0.00000000000E+00 -0.43474275311E+03  0.35940910151E+04  0.35677007951E+04 0.  0.
        1    1    3    3  502    0 -0.17141238890E+04  0.44134611442E+03 -0.44063005209E+03  0.18240509704E+04  0.50400001928E-02 0. -1.
       -1    1    3    3    0  502  0.17141238890E+04 -0.44134611442E+03  0.58872989765E+01  0.17700400447E+04  0.50400001928E-02 0.  1.
</event>
<event>
 5   0  0.2641442E-07  0.3396397E+04  0.7818609E-02  0.8138791E-01
       -1   -1    0    0    0  501  0.00000000000E+00  0.00000000000E+00  0.12176677972E+04  0.12176677972E+04  0.50400001928E-02 0.  1.
        1   -1    0    0  501    0  0.00000000000E+00  0.00000000000E+00 -0.23683624918E+04  0.23683624918E+04  0.50400001928E-02 0. -1.
    10030    2    1    2    0    0  0.00000000000E+00  0.00000000000E+00 -0.11506946946E+04  0.35860302891E+04  0.33963973492E+04 0.  0.
        1    1    3    3  502    0  0.58211791791E+03  0.89370200722E+03  0.81991749712E+03  0.13452989445E+04  0.50400001928E-02 0.  1.
       -1    1    3    3    0  502 -0.58211791791E+03 -0.89370200722E+03 -0.19706121917E+04  0.22407313445E+04  0.50400001928E-02 0. -1.
</event>
<event>
 5   0  0.7610412E-07  0.3479278E+04  0.7818609E-02  0.8118718E-01
       -2   -1    0    0    0  501  0.00000000000E+00  0.00000000000E+00  0.12327773821E+04  0.12327773821E+04  0.25500000920E-02 0.  1.
        2   -1    0    0  501    0  0.00000000000E+00  0.00000000000E+00 -0.24548989248E+04  0.24548989248E+04  0.25500000920E-02 0. -1.
    10030    2    1    2    0    0  0.00000000000E+00  0.00000000000E+00 -0.12221215428E+04  0.36876763069E+04  0.34792780112E+04 0.  0.
        4    1    3    3  502    0  0.29066395306E+03 -0.16055113357E+04  0.28567591371E+02  0.16318608712E+04  0.12699999809E+01 0.  1.
       -4    1    3    3    0  502 -0.29066395306E+03  0.16055113357E+04 -0.12506891341E+04  0.20558154357E+04  0.12699999809E+01 0. -1.
</event>
<event>
 5   0  0.7822003E-07  0.3394265E+04  0.7818609E-02  0.8139315E-01
       -2   -1    0    0    0  501  0.00000000000E+00  0.00000000000E+00  0.12312908158E+04  0.12312908158E+04  0.25500000920E-02 0.  1.
        2   -1    0    0  501    0  0.00000000000E+00  0.00000000000E+00 -0.23392194180E+04  0.23392194180E+04  0.25500000920E-02 0. -1.
    10030    2    1    2    0    0  0.00000000000E+00  0.00000000000E+00 -0.11079286022E+04  0.35705102338E+04  0.33942653906E+04 0.  0.
        5    1    3    3  502    0 -0.28712923442E+03 -0.90557796305E+03 -0.20333015070E+04  0.22442931522E+04  0.46999998093E+01 0. -1.
       -5    1    3    3    0  502  0.28712923442E+03  0.90557796305E+03  0.92537290483E+03  0.13262170816E+04  0.46999998093E+01 0.  1.
</event>
<event>
 5   0  0.2599367E-07  0.3394269E+04  0.7818609E-02  0.8139314E-01
        1   -1    0    0  501    0  0.00000000000E+00  0.00000000000E+00  0.14797885822E+04  0.14797885822E+04  0.50400001928E-02 0. -1.
       -1   -1    0    0    0  501  0.00000000000E+00  0.00000000000E+00 -0.19464038828E+04  0.19464038828E+04  0.50400001928E-02 0.  1.
    10030    2    1    2    0    0  0.00000000000E+00  0.00000000000E+00 -0.46661530063E+03  0.34261924651E+04  0.33942694308E+04 0.  0.
        2    1    3    3  502    0  0.11023071029E+04  0.12850511364E+04 -0.11460544454E+03  0.16969301047E+04  0.25500000920E-02 0.  1.
       -2    1    3    3    0  502 -0.11023071029E+04 -0.12850511364E+04 -0.35200985609E+03  0.17292623604E+04  0.25500000920E-02 0. -1.
</event>
<event>
 5   0  0.2641442E-07  0.3409037E+04  0.7818609E-02  0.8135692E-01
        1   -1    0    0  501    0  0.00000000000E+00  0.00000000000E+00  0.10567858926E+04  0.10567858927E+04  0.50400001928E-02 0.  1.
       -1   -1    0    0    0  501  0.00000000000E+00  0.00000000000E+00 -0.27492634543E+04  0.27492634543E+04  0.50400001928E-02 0. -1.
    10030    2    1    2    0    0  0.00000000000E+00  0.00000000000E+00 -0.16924775616E+04  0.38060493469E+04  0.34090367165E+04 0.  0.
        1    1    3    3  502    0  0.12522295747E+04  0.25508202039E+03 -0.21055317021E+04  0.24630082203E+04  0.50400001928E-02 0. -1.
       -1    1    3    3    0  502 -0.12522295747E+04 -0.25508202039E+03  0.41305414047E+03  0.13430411266E+04  0.50400001928E-02 0.  1.
</event>
<event>
 5   0  0.7899402E-07  0.3362361E+04  0.7818609E-02  0.8147206E-01
       -2   -1    0    0    0  501  0.00000000000E+00  0.00000000000E+00  0.92432742076E+03  0.92432742076E+03  0.25500000920E-02 0.  1.
        2   -1    0    0  501    0  0.00000000000E+00  0.00000000000E+00 -0.30577561424E+04  0.30577561424E+04  0.25500000920E-02 0. -1.
    10030    2    1    2    0    0  0.00000000000E+00  0.00000000000E+00 -0.21334287217E+04  0.39820835632E+04  0.33623609850E+04 0.  0.
        2    1    3    3  502    0 -0.88978751354E+03 -0.28787250072E+03 -0.27212684049E+04  0.28774805173E+04  0.25500000920E-02 0. -1.
       -2    1    3    3    0  502  0.88978751354E+03  0.28787250072E+03  0.58783968319E+03  0.11046030459E+04  0.25500000920E-02 0.  1.
</event>
<event>
 5   0  0.2622205E-07  0.3396933E+04  0.7818609E-02  0.8138660E-01
        1   -1    0    0  501    0  0.00000000000E+00  0.00000000000E+00  0.19599226093E+04  0.19599226093E+04  0.50400001928E-02 0.  1.
       -1   -1    0    0    0  501  0.00000000000E+00  0.00000000000E+00 -0.14718886666E+04  0.14718886666E+04  0.50400001928E-02 0. -1.
    10030    2    1    2    0    0  0.00000000000E+00  0.00000000000E+00  0.48803394276E+03  0.34318112759E+04  0.33969326611E+04 0.  0.
        3    1    3    3  502    0  0.12939211422E+04 -0.49053334536E+03 -0.75094692619E+03  0.15744129640E+04  0.10100000352E+00 0. -1.
       -3    1    3    3    0  502 -0.12939211422E+04  0.49053334536E+03  0.12389808689E+04  0.18573983119E+04  0.10100000352E+00 0.  1.
</event>
<event>
 5   0  0.2622205E-07  0.3426671E+04  0.7818609E-02  0.8131391E-01
        1   -1    0    0  501    0  0.00000000000E+00  0.00000000000E+00  0.29920414274E+04  0.29920414274E+04  0.50400001928E-02 0. -1.
       -1   -1    0    0    0  501  0.00000000000E+00  0.00000000000E+00 -0.98110919219E+03  0.98110919221E+03  0.50400001928E-02 0.  1.
    10030    2    1    2    0    0  0.00000000000E+00  0.00000000000E+00  0.20109322352E+04  0.39731506196E+04  0.34266714741E+04 0.  0.
        3    1    3    3  502    0  0.15902011027E+04  0.10819406487E+03  0.17342549248E+04  0.23554374662E+04  0.10100000352E+00 0. -1.
       -3    1    3    3    0  502 -0.15902011027E+04 -0.10819406487E+03  0.27667731039E+03  0.16177131534E+04  0.10100000352E+00 0.  1.
</event>
<event>
 5   0  0.7899402E-07  0.3406384E+04  0.7818609E-02  0.8136341E-01
       -2   -1    0    0    0  501  0.00000000000E+00  0.00000000000E+00  0.13120895435E+04  0.13120895435E+04  0.25500000920E-02 0.  1.
        2   -1    0    0  501    0  0.00000000000E+00  0.00000000000E+00 -0.22108724249E+04  0.22108724249E+04  0.25500000920E-02 0. -1.
    10030    2    1    2    0    0  0.00000000000E+00  0.00000000000E+00 -0.89878288137E+03  0.35229619683E+04  0.34063837662E+04 0.  0.
        2    1    3    3  502    0  0.21540585193E+03  0.55145104080E+03 -0.21010319315E+04  0.21828497678E+04  0.25500000920E-02 0. -1.
       -2    1    3    3    0  502 -0.21540585193E+03 -0.55145104080E+03  0.12022490502E+04  0.13401122005E+04  0.25500000920E-02 0.  1.
</event>
<event>
 5   0  0.2553250E-07  0.3388334E+04  0.7818609E-02  0.8140775E-01
        1   -1    0    0  501    0  0.00000000000E+00  0.00000000000E+00  0.13010468290E+04  0.13010468290E+04  0.50400001928E-02 0. -1.
       -1   -1    0    0    0  501  0.00000000000E+00  0.00000000000E+00 -0.22060709910E+04  0.22060709910E+04  0.50400001928E-02 0.  1.
    10030    2    1    2    0    0  0.00000000000E+00  0.00000000000E+00 -0.90502416200E+03  0.35071178199E+04  0.33883339076E+04 0.  0.
        5    1    3    3  502    0 -0.12988729207E+04 -0.23552887936E+03 -0.15516404083E+04  0.20371928637E+04  0.46999998093E+01 0.  1.
       -5    1    3    3    0  502  0.12988729207E+04  0.23552887936E+03  0.64661624633E+03  0.14699249563E+04  0.46999998093E+01 0. -1.
</event>
<event>
 5   0  0.8489228E-07  0.3297154E+04  0.7818609E-02  0.8163620E-01
       -2   -1    0    0    0  501  0.00000000000E+00  0.00000000000E+00  0.12323393446E+04  0.12323393446E+04  0.25500000920E-02 0.  1.
        2   -1    0    0  501    0  0.00000000000E+00  0.00000000000E+00 -0.22054041797E+04  0.22054041797E+04  0.25500000920E-02 0. -1.
    10030    2    1    2    0    0  0.00000000000E+00  0.00000000000E+00 -0.97306483506E+03  0.34377435243E+04  0.32971541313E+04 0.  0.
        3    1    3    3  502    0 -0.24794560595E+03 -0.15986340405E+04 -0.81739354900E+03  0.18125231151E+04  0.10100000352E+00 0. -1.
       -3    1    3    3    0  502  0.24794560595E+03  0.15986340405E+04 -0.15567128605E+03  0.16252204091E+04  0.10100000352E+00 0.  1.
</event>
<event>
 5   0  0.8489228E-07  0.3410917E+04  0.7818609E-02  0.8135232E-01
        2   -1    0    0  501    0  0.00000000000E+00  0.00000000000E+00  0.27022395171E+04  0.27022395171E+04  0.25500000920E-02 0. -1.
       -2   -1    0    0    0  501  0.00000000000E+00  0.00000000000E+00 -0.10763622515E+04  0.10763622515E+04  0.25500000920E-02 0.  1.
    10030    2    1    2    0    0  0.00000000000E+00  0.00000000000E+00  0.16258772656E+04  0.37786017685E+04  0.34109169504E+04 0.  0.
        3    1    3    3  502    0 -0.10072804709E+04 -0.62018439116E+03 -0.54804962609E+03  0.13036874737E+04  0.10100000352E+00 0.  1.
       -3    1    3    3    0  502  0.10072804709E+04  0.62018439116E+03  0.21739268917E+04  0.24749142948E+04  0.10100000352E+00 0. -1.
</event>
<event>
 5   0  0.7899402E-07  0.3433962E+04  0.7818609E-02  0.8129621E-01
        2   -1    0    0  501    0  0.00000000000E+00  0.00000000000E+00  0.96942732420E+03  0.96942732421E+03  0.25500000920E-02 0. -1.
       -2   -1    0    0    0  501  0.00000000000E+00  0.00000000000E+00 -0.30409951863E+04  0.30409951863E+04  0.25500000920E-02 0.  1.
    10030    2    1    2    0    0  0.00000000000E+00  0.00000000000E+00 -0.20715678620E+04  0.40104225105E+04  0.34339620419E+04 0.  0.
        2    1    3    3  502    0  0.47718008235E+03  0.16299099308E+04 -0.13305795192E+04  0.21574867486E+04  0.25500000920E-02 0. -1.
       -2    1    3    3    0  502 -0.47718008235E+03 -0.16299099308E+04 -0.74098834282E+03  0.18529357619E+04  0.25500000920E-02 0.  1.
</event>
<event>
 5   0  0.2592200E-07  0.3511199E+04  0.7818609E-02  0.8111141E-01
       -1   -1    0    0    0  501  0.00000000000E+00  0.00000000000E+00  0.27907940580E+04  0.27907940580E+04  0.50400001928E-02 0.  1.
        1   -1    0    0  501    0  0.00000000000E+00  0.00000000000E+00 -0.11043917868E+04  0.11043917868E+04  0.50400001928E-02 0. -1.
    10030    2    1    2    0    0  0.00000000000E+00  0.00000000000E+00  0.16864022712E+04  0.38951858449E+04  0.35111992461E+04 0.  0.
        4    1    3    3  502    0  0.43235210237E+03 -0.11163222553E+04  0.22677793214E+04  0.25643573038E+04  0.12699999809E+01 0.  1.
       -4    1    3    3    0  502 -0.43235210237E+03  0.11163222553E+04 -0.58137705026E+03  0.13308285410E+04  0.12699999809E+01 0. -1.
</event>
<event>
 5   0  0.7838333E-07  0.3410711E+04  0.7818609E-02  0.8135283E-01
        2   -1    0    0  501    0  0.00000000000E+00  0.00000000000E+00  0.20671883385E+04  0.20671883385E+04  0.25500000920E-02 0.  1.
       -2   -1    0    0    0  501  0.00000000000E+00  0.00000000000E+00 -0.14068563034E+04  0.14068563034E+04  0.25500000920E-02 0. -1.
    10030    2    1    2    0    0  0.00000000000E+00  0.00000000000E+00  0.66033203511E+03  0.34740446419E+04  0.34107107437E+04 0.  0.
        1    1    3    3  502    0  0.74607635938E+03  0.14439043708E+04  0.85623224603E+03  0.18370148136E+04  0.50400001928E-02 0.  1.
       -1    1    3    3    0  502 -0.74607635938E+03 -0.14439043708E+04 -0.19590021092E+03  0.16370298283E+04  0.50400001928E-02 0. -1.
</event>
<event>
 5   0  0.7899402E-07  0.3375761E+04  0.7818609E-02  0.8143881E-01
       -2   -1    0    0    0  501  0.00000000000E+00  0.00000000000E+00  0.11209098538E+04  0.11209098538E+04  0.25500000920E-02 0. -1.
        2   -1    0    0  501    0  0.00000000000E+00  0.00000000000E+00 -0.25416327718E+04  0.25416327718E+04  0.25500000920E-02 0.  1.
    10030    2    1    2    0    0  0.00000000000E+00  0.00000000000E+00 -0.14207229180E+04  0.36625426256E+04  0.33757613770E+04 0.  0.
        2    1    3    3  502    0  0.15069546678E+03 -0.88210777216E+03  0.84234168426E+03  0.12289681682E+04  0.25500000920E-02 0. -1.
       -2    1    3    3    0  502 -0.15069546678E+03  0.88210777216E+03 -0.22630646023E+04  0.24335744574E+04  0.25500000920E-02 0.  1.
</event>
<event>
 5   0  0.7610412E-07  0.3401890E+04  0.7818609E-02  0.8137443E-01
       -2   -1    0    0    0  501  0.00000000000E+00  0.00000000000E+00  0.11880275390E+04  0.11880275390E+04  0.25500000920E-02 0.  1.
        2   -1    0    0  501    0  0.00000000000E+00  0.00000000000E+00 -0.24353090795E+04  0.24353090795E+04  0.25500000920E-02 0. -1.
    10030    2    1    2    0    0  0.00000000000E+00  0.00000000000E+00 -0.12472815405E+04  0.36233366186E+04  0.34018902114E+04 0.  0.
        4    1    3    3  502    0 -0.41583288318E+03 -0.11949913689E+04 -0.18344301325E+04  0.22284651405E+04  0.12699999809E+01 0. -1.
       -4    1    3    3    0  502  0.41583288318E+03  0.11949913689E+04  0.58714859202E+03  0.13948714781E+04  0.12699999809E+01 0.  1.
</event>
<event>
 5   0  0.8489228E-07  0.3365716E+04  0.7818609E-02  0.8146372E-01
        2   -1    0    0  501    0  0.00000000000E+00  0.00000000000E+00  0.22390014179E+04  0.22390014179E+04  0.25500000920E-02 0.  1.
       -2   -1    0    0    0  501  0.00000000000E+00  0.00000000000E+00 -0.12648547049E+04  0.12648547049E+04  0.25500000920E-02 0. -1.
    10030    2    1    2    0    0  0.00000000000E+00  0.00000000000E+00  0.97414671296E+03  0.35038561228E+04  0.33657162553E+04 0.  0.
        3    1    3    3  502    0  0.48510108174E+03  0.15540750997E+04  0.43511977818E+02  0.16286085403E+04  0.10100000352E+00 0.  1.
       -3    1    3    3    0  502 -0.48510108174E+03 -0.15540750997E+04  0.93063473515E+03  0.18752475825E+04  0.10100000352E+00 0. -1.
</event>
<event>
 5   0  0.2599367E-07  0.3401528E+04  0.7818609E-02  0.8137531E-01
       -1   -1    0    0    0  501  0.00000000000E+00  0.00000000000E+00  0.13812962544E+04  0.13812962544E+04  0.50400001928E-02 0. -1.
        1   -1    0    0  501    0  0.00000000000E+00  0.00000000000E+00 -0.20941186819E+04  0.20941186819E+04  0.50400001928E-02 0.  1.
    10030    2    1    2    0    0  0.00000000000E+00  0.00000000000E+00 -0.71282242747E+03  0.34754149363E+04  0.34015280634E+04 0.  0.
        2    1    3    3  502    0 -0.77292386531E+03 -0.51629185652E+03  0.10988266818E+04  0.14392319686E+04  0.25500000920E-02 0. -1.
       -2    1    3    3    0  502  0.77292386531E+03  0.51629185652E+03 -0.18116491093E+04  0.20361829677E+04  0.25500000920E-02 0.  1.
</event>
<event>
 5   0  0.7838333E-07  0.3390867E+04  0.7818609E-02  0.8140151E-01
       -2   -1    0    0    0  501  0.00000000000E+00  0.00000000000E+00  0.13882027220E+04  0.13882027220E+04  0.25500000920E-02 0. -1.
        2   -1    0    0  501    0  0.00000000000E+00  0.00000000000E+00 -0.20706594677E+04  0.20706594677E+04  0.25500000920E-02 0.  1.
    10030    2    1    2    0    0  0.00000000000E+00  0.00000000000E+00 -0.68245674569E+03  0.34588621897E+04  0.33908672103E+04 0.  0.
        1    1    3    3  502    0 -0.45361486857E+03 -0.15202842864E+04 -0.95110058175E+03  0.18497629786E+04  0.50400001928E-02 0.  1.
       -1    1    3    3    0  502  0.45361486857E+03  0.15202842864E+04  0.26864383606E+03  0.16090992111E+04  0.50400001928E-02 0. -1.
</event>
<event>
 5   0  0.7610412E-07  0.3402738E+04  0.7818609E-02  0.8137235E-01
        2   -1    0    0  501    0  0.00000000000E+00  0.00000000000E+00  0.13818076572E+04  0.13818076572E+04  0.25500000920E-02 0.  1.
       -2   -1    0    0    0  501  0.00000000000E+00  0.00000000000E+00 -0.20948337065E+04  0.20948337065E+04  0.25500000920E-02 0. -1.
    10030    2    1    2    0    0  0.00000000000E+00  0.00000000000E+00 -0.71302604930E+03  0.34766413637E+04  0.34027384597E+04 0.  0.
        4    1    3    3  502    0 -0.24391884986E+03 -0.13053108530E+04 -0.14432503806E+04  0.19612001688E+04  0.12699999809E+01 0. -1.
       -4    1    3    3    0  502  0.24391884986E+03  0.13053108530E+04  0.73022433133E+03  0.15154411949E+04  0.12699999809E+01 0.  1.
</event>
<event>
 5   0  0.2641442E-07  0.3387835E+04  0.7818609E-02  0.8140899E-01
       -1   -1    0    0    0  501  0.00000000000E+00  0.00000000000E+00  0.28557408751E+04  0.28557408751E+04  0.50400001928E-02 0. -1.
        1   -1    0    0  501    0  0.00000000000E+00  0.00000000000E+00 -0.10047677276E+04  0.10047677276E+04  0.50400001928E-02 0.  1.
    10030    2    1    2    0    0  0.00000000000E+00  0.00000000000E+00  0.18509731475E+04  0.38605086027E+04  0.33878348659E+04 0.  0.
        1    1    3    3  502    0 -0.10513582153E+03  0.46876795752E+03  0.27764836101E+04  0.28177399057E+04  0.50400001928E-02 0. -1.
       -1    1    3    3    0  502  0.10513582153E+03 -0.46876795752E+03 -0.92551046263E+03  0.10427686970E+04  0.50400001928E-02 0.  1.
</event>
<event>
 5   0  0.2599367E-07  0.3345408E+04  0.7818609E-02  0.8151437E-01
       -1   -1    0    0    0  501  0.00000000000E+00  0.00000000000E+00  0.19660065488E+04  0.19660065489E+04  0.50400001928E-02 0.  1.
        1   -1    0    0  501    0  0.00000000000E+00  0.00000000000E+00 -0.14231583039E+04  0.14231583039E+04  0.50400001928E-02 0. -1.
    10030    2    1    2    0    0  0.00000000000E+00  0.00000000000E+00  0.54284824499E+03  0.33891648527E+04  0.33454079246E+04 0.  0.
        2    1    3    3  502    0  0.13275256285E+04  0.41520065806E+03  0.12126742107E+04  0.18453440389E+04  0.25500000920E-02 0.  1.
       -2    1    3    3    0  502 -0.13275256285E+04 -0.41520065806E+03 -0.66982596568E+03  0.15438208138E+04  0.25500000920E-02 0. -1.
</event>
<event>
 5   0  0.2553250E-07  0.3416029E+04  0.7818609E-02  0.8133983E-01
        1   -1    0    0  501    0  0.00000000000E+00  0.00000000000E+00  0.21955349131E+04  0.21955349131E+04  0.50400001928E-02 0. -1.
       -1   -1    0    0    0  501  0.00000000000E+00  0.00000000000E+00 -0.13287482781E+04  0.13287482781E+04  0.50400001928E-02 0.  1.
    10030    2    1    2    0    0  0.00000000000E+00  0.00000000000E+00  0.86678663501E+03  0.35242831912E+04  0.34160288261E+04 0.  0.
        5    1    3    3  502    0 -0.55676343966E+03 -0.98541890147E+03  0.17530920282E+04  0.20867174434E+04  0.46999998093E+01 0. -1.
       -5    1    3    3    0  502  0.55676343966E+03  0.98541890147E+03 -0.88630539324E+03  0.14375657478E+04  0.46999998093E+01 0.  1.
</event>
<event>
 5   0  0.2553250E-07  0.3400171E+04  0.7818609E-02  0.8137864E-01
        3   -1    0    0  501    0  0.00000000000E+00  0.00000000000E+00  0.10086356316E+04  0.10086356366E+04  0.10100000352E+00 0.  1.
       -3   -1    0    0    0  501  0.00000000000E+00  0.00000000000E+00 -0.28655443847E+04  0.28655443865E+04  0.10100000352E+00 0. -1.
    10030    2    1    2    0    0  0.00000000000E+00  0.00000000000E+00 -0.18569087531E+04  0.38741800231E+04  0.34001706919E+04 0.  0.
        3    1    3    3  502    0  0.40968574109E+02 -0.16404647966E+04 -0.42210726784E+03  0.16943959775E+04  0.10100000352E+00 0.  1.
       -3    1    3    3    0  502 -0.40968574109E+02  0.16404647966E+04 -0.14348014853E+04  0.21797840456E+04  0.10100000352E+00 0. -1.
</event>
<event>
 5   0  0.2622205E-07  0.3391415E+04  0.7818609E-02  0.8140017E-01
        1   -1    0    0  501    0  0.00000000000E+00  0.00000000000E+00  0.25615594594E+04  0.25615594594E+04  0.50400001928E-02 0. -1.
       -1   -1    0    0    0  501  0.00000000000E+00  0.00000000000E+00 -0.11225288014E+04  0.11225288014E+04  0.50400001928E-02 0.  1.
    10030    2    1    2    0    0  0.00000000000E+00  0.00000000000E+00  0.14390306580E+04  0.36840882608E+04  0.33914152029E+04 0.  0.
        3    1    3    3  502    0 -0.82363552509E+03 -0.52842812234E+03 -0.78484591377E+03  0.12544301006E+04  0.10100000352E+00 0.  1.
       -3    1    3    3    0  502  0.82363552509E+03  0.52842812234E+03  0.22238765718E+04  0.24296581602E+04  0.10100000352E+00 0. -1.
</event>
<event>
 5   0  0.7610412E-07  0.3398745E+04  0.7818609E-02  0.8138215E-01
       -2   -1    0    0    0  501  0.00000000000E+00  0.00000000000E+00  0.14579684661E+04  0.14579684661E+04  0.25500000920E-02 0. -1.
        2   -1    0    0  501    0  0.00000000000E+00  0.00000000000E+00 -0.19807466348E+04  0.19807466348E+04  0.25500000920E-02 0.  1.
    10030    2    1    2    0    0  0.00000000000E+00  0.00000000000E+00 -0.52277816874E+03  0.34387151010E+04  0.33987445523E+04 0.  0.
        4    1    3    3  502    0 -0.49288577574E+03 -0.11926944560E+04  0.85723914520E+03  0.15492956523E+04  0.12699999809E+01 0. -1.
       -4    1    3    3    0  502  0.49288577574E+03  0.11926944560E+04 -0.13800173139E+04  0.18894194487E+04  0.12699999809E+01 0.  1.
</event>
<event>
 5   0  0.2641442E-07  0.3472631E+04  0.7818609E-02  0.8120307E-01
        1   -1    0    0  501    0  0.00000000000E+00  0.00000000000E+00  0.24044141508E+04  0.24044141508E+04  0.50400001928E-02 0.  1.
       -1   -1    0    0    0  501  0.00000000000E+00  0.00000000000E+00 -0.12538567219E+04  0.12538567219E+04  0.50400001928E-02 0. -1.
    10030    2    1    2    0    0  0.00000000000E+00  0.00000000000E+00  0.11505574289E+04  0.36582708728E+04  0.34726306140E+04 0.  0.
        1    1    3    3  502    0 -0.66546114019E+03  0.10981929886E+04  0.18064844025E+04  0.22163601390E+04  0.50400001928E-02 0.  1.
       -1    1    3    3    0  502  0.66546114019E+03 -0.10981929886E+04 -0.65592697362E+03  0.14419107338E+04  0.50400001928E-02 0. -1.
</event>
<event>
 5   0  0.7822003E-07  0.3131697E+04  0.7818609E-02  0.8207092E-01
       -2   -1    0    0    0  501  0.00000000000E+00  0.00000000000E+00  0.99284893476E+03  0.99284893476E+03  0.25500000920E-02 0.  1.
        2   -1    0    0  501    0  0.00000000000E+00  0.00000000000E+00 -0.24695419180E+04  0.24695419180E+04  0.25500000920E-02 0. -1.
    10030    2    1    2    0    0  0.00000000000E+00  0.00000000000E+00 -0.14766929832E+04  0.34623908527E+04  0.31316973434E+04 0.  0.
        5    1    3    3  502    0  0.54506122388E+03 -0.40875763824E+03 -0.22970737663E+04  0.23959850839E+04  0.46999998093E+01 0. -1.
       -5    1    3    3    0  502 -0.54506122388E+03  0.40875763824E+03  0.82038078306E+03  0.10664057688E+04  0.46999998093E+01 0.  1.
</event>
<event>
 5   0  0.7822003E-07  0.3398461E+04  0.7818609E-02  0.8138284E-01
       -2   -1    0    0    0  501  0.00000000000E+00  0.00000000000E+00  0.18965386705E+04  0.18965386705E+04  0.25500000920E-02 0.  1.
        2   -1    0    0  501    0  0.00000000000E+00  0.00000000000E+00 -0.15224491722E+04  0.15224491722E+04  0.25500000920E-02 0. -1.
    10030    2    1    2    0    0  0.00000000000E+00  0.00000000000E+00  0.37408949835E+03  0.34189878427E+04  0.33984606685E+04 0.  0.
        5    1    3    3  502    0  0.61655409333E+03 -0.15834209224E+04  0.18610557225E+03  0.17093911610E+04  0.46999998093E+01 0. -1.
       -5    1    3    3    0  502 -0.61655409333E+03  0.15834209224E+04  0.18798392610E+03  0.17095966816E+04  0.46999998093E+01 0.  1.
</event>
<event>
 5   0  0.7822003E-07  0.3395933E+04  0.7818609E-02  0.8138905E-01
        2   -1    0    0  501    0  0.00000000000E+00  0.00000000000E+00  0.24719134043E+04  0.24719134043E+04  0.25500000920E-02 0. -1.
       -2   -1    0    0    0  501  0.00000000000E+00  0.00000000000E+00 -0.11663398093E+04  0.11663398093E+04  0.25500000920E-02 0.  1.
    10030    2    1    2    0    0  0.00000000000E+00  0.00000000000E+00  0.13055735950E+04  0.36382532137E+04  0.33959334556E+04 0.  0.
        5    1    3    3  502    0 -0.13627839103E+04 -0.56393133694E+01  0.17379053554E+04  0.22085173538E+04  0.46999998093E+01 0. -1.
       -5    1    3    3    0  502  0.13627839103E+04  0.56393133694E+01 -0.43233176036E+03  0.14297358598E+04  0.46999998093E+01 0.  1.
</event>
<event>
 5   0  0.7899402E-07  0.3417713E+04  0.7818609E-02  0.8133573E-01
       -2   -1    0    0    0  501  0.00000000000E+00  0.00000000000E+00  0.14571334087E+04  0.14571334087E+04  0.25500000920E-02 0.  1.
        2   -1    0    0  501    0  0.00000000000E+00  0.00000000000E+00 -0.20040654941E+04  0.20040654941E+04  0.25500000920E-02 0. -1.
    10030    2    1    2    0    0  0.00000000000E+00  0.00000000000E+00 -0.54693208543E+03  0.34611989028E+04  0.34177131446E+04 0.  0.
        2    1    3    3  502    0 -0.82984888718E+03 -0.71036632083E+03 -0.16043102593E+04  0.19408969302E+04  0.25500000920E-02 0. -1.
       -2    1    3    3    0  502  0.82984888718E+03  0.71036632083E+03  0.10573781739E+04  0.15203019726E+04  0.25500000920E-02 0.  1.
</event>
<event>
 5   0  0.2592200E-07  0.3392570E+04  0.7818609E-02  0.8139732E-01
       -1   -1    0    0    0  501  0.00000000000E+00  0.00000000000E+00  0.14298118543E+04  0.14298118543E+04  0.50400001928E-02 0.  1.
        1   -1    0    0  501    0  0.00000000000E+00  0.00000000000E+00 -0.20124208294E+04  0.20124208294E+04  0.50400001928E-02 0. -1.
    10030    2    1    2    0    0  0.00000000000E+00  0.00000000000E+00 -0.58260897515E+03  0.34422326837E+04  0.33925702102E+04 0.  0.
        4    1    3    3  502    0 -0.13390199830E+04 -0.79881396670E+03  0.38653430092E+03  0.16063899424E+04  0.12699999809E+01 0.  1.
       -4    1    3    3    0  502  0.13390199830E+04  0.79881396670E+03 -0.96914327607E+03  0.18358427413E+04  0.12699999809E+01 0. -1.
</event>
<event>
 5   0  0.7838333E-07  0.3443086E+04  0.7818609E-02  0.8127412E-01
        2   -1    0    0  501    0  0.00000000000E+00  0.00000000000E+00  0.20651780879E+04  0.20651780879E+04  0.25500000920E-02 0. -1.
       -2   -1    0    0    0  501  0.00000000000E+00  0.00000000000E+00 -0.14350871232E+04  0.14350871232E+04  0.25500000920E-02 0.  1.
    10030    2    1    2    0    0  0.00000000000E+00  0.00000000000E+00  0.63009096464E+03  0.35002652111E+04  0.34430861047E+04 0.  0.
        1    1    3    3  502    0 -0.68598119031E+03 -0.11428906250E+04 -0.79251560743E+03  0.15507579315E+04  0.50400001928E-02 0.  1.
       -1    1    3    3    0  502  0.68598119031E+03  0.11428906250E+04  0.14226065721E+04  0.19495072796E+04  0.50400001928E-02 0. -1.
</event>
<event>
 5   0  0.7822003E-07  0.3688895E+04  0.7818609E-02  0.8070427E-01
        2   -1    0    0  501    0  0.00000000000E+00  0.00000000000E+00  0.22174597705E+04  0.22174597705E+04  0.25500000920E-02 0. -1.
       -2   -1    0    0    0  501  0.00000000000E+00  0.00000000000E+00 -0.15341817499E+04  0.15341817499E+04  0.25500000920E-02 0.  1.
    10030    2    1    2    0    0  0.00000000000E+00  0.00000000000E+00  0.68327802061E+03  0.37516415204E+04  0.36888948540E+04 0.  0.
        5    1    3    3  502    0  0.78245495759E+03 -0.63781915356E+03  0.19115656168E+04  0.21617479572E+04  0.46999998093E+01 0. -1.
       -5    1    3    3    0  502 -0.78245495759E+03  0.63781915356E+03 -0.12282875962E+04  0.15898935632E+04  0.46999998093E+01 0.  1.
</event>
<event>
 5   0  0.7610412E-07  0.3393760E+04  0.7818609E-02  0.8139440E-01
       -2   -1    0    0    0  501  0.00000000000E+00  0.00000000000E+00  0.14630244321E+04  0.14630244321E+04  0.25500000920E-02 0.  1.
        2   -1    0    0  501    0  0.00000000000E+00  0.00000000000E+00 -0.19681153867E+04  0.19681153867E+04  0.25500000920E-02 0. -1.
    10030    2    1    2    0    0  0.00000000000E+00  0.00000000000E+00 -0.50509095463E+03  0.34311398189E+04  0.33937595059E+04 0.  0.
        4    1    3    3  502    0  0.61765995825E+02  0.16214209835E+04 -0.75458132150E+03  0.17894735616E+04  0.12699999809E+01 0. -1.
       -4    1    3    3    0  502 -0.61765995825E+02 -0.16214209835E+04  0.24949036686E+03  0.16416662572E+04  0.12699999809E+01 0.  1.
</event>
<event>
 5   0  0.8489228E-07  0.3386593E+04  0.7818609E-02  0.8141205E-01
       -2   -1    0    0    0  501  0.00000000000E+00  0.00000000000E+00  0.20326318259E+04  0.20326318259E+04  0.25500000920E-02 0. -1.
        2   -1    0    0  501    0  0.00000000000E+00  0.00000000000E+00 -0.14106110570E+04  0.14106110570E+04  0.25500000920E-02 0.  1.
    10030    2    1    2    0    0  0.00000000000E+00  0.00000000000E+00  0.62202076889E+03  0.34432428830E+04  0.33865929360E+04 0.  0.
        3    1    3    3  502    0  0.11741168909E+04 -0.60763870205E+02  0.15500048836E+04  0.19454454171E+04  0.10100000352E+00 0. -1.
       -3    1    3    3    0  502 -0.11741168909E+04  0.60763870205E+02 -0.92798411474E+03  0.14977974659E+04  0.10100000352E+00 0.  1.
</event>
<event>
 5   0  0.7822003E-07  0.3420242E+04  0.7818609E-02  0.8132956E-01
       -2   -1    0    0    0  501  0.00000000000E+00  0.00000000000E+00  0.26097252858E+04  0.26097252858E+04  0.25500000920E-02 0.  1.
        2   -1    0    0  501    0  0.00000000000E+00  0.00000000000E+00 -0.11206215929E+04  0.11206215929E+04  0.25500000920E-02 0. -1.
    10030    2    1    2    0    0  0.00000000000E+00  0.00000000000E+00  0.14891036929E+04  0.37303468787E+04  0.34202423930E+04 0.  0.
        5    1    3    3  502    0 -0.66331782239E+03 -0.22308134806E+03 -0.95728657434E+03  0.11858227088E+04  0.46999998093E+01 0. -1.
       -5    1    3    3    0  502  0.66331782239E+03  0.22308134806E+03  0.24463902672E+04  0.25445241698E+04  0.46999998093E+01 0.  1.
</event>
<event>
 5   0  0.2592200E-07  0.3393801E+04  0.7818609E-02  0.8139429E-01
       -1   -1    0    0    0  501  0.00000000000E+00  0.00000000000E+00  0.12961132301E+04  0.12961132301E+04  0.50400001928E-02 0.  1.
        1   -1    0    0  501    0  0.00000000000E+00  0.00000000000E+00 -0.22216202411E+04  0.22216202412E+04  0.50400001928E-02 0. -1.
    10030    2    1    2    0    0  0.00000000000E+00  0.00000000000E+00 -0.92550701101E+03  0.35177334713E+04  0.33938010472E+04 0.  0.
        4    1    3    3  502    0  0.13300534578E+04 -0.78747193012E+03 -0.11885491831E+04  0.19498217906E+04  0.12699999809E+01 0. -1.
       -4    1    3    3    0  502 -0.13300534578E+04  0.78747193012E+03  0.26304217206E+03  0.15679116807E+04  0.12699999809E+01 0.  1.
</event>
<event>
 5   0  0.2622205E-07  0.3402873E+04  0.7818609E-02  0.8137201E-01
        1   -1    0    0  501    0  0.00000000000E+00  0.00000000000E+00  0.17023954716E+04  0.17023954716E+04  0.50400001928E-02 0.  1.
       -1   -1    0    0    0  501  0.00000000000E+00  0.00000000000E+00 -0.17004783496E+04  0.17004783496E+04  0.50400001928E-02 0. -1.
    10030    2    1    2    0    0  0.00000000000E+00  0.00000000000E+00  0.19171219395E+01  0.34028738212E+04  0.34028732811E+04 0.  0.
        3    1    3    3  502    0 -0.89659012590E+03  0.13223035709E+04 -0.58429877811E+03  0.17011071864E+04  0.10100000352E+00 0. -1.
       -3    1    3    3    0  502  0.89659012590E+03 -0.13223035709E+04  0.58621590005E+03  0.17017666347E+04  0.10100000352E+00 0.  1.
</event>
<event>
 5   0  0.2553250E-07  0.3390722E+04  0.7818609E-02  0.8140187E-01
       -1   -1    0    0    0  501  0.00000000000E+00  0.00000000000E+00  0.24459709568E+04  0.24459709568E+04  0.50400001928E-02 0. -1.
        1   -1    0    0  501    0  0.00000000000E+00  0.00000000000E+00 -0.11750952633E+04  0.11750952634E+04  0.50400001928E-02 0.  1.
    10030    2    1    2    0    0  0.00000000000E+00  0.00000000000E+00  0.12708756934E+04  0.36210662201E+04  0.33907219795E+04 0.  0.
        5    1    3    3  502    0 -0.10973149035E+04 -0.15952695218E+03 -0.73413368632E+03  0.13298583403E+04  0.46999998093E+01 0.  1.
       -5    1    3    3    0  502  0.10973149035E+04  0.15952695218E+03  0.20050093797E+04  0.22912078798E+04  0.46999998093E+01 0. -1.
</event>
<event>
 5   0  0.7838333E-07  0.3350415E+04  0.7818609E-02  0.8150184E-01
       -2   -1    0    0    0  501  0.00000000000E+00  0.00000000000E+00  0.14039275466E+04  0.14039275466E+04  0.25500000920E-02 0. -1.
        2   -1    0    0  501    0  0.00000000000E+00  0.00000000000E+00 -0.19989065430E+04  0.19989065430E+04  0.25500000920E-02 0.  1.
    10030    2    1    2    0    0  0.00000000000E+00  0.00000000000E+00 -0.59497899641E+03  0.34028340897E+04  0.33504148751E+04 0.  0.
        1    1    3    3  502    0 -0.96858048783E+03  0.11750646171E+03 -0.16805452396E+04  0.19432416814E+04  0.50400001928E-02 0.  1.
       -1    1    3    3    0  502  0.96858048783E+03 -0.11750646171E+03  0.10855662432E+04  0.14595924083E+04  0.50400001928E-02 0. -1.
</event>
<event>
 5   0  0.7822003E-07  0.3415020E+04  0.7818609E-02  0.8134230E-01
        2   -1    0    0  501    0  0.00000000000E+00  0.00000000000E+00  0.26521874314E+04  0.26521874314E+04  0.25500000920E-02 0.  1.
       -2   -1    0    0    0  501  0.00000000000E+00  0.00000000000E+00 -0.10993155829E+04  0.10993155829E+04  0.25500000920E-02 0. -1.
    10030    2    1    2    0    0  0.00000000000E+00  0.00000000000E+00  0.15528718485E+04  0.37515030143E+04  0.34150203350E+04 0.  0.
        5    1    3    3  502    0  0.12880618494E+04  0.27533333556E+03 -0.41720554580E+03  0.13816636099E+04  0.46999998093E+01 0. -1.
       -5    1    3    3    0  502 -0.12880618494E+04 -0.27533333556E+03  0.19700773943E+04  0.23698394044E+04  0.46999998093E+01 0.  1.
</event>
<event>
 5   0  0.2553250E-07  0.3406820E+04  0.7818609E-02  0.8136234E-01
        1   -1    0    0  501    0  0.00000000000E+00  0.00000000000E+00  0.12508663360E+04  0.12508663360E+04  0.50400001928E-02 0.  1.
       -1   -1    0    0    0  501  0.00000000000E+00  0.00000000000E+00 -0.23196771596E+04  0.23196771596E+04  0.50400001928E-02 0. -1.
    10030    2    1    2    0    0  0.00000000000E+00  0.00000000000E+00 -0.10688108236E+04  0.35705434956E+04  0.34068202590E+04 0.  0.
        5    1    3    3  502    0 -0.12036509159E+04  0.52906374000E+03 -0.16694570032E+04  0.21250394688E+04  0.46999998093E+01 0. -1.
       -5    1    3    3    0  502  0.12036509159E+04 -0.52906374000E+03  0.60064617965E+03  0.14455040268E+04  0.46999998093E+01 0.  1.
</event>
<event>
 5   0  0.2641442E-07  0.3405200E+04  0.7818609E-02  0.8136631E-01
       -1   -1    0    0    0  501  0.00000000000E+00  0.00000000000E+00  0.20300085306E+04  0.20300085307E+04  0.50400001928E-02 0.  1.
        1   -1    0    0  501    0  0.00000000000E+00  0.00000000000E+00 -0.14279972963E+04  0.14279972964E+04  0.50400001928E-02 0. -1.
    10030    2    1    2    0    0  0.00000000000E+00  0.00000000000E+00  0.60201123430E+03  0.34580058270E+04  0.34051999608E+04 0.  0.
        1    1    3    3  502    0  0.13588682151E+04 -0.89094312977E+03  0.81736313756E+03  0.18188966395E+04  0.50400001928E-02 0.  1.
       -1    1    3    3    0  502 -0.13588682151E+04  0.89094312977E+03 -0.21535190326E+03  0.16391091875E+04  0.50400001928E-02 0. -1.
</event>
<event>
 5   0  0.7610412E-07  0.3394407E+04  0.7818609E-02  0.8139280E-01
       -2   -1    0    0    0  501  0.00000000000E+00  0.00000000000E+00  0.14463039524E+04  0.14463039524E+04  0.25500000920E-02 0.  1.
        2   -1    0    0  501    0  0.00000000000E+00  0.00000000000E+00 -0.19916277235E+04  0.19916277235E+04  0.25500000920E-02 0. -1.
    10030    2    1    2    0    0  0.00000000000E+00  0.00000000000E+00 -0.54532377107E+03  0.34379316758E+04  0.33944066039E+04 0.  0.
        4    1    3    3  502    0 -0.32839752479E+03 -0.34869037079E+03  0.13764258915E+04  0.14573879911E+04  0.12699999809E+01 0.  1.
       -4    1    3    3    0  502  0.32839752479E+03  0.34869037079E+03 -0.19217496625E+04  0.19805436848E+04  0.12699999809E+01 0. -1.
</event>
<event>
 5   0  0.2641442E-07  0.3283042E+04  0.7818609E-02  0.8167224E-01
        1   -1    0    0  501    0  0.00000000000E+00  0.00000000000E+00  0.25610565167E+04  0.25610565167E+04  0.50400001928E-02 0.  1.
       -1   -1    0    0    0  501  0.00000000000E+00  0.00000000000E+00 -0.10521402348E+04  0.10521402348E+04  0.50400001928E-02 0. -1.
    10030    2    1    2    0    0  0.00000000000E+00  0.00000000000E+00  0.15089162819E+04  0.36131967516E+04  0.32830416415E+04 0.  0.
        1    1    3    3  502    0  0.12560126274E+03 -0.11245222763E+03  0.25515037169E+04  0.25570671477E+04  0.50400001928E-02 0.  1.
       -1    1    3    3    0  502 -0.12560126274E+03  0.11245222763E+03 -0.10425874349E+04  0.10561296039E+04  0.50400001928E-02 0. -1.
</event>
<event>
 5   0  0.7610412E-07  0.3402134E+04  0.7818609E-02  0.8137383E-01
       -2   -1    0    0    0  501  0.00000000000E+00  0.00000000000E+00  0.89955566558E+03  0.89955566558E+03  0.25500000920E-02 0. -1.
        2   -1    0    0  501    0  0.00000000000E+00  0.00000000000E+00 -0.32167306307E+04  0.32167306307E+04  0.25500000920E-02 0.  1.
    10030    2    1    2    0    0  0.00000000000E+00  0.00000000000E+00 -0.23171749651E+04  0.41162862963E+04  0.34021336032E+04 0.  0.
        4    1    3    3  502    0 -0.67332057799E+03  0.96626689843E+02  0.72784113311E+03  0.99621867373E+03  0.12699999809E+01 0. -1.
       -4    1    3    3    0  502  0.67332057799E+03 -0.96626689843E+02 -0.30450160982E+04  0.31200676226E+04  0.12699999809E+01 0.  1.
</event>
<event>
 5   0  0.7838333E-07  0.3381767E+04  0.7818609E-02  0.8142396E-01
        2   -1    0    0  501    0  0.00000000000E+00  0.00000000000E+00  0.11239454453E+04  0.11239454453E+04  0.25500000920E-02 0. -1.
       -2   -1    0    0    0  501  0.00000000000E+00  0.00000000000E+00 -0.25437959273E+04  0.25437959273E+04  0.25500000920E-02 0.  1.
    10030    2    1    2    0    0  0.00000000000E+00  0.00000000000E+00 -0.14198504820E+04  0.36677413726E+04  0.33817674942E+04 0.  0.
        1    1    3    3  502    0 -0.14174154692E+03 -0.16221636344E+04 -0.12040653912E+04  0.20251614724E+04  0.50400001928E-02 0. -1.
       -1    1    3    3    0  502  0.14174154692E+03  0.16221636344E+04 -0.21578509073E+03  0.16425799002E+04  0.50400001928E-02 0.  1.
</event>
<event>
 5   0  0.2553250E-07  0.3358841E+04  0.7818609E-02  0.8148083E-01
       -4   -1    0    0    0  501  0.00000000000E+00  0.00000000000E+00  0.11371731655E+04  0.11371738746E+04  0.12699999809E+01 0.  1.
        4   -1    0    0  501    0  0.00000000000E+00  0.00000000000E+00 -0.24802297484E+04  0.24802300735E+04  0.12699999809E+01 0. -1.
    10030    2    1    2    0    0  0.00000000000E+00  0.00000000000E+00 -0.13430565829E+04  0.36174039482E+04  0.33588406243E+04 0.  0.
        4    1    3    3  502    0 -0.13112828407E+03  0.13625852910E+04  0.37631156715E+03  0.14196638019E+04  0.12699999809E+01 0.  1.
       -4    1    3    3    0  502  0.13112828407E+03 -0.13625852910E+04 -0.17193681501E+04  0.21977401463E+04  0.12699999809E+01 0. -1.
</event>
<event>
 5   0  0.2641442E-07  0.3393069E+04  0.7818609E-02  0.8139610E-01
        1   -1    0    0  501    0  0.00000000000E+00  0.00000000000E+00  0.25797523981E+04  0.25797523982E+04  0.50400001928E-02 0. -1.
       -1   -1    0    0    0  501  0.00000000000E+00  0.00000000000E+00 -0.11156995789E+04  0.11156995789E+04  0.50400001928E-02 0.  1.
    10030    2    1    2    0    0  0.00000000000E+00  0.00000000000E+00  0.14640528192E+04  0.36954519771E+04  0.33930686196E+04 0.  0.
        1    1    3    3  502    0 -0.15772915867E+04 -0.61102232958E+02  0.54803059619E+02  0.15794257208E+04  0.50400001928E-02 0.  1.
       -1    1    3    3    0  502  0.15772915867E+04  0.61102232958E+02  0.14092497596E+04  0.21160262563E+04  0.50400001928E-02 0. -1.
</event>
<event>
 5   0  0.2553250E-07  0.3403864E+04  0.7818609E-02  0.8136959E-01
       -3   -1    0    0    0  501  0.00000000000E+00  0.00000000000E+00  0.18370815915E+04  0.18370815943E+04  0.10100000352E+00 0. -1.
        3   -1    0    0  501    0  0.00000000000E+00  0.00000000000E+00 -0.15767246248E+04  0.15767246280E+04  0.10100000352E+00 0.  1.
    10030    2    1    2    0    0  0.00000000000E+00  0.00000000000E+00  0.26035696676E+03  0.34138062223E+04  0.34038635656E+04 0.  0.
        4    1    3    3  502    0  0.12645457853E+04 -0.89477112257E+03  0.83713376645E+03  0.17608196844E+04  0.12699999809E+01 0. -1.
       -4    1    3    3    0  502 -0.12645457853E+04  0.89477112257E+03 -0.57677679969E+03  0.16529865379E+04  0.12699999809E+01 0.  1.
</event>
<event>
 5   0  0.7610412E-07  0.3283813E+04  0.7818609E-02  0.8167026E-01
       -2   -1    0    0    0  501  0.00000000000E+00  0.00000000000E+00  0.21232954528E+04  0.21232954528E+04  0.25500000920E-02 0. -1.
        2   -1    0    0  501    0  0.00000000000E+00  0.00000000000E+00 -0.12696569484E+04  0.12696569484E+04  0.25500000920E-02 0.  1.
    10030    2    1    2    0    0  0.00000000000E+00  0.00000000000E+00  0.85363850441E+03  0.33929524012E+04  0.32838129211E+04 0.  0.
        4    1    3    3  502    0  0.19986727625E+03  0.52960138464E+02  0.21097895705E+04  0.21198974855E+04  0.12699999809E+01 0. -1.
       -4    1    3    3    0  502 -0.19986727625E+03 -0.52960138464E+02 -0.12561510661E+04  0.12730549156E+04  0.12699999809E+01 0.  1.
</event>
<event>
 5   0  0.2592200E-07  0.3409691E+04  0.7818609E-02  0.8135532E-01
       -1   -1    0    0    0  501  0.00000000000E+00  0.00000000000E+00  0.14673890161E+04  0.14673890161E+04  0.50400001928E-02 0. -1.
        1   -1    0    0  501    0  0.00000000000E+00  0.00000000000E+00 -0.19807274149E+04  0.19807274149E+04  0.50400001928E-02 0.  1.
    10030    2    1    2    0    0  0.00000000000E+00  0.00000000000E+00 -0.51333839878E+03  0.34481164311E+04  0.34096906913E+04 0.  0.
        4    1    3    3  502    0 -0.25134288463E+03  0.11724560315E+04  0.96887505428E+03  0.15416052916E+04  0.12699999809E+01 0. -1.
       -4    1    3    3    0  502  0.25134288463E+03 -0.11724560315E+04 -0.14822134531E+04  0.19065111394E+04  0.12699999809E+01 0.  1.
</event>
<event>
 5   0  0.7610412E-07  0.3402801E+04  0.7818609E-02  0.8137219E-01
        2   -1    0    0  501    0  0.00000000000E+00  0.00000000000E+00  0.21806514602E+04  0.21806514602E+04  0.25500000920E-02 0. -1.
       -2   -1    0    0    0  501  0.00000000000E+00  0.00000000000E+00 -0.13274764039E+04  0.13274764039E+04  0.25500000920E-02 0.  1.
    10030    2    1    2    0    0  0.00000000000E+00  0.00000000000E+00  0.85317505638E+03  0.35081278641E+04  0.34028008220E+04 0.  0.
        4    1    3    3  502    0  0.10719164029E+04 -0.88815092384E+03  0.14351025069E+04  0.19993343033E+04  0.12699999809E+01 0. -1.
       -4    1    3    3    0  502 -0.10719164029E+04  0.88815092384E+03 -0.58192745049E+03  0.15087935607E+04  0.12699999809E+01 0.  1.
</event>
<event>
 5   0  0.2599367E-07  0.3413248E+04  0.7818609E-02  0.8134663E-01
       -1   -1    0    0    0  501  0.00000000000E+00  0.00000000000E+00  0.14564413804E+04  0.14564413804E+04  0.50400001928E-02 0. -1.
        1   -1    0    0  501    0  0.00000000000E+00  0.00000000000E+00 -0.19997818922E+04  0.19997818922E+04  0.50400001928E-02 0.  1.
    10030    2    1    2    0    0  0.00000000000E+00  0.00000000000E+00 -0.54334051182E+03  0.34562232726E+04  0.34132477786E+04 0.  0.
        2    1    3    3  502    0 -0.29072957198E+03 -0.63876124786E+03  0.13035596328E+04  0.14804753737E+04  0.25500000920E-02 0. -1.
       -2    1    3    3    0  502  0.29072957198E+03  0.63876124786E+03 -0.18469001446E+04  0.19757478989E+04  0.25500000920E-02 0.  1.
</event>
<event>
 5   0  0.7838333E-07  0.3398365E+04  0.7818609E-02  0.8138308E-01
        2   -1    0    0  501    0  0.00000000000E+00  0.00000000000E+00  0.19828327544E+04  0.19828327544E+04  0.25500000920E-02 0.  1.
       -2   -1    0    0    0  501  0.00000000000E+00  0.00000000000E+00 -0.14561093220E+04  0.14561093220E+04  0.25500000920E-02 0. -1.
    10030    2    1    2    0    0  0.00000000000E+00  0.00000000000E+00  0.52672343242E+03  0.34389420764E+04  0.33983650526E+04 0.  0.
        1    1    3    3  502    0 -0.14470746359E+04  0.17314341378E+03 -0.62069275351E+03  0.15840653831E+04  0.50400001928E-02 0. -1.
       -1    1    3    3    0  502  0.14470746359E+04 -0.17314341378E+03  0.11474161859E+04  0.18548766933E+04  0.50400001928E-02 0.  1.
</event>
<event>
 5   0  0.2622205E-07  0.3384859E+04  0.7818609E-02  0.8141632E-01
       -1   -1    0    0    0  501  0.00000000000E+00  0.00000000000E+00  0.99364598270E+03  0.99364598272E+03  0.50400001928E-02 0. -1.
        1   -1    0    0  501    0  0.00000000000E+00  0.00000000000E+00 -0.28826343632E+04  0.28826343632E+04  0.50400001928E-02 0.  1.
    10030    2    1    2    0    0  0.00000000000E+00  0.00000000000E+00 -0.18889883805E+04  0.38762803460E+04  0.33848592613E+04 0.  0.
        3    1    3    3  502    0  0.10698522417E+04  0.20466075076E+03 -0.24278689901E+04  0.26610181670E+04  0.10100000352E+00 0.  1.
       -3    1    3    3    0  502 -0.10698522417E+04 -0.20466075076E+03  0.53888060955E+03  0.12152621789E+04  0.10100000352E+00 0. -1.
</event>
<event>
 5   0  0.2641442E-07  0.3453243E+04  0.7818609E-02  0.8124961E-01
       -1   -1    0    0    0  501  0.00000000000E+00  0.00000000000E+00  0.24669806810E+04  0.24669806810E+04  0.50400001928E-02 0.  1.
        1   -1    0    0  501    0  0.00000000000E+00  0.00000000000E+00 -0.12084494205E+04  0.12084494205E+04  0.50400001928E-02 0. -1.
    10030    2    1    2    0    0  0.00000000000E+00  0.00000000000E+00  0.12585312605E+04  0.36754301014E+04  0.34532427509E+04 0.  0.
        1    1    3    3  502    0 -0.70487772867E+03 -0.13603100176E+04  0.14766884249E+04  0.21278873703E+04  0.50400001928E-02 0.  1.
       -1    1    3    3    0  502  0.70487772867E+03  0.13603100176E+04 -0.21815716440E+03  0.15475427312E+04  0.50400001928E-02 0. -1.
</event>
<event>
 5   0  0.2622205E-07  0.3400319E+04  0.7818609E-02  0.8137828E-01
        1   -1    0    0  501    0  0.00000000000E+00  0.00000000000E+00  0.24485782167E+04  0.24485782167E+04  0.50400001928E-02 0. -1.
       -1   -1    0    0    0  501  0.00000000000E+00  0.00000000000E+00 -0.11804979692E+04  0.11804979692E+04  0.50400001928E-02 0.  1.
    10030    2    1    2    0    0  0.00000000000E+00  0.00000000000E+00  0.12680802475E+04  0.36290761859E+04  0.34003185805E+04 0.  0.
        3    1    3    3  502    0  0.15480775379E+04  0.65283523975E+03  0.91194945961E+03  0.19116458199E+04  0.10100000352E+00 0. -1.
       -3    1    3    3    0  502 -0.15480775379E+04 -0.65283523975E+03  0.35613078790E+03  0.17174303660E+04  0.10100000352E+00 0.  1.
</event>
<event>
 5   0  0.8489228E-07  0.3455415E+04  0.7818609E-02  0.8124438E-01
       -2   -1    0    0    0  501  0.00000000000E+00  0.00000000000E+00  0.15252080031E+04  0.15252080031E+04  0.25500000920E-02 0.  1.
        2   -1    0    0  501    0  0.00000000000E+00  0.00000000000E+00 -0.19570919971E+04  0.19570919971E+04  0.25500000920E-02 0. -1.
    10030    2    1    2    0    0  0.00000000000E+00  0.00000000000E+00 -0.43188399406E+03  0.34823000002E+04  0.34554145203E+04 0.  0.
        3    1    3    3  502    0  0.11307207555E+04  0.40100755556E+02 -0.15317944327E+04  0.19043454759E+04  0.10100000352E+00 0. -1.
       -3    1    3    3    0  502 -0.11307207555E+04 -0.40100755556E+02  0.10999104387E+04  0.15779545243E+04  0.10100000352E+00 0.  1.
</event>
<event>
 5   0  0.7899402E-07  0.3406401E+04  0.7818609E-02  0.8136337E-01
       -2   -1    0    0    0  501  0.00000000000E+00  0.00000000000E+00  0.11836880208E+04  0.11836880208E+04  0.25500000920E-02 0.  1.
        2   -1    0    0  501    0  0.00000000000E+00  0.00000000000E+00 -0.24507240430E+04  0.24507240430E+04  0.25500000920E-02 0. -1.
    10030    2    1    2    0    0  0.00000000000E+00  0.00000000000E+00 -0.12670360222E+04  0.36344120638E+04  0.34064014396E+04 0.  0.
        2    1    3    3  502    0  0.47277489268E+03 -0.95792573132E+03  0.78183387375E+03  0.13237832194E+04  0.25500000920E-02 0.  1.
       -2    1    3    3    0  502 -0.47277489268E+03  0.95792573132E+03 -0.20488698960E+04  0.23106288444E+04  0.25500000920E-02 0. -1.
</event>
<event>
 5   0  0.2592200E-07  0.3440936E+04  0.7818609E-02  0.8127932E-01
        1   -1    0    0  501    0  0.00000000000E+00  0.00000000000E+00  0.10528551600E+04  0.10528551600E+04  0.50400001928E-02 0.  1.
       -1   -1    0    0    0  501  0.00000000000E+00  0.00000000000E+00 -0.28114130245E+04  0.28114130245E+04  0.50400001928E-02 0. -1.
    10030    2    1    2    0    0  0.00000000000E+00  0.00000000000E+00 -0.17585578645E+04  0.38642681845E+04  0.34409363317E+04 0.  0.
        4    1    3    3  502    0 -0.11937983963E+04  0.11836584351E+04 -0.12900788572E+04  0.21190816343E+04  0.12699999809E+01 0.  1.
       -4    1    3    3    0  502  0.11937983963E+04 -0.11836584351E+04 -0.46847900726E+03  0.17451865502E+04  0.12699999809E+01 0. -1.
</event>
<event>
 5   0  0.7610412E-07  0.3371586E+04  0.7818609E-02  0.8144915E-01
        2   -1    0    0  501    0  0.00000000000E+00  0.00000000000E+00  0.12915197543E+04  0.12915197543E+04  0.25500000920E-02 0.  1.
       -2   -1    0    0    0  501  0.00000000000E+00  0.00000000000E+00 -0.22004291580E+04  0.22004291580E+04  0.25500000920E-02 0. -1.
    10030    2    1    2    0    0  0.00000000000E+00  0.00000000000E+00 -0.90890940376E+03  0.34919489123E+04  0.33715858141E+04 0.  0.
        4    1    3    3  502    0  0.65764480727E+03 -0.10047149637E+04  0.77097809983E+03  0.14270100540E+04  0.12699999809E+01 0.  1.
       -4    1    3    3    0  502 -0.65764480727E+03  0.10047149637E+04 -0.16798875036E+04  0.20649388583E+04  0.12699999809E+01 0. -1.
</event>
<event>
 5   0  0.7822003E-07  0.3415816E+04  0.7818609E-02  0.8134035E-01
        2   -1    0    0  501    0  0.00000000000E+00  0.00000000000E+00  0.10184996703E+04  0.10184996703E+04  0.25500000920E-02 0.  1.
       -2   -1    0    0    0  501  0.00000000000E+00  0.00000000000E+00 -0.28639676001E+04  0.28639676001E+04  0.25500000920E-02 0. -1.
    10030    2    1    2    0    0  0.00000000000E+00  0.00000000000E+00 -0.18454679299E+04  0.38824672704E+04  0.34158161873E+04 0.  0.
        5    1    3    3  502    0  0.11498749697E+04  0.12453482420E+04 -0.11606730203E+04  0.20543341111E+04  0.46999998093E+01 0. -1.
       -5    1    3    3    0  502 -0.11498749697E+04 -0.12453482420E+04 -0.68479490963E+03  0.18281331593E+04  0.46999998093E+01 0.  1.
</event>
<event>
 5   0  0.2592200E-07  0.3390984E+04  0.7818609E-02  0.8140123E-01
        1   -1    0    0  501    0  0.00000000000E+00  0.00000000000E+00  0.13690913109E+04  0.13690913109E+04  0.50400001928E-02 0.  1.
       -1   -1    0    0    0  501  0.00000000000E+00  0.00000000000E+00 -0.20997086423E+04  0.20997086424E+04  0.50400001928E-02 0. -1.
    10030    2    1    2    0    0  0.00000000000E+00  0.00000000000E+00 -0.73061733142E+03  0.34687999533E+04  0.33909838441E+04 0.  0.
        4    1    3    3  502    0  0.15833527706E+04 -0.42891092178E+03  0.73153923668E+02  0.16420486242E+04  0.12699999809E+01 0.  1.
       -4    1    3    3    0  502 -0.15833527706E+04  0.42891092178E+03 -0.80377125509E+03  0.18267513291E+04  0.12699999809E+01 0. -1.
</event>
<event>
 5   0  0.7838333E-07  0.3399607E+04  0.7818609E-02  0.8138003E-01
       -2   -1    0    0    0  501  0.00000000000E+00  0.00000000000E+00  0.12300070772E+04  0.12300070772E+04  0.25500000920E-02 0.  1.
        2   -1    0    0  501    0  0.00000000000E+00  0.00000000000E+00 -0.23490369675E+04  0.23490369675E+04  0.25500000920E-02 0. -1.
    10030    2    1    2    0    0  0.00000000000E+00  0.00000000000E+00 -0.11190298903E+04  0.35790440448E+04  0.33996070918E+04 0.  0.
        1    1    3    3  502    0  0.12503513413E+04 -0.56051884830E+03 -0.16184752867E+04  0.21206183319E+04  0.50400001928E-02 0. -1.
       -1    1    3    3    0  502 -0.12503513413E+04  0.56051884830E+03  0.49944539639E+03  0.14584257129E+04  0.50400001928E-02 0.  1.
</event>
<event>
 5   0  0.2641442E-07  0.3394070E+04  0.7818609E-02  0.8139363E-01
       -1   -1    0    0    0  501  0.00000000000E+00  0.00000000000E+00  0.10576319205E+04  0.10576319205E+04  0.50400001928E-02 0.  1.
        1   -1    0    0  501    0  0.00000000000E+00  0.00000000000E+00 -0.27229969393E+04  0.27229969393E+04  0.50400001928E-02 0. -1.
    10030    2    1    2    0    0  0.00000000000E+00  0.00000000000E+00 -0.16653650188E+04  0.37806288597E+04  0.33940704072E+04 0.  0.
        1    1    3    3  502    0  0.95346608347E+03  0.14036344440E+04 -0.86088967840E+03  0.19027396729E+04  0.50400001928E-02 0. -1.
       -1    1    3    3    0  502 -0.95346608347E+03 -0.14036344440E+04 -0.80447534040E+03  0.18778891868E+04  0.50400001928E-02 0.  1.
</event>
<event>
 5   0  0.7838333E-07  0.3344984E+04  0.7818609E-02  0.8151543E-01
       -2   -1    0    0    0  501  0.00000000000E+00  0.00000000000E+00  0.18590852066E+04  0.18590852066E+04  0.25500000920E-02 0.  1.
        2   -1    0    0  501    0  0.00000000000E+00  0.00000000000E+00 -0.15046265974E+04  0.15046265974E+04  0.25500000920E-02 0. -1.
    10030    2    1    2    0    0  0.00000000000E+00  0.00000000000E+00  0.35445860913E+03  0.33637118040E+04  0.33449837361E+04 0.  0.
        1    1    3    3  502    0 -0.13846630048E+04  0.48318177811E+03 -0.63130768084E+03  0.15966545197E+04  0.50400001928E-02 0. -1.
       -1    1    3    3    0  502  0.13846630048E+04 -0.48318177811E+03  0.98576628997E+03  0.17670572843E+04  0.50400001928E-02 0.  1.
</event>
<event>
 5   0  0.2592200E-07  0.3369587E+04  0.7818609E-02  0.8145411E-01
       -1   -1    0    0    0  501  0.00000000000E+00  0.00000000000E+00  0.10902766329E+04  0.10902766329E+04  0.50400001928E-02 0.  1.
        1   -1    0    0  501    0  0.00000000000E+00  0.00000000000E+00 -0.26034950107E+04  0.26034950107E+04  0.50400001928E-02 0. -1.
    10030    2    1    2    0    0  0.00000000000E+00  0.00000000000E+00 -0.15132183778E+04  0.36937716436E+04  0.33695873778E+04 0.  0.
        4    1    3    3  502    0 -0.15388158046E+04  0.68598377861E+03 -0.75597349872E+03  0.18466254002E+04  0.12699999809E+01 0. -1.
       -4    1    3    3    0  502  0.15388158046E+04 -0.68598377861E+03 -0.75724487909E+03  0.18471462435E+04  0.12699999809E+01 0.  1.
</event>
<event>
 5   0  0.7899402E-07  0.3393892E+04  0.7818609E-02  0.8139407E-01
        2   -1    0    0  501    0  0.00000000000E+00  0.00000000000E+00  0.21107768111E+04  0.21107768111E+04  0.25500000920E-02 0. -1.
       -2   -1    0    0    0  501  0.00000000000E+00  0.00000000000E+00 -0.13642491083E+04  0.13642491083E+04  0.25500000920E-02 0.  1.
    10030    2    1    2    0    0  0.00000000000E+00  0.00000000000E+00  0.74652770273E+03  0.34750259194E+04  0.33938917970E+04 0.  0.
        2    1    3    3  502    0  0.98483090792E+03 -0.12024053662E+04 -0.32416176106E+03  0.15876874469E+04  0.25500000920E-02 0.  1.
       -2    1    3    3    0  502 -0.98483090792E+03  0.12024053662E+04  0.10706894638E+04  0.18873384725E+04  0.25500000920E-02 0. -1.
</event>
<event>
 5   0  0.7899402E-07  0.3407666E+04  0.7818609E-02  0.8136027E-01
        2   -1    0    0  501    0  0.00000000000E+00  0.00000000000E+00  0.20139417575E+04  0.20139417575E+04  0.25500000920E-02 0. -1.
       -2   -1    0    0    0  501  0.00000000000E+00  0.00000000000E+00 -0.14414751145E+04  0.14414751145E+04  0.25500000920E-02 0.  1.
    10030    2    1    2    0    0  0.00000000000E+00  0.00000000000E+00  0.57246664296E+03  0.34554168720E+04  0.34076660197E+04 0.  0.
        2    1    3    3  502    0  0.14307374995E+04 -0.22034230991E+02  0.12241549185E+04  0.18830960051E+04  0.25500000920E-02 0. -1.
       -2    1    3    3    0  502 -0.14307374995E+04  0.22034230991E+02 -0.65168827553E+03  0.15723208669E+04  0.25500000920E-02 0.  1.
</event>
<event>
 5   0  0.2592200E-07  0.3502193E+04  0.7818609E-02  0.8113270E-01
        1   -1    0    0  501    0  0.00000000000E+00  0.00000000000E+00  0.22784091426E+04  0.22784091426E+04  0.50400001928E-02 0. -1.
       -1   -1    0    0    0  501  0.00000000000E+00  0.00000000000E+00 -0.13458244317E+04  0.13458244317E+04  0.50400001928E-02 0.  1.
    10030    2    1    2    0    0  0.00000000000E+00  0.00000000000E+00  0.93258471087E+03  0.36242335743E+04  0.35021928500E+04 0.  0.
        4    1    3    3  502    0  0.14229206594E+04  0.95736437560E+03  0.10029093022E+03  0.17179376107E+04  0.12699999809E+01 0. -1.
       -4    1    3    3    0  502 -0.14229206594E+04 -0.95736437560E+03  0.83229378065E+03  0.19062959636E+04  0.12699999809E+01 0.  1.
</event>
<event>
 5   0  0.2553250E-07  0.3550575E+04  0.7818609E-02  0.8101908E-01
        1   -1    0    0  501    0  0.00000000000E+00  0.00000000000E+00  0.18874517969E+04  0.18874517969E+04  0.50400001928E-02 0.  1.
       -1   -1    0    0    0  501  0.00000000000E+00  0.00000000000E+00 -0.16697884186E+04  0.16697884186E+04  0.50400001928E-02 0. -1.
    10030    2    1    2    0    0  0.00000000000E+00  0.00000000000E+00  0.21766337829E+03  0.35572402155E+04  0.35505746865E+04 0.  0.
        5    1    3    3  502    0  0.49338618490E+03 -0.15221649395E+04  0.87917503573E+03  0.18257565183E+04  0.46999998093E+01 0.  1.
       -5    1    3    3    0  502 -0.49338618490E+03  0.15221649395E+04 -0.66151165744E+03  0.17314836972E+04  0.46999998093E+01 0. -1.
</event>
<event>
 5   0  0.2599367E-07  0.3399241E+04  0.7818609E-02  0.8138093E-01
       -1   -1    0    0    0  501  0.00000000000E+00  0.00000000000E+00  0.18070809711E+04  0.18070809711E+04  0.50400001928E-02 0.  1.
        1   -1    0    0  501    0  0.00000000000E+00  0.00000000000E+00 -0.15985501365E+04  0.15985501365E+04  0.50400001928E-02 0. -1.
    10030    2    1    2    0    0  0.00000000000E+00  0.00000000000E+00  0.20853083464E+03  0.34056311076E+04  0.33992408171E+04 0.  0.
        2    1    3    3  502    0 -0.15080011223E+04  0.17319016950E+03 -0.66179434294E+03  0.16559088055E+04  0.25500000920E-02 0. -1.
       -2    1    3    3    0  502  0.15080011223E+04 -0.17319016950E+03  0.87032517758E+03  0.17497223021E+04  0.25500000920E-02 0.  1.
</event>
<event>
 5   0  0.8489228E-07  0.3370924E+04  0.7818609E-02  0.8145080E-01
       -2   -1    0    0    0  501  0.00000000000E+00  0.00000000000E+00  0.11975579613E+04  0.11975579613E+04  0.25500000920E-02 0. -1.
        2   -1    0    0  501    0  0.00000000000E+00  0.00000000000E+00 -0.23721456225E+04  0.23721456225E+04  0.25500000920E-02 0.  1.
    10030    2    1    2    0    0  0.00000000000E+00  0.00000000000E+00 -0.11745876611E+04  0.35697035838E+04  0.33709238352E+04 0.  0.
        3    1    3    3  502    0 -0.11495565585E+04 -0.97293847684E+01 -0.18925377563E+04  0.22143337850E+04  0.10100000352E+00 0.  1.
       -3    1    3    3    0  502  0.11495565585E+04  0.97293847684E+01  0.71795009519E+03  0.13553697988E+04  0.10100000352E+00 0. -1.
</event>
<event>
 5   0  0.2599367E-07  0.3392587E+04  0.7818609E-02  0.8139728E-01
        1   -1    0    0  501    0  0.00000000000E+00  0.00000000000E+00  0.15187913544E+04  0.15187913544E+04  0.50400001928E-02 0. -1.
       -1   -1    0    0    0  501  0.00000000000E+00  0.00000000000E+00 -0.18945400986E+04  0.18945400986E+04  0.50400001928E-02 0.  1.
    10030    2    1    2    0    0  0.00000000000E+00  0.00000000000E+00 -0.37574874418E+03  0.34133314530E+04  0.33925866959E+04 0.  0.
        2    1    3    3  502    0  0.10782924424E+04  0.11455880838E+04  0.45029467162E+03  0.16364143548E+04  0.25500000920E-02 0. -1.
       -2    1    3    3    0  502 -0.10782924424E+04 -0.11455880838E+04 -0.82604341580E+03  0.17769170982E+04  0.25500000920E-02 0.  1.
</event>
<event>
 5   0  0.2641442E-07  0.3203606E+04  0.7818609E-02  0.8187866E-01
        1   -1    0    0  501    0  0.00000000000E+00  0.00000000000E+00  0.16898520552E+04  0.16898520552E+04  0.50400001928E-02 0.  1.
       -1   -1    0    0    0  501  0.00000000000E+00  0.00000000000E+00 -0.15183416114E+04  0.15183416115E+04  0.50400001928E-02 0. -1.
    10030    2    1    2    0    0  0.00000000000E+00  0.00000000000E+00  0.17151044379E+03  0.32081936667E+04  0.32036059013E+04 0.  0.
        1    1    3    3  502    0 -0.37772123030E+03 -0.15023086012E+04  0.49397636167E+03  0.16259203877E+04  0.50400001928E-02 0. -1.
       -1    1    3    3    0  502  0.37772123030E+03  0.15023086012E+04 -0.32246591788E+03  0.15822732790E+04  0.50400001928E-02 0.  1.
</event>
<event>
 5   0  0.7838333E-07  0.3370762E+04  0.7818609E-02  0.8145120E-01
       -2   -1    0    0    0  501  0.00000000000E+00  0.00000000000E+00  0.12340778628E+04  0.12340778628E+04  0.25500000920E-02 0. -1.
        2   -1    0    0  501    0  0.00000000000E+00  0.00000000000E+00 -0.23017258736E+04  0.23017258736E+04  0.25500000920E-02 0.  1.
    10030    2    1    2    0    0  0.00000000000E+00  0.00000000000E+00 -0.10676480107E+04  0.35358037364E+04  0.33707619001E+04 0.  0.
        1    1    3    3  502    0 -0.43807984838E+03 -0.21762096207E+03 -0.22256276690E+04  0.22787477609E+04  0.50400001928E-02 0.  1.
       -1    1    3    3    0  502  0.43807984838E+03  0.21762096207E+03  0.11579796582E+04  0.12570559755E+04  0.50400001928E-02 0. -1.
</event>
<event>
 5   0  0.2553250E-07  0.3131631E+04  0.7818609E-02  0.8207110E-01
       -1   -1    0    0    0  501  0.00000000000E+00  0.00000000000E+00  0.10981748343E+04  0.10981748343E+04  0.50400001928E-02 0.  1.
        1   -1    0    0  501    0  0.00000000000E+00  0.00000000000E+00 -0.22325943471E+04  0.22325943471E+04  0.50400001928E-02 0. -1.
    10030    2    1    2    0    0  0.00000000000E+00  0.00000000000E+00 -0.11344195128E+04  0.33307691814E+04  0.31316314772E+04 0.  0.
        5    1    3    3  502    0  0.60921341679E+03 -0.96332839832E+02  0.96352219416E+03  0.11440358875E+04  0.46999998093E+01 0.  1.
       -5    1    3    3    0  502 -0.60921341679E+03  0.96332839832E+02 -0.20979417069E+04  0.21867332939E+04  0.46999998093E+01 0. -1.
</event>
<event>
 5   0  0.2553250E-07  0.3407844E+04  0.7818609E-02  0.8135984E-01
       -1   -1    0    0    0  501  0.00000000000E+00  0.00000000000E+00  0.11041554939E+04  0.11041554940E+04  0.50400001928E-02 0. -1.
        1   -1    0    0  501    0  0.00000000000E+00  0.00000000000E+00 -0.26294765440E+04  0.26294765440E+04  0.50400001928E-02 0.  1.
    10030    2    1    2    0    0  0.00000000000E+00  0.00000000000E+00 -0.15253210501E+04  0.37336320380E+04  0.34078444638E+04 0.  0.
        5    1    3    3  502    0 -0.26784050389E+03  0.96917807732E+03  0.74444940453E+03  0.12511081836E+04  0.46999998093E+01 0. -1.
       -5    1    3    3    0  502  0.26784050389E+03 -0.96917807732E+03 -0.22697704546E+04  0.24825238544E+04  0.46999998093E+01 0.  1.
</event>
<event>
 5   0  0.7899402E-07  0.3502590E+04  0.7818609E-02  0.8113176E-01
        2   -1    0    0  501    0  0.00000000000E+00  0.00000000000E+00  0.17453404821E+04  0.17453404821E+04  0.25500000920E-02 0.  1.
       -2   -1    0    0    0  501  0.00000000000E+00  0.00000000000E+00 -0.17572699715E+04  0.17572699715E+04  0.25500000920E-02 0. -1.
    10030    2    1    2    0    0  0.00000000000E+00  0.00000000000E+00 -0.11929489409E+02  0.35026104536E+04  0.35025901383E+04 0.  0.
        2    1    3    3  502    0 -0.87598217546E+03 -0.14055226223E+04 -0.57534999783E+03  0.17532444877E+04  0.25500000920E-02 0. -1.
       -2    1    3    3    0  502  0.87598217546E+03  0.14055226223E+04  0.56342050842E+03  0.17493659659E+04  0.25500000920E-02 0.  1.
</event>
<event>
 5   0  0.7899402E-07  0.3450910E+04  0.7818609E-02  0.8125523E-01
        2   -1    0    0  501    0  0.00000000000E+00  0.00000000000E+00  0.14104664151E+04  0.14104664151E+04  0.25500000920E-02 0. -1.
       -2   -1    0    0    0  501  0.00000000000E+00  0.00000000000E+00 -0.21107875000E+04  0.21107875000E+04  0.25500000920E-02 0.  1.
    10030    2    1    2    0    0  0.00000000000E+00  0.00000000000E+00 -0.70032108490E+03  0.35212539151E+04  0.34509099543E+04 0.  0.
        2    1    3    3  502    0  0.17169302961E+04 -0.32474121346E+02 -0.52178742626E+03  0.17947607998E+04  0.25500000920E-02 0.  1.
       -2    1    3    3    0  502 -0.17169302961E+04  0.32474121346E+02 -0.17853365864E+03  0.17264931154E+04  0.25500000920E-02 0. -1.
</event>
<event>
 5   0  0.2622205E-07  0.3424501E+04  0.7818609E-02  0.8131919E-01
       -1   -1    0    0    0  501  0.00000000000E+00  0.00000000000E+00  0.29895481486E+04  0.29895481486E+04  0.50400001928E-02 0.  1.
        1   -1    0    0  501    0  0.00000000000E+00  0.00000000000E+00 -0.98068366432E+03  0.98068366433E+03  0.50400001928E-02 0. -1.
    10030    2    1    2    0    0  0.00000000000E+00  0.00000000000E+00  0.20088644843E+04  0.39702318130E+04  0.34245005668E+04 0.  0.
        3    1    3    3  502    0  0.10975224116E+04 -0.13010616025E+04  0.12197249093E+04  0.20940500476E+04  0.10100000352E+00 0.  1.
       -3    1    3    3    0  502 -0.10975224116E+04  0.13010616025E+04  0.78913957503E+03  0.18761817653E+04  0.10100000352E+00 0. -1.
</event>
<event>
 5   0  0.7822003E-07  0.3405143E+04  0.7818609E-02  0.8136645E-01
        2   -1    0    0  501    0  0.00000000000E+00  0.00000000000E+00  0.16595305982E+04  0.16595305982E+04  0.25500000920E-02 0. -1.
       -2   -1    0    0    0  501  0.00000000000E+00  0.00000000000E+00 -0.17467284857E+04  0.17467284857E+04  0.25500000920E-02 0.  1.
    10030    2    1    2    0    0  0.00000000000E+00  0.00000000000E+00 -0.87197887513E+02  0.34062590839E+04  0.34051427981E+04 0.  0.
        5    1    3    3  502    0  0.15652634930E+04  0.53970503553E+03 -0.44046058703E+03  0.17132889268E+04  0.46999998093E+01 0.  1.
       -5    1    3    3    0  502 -0.15652634930E+04 -0.53970503553E+03  0.35326269951E+03  0.16929701571E+04  0.46999998093E+01 0. -1.
</event>
<event>
 5   0  0.2592200E-07  0.3375328E+04  0.7818609E-02  0.8143988E-01
       -1   -1    0    0    0  501  0.00000000000E+00  0.00000000000E+00  0.24725930192E+04  0.24725930192E+04  0.50400001928E-02 0.  1.
        1   -1    0    0  501    0  0.00000000000E+00  0.00000000000E+00 -0.11519118732E+04  0.11519118733E+04  0.50400001928E-02 0. -1.
    10030    2    1    2    0    0  0.00000000000E+00  0.00000000000E+00  0.13206811459E+04  0.36245048924E+04  0.33753276916E+04 0.  0.
        4    1    3    3  502    0 -0.13023790130E+03  0.40569966110E+03 -0.10932009059E+04  0.11733047172E+04  0.12699999809E+01 0. -1.
       -4    1    3    3    0  502  0.13023790130E+03 -0.40569966110E+03  0.24138820518E+04  0.24512001752E+04  0.12699999809E+01 0.  1.
</event>
<event>
 5   0  0.7899402E-07  0.3431797E+04  0.7818609E-02  0.8130146E-01
       -2   -1    0    0    0  501  0.00000000000E+00  0.00000000000E+00  0.25870060486E+04  0.25870060486E+04  0.25500000920E-02 0.  1.
        2   -1    0    0  501    0  0.00000000000E+00  0.00000000000E+00 -0.11381140014E+04  0.11381140014E+04  0.25500000920E-02 0. -1.
    10030    2    1    2    0    0  0.00000000000E+00  0.00000000000E+00  0.14488920472E+04  0.37251200501E+04  0.34317970836E+04 0.  0.
        2    1    3    3  502    0 -0.16455091983E+04  0.14441081926E+03  0.12286391167E+04  0.20586668224E+04  0.25500000920E-02 0. -1.
       -2    1    3    3    0  502  0.16455091983E+04 -0.14441081926E+03  0.22025293051E+03  0.16664532277E+04  0.25500000920E-02 0.  1.
</event>
<event>
 5   0  0.2553250E-07  0.3421060E+04  0.7818609E-02  0.8132757E-01
        1   -1    0    0  501    0  0.00000000000E+00  0.00000000000E+00  0.23129171555E+04  0.23129171555E+04  0.50400001928E-02 0. -1.
       -1   -1    0    0    0  501  0.00000000000E+00  0.00000000000E+00 -0.12650313058E+04  0.12650313058E+04  0.50400001928E-02 0.  1.
    10030    2    1    2    0    0  0.00000000000E+00  0.00000000000E+00  0.10478858498E+04  0.35779484613E+04  0.34210598413E+04 0.  0.
        5    1    3    3  502    0 -0.71467512188E+03 -0.22889925122E+03 -0.10836679231E+04  0.13181478122E+04  0.46999998093E+01 0.  1.
       -5    1    3    3    0  502  0.71467512188E+03  0.22889925122E+03  0.21315537729E+04  0.22598006491E+04  0.46999998093E+01 0. -1.
</event>
<event>
 5   0  0.2553250E-07  0.3397638E+04  0.7818609E-02  0.8138486E-01
        1   -1    0    0  501    0  0.00000000000E+00  0.00000000000E+00  0.12903643030E+04  0.12903643030E+04  0.50400001928E-02 0. -1.
       -1   -1    0    0    0  501  0.00000000000E+00  0.00000000000E+00 -0.22365670159E+04  0.22365670159E+04  0.50400001928E-02 0.  1.
    10030    2    1    2    0    0  0.00000000000E+00  0.00000000000E+00 -0.94620271291E+03  0.35269313189E+04  0.33976381435E+04 0.  0.
        5    1    3    3  502    0 -0.53657608711E+03 -0.92121811382E+03  0.89988228664E+03  0.13951225503E+04  0.46999998093E+01 0. -1.
       -5    1    3    3    0  502  0.53657608711E+03  0.92121811382E+03 -0.18460849996E+04  0.21318087686E+04  0.46999998093E+01 0.  1.
</event>
<event>
 5   0  0.2599367E-07  0.3427844E+04  0.7818609E-02  0.8131106E-01
       -1   -1    0    0    0  501  0.00000000000E+00  0.00000000000E+00  0.14942737309E+04  0.14942737309E+04  0.50400001928E-02 0.  1.
        1   -1    0    0  501    0  0.00000000000E+00  0.00000000000E+00 -0.19658568627E+04  0.19658568627E+04  0.50400001928E-02 0. -1.
    10030    2    1    2    0    0  0.00000000000E+00  0.00000000000E+00 -0.47158313178E+03  0.34601305936E+04  0.34278437938E+04 0.  0.
        2    1    3    3  502    0 -0.15632580586E+04 -0.39455476330E+03 -0.82271384726E+03  0.18100572624E+04  0.25500000920E-02 0. -1.
       -2    1    3    3    0  502  0.15632580586E+04  0.39455476330E+03  0.35113071548E+03  0.16500733312E+04  0.25500000920E-02 0.  1.
</event>
<event>
 5   0  0.2553250E-07  0.3370416E+04  0.7818609E-02  0.8145205E-01
        1   -1    0    0  501    0  0.00000000000E+00  0.00000000000E+00  0.33334007284E+04  0.33334007284E+04  0.50400001928E-02 0. -1.
       -1   -1    0    0    0  501  0.00000000000E+00  0.00000000000E+00 -0.85196077367E+03  0.85196077368E+03  0.50400001928E-02 0.  1.
    10030    2    1    2    0    0  0.00000000000E+00  0.00000000000E+00  0.24814399547E+04  0.41853615021E+04  0.33704163918E+04 0.  0.
        5    1    3    3  502    0  0.13254348791E+04  0.88096154641E+03  0.55263441382E+03  0.16847248292E+04  0.46999998093E+01 0.  1.
       -5    1    3    3    0  502 -0.13254348791E+04 -0.88096154641E+03  0.19288055409E+04  0.25006366728E+04  0.46999998093E+01 0. -1.
</event>
<event>
 5   0  0.7899402E-07  0.3433318E+04  0.7818609E-02  0.8129777E-01
        2   -1    0    0  501    0  0.00000000000E+00  0.00000000000E+00  0.19196686423E+04  0.19196686423E+04  0.25500000920E-02 0. -1.
       -2   -1    0    0    0  501  0.00000000000E+00  0.00000000000E+00 -0.15351177247E+04  0.15351177247E+04  0.25500000920E-02 0.  1.
    10030    2    1    2    0    0  0.00000000000E+00  0.00000000000E+00  0.38455091755E+03  0.34547863670E+04  0.34333175550E+04 0.  0.
        2    1    3    3  502    0 -0.11176020246E+04 -0.79475773330E+03  0.12313228684E+04  0.18430491438E+04  0.25500000920E-02 0. -1.
       -2    1    3    3    0  502  0.11176020246E+04  0.79475773330E+03 -0.84677195085E+03  0.16117372233E+04  0.25500000920E-02 0.  1.
</event>
<event>
 5   0  0.7899402E-07  0.3373604E+04  0.7818609E-02  0.8144415E-01
       -2   -1    0    0    0  501  0.00000000000E+00  0.00000000000E+00  0.11234885760E+04  0.11234885760E+04  0.25500000920E-02 0. -1.
        2   -1    0    0  501    0  0.00000000000E+00  0.00000000000E+00 -0.25325593300E+04  0.25325593300E+04  0.25500000920E-02 0.  1.
    10030    2    1    2    0    0  0.00000000000E+00  0.00000000000E+00 -0.14090707541E+04  0.36560479060E+04  0.33736042894E+04 0.  0.
        2    1    3    3  502    0 -0.79049738160E+03 -0.63408815961E+03  0.75682116438E+03  0.12648051942E+04  0.25500000920E-02 0. -1.
       -2    1    3    3    0  502  0.79049738160E+03  0.63408815961E+03 -0.21658919184E+04  0.23912427118E+04  0.25500000920E-02 0.  1.
</event>
<event>
 5   0  0.2592200E-07  0.3386517E+04  0.7818609E-02  0.8141224E-01
       -1   -1    0    0    0  501  0.00000000000E+00  0.00000000000E+00  0.14058191731E+04  0.14058191731E+04  0.50400001928E-02 0. -1.
        1   -1    0    0  501    0  0.00000000000E+00  0.00000000000E+00 -0.20394683008E+04  0.20394683008E+04  0.50400001928E-02 0.  1.
    10030    2    1    2    0    0  0.00000000000E+00  0.00000000000E+00 -0.63364912768E+03  0.34452874738E+04  0.33865165820E+04 0.  0.
        4    1    3    3  502    0  0.11100000464E+04  0.24896076539E+03 -0.15927996817E+04  0.19573180643E+04  0.12699999809E+01 0.  1.
       -4    1    3    3    0  502 -0.11100000464E+04 -0.24896076539E+03  0.95915055406E+03  0.14879694096E+04  0.12699999809E+01 0. -1.
</event>
<event>
 5   0  0.7610412E-07  0.3388119E+04  0.7818609E-02  0.8140828E-01
        2   -1    0    0  501    0  0.00000000000E+00  0.00000000000E+00  0.19790590682E+04  0.19790590682E+04  0.25500000920E-02 0.  1.
       -2   -1    0    0    0  501  0.00000000000E+00  0.00000000000E+00 -0.14501019384E+04  0.14501019384E+04  0.25500000920E-02 0. -1.
    10030    2    1    2    0    0  0.00000000000E+00  0.00000000000E+00  0.52895712982E+03  0.34291610066E+04  0.33881188828E+04 0.  0.
        4    1    3    3  502    0 -0.12219581974E+04 -0.90096259742E+03 -0.49623794529E+03  0.15972379752E+04  0.12699999809E+01 0. -1.
       -4    1    3    3    0  502  0.12219581974E+04  0.90096259742E+03  0.10251950751E+04  0.18319230314E+04  0.12699999809E+01 0.  1.
</event>
<event>
 5   0  0.2553250E-07  0.3397890E+04  0.7818609E-02  0.8138424E-01
       -3   -1    0    0    0  501  0.00000000000E+00  0.00000000000E+00  0.13665193069E+04  0.13665193106E+04  0.10100000352E+00 0. -1.
        3   -1    0    0  501    0  0.00000000000E+00  0.00000000000E+00 -0.21122383041E+04  0.21122383066E+04  0.10100000352E+00 0.  1.
    10030    2    1    2    0    0  0.00000000000E+00  0.00000000000E+00 -0.74571899728E+03  0.34787576172E+04  0.33978901889E+04 0.  0.
        1    1    3    3  502    0  0.56369934807E+03  0.63381510564E+03  0.11342259001E+04  0.14163145609E+04  0.50400001928E-02 0. -1.
       -1    1    3    3    0  502 -0.56369934807E+03 -0.63381510564E+03 -0.18799448973E+04  0.20624430562E+04  0.50400001928E-02 0.  1.
</event>
<event>
 5   0  0.2553250E-07  0.3359725E+04  0.7818609E-02  0.8147863E-01
       -1   -1    0    0    0  501  0.00000000000E+00  0.00000000000E+00  0.17056407887E+04  0.17056407887E+04  0.50400001928E-02 0. -1.
        1   -1    0    0  501    0  0.00000000000E+00  0.00000000000E+00 -0.16544736299E+04  0.16544736299E+04  0.50400001928E-02 0.  1.
    10030    2    1    2    0    0  0.00000000000E+00  0.00000000000E+00  0.51167158744E+02  0.33601144186E+04  0.33597248143E+04 0.  0.
        5    1    3    3  502    0  0.11358493462E+04 -0.12301766195E+04 -0.11017959215E+03  0.16779898345E+04  0.46999998093E+01 0. -1.
       -5    1    3    3    0  502 -0.11358493462E+04  0.12301766195E+04  0.16134675089E+03  0.16821245841E+04  0.46999998093E+01 0.  1.
</event>
<event>
 5   0  0.2622205E-07  0.3483112E+04  0.7818609E-02  0.8117804E-01
       -1   -1    0    0    0  501  0.00000000000E+00  0.00000000000E+00  0.23991826976E+04  0.23991826976E+04  0.50400001928E-02 0. -1.
        1   -1    0    0  501    0  0.00000000000E+00  0.00000000000E+00 -0.12641878869E+04  0.12641878869E+04  0.50400001928E-02 0.  1.
    10030    2    1    2    0    0  0.00000000000E+00  0.00000000000E+00  0.11349948107E+04  0.36633705846E+04  0.34831122318E+04 0.  0.
        3    1    3    3  502    0 -0.10625024173E+03 -0.81312167037E+03 -0.10484270979E+04  0.13310354445E+04  0.10100000352E+00 0.  1.
       -3    1    3    3    0  502  0.10625024173E+03  0.81312167037E+03  0.21834219086E+04  0.23323351401E+04  0.10100000352E+00 0. -1.
</event>
<event>
 5   0  0.7899402E-07  0.3502370E+04  0.7818609E-02  0.8113229E-01
        2   -1    0    0  501    0  0.00000000000E+00  0.00000000000E+00  0.15825780963E+04  0.15825780963E+04  0.25500000920E-02 0. -1.
       -2   -1    0    0    0  501  0.00000000000E+00  0.00000000000E+00 -0.19377546504E+04  0.19377546504E+04  0.25500000920E-02 0.  1.
    10030    2    1    2    0    0  0.00000000000E+00  0.00000000000E+00 -0.35517655406E+03  0.35203327467E+04  0.35023695212E+04 0.  0.
        2    1    3    3  502    0  0.13733724731E+04 -0.60790429383E+03  0.72755719700E+03  0.16688436282E+04  0.25500000920E-02 0. -1.
       -2    1    3    3    0  502 -0.13733724731E+04  0.60790429383E+03 -0.10827337511E+04  0.18514891185E+04  0.25500000920E-02 0.  1.
</event>
<event>
 5   0  0.2641442E-07  0.3752612E+04  0.7818609E-02  0.8056401E-01
       -1   -1    0    0    0  501  0.00000000000E+00  0.00000000000E+00  0.28342551106E+04  0.28342551106E+04  0.50400001928E-02 0.  1.
        1   -1    0    0  501    0  0.00000000000E+00  0.00000000000E+00 -0.12421339722E+04  0.12421339722E+04  0.50400001928E-02 0. -1.
    10030    2    1    2    0    0  0.00000000000E+00  0.00000000000E+00  0.15921211384E+04  0.40763890828E+04  0.37526121881E+04 0.  0.
        1    1    3    3  502    0 -0.16450596976E+04 -0.72330835541E+02 -0.18103123353E+03  0.16565703927E+04  0.50400001928E-02 0. -1.
       -1    1    3    3    0  502  0.16450596976E+04  0.72330835541E+02  0.17731523720E+04  0.24198186900E+04  0.50400001928E-02 0.  1.
</event>
<event>
 5   0  0.7899402E-07  0.3390585E+04  0.7818609E-02  0.8140221E-01
        2   -1    0    0  501    0  0.00000000000E+00  0.00000000000E+00  0.10686086580E+04  0.10686086580E+04  0.25500000920E-02 0.  1.
       -2   -1    0    0    0  501  0.00000000000E+00  0.00000000000E+00 -0.26894935724E+04  0.26894935724E+04  0.25500000920E-02 0. -1.
    10030    2    1    2    0    0  0.00000000000E+00  0.00000000000E+00 -0.16208849144E+04  0.37581022304E+04  0.33905846794E+04 0.  0.
        2    1    3    3  502    0  0.60305798795E+03 -0.15790887867E+04 -0.95417415424E+03  0.19410431860E+04  0.25500000920E-02 0. -1.
       -2    1    3    3    0  502 -0.60305798795E+03  0.15790887867E+04 -0.66671076016E+03  0.18170590444E+04  0.25500000920E-02 0.  1.
</event>
<event>
 5   0  0.7899402E-07  0.3431881E+04  0.7818609E-02  0.8130126E-01
       -2   -1    0    0    0  501  0.00000000000E+00  0.00000000000E+00  0.15025132959E+04  0.15025132959E+04  0.25500000920E-02 0.  1.
        2   -1    0    0  501    0  0.00000000000E+00  0.00000000000E+00 -0.19596844739E+04  0.19596844739E+04  0.25500000920E-02 0. -1.
    10030    2    1    2    0    0  0.00000000000E+00  0.00000000000E+00 -0.45717117796E+03  0.34621977698E+04  0.34318811039E+04 0.  0.
        2    1    3    3  502    0  0.14508329599E+04 -0.56258895451E+03 -0.95818197916E+03  0.18274395515E+04  0.25500000920E-02 0. -1.
       -2    1    3    3    0  502 -0.14508329599E+04  0.56258895451E+03  0.50101080120E+03  0.16347582183E+04  0.25500000920E-02 0.  1.
</event>
<event>
 5   0  0.2622205E-07  0.3432542E+04  0.7818609E-02  0.8129965E-01
        1   -1    0    0  501    0  0.00000000000E+00  0.00000000000E+00  0.13731449807E+04  0.13731449807E+04  0.50400001928E-02 0. -1.
       -1   -1    0    0    0  501  0.00000000000E+00  0.00000000000E+00 -0.21451382199E+04  0.21451382199E+04  0.50400001928E-02 0.  1.
    10030    2    1    2    0    0  0.00000000000E+00  0.00000000000E+00 -0.77199323921E+03  0.35182832007E+04  0.34325417869E+04 0.  0.
        3    1    3    3  502    0  0.10129110681E+04 -0.57652443751E+03 -0.16773141532E+04  0.20424867288E+04  0.10100000352E+00 0.  1.
       -3    1    3    3    0  502 -0.10129110681E+04  0.57652443751E+03  0.90532091396E+03  0.14757964718E+04  0.10100000352E+00 0. -1.
</event>
<event>
 5   0  0.2641442E-07  0.3356226E+04  0.7818609E-02  0.8148734E-01
       -1   -1    0    0    0  501  0.00000000000E+00  0.00000000000E+00  0.20695283328E+04  0.20695283328E+04  0.50400001928E-02 0. -1.
        1   -1    0    0  501    0  0.00000000000E+00  0.00000000000E+00 -0.13607272726E+04  0.13607272726E+04  0.50400001928E-02 0.  1.
    10030    2    1    2    0    0  0.00000000000E+00  0.00000000000E+00  0.70880106016E+03  0.34302556054E+04  0.33562262402E+04 0.  0.
        1    1    3    3  502    0  0.41521239245E+03 -0.83729349709E+03  0.17789159679E+04  0.20094784776E+04  0.50400001928E-02 0. -1.
       -1    1    3    3    0  502 -0.41521239245E+03  0.83729349709E+03 -0.10701149077E+04  0.14207771278E+04  0.50400001928E-02 0.  1.
</event>
<event>
 5   0  0.2622205E-07  0.3398511E+04  0.7818609E-02  0.8138272E-01
        1   -1    0    0  501    0  0.00000000000E+00  0.00000000000E+00  0.24705312813E+04  0.24705312813E+04  0.50400001928E-02 0. -1.
       -1   -1    0    0    0  501  0.00000000000E+00  0.00000000000E+00 -0.11687647045E+04  0.11687647045E+04  0.50400001928E-02 0.  1.
    10030    2    1    2    0    0  0.00000000000E+00  0.00000000000E+00  0.13017665768E+04  0.36392959858E+04  0.33985112993E+04 0.  0.
        3    1    3    3  502    0  0.21403524773E+03  0.10689970690E+04  0.20466507539E+04  0.23189103345E+04  0.10100000352E+00 0. -1.
       -3    1    3    3    0  502 -0.21403524773E+03 -0.10689970690E+04 -0.74488417706E+03  0.13203856513E+04  0.10100000352E+00 0.  1.
</event>
<event>
 5   0  0.2553250E-07  0.3386441E+04  0.7818609E-02  0.8141242E-01
       -3   -1    0    0    0  501  0.00000000000E+00  0.00000000000E+00  0.12194367270E+04  0.12194367311E+04  0.10100000352E+00 0. -1.
        3   -1    0    0  501    0  0.00000000000E+00  0.00000000000E+00 -0.23510819414E+04  0.23510819436E+04  0.10100000352E+00 0.  1.
    10030    2    1    2    0    0  0.00000000000E+00  0.00000000000E+00 -0.11316452144E+04  0.35705186747E+04  0.33864410101E+04 0.  0.
        4    1    3    3  502    0  0.62377297877E+03  0.20423247581E+03  0.10798498881E+04  0.12636775803E+04  0.12699999809E+01 0. -1.
       -4    1    3    3    0  502 -0.62377297877E+03 -0.20423247581E+03 -0.22114951026E+04  0.23068410944E+04  0.12699999809E+01 0.  1.
</event>
<event>
 5   0  0.2592200E-07  0.3386913E+04  0.7818609E-02  0.8141126E-01
        1   -1    0    0  501    0  0.00000000000E+00  0.00000000000E+00  0.22083326759E+04  0.22083326759E+04  0.50400001928E-02 0.  1.
       -1   -1    0    0    0  501  0.00000000000E+00  0.00000000000E+00 -0.12986243388E+04  0.12986243388E+04  0.50400001928E-02 0. -1.
    10030    2    1    2    0    0  0.00000000000E+00  0.00000000000E+00  0.90970833711E+03  0.35069570148E+04  0.33869127897E+04 0.  0.
        4    1    3    3  502    0  0.57776290221E+03 -0.13991861402E+04 -0.33117034236E+03  0.15495829228E+04  0.12699999809E+01 0.  1.
       -4    1    3    3    0  502 -0.57776290221E+03  0.13991861402E+04  0.12408786795E+04  0.19573740920E+04  0.12699999809E+01 0. -1.
</event>
<event>
 5   0  0.2592200E-07  0.3368390E+04  0.7818609E-02  0.8145708E-01
        1   -1    0    0  501    0  0.00000000000E+00  0.00000000000E+00  0.22616333423E+04  0.22616333423E+04  0.50400001928E-02 0.  1.
       -1   -1    0    0    0  501  0.00000000000E+00  0.00000000000E+00 -0.12541874212E+04  0.12541874212E+04  0.50400001928E-02 0. -1.
    10030    2    1    2    0    0  0.00000000000E+00  0.00000000000E+00  0.10074459211E+04  0.35158207635E+04  0.33683895792E+04 0.  0.
        4    1    3    3  502    0  0.18354438861E+03  0.16228746250E+04  0.93293912384E+03  0.18809007451E+04  0.12699999809E+01 0.  1.
       -4    1    3    3    0  502 -0.18354438861E+03 -0.16228746250E+04  0.74506797294E+02  0.16349200185E+04  0.12699999809E+01 0. -1.
</event>
<event>
 5   0  0.7838333E-07  0.3398337E+04  0.7818609E-02  0.8138314E-01
        2   -1    0    0  501    0  0.00000000000E+00  0.00000000000E+00  0.28135245780E+04  0.28135245780E+04  0.25500000920E-02 0. -1.
       -2   -1    0    0    0  501  0.00000000000E+00  0.00000000000E+00 -0.10261770620E+04  0.10261770620E+04  0.25500000920E-02 0.  1.
    10030    2    1    2    0    0  0.00000000000E+00  0.00000000000E+00  0.17873475160E+04  0.38397016400E+04  0.33983374673E+04 0.  0.
        1    1    3    3  502    0  0.14749391628E+04  0.78161172334E+03  0.12524197157E+04  0.20868439243E+04  0.50400001928E-02 0. -1.
       -1    1    3    3    0  502 -0.14749391628E+04 -0.78161172334E+03  0.53492780028E+03  0.17528577157E+04  0.50400001928E-02 0.  1.
</event>
<event>
 5   0  0.8489228E-07  0.3403574E+04  0.7818609E-02  0.8137030E-01
        2   -1    0    0  501    0  0.00000000000E+00  0.00000000000E+00  0.21426875871E+04  0.21426875871E+04  0.25500000920E-02 0. -1.
       -2   -1    0    0    0  501  0.00000000000E+00  0.00000000000E+00 -0.13516102390E+04  0.13516102390E+04  0.25500000920E-02 0.  1.
    10030    2    1    2    0    0  0.00000000000E+00  0.00000000000E+00  0.79107734809E+03  0.34942978260E+04  0.34035736993E+04 0.  0.
        3    1    3    3  502    0 -0.12593720147E+04  0.22395620625E+03 -0.75683551906E+03  0.14862618433E+04  0.10100000352E+00 0.  1.
       -3    1    3    3    0  502  0.12593720147E+04 -0.22395620625E+03  0.15479128672E+04  0.20080359828E+04  0.10100000352E+00 0. -1.
</event>
<event>
 5   0  0.2553250E-07  0.3381964E+04  0.7818609E-02  0.8142347E-01
       -1   -1    0    0    0  501  0.00000000000E+00  0.00000000000E+00  0.20254910308E+04  0.20254910308E+04  0.50400001928E-02 0. -1.
        1   -1    0    0  501    0  0.00000000000E+00  0.00000000000E+00 -0.14117173179E+04  0.14117173179E+04  0.50400001928E-02 0.  1.
    10030    2    1    2    0    0  0.00000000000E+00  0.00000000000E+00  0.61377371293E+03  0.34372083487E+04  0.33819643791E+04 0.  0.
        5    1    3    3  502    0 -0.30515233449E+03 -0.13693103531E+04 -0.65260533607E+03  0.15472700491E+04  0.46999998093E+01 0.  1.
       -5    1    3    3    0  502  0.30515233449E+03  0.13693103531E+04  0.12663790490E+04  0.18899382995E+04  0.46999998093E+01 0. -1.
</event>
<event>
 5   0  0.7899402E-07  0.3431646E+04  0.7818609E-02  0.8130183E-01
       -2   -1    0    0    0  501  0.00000000000E+00  0.00000000000E+00  0.85430963779E+03  0.85430963780E+03  0.25500000920E-02 0.  1.
        2   -1    0    0  501    0  0.00000000000E+00  0.00000000000E+00 -0.34461146855E+04  0.34461146855E+04  0.25500000920E-02 0. -1.
    10030    2    1    2    0    0  0.00000000000E+00  0.00000000000E+00 -0.25918050477E+04  0.43004243233E+04  0.34316462456E+04 0.  0.
        2    1    3    3  502    0  0.13654365044E+04 -0.85107666366E+03 -0.54892626113E+03  0.17000201102E+04  0.25500000920E-02 0.  1.
       -2    1    3    3    0  502 -0.13654365044E+04  0.85107666366E+03 -0.20428787865E+04  0.26004042131E+04  0.25500000920E-02 0. -1.
</event>
<event>
 5   0  0.7610412E-07  0.3411705E+04  0.7818609E-02  0.8135039E-01
       -2   -1    0    0    0  501  0.00000000000E+00  0.00000000000E+00  0.17199724019E+04  0.17199724019E+04  0.25500000920E-02 0. -1.
        2   -1    0    0  501    0  0.00000000000E+00  0.00000000000E+00 -0.16918486801E+04  0.16918486801E+04  0.25500000920E-02 0.  1.
    10030    2    1    2    0    0  0.00000000000E+00  0.00000000000E+00  0.28123721742E+02  0.34118210820E+04  0.34117051678E+04 0.  0.
        4    1    3    3  502    0  0.29319843497E+03 -0.49948932268E+02 -0.16657187593E+04  0.16920640697E+04  0.12699999809E+01 0.  1.
       -4    1    3    3    0  502 -0.29319843497E+03  0.49948932268E+02  0.16938424810E+04  0.17197570123E+04  0.12699999809E+01 0. -1.
</event>
<event>
 5   0  0.2592200E-07  0.3409392E+04  0.7818609E-02  0.8135605E-01
        1   -1    0    0  501    0  0.00000000000E+00  0.00000000000E+00  0.15804011715E+04  0.15804011715E+04  0.50400001928E-02 0.  1.
       -1   -1    0    0    0  501  0.00000000000E+00  0.00000000000E+00 -0.18387664913E+04  0.18387664913E+04  0.50400001928E-02 0. -1.
    10030    2    1    2    0    0  0.00000000000E+00  0.00000000000E+00 -0.25836531978E+03  0.34191676628E+04  0.34093921552E+04 0.  0.
        4    1    3    3  502    0  0.32783617333E+03  0.29003843410E+03  0.15230812761E+04  0.15847324810E+04  0.12699999809E+01 0.  1.
       -4    1    3    3    0  502 -0.32783617333E+03 -0.29003843410E+03 -0.17814465958E+04  0.18344351819E+04  0.12699999809E+01 0. -1.
</event>
<event>
 5   0  0.7822003E-07  0.3412790E+04  0.7818609E-02  0.8134774E-01
       -2   -1    0    0    0  501  0.00000000000E+00  0.00000000000E+00  0.16028246332E+04  0.16028246332E+04  0.25500000920E-02 0.  1.
        2   -1    0    0  501    0  0.00000000000E+00  0.00000000000E+00 -0.18166573304E+04  0.18166573304E+04  0.25500000920E-02 0. -1.
    10030    2    1    2    0    0  0.00000000000E+00  0.00000000000E+00 -0.21383269720E+03  0.34194819635E+04  0.34127895447E+04 0.  0.
        5    1    3    3  502    0 -0.54457724760E+03 -0.72589312180E+03  0.13410042290E+04  0.16191972194E+04  0.46999998093E+01 0.  1.
       -5    1    3    3    0  502  0.54457724760E+03  0.72589312180E+03 -0.15548369262E+04  0.18002847442E+04  0.46999998093E+01 0. -1.
</event>
<event>
 5   0  0.7838333E-07  0.3403876E+04  0.7818609E-02  0.8136956E-01
       -2   -1    0    0    0  501  0.00000000000E+00  0.00000000000E+00  0.17307398543E+04  0.17307398543E+04  0.25500000920E-02 0. -1.
        2   -1    0    0  501    0  0.00000000000E+00  0.00000000000E+00 -0.16736152035E+04  0.16736152036E+04  0.25500000920E-02 0.  1.
    10030    2    1    2    0    0  0.00000000000E+00  0.00000000000E+00  0.57124650740E+02  0.34043550578E+04  0.34038757519E+04 0.  0.
        1    1    3    3  502    0  0.29406370177E+03 -0.64470906064E+03 -0.15190628510E+04  0.16762085726E+04  0.50400001928E-02 0.  1.
       -1    1    3    3    0  502 -0.29406370177E+03  0.64470906064E+03  0.15761875018E+04  0.17281464852E+04  0.50400001928E-02 0. -1.
</event>
<event>
 5   0  0.2592200E-07  0.3234770E+04  0.7818609E-02  0.8179694E-01
       -1   -1    0    0    0  501  0.00000000000E+00  0.00000000000E+00  0.26671730299E+04  0.26671730299E+04  0.50400001928E-02 0. -1.
        1   -1    0    0  501    0  0.00000000000E+00  0.00000000000E+00 -0.98078939944E+03  0.98078939946E+03  0.50400001928E-02 0.  1.
    10030    2    1    2    0    0  0.00000000000E+00  0.00000000000E+00  0.16863836304E+04  0.36479624293E+04  0.32347704922E+04 0.  0.
        4    1    3    3  502    0  0.45863424067E+03 -0.15076168247E+03 -0.89763694752E+03  0.10192291960E+04  0.12699999809E+01 0.  1.
       -4    1    3    3    0  502 -0.45863424067E+03  0.15076168247E+03  0.25840205780E+04  0.26287332333E+04  0.12699999809E+01 0. -1.
</event>
<event>
 5   0  0.2622205E-07  0.3397189E+04  0.7818609E-02  0.8138597E-01
        1   -1    0    0  501    0  0.00000000000E+00  0.00000000000E+00  0.29133228853E+04  0.29133228853E+04  0.50400001928E-02 0. -1.
       -1   -1    0    0    0  501  0.00000000000E+00  0.00000000000E+00 -0.99035460191E+03  0.99035460192E+03  0.50400001928E-02 0.  1.
    10030    2    1    2    0    0  0.00000000000E+00  0.00000000000E+00  0.19229682834E+04  0.39036774873E+04  0.33971886768E+04 0.  0.
        3    1    3    3  502    0  0.37962395588E+03 -0.23001336723E+03 -0.92253464831E+03  0.10237630021E+04  0.10100000352E+00 0.  1.
       -3    1    3    3    0  502 -0.37962395588E+03  0.23001336723E+03  0.28455029317E+04  0.28799144851E+04  0.10100000352E+00 0. -1.
</event>
<event>
 5   0  0.7610412E-07  0.3396200E+04  0.7818609E-02  0.8138840E-01
        2   -1    0    0  501    0  0.00000000000E+00  0.00000000000E+00  0.18714207247E+04  0.18714207247E+04  0.25500000920E-02 0. -1.
       -2   -1    0    0    0  501  0.00000000000E+00  0.00000000000E+00 -0.15408311266E+04  0.15408311266E+04  0.25500000920E-02 0.  1.
    10030    2    1    2    0    0  0.00000000000E+00  0.00000000000E+00  0.33058959811E+03  0.34122518514E+04  0.33961998196E+04 0.  0.
        4    1    3    3  502    0  0.99306088334E+03 -0.79693587932E+03  0.12941106773E+04  0.18154891274E+04  0.12699999809E+01 0. -1.
       -4    1    3    3    0  502 -0.99306088334E+03  0.79693587932E+03 -0.96352107916E+03  0.15967627240E+04  0.12699999809E+01 0.  1.
</event>
<event>
 5   0  0.8489228E-07  0.3333446E+04  0.7818609E-02  0.8154437E-01
       -2   -1    0    0    0  501  0.00000000000E+00  0.00000000000E+00  0.16237994489E+04  0.16237994489E+04  0.25500000920E-02 0. -1.
        2   -1    0    0  501    0  0.00000000000E+00  0.00000000000E+00 -0.17107814884E+04  0.17107814884E+04  0.25500000920E-02 0.  1.
    10030    2    1    2    0    0  0.00000000000E+00  0.00000000000E+00 -0.86982039510E+02  0.33345809373E+04  0.33334462876E+04 0.  0.
        3    1    3    3  502    0 -0.65520635297E+03 -0.67263233243E+01 -0.15765352323E+04  0.17072796951E+04  0.10100000352E+00 0.  1.
       -3    1    3    3    0  502  0.65520635297E+03  0.67263233243E+01  0.14895531928E+04  0.16273012422E+04  0.10100000352E+00 0. -1.
</event>
<event>
 5   0  0.7899402E-07  0.3396091E+04  0.7818609E-02  0.8138866E-01
        2   -1    0    0  501    0  0.00000000000E+00  0.00000000000E+00  0.12899064822E+04  0.12899064822E+04  0.25500000920E-02 0.  1.
       -2   -1    0    0    0  501  0.00000000000E+00  0.00000000000E+00 -0.22353240829E+04  0.22353240829E+04  0.25500000920E-02 0. -1.
    10030    2    1    2    0    0  0.00000000000E+00  0.00000000000E+00 -0.94541760068E+03  0.35252305651E+04  0.33960912970E+04 0.  0.
        2    1    3    3  502    0 -0.42202311277E+02 -0.59892776733E+03  0.11760421107E+04  0.13204433163E+04  0.25500000920E-02 0.  1.
       -2    1    3    3    0  502  0.42202311277E+02  0.59892776733E+03 -0.21214597113E+04  0.22047872488E+04  0.25500000920E-02 0. -1.
</event>
<event>
 5   0  0.7899402E-07  0.3278088E+04  0.7818609E-02  0.8168493E-01
       -2   -1    0    0    0  501  0.00000000000E+00  0.00000000000E+00  0.14104070861E+04  0.14104070861E+04  0.25500000920E-02 0. -1.
        2   -1    0    0  501    0  0.00000000000E+00  0.00000000000E+00 -0.19047448423E+04  0.19047448423E+04  0.25500000920E-02 0.  1.
    10030    2    1    2    0    0  0.00000000000E+00  0.00000000000E+00 -0.49433775625E+03  0.33151519284E+04  0.32780882372E+04 0.  0.
        2    1    3    3  502    0 -0.60475538438E+03 -0.14079552210E+04 -0.83546651462E+03  0.17452997669E+04  0.25500000920E-02 0.  1.
       -2    1    3    3    0  502  0.60475538438E+03  0.14079552210E+04  0.34112875837E+03  0.15698521615E+04  0.25500000920E-02 0. -1.
</event>
<event>
 5   0  0.7610412E-07  0.3383309E+04  0.7818609E-02  0.8142015E-01
        2   -1    0    0  501    0  0.00000000000E+00  0.00000000000E+00  0.22510176610E+04  0.22510176610E+04  0.25500000920E-02 0.  1.
       -2   -1    0    0    0  501  0.00000000000E+00  0.00000000000E+00 -0.12712891561E+04  0.12712891561E+04  0.25500000920E-02 0. -1.
    10030    2    1    2    0    0  0.00000000000E+00  0.00000000000E+00  0.97972850496E+03  0.35223068171E+04  0.33833086425E+04 0.  0.
        4    1    3    3  502    0 -0.87774702567E+03 -0.13474732923E+04 -0.56648678291E+02  0.16091410131E+04  0.12699999809E+01 0. -1.
       -4    1    3    3    0  502  0.87774702567E+03  0.13474732923E+04  0.10363771832E+04  0.19131658039E+04  0.12699999809E+01 0.  1.
</event>
<event>
 5   0  0.7822003E-07  0.3414111E+04  0.7818609E-02  0.8134452E-01
       -2   -1    0    0    0  501  0.00000000000E+00  0.00000000000E+00  0.15191643578E+04  0.15191643578E+04  0.25500000920E-02 0. -1.
        2   -1    0    0  501    0  0.00000000000E+00  0.00000000000E+00 -0.19181849224E+04  0.19181849225E+04  0.25500000920E-02 0.  1.
    10030    2    1    2    0    0  0.00000000000E+00  0.00000000000E+00 -0.39902056465E+03  0.34373492803E+04  0.34141108159E+04 0.  0.
        5    1    3    3  502    0  0.13413057932E+04 -0.10323196675E+04 -0.42290101640E+03  0.17446066853E+04  0.46999998093E+01 0. -1.
       -5    1    3    3    0  502 -0.13413057932E+04  0.10323196675E+04  0.23880451752E+02  0.16927425949E+04  0.46999998093E+01 0.  1.
</event>
<event>
 5   0  0.7822003E-07  0.3380635E+04  0.7818609E-02  0.8142675E-01
       -2   -1    0    0    0  501  0.00000000000E+00  0.00000000000E+00  0.12545238711E+04  0.12545238711E+04  0.25500000920E-02 0. -1.
        2   -1    0    0  501    0  0.00000000000E+00  0.00000000000E+00 -0.22774964953E+04  0.22774964953E+04  0.25500000920E-02 0.  1.
    10030    2    1    2    0    0  0.00000000000E+00  0.00000000000E+00 -0.10229726242E+04  0.35320203664E+04  0.33806352774E+04 0.  0.
        5    1    3    3  502    0  0.16521338793E+04  0.26083583715E+03 -0.76648530417E+03  0.18398650767E+04  0.46999998093E+01 0. -1.
       -5    1    3    3    0  502 -0.16521338793E+04 -0.26083583715E+03 -0.25648732001E+03  0.16921552897E+04  0.46999998093E+01 0.  1.
</event>
<event>
 5   0  0.8489228E-07  0.3324184E+04  0.7818609E-02  0.8156769E-01
       -2   -1    0    0    0  501  0.00000000000E+00  0.00000000000E+00  0.13126213903E+04  0.13126213903E+04  0.25500000920E-02 0. -1.
        2   -1    0    0  501    0  0.00000000000E+00  0.00000000000E+00 -0.21046053178E+04  0.21046053178E+04  0.25500000920E-02 0.  1.
    10030    2    1    2    0    0  0.00000000000E+00  0.00000000000E+00 -0.79198392746E+03  0.34172267081E+04  0.33241840853E+04 0.  0.
        3    1    3    3  502    0  0.30232654181E+02 -0.13646861764E+03  0.13065687179E+04  0.13140241709E+04  0.10100000352E+00 0. -1.
       -3    1    3    3    0  502 -0.30232654181E+02  0.13646861764E+03 -0.20985526453E+04  0.21032025372E+04  0.10100000352E+00 0.  1.
</event>
<event>
 5   0  0.2641442E-07  0.3403956E+04  0.7818609E-02  0.8136936E-01
        1   -1    0    0  501    0  0.00000000000E+00  0.00000000000E+00  0.23322384749E+04  0.23322384749E+04  0.50400001928E-02 0. -1.
       -1   -1    0    0    0  501  0.00000000000E+00  0.00000000000E+00 -0.12420380311E+04  0.12420380311E+04  0.50400001928E-02 0.  1.
    10030    2    1    2    0    0  0.00000000000E+00  0.00000000000E+00  0.10902004438E+04  0.35742765060E+04  0.34039558655E+04 0.  0.
        1    1    3    3  502    0  0.58269413517E+03  0.11045872434E+04 -0.66908091799E+03  0.14167973420E+04  0.50400001928E-02 0.  1.
       -1    1    3    3    0  502 -0.58269413517E+03 -0.11045872434E+04  0.17592813618E+04  0.21574791641E+04  0.50400001928E-02 0. -1.
</event>
<event>
 5   0  0.2641442E-07  0.3414246E+04  0.7818609E-02  0.8134419E-01
        1   -1    0    0  501    0  0.00000000000E+00  0.00000000000E+00  0.98340890409E+03  0.98340890411E+03  0.50400001928E-02 0. -1.
       -1   -1    0    0    0  501  0.00000000000E+00  0.00000000000E+00 -0.29634362495E+04  0.29634362495E+04  0.50400001928E-02 0.  1.
    10030    2    1    2    0    0  0.00000000000E+00  0.00000000000E+00 -0.19800273454E+04  0.39468451536E+04  0.34142463851E+04 0.  0.
        1    1    3    3  502    0 -0.55781876137E+03  0.44497703604E+03 -0.27827734240E+04  0.28728025102E+04  0.50400001928E-02 0.  1.
       -1    1    3    3    0  502  0.55781876137E+03 -0.44497703604E+03  0.80274607861E+03  0.10740426434E+04  0.50400001928E-02 0. -1.
</event>
<event>
 5   0  0.7899402E-07  0.3387903E+04  0.7818609E-02  0.8140882E-01
       -2   -1    0    0    0  501  0.00000000000E+00  0.00000000000E+00  0.14407810519E+04  0.14407810519E+04  0.25500000920E-02 0.  1.
        2   -1    0    0  501    0  0.00000000000E+00  0.00000000000E+00 -0.19916084574E+04  0.19916084574E+04  0.25500000920E-02 0. -1.
    10030    2    1    2    0    0  0.00000000000E+00  0.00000000000E+00 -0.55082740549E+03  0.34323895092E+04  0.33879030258E+04 0.  0.
        2    1    3    3  502    0 -0.16899985529E+04 -0.41643684271E+02 -0.38473059510E+03  0.17337378511E+04  0.25500000920E-02 0. -1.
       -2    1    3    3    0  502  0.16899985529E+04  0.41643684271E+02 -0.16609681039E+03  0.16986516582E+04  0.25500000920E-02 0.  1.
</event>
<event>
 5   0  0.7610412E-07  0.3408471E+04  0.7818609E-02  0.8135830E-01
       -2   -1    0    0    0  501  0.00000000000E+00  0.00000000000E+00  0.96075189819E+03  0.96075189819E+03  0.25500000920E-02 0.  1.
        2   -1    0    0  501    0  0.00000000000E+00  0.00000000000E+00 -0.30230688283E+04  0.30230688283E+04  0.25500000920E-02 0. -1.
    10030    2    1    2    0    0  0.00000000000E+00  0.00000000000E+00 -0.20623169301E+04  0.39838207265E+04  0.34084712791E+04 0.  0.
        4    1    3    3  502    0  0.16705732255E+04 -0.31774541917E+03 -0.89975058815E+03  0.19238840368E+04  0.12699999809E+01 0.  1.
       -4    1    3    3    0  502 -0.16705732255E+04  0.31774541917E+03 -0.11625663419E+04  0.20599366897E+04  0.12699999809E+01 0. -1.
</event>
<event>
 5   0  0.2553250E-07  0.3404092E+04  0.7818609E-02  0.8136903E-01
        1   -1    0    0  501    0  0.00000000000E+00  0.00000000000E+00  0.11870655434E+04  0.11870655434E+04  0.50400001928E-02 0.  1.
       -1   -1    0    0    0  501  0.00000000000E+00  0.00000000000E+00 -0.24404388950E+04  0.24404388950E+04  0.50400001928E-02 0. -1.
    10030    2    1    2    0    0  0.00000000000E+00  0.00000000000E+00 -0.12533733516E+04  0.36275044384E+04  0.34040921979E+04 0.  0.
        5    1    3    3  502    0  0.52916174421E+03  0.16170509545E+04 -0.57816955984E+03  0.17969886118E+04  0.46999998093E+01 0. -1.
       -5    1    3    3    0  502 -0.52916174421E+03 -0.16170509545E+04 -0.67520379173E+03  0.18305158266E+04  0.46999998093E+01 0.  1.
</event>
<event>
 5   0  0.7610412E-07  0.3370650E+04  0.7818609E-02  0.8145148E-01
        2   -1    0    0  501    0  0.00000000000E+00  0.00000000000E+00  0.18655336413E+04  0.18655336413E+04  0.25500000920E-02 0. -1.
       -2   -1    0    0    0  501  0.00000000000E+00  0.00000000000E+00 -0.15225244599E+04  0.15225244599E+04  0.25500000920E-02 0.  1.
    10030    2    1    2    0    0  0.00000000000E+00  0.00000000000E+00  0.34300918137E+03  0.33880581012E+04  0.33706501448E+04 0.  0.
        4    1    3    3  502    0 -0.15873317023E+04  0.56592003617E+03  0.19238605403E+03  0.16961431034E+04  0.12699999809E+01 0.  1.
       -4    1    3    3    0  502  0.15873317023E+04 -0.56592003617E+03  0.15062312734E+03  0.16919149978E+04  0.12699999809E+01 0. -1.
</event>
<event>
 5   0  0.2553250E-07  0.3426363E+04  0.7818609E-02  0.8131466E-01
       -1   -1    0    0    0  501  0.00000000000E+00  0.00000000000E+00  0.10606086975E+04  0.10606086975E+04  0.50400001928E-02 0.  1.
        1   -1    0    0  501    0  0.00000000000E+00  0.00000000000E+00 -0.27672704685E+04  0.27672704685E+04  0.50400001928E-02 0. -1.
    10030    2    1    2    0    0  0.00000000000E+00  0.00000000000E+00 -0.17066617711E+04  0.38278791660E+04  0.34263631607E+04 0.  0.
        5    1    3    3  502    0  0.68795570505E+03 -0.15343118512E+04 -0.48691294660E+03  0.17505719683E+04  0.46999998093E+01 0. -1.
       -5    1    3    3    0  502 -0.68795570505E+03  0.15343118512E+04 -0.12197488245E+04  0.20773071977E+04  0.46999998093E+01 0.  1.
</event>
<event>
 5   0  0.2592200E-07  0.3371544E+04  0.7818609E-02  0.8144926E-01
       -1   -1    0    0    0  501  0.00000000000E+00  0.00000000000E+00  0.16467867509E+04  0.16467867510E+04  0.50400001928E-02 0.  1.
        1   -1    0    0  501    0  0.00000000000E+00  0.00000000000E+00 -0.17256798838E+04  0.17256798838E+04  0.50400001928E-02 0. -1.
    10030    2    1    2    0    0  0.00000000000E+00  0.00000000000E+00 -0.78893132859E+02  0.33724666348E+04  0.33715437230E+04 0.  0.
        4    1    3    3  502    0  0.62261834079E+03 -0.84831087626E+03 -0.13568265253E+04  0.17170511855E+04  0.12699999809E+01 0. -1.
       -4    1    3    3    0  502 -0.62261834079E+03  0.84831087626E+03  0.12779333925E+04  0.16554154492E+04  0.12699999809E+01 0.  1.
</event>
<event>
 5   0  0.2641442E-07  0.3260317E+04  0.7818609E-02  0.8173067E-01
        1   -1    0    0  501    0  0.00000000000E+00  0.00000000000E+00  0.21668915643E+04  0.21668915643E+04  0.50400001928E-02 0. -1.
       -1   -1    0    0    0  501  0.00000000000E+00  0.00000000000E+00 -0.12263729610E+04  0.12263729610E+04  0.50400001928E-02 0.  1.
    10030    2    1    2    0    0  0.00000000000E+00  0.00000000000E+00  0.94051860337E+03  0.33932645253E+04  0.32603172998E+04 0.  0.
        1    1    3    3  502    0  0.12748956380E+04 -0.98668809626E+03  0.21851821320E+03  0.16268566306E+04  0.50400001928E-02 0. -1.
       -1    1    3    3    0  502 -0.12748956380E+04  0.98668809626E+03  0.72200039018E+03  0.17664078947E+04  0.50400001928E-02 0.  1.
</event>
<event>
 5   0  0.2641442E-07  0.3413270E+04  0.7818609E-02  0.8134657E-01
       -1   -1    0    0    0  501  0.00000000000E+00  0.00000000000E+00  0.13165350391E+04  0.13165350391E+04  0.50400001928E-02 0.  1.
        1   -1    0    0  501    0  0.00000000000E+00  0.00000000000E+00 -0.22123245039E+04  0.22123245039E+04  0.50400001928E-02 0. -1.
    10030    2    1    2    0    0  0.00000000000E+00  0.00000000000E+00 -0.89578946480E+03  0.35288595429E+04  0.34132698265E+04 0.  0.
        1    1    3    3  502    0  0.43890564757E+02  0.72725291570E+03 -0.20434598439E+04  0.21694587617E+04  0.50400001928E-02 0. -1.
       -1    1    3    3    0  502 -0.43890564757E+02 -0.72725291570E+03  0.11476703791E+04  0.13594007813E+04  0.50400001928E-02 0.  1.
</event>
<event>
 5   0  0.2641442E-07  0.3403698E+04  0.7818609E-02  0.8136999E-01
       -1   -1    0    0    0  501  0.00000000000E+00  0.00000000000E+00  0.14003283430E+04  0.14003283430E+04  0.50400001928E-02 0.  1.
        1   -1    0    0  501    0  0.00000000000E+00  0.00000000000E+00 -0.20682929613E+04  0.20682929613E+04  0.50400001928E-02 0. -1.
    10030    2    1    2    0    0  0.00000000000E+00  0.00000000000E+00 -0.66796461823E+03  0.34686213043E+04  0.34036975514E+04 0.  0.
        1    1    3    3  502    0  0.87354153104E+03  0.12127967617E+04 -0.11633477091E+04  0.18940244676E+04  0.50400001928E-02 0. -1.
       -1    1    3    3    0  502 -0.87354153104E+03 -0.12127967617E+04  0.49538309083E+03  0.15745968367E+04  0.50400001928E-02 0.  1.
</event>
<event>
 5   0  0.2599367E-07  0.3382441E+04  0.7818609E-02  0.8142229E-01
       -1   -1    0    0    0  501  0.00000000000E+00  0.00000000000E+00  0.18095792646E+04  0.18095792646E+04  0.50400001928E-02 0. -1.
        1   -1    0    0  501    0  0.00000000000E+00  0.00000000000E+00 -0.15806035629E+04  0.15806035629E+04  0.50400001928E-02 0.  1.
    10030    2    1    2    0    0  0.00000000000E+00  0.00000000000E+00  0.22897570171E+03  0.33901828274E+04  0.33824413863E+04 0.  0.
        2    1    3    3  502    0  0.68205204521E+03 -0.13408236860E+04  0.88905945071E+03  0.17474066087E+04  0.25500000920E-02 0. -1.
       -2    1    3    3    0  502 -0.68205204521E+03  0.13408236860E+04 -0.66008374901E+03  0.16427762188E+04  0.25500000920E-02 0.  1.
</event>
<event>
 5   0  0.2553250E-07  0.3338798E+04  0.7818609E-02  0.8153093E-01
       -1   -1    0    0    0  501  0.00000000000E+00  0.00000000000E+00  0.14666751870E+04  0.14666751870E+04  0.50400001928E-02 0.  1.
        1   -1    0    0  501    0  0.00000000000E+00  0.00000000000E+00 -0.19001437595E+04  0.19001437595E+04  0.50400001928E-02 0. -1.
    10030    2    1    2    0    0  0.00000000000E+00  0.00000000000E+00 -0.43346857243E+03  0.33668189465E+04  0.33387984089E+04 0.  0.
        5    1    3    3  502    0  0.47437372685E+03  0.15153490449E+04  0.30291415602E+03  0.16165061820E+04  0.46999998093E+01 0. -1.
       -5    1    3    3    0  502 -0.47437372685E+03 -0.15153490449E+04 -0.73638272846E+03  0.17503127645E+04  0.46999998093E+01 0.  1.
</event>
<event>
 5   0  0.8489228E-07  0.3388859E+04  0.7818609E-02  0.8140646E-01
        2   -1    0    0  501    0  0.00000000000E+00  0.00000000000E+00  0.27022410643E+04  0.27022410643E+04  0.25500000920E-02 0.  1.
       -2   -1    0    0    0  501  0.00000000000E+00  0.00000000000E+00 -0.10624853880E+04  0.10624853880E+04  0.25500000920E-02 0. -1.
    10030    2    1    2    0    0  0.00000000000E+00  0.00000000000E+00  0.16397556763E+04  0.37647264523E+04  0.33888591861E+04 0.  0.
        3    1    3    3  502    0  0.21564840156E+03  0.39666419226E+03  0.26341872376E+04  0.26725996946E+04  0.10100000352E+00 0.  1.
       -3    1    3    3    0  502 -0.21564840156E+03 -0.39666419226E+03 -0.99443156136E+03  0.10921267577E+04  0.10100000352E+00 0. -1.
</event>
<event>
 5   0  0.2622205E-07  0.3389104E+04  0.7818609E-02  0.8140586E-01
       -1   -1    0    0    0  501  0.00000000000E+00  0.00000000000E+00  0.10644966921E+04  0.10644966921E+04  0.50400001928E-02 0. -1.
        1   -1    0    0  501    0  0.00000000000E+00  0.00000000000E+00 -0.26975247271E+04  0.26975247271E+04  0.50400001928E-02 0.  1.
    10030    2    1    2    0    0  0.00000000000E+00  0.00000000000E+00 -0.16330280350E+04  0.37620214193E+04  0.33891038042E+04 0.  0.
        3    1    3    3  502    0 -0.13808756791E+04  0.64064013027E+03 -0.16429259483E+04  0.22397417484E+04  0.10100000352E+00 0.  1.
       -3    1    3    3    0  502  0.13808756791E+04 -0.64064013027E+03  0.98979132796E+01  0.15222796709E+04  0.10100000352E+00 0. -1.
</event>
<event>
 5   0  0.2599367E-07  0.3380114E+04  0.7818609E-02  0.8142804E-01
        1   -1    0    0  501    0  0.00000000000E+00  0.00000000000E+00  0.12203958970E+04  0.12203958970E+04  0.50400001928E-02 0.  1.
       -1   -1    0    0    0  501  0.00000000000E+00  0.00000000000E+00 -0.23404638742E+04  0.23404638742E+04  0.50400001928E-02 0. -1.
    10030    2    1    2    0    0  0.00000000000E+00  0.00000000000E+00 -0.11200679771E+04  0.35608597712E+04  0.33801139088E+04 0.  0.
        2    1    3    3  502    0  0.15591143657E+04 -0.29275623636E+03 -0.11740821431E+04  0.19735786526E+04  0.25500000920E-02 0. -1.
       -2    1    3    3    0  502 -0.15591143657E+04  0.29275623636E+03  0.54014165982E+02  0.15872811186E+04  0.25500000920E-02 0.  1.
</event>
<event>
 5   0  0.7822003E-07  0.3381759E+04  0.7818609E-02  0.8142398E-01
        2   -1    0    0  501    0  0.00000000000E+00  0.00000000000E+00  0.22227520184E+04  0.22227520184E+04  0.25500000920E-02 0.  1.
       -2   -1    0    0    0  501  0.00000000000E+00  0.00000000000E+00 -0.12862762275E+04  0.12862762275E+04  0.25500000920E-02 0. -1.
    10030    2    1    2    0    0  0.00000000000E+00  0.00000000000E+00  0.93647579090E+03  0.35090282460E+04  0.33817587620E+04 0.  0.
        5    1    3    3  502    0 -0.64598094754E+03 -0.13930356541E+04  0.12028442069E+04  0.19505629942E+04  0.46999998093E+01 0.  1.
       -5    1    3    3    0  502  0.64598094754E+03  0.13930356541E+04 -0.26636841602E+03  0.15584652518E+04  0.46999998093E+01 0. -1.
</event>
<event>
 5   0  0.8489228E-07  0.3373986E+04  0.7818609E-02  0.8144321E-01
        2   -1    0    0  501    0  0.00000000000E+00  0.00000000000E+00  0.23756107468E+04  0.23756107468E+04  0.25500000920E-02 0. -1.
       -2   -1    0    0    0  501  0.00000000000E+00  0.00000000000E+00 -0.11979845963E+04  0.11979845963E+04  0.25500000920E-02 0.  1.
    10030    2    1    2    0    0  0.00000000000E+00  0.00000000000E+00  0.11776261504E+04  0.35735953431E+04  0.33739858219E+04 0.  0.
        3    1    3    3  502    0 -0.71996670718E+03  0.10021148429E+04  0.18072440580E+04  0.21883138059E+04  0.10100000352E+00 0. -1.
       -3    1    3    3    0  502  0.71996670718E+03 -0.10021148429E+04 -0.62961790754E+03  0.13852815372E+04  0.10100000352E+00 0.  1.
</event>
<event>
 5   0  0.2641442E-07  0.3464172E+04  0.7818609E-02  0.8122333E-01
       -1   -1    0    0    0  501  0.00000000000E+00  0.00000000000E+00  0.24708132383E+04  0.24708132383E+04  0.50400001928E-02 0. -1.
        1   -1    0    0  501    0  0.00000000000E+00  0.00000000000E+00 -0.12142247006E+04  0.12142247006E+04  0.50400001928E-02 0.  1.
    10030    2    1    2    0    0  0.00000000000E+00  0.00000000000E+00  0.12565885377E+04  0.36850379389E+04  0.34641723194E+04 0.  0.
        1    1    3    3  502    0  0.11394839515E+04 -0.81758991038E+03 -0.45300085194E+03  0.14738000913E+04  0.50400001928E-02 0.  1.
       -1    1    3    3    0  502 -0.11394839515E+04  0.81758991038E+03  0.17095893897E+04  0.22112378476E+04  0.50400001928E-02 0. -1.
</event>
<event>
 5   0  0.7610412E-07  0.3429001E+04  0.7818609E-02  0.8130825E-01
        2   -1    0    0  501    0  0.00000000000E+00  0.00000000000E+00  0.14534265801E+04  0.14534265801E+04  0.25500000920E-02 0. -1.
       -2   -1    0    0    0  501  0.00000000000E+00  0.00000000000E+00 -0.20224696291E+04  0.20224696291E+04  0.25500000920E-02 0.  1.
    10030    2    1    2    0    0  0.00000000000E+00  0.00000000000E+00 -0.56904304901E+03  0.34758962091E+04  0.34290005052E+04 0.  0.
        4    1    3    3  502    0  0.94795534630E+02 -0.16974691346E+04 -0.59855916344E+02  0.17011678341E+04  0.12699999809E+01 0. -1.
       -4    1    3    3    0  502 -0.94795534630E+02  0.16974691346E+04 -0.50918713266E+03  0.17747283750E+04  0.12699999809E+01 0.  1.
</event>
<event>
 5   0  0.7838333E-07  0.3405589E+04  0.7818609E-02  0.8136536E-01
        2   -1    0    0  501    0  0.00000000000E+00  0.00000000000E+00  0.10964655016E+04  0.10964655017E+04  0.25500000920E-02 0. -1.
       -2   -1    0    0    0  501  0.00000000000E+00  0.00000000000E+00 -0.26444145047E+04  0.26444145047E+04  0.25500000920E-02 0.  1.
    10030    2    1    2    0    0  0.00000000000E+00  0.00000000000E+00 -0.15479490030E+04  0.37408800063E+04  0.34055890982E+04 0.  0.
        1    1    3    3  502    0 -0.50398987870E+03  0.79644631483E+02  0.10105166895E+04  0.11320304965E+04  0.50400001928E-02 0. -1.
       -1    1    3    3    0  502  0.50398987870E+03 -0.79644631483E+02 -0.25584656925E+04  0.26088495099E+04  0.50400001928E-02 0.  1.
</event>
<event>
 5   0  0.8489228E-07  0.3322065E+04  0.7818609E-02  0.8157304E-01
        2   -1    0    0  501    0  0.00000000000E+00  0.00000000000E+00  0.21895062376E+04  0.21895062376E+04  0.25500000920E-02 0.  1.
       -2   -1    0    0    0  501  0.00000000000E+00  0.00000000000E+00 -0.12601144820E+04  0.12601144820E+04  0.25500000920E-02 0. -1.
    10030    2    1    2    0    0  0.00000000000E+00  0.00000000000E+00  0.92939175559E+03  0.34496207196E+04  0.33220647305E+04 0.  0.
        3    1    3    3  502    0 -0.13610110957E+04  0.93866904362E+03  0.63076705882E+03  0.17695530138E+04  0.10100000352E+00 0. -1.
       -3    1    3    3    0  502  0.13610110957E+04 -0.93866904362E+03  0.29862469677E+03  0.16800677057E+04  0.10100000352E+00 0.  1.
</event>
<event>
 5   0  0.2553250E-07  0.3293419E+04  0.7818609E-02  0.8164572E-01
       -1   -1    0    0    0  501  0.00000000000E+00  0.00000000000E+00  0.10457660148E+04  0.10457660148E+04  0.50400001928E-02 0.  1.
        1   -1    0    0  501    0  0.00000000000E+00  0.00000000000E+00 -0.25929813354E+04  0.25929813354E+04  0.50400001928E-02 0. -1.
    10030    2    1    2    0    0  0.00000000000E+00  0.00000000000E+00 -0.15472153206E+04  0.36387473502E+04  0.32934187450E+04 0.  0.
        5    1    3    3  502    0  0.12299432024E+04  0.46750040246E+03  0.32031665806E+03  0.13542310581E+04  0.46999998093E+01 0.  1.
       -5    1    3    3    0  502 -0.12299432024E+04 -0.46750040246E+03 -0.18675319787E+04  0.22845162921E+04  0.46999998093E+01 0. -1.
</event>
<event>
 5   0  0.2599367E-07  0.3405310E+04  0.7818609E-02  0.8136604E-01
       -1   -1    0    0    0  501  0.00000000000E+00  0.00000000000E+00  0.98098128611E+03  0.98098128612E+03  0.50400001928E-02 0.  1.
        1   -1    0    0  501    0  0.00000000000E+00  0.00000000000E+00 -0.29552396368E+04  0.29552396368E+04  0.50400001928E-02 0. -1.
    10030    2    1    2    0    0  0.00000000000E+00  0.00000000000E+00 -0.19742583507E+04  0.39362209229E+04  0.34053104291E+04 0.  0.
        2    1    3    3  502    0  0.11580678240E+04  0.35816154170E+03 -0.23692155702E+04  0.26613123066E+04  0.25500000920E-02 0. -1.
       -2    1    3    3    0  502 -0.11580678240E+04 -0.35816154170E+03  0.39495721953E+03  0.12749086164E+04  0.25500000920E-02 0.  1.
</event>
<event>
 5   0  0.2641442E-07  0.3394115E+04  0.7818609E-02  0.8139352E-01
        1   -1    0    0  501    0  0.00000000000E+00  0.00000000000E+00  0.25652929009E+04  0.25652929009E+04  0.50400001928E-02 0. -1.
       -1   -1    0    0    0  501  0.00000000000E+00  0.00000000000E+00 -0.11226802805E+04  0.11226802805E+04  0.50400001928E-02 0.  1.
    10030    2    1    2    0    0  0.00000000000E+00  0.00000000000E+00  0.14426126205E+04  0.36879731814E+04  0.33941147615E+04 0.  0.
        1    1    3    3  502    0 -0.66511310497E+03  0.15370082375E+04  0.42327061874E+03  0.17274049268E+04  0.50400001928E-02 0.  1.
       -1    1    3    3    0  502  0.66511310497E+03 -0.15370082375E+04  0.10193420017E+04  0.19605682546E+04  0.50400001928E-02 0. -1.
</event>
<event>
 5   0  0.7899402E-07  0.3405340E+04  0.7818609E-02  0.8136597E-01
        2   -1    0    0  501    0  0.00000000000E+00  0.00000000000E+00  0.18668713023E+04  0.18668713023E+04  0.25500000920E-02 0.  1.
       -2   -1    0    0    0  501  0.00000000000E+00  0.00000000000E+00 -0.15529107840E+04  0.15529107840E+04  0.25500000920E-02 0. -1.
    10030    2    1    2    0    0  0.00000000000E+00  0.00000000000E+00  0.31396051825E+03  0.34197820863E+04  0.34053396763E+04 0.  0.
        2    1    3    3  502    0 -0.43401299094E+03 -0.76928729123E+03  0.16188029443E+04  0.18440968482E+04  0.25500000920E-02 0.  1.
       -2    1    3    3    0  502  0.43401299094E+03  0.76928729123E+03 -0.13048424261E+04  0.15756852381E+04  0.25500000920E-02 0. -1.
</event>
<event>
 5   0  0.7610412E-07  0.3314008E+04  0.7818609E-02  0.8159340E-01
        2   -1    0    0  501    0  0.00000000000E+00  0.00000000000E+00  0.20630993693E+04  0.20630993693E+04  0.25500000920E-02 0. -1.
       -2   -1    0    0    0  501  0.00000000000E+00  0.00000000000E+00 -0.13308430975E+04  0.13308430975E+04  0.25500000920E-02 0.  1.
    10030    2    1    2    0    0  0.00000000000E+00  0.00000000000E+00  0.73225627175E+03  0.33939424668E+04  0.33140075770E+04 0.  0.
        4    1    3    3  502    0  0.33404164270E+02 -0.13368016539E+04  0.13682524618E+04  0.19131834497E+04  0.12699999809E+01 0. -1.
       -4    1    3    3    0  502 -0.33404164270E+02  0.13368016539E+04 -0.63599619005E+03  0.14807590171E+04  0.12699999809E+01 0.  1.
</event>
<event>
 5   0  0.2599367E-07  0.3397521E+04  0.7818609E-02  0.8138515E-01
        1   -1    0    0  501    0  0.00000000000E+00  0.00000000000E+00  0.93815403570E+03  0.93815403571E+03  0.50400001928E-02 0. -1.
       -1   -1    0    0    0  501  0.00000000000E+00  0.00000000000E+00 -0.30760273243E+04  0.30760273243E+04  0.50400001928E-02 0.  1.
    10030    2    1    2    0    0  0.00000000000E+00  0.00000000000E+00 -0.21378732886E+04  0.40141813600E+04  0.33975211247E+04 0.  0.
        2    1    3    3  502    0 -0.15792058018E+04 -0.44440353936E+03 -0.15898735952E+04  0.22845313566E+04  0.25500000920E-02 0.  1.
       -2    1    3    3    0  502  0.15792058018E+04  0.44440353936E+03 -0.54799969332E+03  0.17296500034E+04  0.25500000920E-02 0. -1.
</event>
<event>
 5   0  0.2553250E-07  0.3421176E+04  0.7818609E-02  0.8132729E-01
       -1   -1    0    0    0  501  0.00000000000E+00  0.00000000000E+00  0.27808111128E+04  0.27808111128E+04  0.50400001928E-02 0.  1.
        1   -1    0    0  501    0  0.00000000000E+00  0.00000000000E+00 -0.10522509933E+04  0.10522509933E+04  0.50400001928E-02 0. -1.
    10030    2    1    2    0    0  0.00000000000E+00  0.00000000000E+00  0.17285601195E+04  0.38330621061E+04  0.34211759707E+04 0.  0.
        5    1    3    3  502    0 -0.74545444012E+03  0.87356908237E+03  0.22846910974E+04  0.25570805159E+04  0.46999998093E+01 0.  1.
       -5    1    3    3    0  502  0.74545444012E+03 -0.87356908237E+03 -0.55613097791E+03  0.12759815902E+04  0.46999998093E+01 0. -1.
</event>
<event>
 5   0  0.2599367E-07  0.3392662E+04  0.7818609E-02  0.8139710E-01
        1   -1    0    0  501    0  0.00000000000E+00  0.00000000000E+00  0.14288975319E+04  0.14288975319E+04  0.50400001928E-02 0.  1.
       -1   -1    0    0    0  501  0.00000000000E+00  0.00000000000E+00 -0.20138171734E+04  0.20138171734E+04  0.50400001928E-02 0. -1.
    10030    2    1    2    0    0  0.00000000000E+00  0.00000000000E+00 -0.58491964149E+03  0.34427147053E+04  0.33926617212E+04 0.  0.
        2    1    3    3  502    0  0.26785184456E+03 -0.15859123387E+04 -0.83955758248E+03  0.18143096458E+04  0.25500000920E-02 0. -1.
       -2    1    3    3    0  502 -0.26785184456E+03  0.15859123387E+04  0.25463794099E+03  0.16284050594E+04  0.25500000920E-02 0.  1.
</event>
<event>
 5   0  0.7899402E-07  0.3449676E+04  0.7818609E-02  0.8125821E-01
       -2   -1    0    0    0  501  0.00000000000E+00  0.00000000000E+00  0.20661721933E+04  0.20661721933E+04  0.25500000920E-02 0.  1.
        2   -1    0    0  501    0  0.00000000000E+00  0.00000000000E+00 -0.14398923525E+04  0.14398923525E+04  0.25500000920E-02 0. -1.
    10030    2    1    2    0    0  0.00000000000E+00  0.00000000000E+00  0.62627984086E+03  0.35060645458E+04  0.34496756602E+04 0.  0.
        2    1    3    3  502    0  0.41208270591E+03  0.30339641189E+03 -0.13609657485E+04  0.14539908211E+04  0.25500000920E-02 0. -1.
       -2    1    3    3    0  502 -0.41208270591E+03 -0.30339641189E+03  0.19872455894E+04  0.20520737247E+04  0.25500000920E-02 0.  1.
</event>
<event>
 5   0  0.8489228E-07  0.3480194E+04  0.7818609E-02  0.8118500E-01
        2   -1    0    0  501    0  0.00000000000E+00  0.00000000000E+00  0.11484784565E+04  0.11484784565E+04  0.25500000920E-02 0.  1.
       -2   -1    0    0    0  501  0.00000000000E+00  0.00000000000E+00 -0.26364768573E+04  0.26364768573E+04  0.25500000920E-02 0. -1.
    10030    2    1    2    0    0  0.00000000000E+00  0.00000000000E+00 -0.14879984008E+04  0.37849553138E+04  0.34801935991E+04 0.  0.
        3    1    3    3  502    0  0.10165661632E+04 -0.56379282246E+03  0.66425436074E+03  0.13388438956E+04  0.10100000352E+00 0.  1.
       -3    1    3    3    0  502 -0.10165661632E+04  0.56379282246E+03 -0.21522527615E+04  0.24461114182E+04  0.10100000352E+00 0. -1.
</event>
<event>
 5   0  0.7899402E-07  0.3226672E+04  0.7818609E-02  0.8181809E-01
       -2   -1    0    0    0  501  0.00000000000E+00  0.00000000000E+00  0.15891179390E+04  0.15891179390E+04  0.25500000920E-02 0. -1.
        2   -1    0    0  501    0  0.00000000000E+00  0.00000000000E+00 -0.16379227367E+04  0.16379227367E+04  0.25500000920E-02 0.  1.
    10030    2    1    2    0    0  0.00000000000E+00  0.00000000000E+00 -0.48804797654E+02  0.32270406757E+04  0.32266716001E+04 0.  0.
        2    1    3    3  502    0  0.41590268616E+03  0.43423916999E+01 -0.15833810397E+04  0.16370978644E+04  0.25500000920E-02 0.  1.
       -2    1    3    3    0  502 -0.41590268616E+03 -0.43423916999E+01  0.15345762420E+04  0.15899428113E+04  0.25500000920E-02 0. -1.
</event>
<event>
 5   0  0.2622205E-07  0.3426026E+04  0.7818609E-02  0.8131548E-01
       -1   -1    0    0    0  501  0.00000000000E+00  0.00000000000E+00  0.16000511835E+04  0.16000511835E+04  0.50400001928E-02 0. -1.
        1   -1    0    0  501    0  0.00000000000E+00  0.00000000000E+00 -0.18339497597E+04  0.18339497597E+04  0.50400001928E-02 0.  1.
    10030    2    1    2    0    0  0.00000000000E+00  0.00000000000E+00 -0.23389857615E+03  0.34340009432E+04  0.34260259681E+04 0.  0.
        3    1    3    3  502    0  0.53748821076E+03  0.15616971585E+03 -0.17397086233E+04  0.18275307551E+04  0.10100000352E+00 0.  1.
       -3    1    3    3    0  502 -0.53748821076E+03 -0.15616971585E+03  0.15058100471E+04  0.16064701881E+04  0.10100000352E+00 0. -1.
</event>
<event>
 5   0  0.2553250E-07  0.3393799E+04  0.7818609E-02  0.8139430E-01
       -1   -1    0    0    0  501  0.00000000000E+00  0.00000000000E+00  0.20049600509E+04  0.20049600509E+04  0.50400001928E-02 0.  1.
        1   -1    0    0  501    0  0.00000000000E+00  0.00000000000E+00 -0.14361725603E+04  0.14361725603E+04  0.50400001928E-02 0. -1.
    10030    2    1    2    0    0  0.00000000000E+00  0.00000000000E+00  0.56878749057E+03  0.34411326112E+04  0.33937994104E+04 0.  0.
        5    1    3    3  502    0  0.10756663113E+04  0.51292786513E+03 -0.94046657343E+03  0.15181081891E+04  0.46999998093E+01 0. -1.
       -5    1    3    3    0  502 -0.10756663113E+04 -0.51292786513E+03  0.15092540640E+04  0.19230244220E+04  0.46999998093E+01 0.  1.
</event>
<event>
 5   0  0.7822003E-07  0.3425604E+04  0.7818609E-02  0.8131651E-01
        2   -1    0    0  501    0  0.00000000000E+00  0.00000000000E+00  0.22008078192E+04  0.22008078192E+04  0.25500000920E-02 0. -1.
       -2   -1    0    0    0  501  0.00000000000E+00  0.00000000000E+00 -0.13330060773E+04  0.13330060773E+04  0.25500000920E-02 0.  1.
    10030    2    1    2    0    0  0.00000000000E+00  0.00000000000E+00  0.86780174185E+03  0.35338138966E+04  0.34256037121E+04 0.  0.
        5    1    3    3  502    0  0.18796598101E+03 -0.91346100170E+03 -0.10481175569E+04  0.14029663983E+04  0.46999998093E+01 0.  1.
       -5    1    3    3    0  502 -0.18796598101E+03  0.91346100170E+03  0.19159192987E+04  0.21308474983E+04  0.46999998093E+01 0. -1.
</event>
<event>
 5   0  0.2553250E-07  0.3491991E+04  0.7818609E-02  0.8115691E-01
        1   -1    0    0  501    0  0.00000000000E+00  0.00000000000E+00  0.25798127586E+04  0.25798127586E+04  0.50400001928E-02 0. -1.
       -1   -1    0    0    0  501  0.00000000000E+00  0.00000000000E+00 -0.11816746926E+04  0.11816746926E+04  0.50400001928E-02 0.  1.
    10030    2    1    2    0    0  0.00000000000E+00  0.00000000000E+00  0.13981380660E+04  0.37614874512E+04  0.34919905203E+04 0.  0.
        5    1    3    3  502    0 -0.10294483393E+04  0.94768073773E+03 -0.42585250944E+03  0.14626124277E+04  0.46999998093E+01 0.  1.
       -5    1    3    3    0  502  0.10294483393E+04 -0.94768073773E+03  0.18239905755E+04  0.22988750234E+04  0.46999998093E+01 0. -1.
</event>
<event>
 5   0  0.2599367E-07  0.3370215E+04  0.7818609E-02  0.8145255E-01
       -1   -1    0    0    0  501  0.00000000000E+00  0.00000000000E+00  0.15205889423E+04  0.15205889423E+04  0.50400001928E-02 0. -1.
        1   -1    0    0  501    0  0.00000000000E+00  0.00000000000E+00 -0.18674262798E+04  0.18674262798E+04  0.50400001928E-02 0.  1.
    10030    2    1    2    0    0  0.00000000000E+00  0.00000000000E+00 -0.34683733742E+03  0.33880152221E+04  0.33702152760E+04 0.  0.
        2    1    3    3  502    0 -0.12344031093E+04  0.10781829695E+04  0.22025939035E+03  0.16537060655E+04  0.25500000920E-02 0.  1.
       -2    1    3    3    0  502  0.12344031093E+04 -0.10781829695E+04 -0.56709672777E+03  0.17343091566E+04  0.25500000920E-02 0. -1.
</event>
<event>
 5   0  0.7822003E-07  0.3373270E+04  0.7818609E-02  0.8144498E-01
       -2   -1    0    0    0  501  0.00000000000E+00  0.00000000000E+00  0.14412024219E+04  0.14412024219E+04  0.25500000920E-02 0.  1.
        2   -1    0    0  501    0  0.00000000000E+00  0.00000000000E+00 -0.19738636342E+04  0.19738636342E+04  0.25500000920E-02 0. -1.
    10030    2    1    2    0    0  0.00000000000E+00  0.00000000000E+00 -0.53266121220E+03  0.34150660561E+04  0.33732696602E+04 0.  0.
        5    1    3    3  502    0  0.82920544716E+03 -0.12244392692E+04  0.55481840069E+03  0.15794552052E+04  0.46999998093E+01 0.  1.
       -5    1    3    3    0  502 -0.82920544716E+03  0.12244392692E+04 -0.10874796129E+04  0.18356108509E+04  0.46999998093E+01 0. -1.
</event>
<event>
 5   0  0.2641442E-07  0.3386004E+04  0.7818609E-02  0.8141350E-01
       -1   -1    0    0    0  501  0.00000000000E+00  0.00000000000E+00  0.17575218642E+04  0.17575218642E+04  0.50400001928E-02 0.  1.
        1   -1    0    0  501    0  0.00000000000E+00  0.00000000000E+00 -0.16308502610E+04  0.16308502610E+04  0.50400001928E-02 0. -1.
    10030    2    1    2    0    0  0.00000000000E+00  0.00000000000E+00  0.12667160323E+03  0.33883721252E+04  0.33860035387E+04 0.  0.
        1    1    3    3  502    0  0.11091416541E+04  0.12462831908E+04 -0.22468142872E+03  0.16834187670E+04  0.50400001928E-02 0. -1.
       -1    1    3    3    0  502 -0.11091416541E+04 -0.12462831908E+04  0.35135303195E+03  0.17049533582E+04  0.50400001928E-02 0.  1.
</event>
<event>
 5   0  0.8489228E-07  0.3402571E+04  0.7818609E-02  0.8137276E-01
        2   -1    0    0  501    0  0.00000000000E+00  0.00000000000E+00  0.17174636106E+04  0.17174636106E+04  0.25500000920E-02 0.  1.
       -2   -1    0    0    0  501  0.00000000000E+00  0.00000000000E+00 -0.16852593334E+04  0.16852593334E+04  0.25500000920E-02 0. -1.
    10030    2    1    2    0    0  0.00000000000E+00  0.00000000000E+00  0.32204277188E+02  0.34027229440E+04  0.34025705456E+04 0.  0.
        3    1    3    3  502    0  0.10159952053E+04  0.82767457929E+03  0.11010839569E+04  0.17116300292E+04  0.10100000352E+00 0.  1.
       -3    1    3    3    0  502 -0.10159952053E+04 -0.82767457929E+03 -0.10688796797E+04  0.16910929148E+04  0.10100000352E+00 0. -1.
</event>
<event>
 5   0  0.7610412E-07  0.3392957E+04  0.7818609E-02  0.8139637E-01
        2   -1    0    0  501    0  0.00000000000E+00  0.00000000000E+00  0.15242781806E+04  0.15242781806E+04  0.25500000920E-02 0. -1.
       -2   -1    0    0    0  501  0.00000000000E+00  0.00000000000E+00 -0.18881331105E+04  0.18881331105E+04  0.25500000920E-02 0.  1.
    10030    2    1    2    0    0  0.00000000000E+00  0.00000000000E+00 -0.36385492985E+03  0.34124112911E+04  0.33929574724E+04 0.  0.
        4    1    3    3  502    0  0.44447351505E+03 -0.10812456284E+04  0.10545072202E+04  0.15743684145E+04  0.12699999809E+01 0. -1.
       -4    1    3    3    0  502 -0.44447351505E+03  0.10812456284E+04 -0.14183621500E+04  0.18380428765E+04  0.12699999809E+01 0.  1.
</event>
<event>
 5   0  0.8489228E-07  0.3377577E+04  0.7818609E-02  0.8143432E-01
        2   -1    0    0  501    0  0.00000000000E+00  0.00000000000E+00  0.92269743422E+03  0.92269743422E+03  0.25500000920E-02 0.  1.
       -2   -1    0    0    0  501  0.00000000000E+00  0.00000000000E+00 -0.30909448778E+04  0.30909448778E+04  0.25500000920E-02 0. -1.
    10030    2    1    2    0    0  0.00000000000E+00  0.00000000000E+00 -0.21682474436E+04  0.40136423120E+04  0.33775771838E+04 0.  0.
        3    1    3    3  502    0 -0.13425932509E+04  0.87698398392E+03 -0.17133156796E+04  0.23467228583E+04  0.10100000352E+00 0.  1.
       -3    1    3    3    0  502  0.13425932509E+04 -0.87698398392E+03 -0.45493176398E+03  0.16669194538E+04  0.10100000352E+00 0. -1.
</event>
<event>
 5   0  0.2599367E-07  0.3401168E+04  0.7818609E-02  0.8137620E-01
        1   -1    0    0  501    0  0.00000000000E+00  0.00000000000E+00  0.19472891307E+04  0.19472891307E+04  0.50400001928E-02 0.  1.
       -1   -1    0    0    0  501  0.00000000000E+00  0.00000000000E+00 -0.14851340247E+04  0.14851340247E+04  0.50400001928E-02 0. -1.
    10030    2    1    2    0    0  0.00000000000E+00  0.00000000000E+00  0.46215510593E+03  0.34324231554E+04  0.34011676489E+04 0.  0.
        2    1    3    3  502    0  0.60500314812E+03 -0.38944900119E+03 -0.13239543390E+04  0.15068358987E+04  0.25500000920E-02 0. -1.
       -2    1    3    3    0  502 -0.60500314812E+03  0.38944900119E+03  0.17861094450E+04  0.19255872567E+04  0.25500000920E-02 0.  1.
</event>
<event>
 5   0  0.7610412E-07  0.3399840E+04  0.7818609E-02  0.8137946E-01
       -2   -1    0    0    0  501  0.00000000000E+00  0.00000000000E+00  0.19776731900E+04  0.19776731900E+04  0.25500000920E-02 0.  1.
        2   -1    0    0  501    0  0.00000000000E+00  0.00000000000E+00 -0.14611756572E+04  0.14611756572E+04  0.25500000920E-02 0. -1.
    10030    2    1    2    0    0  0.00000000000E+00  0.00000000000E+00  0.51649753283E+03  0.34388488471E+04  0.33998399509E+04 0.  0.
        4    1    3    3  502    0 -0.14470757838E+04  0.86452079546E+03  0.48054708746E+03  0.17528124960E+04  0.12699999809E+01 0. -1.
       -4    1    3    3    0  502  0.14470757838E+04 -0.86452079546E+03  0.35950445371E+02  0.16860363511E+04  0.12699999809E+01 0.  1.
</event>
<event>
 5   0  0.2553250E-07  0.3449293E+04  0.7818609E-02  0.8125913E-01
        1   -1    0    0  501    0  0.00000000000E+00  0.00000000000E+00  0.13178368419E+04  0.13178368419E+04  0.50400001928E-02 0.  1.
       -1   -1    0    0    0  501  0.00000000000E+00  0.00000000000E+00 -0.22570358265E+04  0.22570358265E+04  0.50400001928E-02 0. -1.
    10030    2    1    2    0    0  0.00000000000E+00  0.00000000000E+00 -0.93919898465E+03  0.35748726684E+04  0.34492926612E+04 0.  0.
        5    1    3    3  502    0 -0.16288840160E+04  0.28446253069E+03  0.38346764101E+02  0.16539874949E+04  0.46999998093E+01 0. -1.
       -5    1    3    3    0  502  0.16288840160E+04 -0.28446253069E+03 -0.97754574875E+03  0.19208851735E+04  0.46999998093E+01 0.  1.
</event>
<event>
 5   0  0.2599367E-07  0.3291522E+04  0.7818609E-02  0.8165056E-01
        1   -1    0    0  501    0  0.00000000000E+00  0.00000000000E+00  0.17865118498E+04  0.17865118498E+04  0.50400001928E-02 0. -1.
       -1   -1    0    0    0  501  0.00000000000E+00  0.00000000000E+00 -0.15160992046E+04  0.15160992046E+04  0.50400001928E-02 0.  1.
    10030    2    1    2    0    0  0.00000000000E+00  0.00000000000E+00  0.27041264519E+03  0.33026110545E+04  0.32915219547E+04 0.  0.
        2    1    3    3  502    0 -0.13917116466E+04  0.61489725470E+03  0.76467084207E+03  0.17028451009E+04  0.25500000920E-02 0. -1.
       -2    1    3    3    0  502  0.13917116466E+04 -0.61489725470E+03 -0.49425819688E+03  0.15997659536E+04  0.25500000920E-02 0.  1.
</event>
<event>
 5   0  0.2553250E-07  0.3395367E+04  0.7818609E-02  0.8139044E-01
        3   -1    0    0  501    0  0.00000000000E+00  0.00000000000E+00  0.15886502329E+04  0.15886502361E+04  0.10100000352E+00 0.  1.
       -3   -1    0    0    0  501  0.00000000000E+00  0.00000000000E+00 -0.18142002082E+04  0.18142002110E+04  0.10100000352E+00 0. -1.
    10030    2    1    2    0    0  0.00000000000E+00  0.00000000000E+00 -0.22554997531E+03  0.34028504470E+04  0.33953671927E+04 0.  0.
        3    1    3    3  502    0  0.84958850127E+03 -0.10997866519E+04 -0.10900129032E+04  0.17661991509E+04  0.10100000352E+00 0. -1.
       -3    1    3    3    0  502 -0.84958850127E+03  0.10997866519E+04  0.86446292788E+03  0.16366512961E+04  0.10100000352E+00 0.  1.
</event>
<event>
 5   0  0.2599367E-07  0.3393802E+04  0.7818609E-02  0.8139429E-01
        1   -1    0    0  501    0  0.00000000000E+00  0.00000000000E+00  0.18096634292E+04  0.18096634292E+04  0.50400001928E-02 0. -1.
       -1   -1    0    0    0  501  0.00000000000E+00  0.00000000000E+00 -0.15911653752E+04  0.15911653752E+04  0.50400001928E-02 0.  1.
    10030    2    1    2    0    0  0.00000000000E+00  0.00000000000E+00  0.21849805404E+03  0.34008288044E+04  0.33938024629E+04 0.  0.
        2    1    3    3  502    0  0.12708346996E+03 -0.13177610677E+04 -0.95447087505E+03  0.16320720239E+04  0.25500000920E-02 0.  1.
       -2    1    3    3    0  502 -0.12708346996E+03  0.13177610677E+04  0.11729689291E+04  0.17687567805E+04  0.25500000920E-02 0. -1.
</event>
<event>
 5   0  0.2622205E-07  0.3425877E+04  0.7818609E-02  0.8131584E-01
       -1   -1    0    0    0  501  0.00000000000E+00  0.00000000000E+00  0.18752856968E+04  0.18752856968E+04  0.50400001928E-02 0. -1.
        1   -1    0    0  501    0  0.00000000000E+00  0.00000000000E+00 -0.15646457488E+04  0.15646457488E+04  0.50400001928E-02 0.  1.
    10030    2    1    2    0    0  0.00000000000E+00  0.00000000000E+00  0.31063994798E+03  0.34399314456E+04  0.34258767014E+04 0.  0.
        3    1    3    3  502    0 -0.18656537939E+03  0.66096397744E+03  0.17309861697E+04  0.18622548564E+04  0.10100000352E+00 0. -1.
       -3    1    3    3    0  502  0.18656537939E+03 -0.66096397744E+03 -0.14203462217E+04  0.15776765892E+04  0.10100000352E+00 0.  1.
</event>
<event>
 5   0  0.2553250E-07  0.3323473E+04  0.7818609E-02  0.8156948E-01
       -1   -1    0    0    0  501  0.00000000000E+00  0.00000000000E+00  0.12116389204E+04  0.12116389204E+04  0.50400001928E-02 0.  1.
        1   -1    0    0  501    0  0.00000000000E+00  0.00000000000E+00 -0.22790356442E+04  0.22790356442E+04  0.50400001928E-02 0. -1.
    10030    2    1    2    0    0  0.00000000000E+00  0.00000000000E+00 -0.10673967238E+04  0.34906745646E+04  0.33234730554E+04 0.  0.
        5    1    3    3  502    0  0.72668440966E+03  0.78588956706E+03 -0.18687292672E+04  0.21535700144E+04  0.46999998093E+01 0. -1.
       -5    1    3    3    0  502 -0.72668440966E+03 -0.78588956706E+03  0.80133254344E+03  0.13371045501E+04  0.46999998093E+01 0.  1.
</event>
<event>
 5   0  0.7822003E-07  0.3416770E+04  0.7818609E-02  0.8133803E-01
        2   -1    0    0  501    0  0.00000000000E+00  0.00000000000E+00  0.10421331519E+04  0.10421331519E+04  0.25500000920E-02 0.  1.
       -2   -1    0    0    0  501  0.00000000000E+00  0.00000000000E+00 -0.28005819750E+04  0.28005819750E+04  0.25500000920E-02 0. -1.
    10030    2    1    2    0    0  0.00000000000E+00  0.00000000000E+00 -0.17584488230E+04  0.38427151269E+04  0.34167700074E+04 0.  0.
        5    1    3    3  502    0 -0.10188880569E+04 -0.12163577844E+04 -0.15913218806E+04  0.22472175127E+04  0.46999998093E+01 0. -1.
       -5    1    3    3    0  502  0.10188880569E+04  0.12163577844E+04 -0.16712694246E+03  0.15954976142E+04  0.46999998093E+01 0.  1.
</event>
<event>
 5   0  0.2641442E-07  0.3382517E+04  0.7818609E-02  0.8142211E-01
       -1   -1    0    0    0  501  0.00000000000E+00  0.00000000000E+00  0.18990140822E+04  0.18990140822E+04  0.50400001928E-02 0.  1.
        1   -1    0    0  501    0  0.00000000000E+00  0.00000000000E+00 -0.15062320337E+04  0.15062320337E+04  0.50400001928E-02 0. -1.
    10030    2    1    2    0    0  0.00000000000E+00  0.00000000000E+00  0.39278204856E+03  0.34052461159E+04  0.33825173129E+04 0.  0.
        1    1    3    3  502    0  0.72058461767E+03  0.13897772178E+04  0.84071740439E+03  0.17769436289E+04  0.50400001928E-02 0. -1.
       -1    1    3    3    0  502 -0.72058461767E+03 -0.13897772178E+04 -0.44793535583E+03  0.16283024870E+04  0.50400001928E-02 0.  1.
</event>
<event>
 5   0  0.2553250E-07  0.3398494E+04  0.7818609E-02  0.8138276E-01
        1   -1    0    0  501    0  0.00000000000E+00  0.00000000000E+00  0.31467273245E+04  0.31467273245E+04  0.50400001928E-02 0. -1.
       -1   -1    0    0    0  501  0.00000000000E+00  0.00000000000E+00 -0.91760090886E+03  0.91760090888E+03  0.50400001928E-02 0.  1.
    10030    2    1    2    0    0  0.00000000000E+00  0.00000000000E+00  0.22291264157E+04  0.40643282334E+04  0.33984936975E+04 0.  0.
        5    1    3    3  502    0  0.30015853668E+03  0.14040658699E+04  0.27707901154E+02  0.14360661308E+04  0.46999998093E+01 0.  1.
       -5    1    3    3    0  502 -0.30015853668E+03 -0.14040658699E+04  0.22014185145E+04  0.26282621027E+04  0.46999998093E+01 0. -1.
</event>
<event>
 5   0  0.2592200E-07  0.3367599E+04  0.7818609E-02  0.8145905E-01
       -1   -1    0    0    0  501  0.00000000000E+00  0.00000000000E+00  0.15211732141E+04  0.15211732141E+04  0.50400001928E-02 0. -1.
        1   -1    0    0  501    0  0.00000000000E+00  0.00000000000E+00 -0.18638121861E+04  0.18638121861E+04  0.50400001928E-02 0.  1.
    10030    2    1    2    0    0  0.00000000000E+00  0.00000000000E+00 -0.34263897198E+03  0.33849854002E+04  0.33675992479E+04 0.  0.
        4    1    3    3  502    0  0.20818196036E+03 -0.11851353758E+04  0.10125958486E+04  0.15726530301E+04  0.12699999809E+01 0. -1.
       -4    1    3    3    0  502 -0.20818196036E+03  0.11851353758E+04 -0.13552348206E+04  0.18123323700E+04  0.12699999809E+01 0.  1.
</event>
<event>
 5   0  0.2599367E-07  0.3383174E+04  0.7818609E-02  0.8142048E-01
        1   -1    0    0  501    0  0.00000000000E+00  0.00000000000E+00  0.33720192122E+04  0.33720192122E+04  0.50400001928E-02 0.  1.
       -1   -1    0    0    0  501  0.00000000000E+00  0.00000000000E+00 -0.84859149212E+03  0.84859149213E+03  0.50400001928E-02 0. -1.
    10030    2    1    2    0    0  0.00000000000E+00  0.00000000000E+00  0.25234277201E+04  0.42206107043E+04  0.33831741396E+04 0.  0.
        2    1    3    3  502    0 -0.55630948691E+03 -0.15973072586E+04  0.12312554433E+04  0.20920948091E+04  0.25500000920E-02 0. -1.
       -2    1    3    3    0  502  0.55630948691E+03  0.15973072586E+04  0.12921722767E+04  0.21285158952E+04  0.25500000920E-02 0.  1.
</event>
<event>
 5   0  0.7899402E-07  0.3365683E+04  0.7818609E-02  0.8146381E-01
       -2   -1    0    0    0  501  0.00000000000E+00  0.00000000000E+00  0.12675232607E+04  0.12675232607E+04  0.25500000920E-02 0.  1.
        2   -1    0    0  501    0  0.00000000000E+00  0.00000000000E+00 -0.22342428563E+04  0.22342428563E+04  0.25500000920E-02 0. -1.
    10030    2    1    2    0    0  0.00000000000E+00  0.00000000000E+00 -0.96671959554E+03  0.35017661170E+04  0.33656825700E+04 0.  0.
        2    1    3    3  502    0  0.77853518482E+03 -0.15103373648E+03  0.10609123895E+04  0.13245615583E+04  0.25500000920E-02 0.  1.
       -2    1    3    3    0  502 -0.77853518482E+03  0.15103373648E+03 -0.20276319851E+04  0.21772045587E+04  0.25500000920E-02 0. -1.
</event>
<event>
 5   0  0.8489228E-07  0.3405814E+04  0.7818609E-02  0.8136481E-01
       -2   -1    0    0    0  501  0.00000000000E+00  0.00000000000E+00  0.14765013973E+04  0.14765013973E+04  0.25500000920E-02 0.  1.
        2   -1    0    0  501    0  0.00000000000E+00  0.00000000000E+00 -0.19640298068E+04  0.19640298068E+04  0.25500000920E-02 0. -1.
    10030    2    1    2    0    0  0.00000000000E+00  0.00000000000E+00 -0.48752840946E+03  0.34405312041E+04  0.34058142956E+04 0.  0.
        3    1    3    3  502    0 -0.15686594965E+04  0.63874030899E+03 -0.65297172554E+02  0.16949765571E+04  0.10100000352E+00 0.  1.
       -3    1    3    3    0  502  0.15686594965E+04 -0.63874030899E+03 -0.42223123690E+03  0.17455546470E+04  0.10100000352E+00 0. -1.
</event>
<event>
 5   0  0.7610412E-07  0.3549032E+04  0.7818609E-02  0.8102267E-01
        2   -1    0    0  501    0  0.00000000000E+00  0.00000000000E+00  0.15555072354E+04  0.15555072354E+04  0.25500000920E-02 0. -1.
       -2   -1    0    0    0  501  0.00000000000E+00  0.00000000000E+00 -0.20243600225E+04  0.20243600225E+04  0.25500000920E-02 0.  1.
    10030    2    1    2    0    0  0.00000000000E+00  0.00000000000E+00 -0.46885278713E+03  0.35798672579E+04  0.35490317902E+04 0.  0.
        4    1    3    3  502    0  0.70170358605E+03  0.95356584349E+03  0.10988862170E+04  0.16153105805E+04  0.12699999809E+01 0. -1.
       -4    1    3    3    0  502 -0.70170358605E+03 -0.95356584349E+03 -0.15677390042E+04  0.19645566774E+04  0.12699999809E+01 0.  1.
</event>
<event>
 5   0  0.2553250E-07  0.3419302E+04  0.7818609E-02  0.8133185E-01
       -1   -1    0    0    0  501  0.00000000000E+00  0.00000000000E+00  0.22615915137E+04  0.22615915137E+04  0.50400001928E-02 0. -1.
        1   -1    0    0  501    0  0.00000000000E+00  0.00000000000E+00 -0.12924110628E+04  0.12924110628E+04  0.50400001928E-02 0.  1.
    10030    2    1    2    0    0  0.00000000000E+00  0.00000000000E+00  0.96918045088E+03  0.35540025765E+04  0.34193016198E+04 0.  0.
        5    1    3    3  502    0 -0.14915657272E+04 -0.81345520079E+03  0.28626976465E+03  0.17229190783E+04  0.46999998093E+01 0. -1.
       -5    1    3    3    0  502  0.14915657272E+04  0.81345520079E+03  0.68291068623E+03  0.18310834982E+04  0.46999998093E+01 0.  1.
</event>
<event>
 5   0  0.7838333E-07  0.3292379E+04  0.7818609E-02  0.8164837E-01
        2   -1    0    0  501    0  0.00000000000E+00  0.00000000000E+00  0.23112880845E+04  0.23112880845E+04  0.25500000920E-02 0. -1.
       -2   -1    0    0    0  501  0.00000000000E+00  0.00000000000E+00 -0.11724804259E+04  0.11724804259E+04  0.25500000920E-02 0.  1.
    10030    2    1    2    0    0  0.00000000000E+00  0.00000000000E+00  0.11388076585E+04  0.34837685104E+04  0.32923791019E+04 0.  0.
        1    1    3    3  502    0  0.94230856846E+03  0.10188185068E+04 -0.36750739033E+03  0.14356177312E+04  0.50400001928E-02 0.  1.
       -1    1    3    3    0  502 -0.94230856846E+03 -0.10188185068E+04  0.15063150489E+04  0.20481507792E+04  0.50400001928E-02 0. -1.
</event>
<event>
 5   0  0.7822003E-07  0.3378011E+04  0.7818609E-02  0.8143324E-01
        2   -1    0    0  501    0  0.00000000000E+00  0.00000000000E+00  0.23309080625E+04  0.23309080625E+04  0.25500000920E-02 0. -1.
       -2   -1    0    0    0  501  0.00000000000E+00  0.00000000000E+00 -0.12238746447E+04  0.12238746447E+04  0.25500000920E-02 0.  1.
    10030    2    1    2    0    0  0.00000000000E+00  0.00000000000E+00  0.11070334179E+04  0.35547827072E+04  0.33780108210E+04 0.  0.
        5    1    3    3  502    0  0.90906363611E+02 -0.11115464481E+04 -0.78129171538E+03  0.13617041924E+04  0.46999998093E+01 0.  1.
       -5    1    3    3    0  502 -0.90906363611E+02  0.11115464481E+04  0.18883251332E+04  0.21930785148E+04  0.46999998093E+01 0. -1.
</event>
<event>
 5   0  0.2592200E-07  0.3407748E+04  0.7818609E-02  0.8136007E-01
       -1   -1    0    0    0  501  0.00000000000E+00  0.00000000000E+00  0.11570811132E+04  0.11570811132E+04  0.50400001928E-02 0.  1.
        1   -1    0    0  501    0  0.00000000000E+00  0.00000000000E+00 -0.25090612770E+04  0.25090612770E+04  0.50400001928E-02 0. -1.
    10030    2    1    2    0    0  0.00000000000E+00  0.00000000000E+00 -0.13519801638E+04  0.36661423903E+04  0.34077484741E+04 0.  0.
        4    1    3    3  502    0  0.63158629097E+03  0.14877490034E+04 -0.95754579120E+02  0.16190950844E+04  0.12699999809E+01 0. -1.
       -4    1    3    3    0  502 -0.63158629097E+03 -0.14877490034E+04 -0.12562255846E+04  0.20470473059E+04  0.12699999809E+01 0.  1.
</event>
<event>
 5   0  0.2599367E-07  0.3448125E+04  0.7818609E-02  0.8126195E-01
       -1   -1    0    0    0  501  0.00000000000E+00  0.00000000000E+00  0.16316371569E+04  0.16316371569E+04  0.50400001928E-02 0. -1.
        1   -1    0    0  501    0  0.00000000000E+00  0.00000000000E+00 -0.18217235899E+04  0.18217235899E+04  0.50400001928E-02 0.  1.
    10030    2    1    2    0    0  0.00000000000E+00  0.00000000000E+00 -0.19008643296E+03  0.34533607468E+04  0.34481252291E+04 0.  0.
        2    1    3    3  502    0  0.57781209441E+02 -0.15375604047E+04 -0.87401672883E+03  0.17695581111E+04  0.25500000920E-02 0.  1.
       -2    1    3    3    0  502 -0.57781209441E+02  0.15375604047E+04  0.68393029587E+03  0.16838026357E+04  0.25500000920E-02 0. -1.
</event>
<event>
 5   0  0.2599367E-07  0.3402780E+04  0.7818609E-02  0.8137224E-01
        1   -1    0    0  501    0  0.00000000000E+00  0.00000000000E+00  0.10103422324E+04  0.10103422324E+04  0.50400001928E-02 0. -1.
       -1   -1    0    0    0  501  0.00000000000E+00  0.00000000000E+00 -0.28650962691E+04  0.28650962691E+04  0.50400001928E-02 0.  1.
    10030    2    1    2    0    0  0.00000000000E+00  0.00000000000E+00 -0.18547540368E+04  0.38754385015E+04  0.34027798992E+04 0.  0.
        2    1    3    3  502    0 -0.33536110182E+03 -0.21905134353E+03  0.95587421909E+03  0.10364101902E+04  0.25500000920E-02 0. -1.
       -2    1    3    3    0  502  0.33536110182E+03  0.21905134353E+03 -0.28106282558E+04  0.28390283113E+04  0.25500000920E-02 0.  1.
</event>
<event>
 5   0  0.2553250E-07  0.3424911E+04  0.7818609E-02  0.8131819E-01
       -1   -1    0    0    0  501  0.00000000000E+00  0.00000000000E+00  0.19880700782E+04  0.19880700782E+04  0.50400001928E-02 0. -1.
        1   -1    0    0  501    0  0.00000000000E+00  0.00000000000E+00 -0.14750501623E+04  0.14750501623E+04  0.50400001928E-02 0.  1.
    10030    2    1    2    0    0  0.00000000000E+00  0.00000000000E+00  0.51301991587E+03  0.34631202405E+04  0.34249105632E+04 0.  0.
        5    1    3    3  502    0 -0.14157223519E+04 -0.80646034125E+03 -0.27646917310E+03  0.16526056254E+04  0.46999998093E+01 0. -1.
       -5    1    3    3    0  502  0.14157223519E+04  0.80646034125E+03  0.78948908897E+03  0.18105146150E+04  0.46999998093E+01 0.  1.
</event>
<event>
 5   0  0.2599367E-07  0.3401915E+04  0.7818609E-02  0.8137436E-01
        1   -1    0    0  501    0  0.00000000000E+00  0.00000000000E+00  0.13296731281E+04  0.13296731281E+04  0.50400001928E-02 0.  1.
       -1   -1    0    0    0  501  0.00000000000E+00  0.00000000000E+00 -0.21759154666E+04  0.21759154666E+04  0.50400001928E-02 0. -1.
    10030    2    1    2    0    0  0.00000000000E+00  0.00000000000E+00 -0.84624233856E+03  0.35055885947E+04  0.34019149460E+04 0.  0.
        2    1    3    3  502    0  0.84640374392E+03 -0.36765641727E+03 -0.18955419856E+04  0.21082338480E+04  0.25500000920E-02 0. -1.
       -2    1    3    3    0  502 -0.84640374392E+03  0.36765641727E+03  0.10492996470E+04  0.13973547467E+04  0.25500000920E-02 0.  1.
</event>
<event>
 5   0  0.7899402E-07  0.3403384E+04  0.7818609E-02  0.8137076E-01
       -2   -1    0    0    0  501  0.00000000000E+00  0.00000000000E+00  0.15800282265E+04  0.15800282265E+04  0.25500000920E-02 0.  1.
        2   -1    0    0  501    0  0.00000000000E+00  0.00000000000E+00 -0.18327240549E+04  0.18327240549E+04  0.25500000920E-02 0. -1.
    10030    2    1    2    0    0  0.00000000000E+00  0.00000000000E+00 -0.25269582839E+03  0.34127522814E+04  0.34033840442E+04 0.  0.
        2    1    3    3  502    0 -0.14480229892E+04  0.17657657491E+03  0.75230938736E+03  0.16413163249E+04  0.25500000920E-02 0.  1.
       -2    1    3    3    0  502  0.14480229892E+04 -0.17657657491E+03 -0.10050052157E+04  0.17714359564E+04  0.25500000920E-02 0. -1.
</event>
<event>
 5   0  0.7899402E-07  0.3403552E+04  0.7818609E-02  0.8137035E-01
        2   -1    0    0  501    0  0.00000000000E+00  0.00000000000E+00  0.25745510629E+04  0.25745510629E+04  0.25500000920E-02 0.  1.
       -2   -1    0    0    0  501  0.00000000000E+00  0.00000000000E+00 -0.11248723176E+04  0.11248723176E+04  0.25500000920E-02 0. -1.
    10030    2    1    2    0    0  0.00000000000E+00  0.00000000000E+00  0.14496787452E+04  0.36994233805E+04  0.34035518042E+04 0.  0.
        2    1    3    3  502    0  0.15411278945E+04 -0.63243353476E+03  0.11029190501E+04  0.19978683125E+04  0.25500000920E-02 0.  1.
       -2    1    3    3    0  502 -0.15411278945E+04  0.63243353476E+03  0.34675969513E+03  0.17015550680E+04  0.25500000920E-02 0. -1.
</event>
<event>
 5   0  0.8489228E-07  0.3430138E+04  0.7818609E-02  0.8130549E-01
       -2   -1    0    0    0  501  0.00000000000E+00  0.00000000000E+00  0.12386172356E+04  0.12386172356E+04  0.25500000920E-02 0.  1.
        2   -1    0    0  501    0  0.00000000000E+00  0.00000000000E+00 -0.23747943322E+04  0.23747943322E+04  0.25500000920E-02 0. -1.
    10030    2    1    2    0    0  0.00000000000E+00  0.00000000000E+00 -0.11361770966E+04  0.36134115679E+04  0.34301377179E+04 0.  0.
        3    1    3    3  502    0 -0.50096911153E+03  0.13882149750E+04 -0.14884699147E+04  0.20961043783E+04  0.10100000352E+00 0. -1.
       -3    1    3    3    0  502  0.50096911153E+03 -0.13882149750E+04  0.35229281807E+03  0.15173071896E+04  0.10100000352E+00 0.  1.
</event>
<event>
 5   0  0.2641442E-07  0.3438314E+04  0.7818609E-02  0.8128566E-01
       -1   -1    0    0    0  501  0.00000000000E+00  0.00000000000E+00  0.15983633121E+04  0.15983633121E+04  0.50400001928E-02 0.  1.
        1   -1    0    0  501    0  0.00000000000E+00  0.00000000000E+00 -0.18490797287E+04  0.18490797287E+04  0.50400001928E-02 0. -1.
    10030    2    1    2    0    0  0.00000000000E+00  0.00000000000E+00 -0.25071641665E+03  0.34474430408E+04  0.34383142379E+04 0.  0.
        1    1    3    3  502    0 -0.34644588392E+03  0.14519981476E+04  0.72965307922E+03  0.16615405464E+04  0.50400001928E-02 0.  1.
       -1    1    3    3    0  502  0.34644588392E+03 -0.14519981476E+04 -0.98036949587E+03  0.17859024945E+04  0.50400001928E-02 0. -1.
</event>
<event>
 5   0  0.2599367E-07  0.3385778E+04  0.7818609E-02  0.8141406E-01
       -1   -1    0    0    0  501  0.00000000000E+00  0.00000000000E+00  0.17792328092E+04  0.17792328092E+04  0.50400001928E-02 0. -1.
        1   -1    0    0  501    0  0.00000000000E+00  0.00000000000E+00 -0.16107351529E+04  0.16107351530E+04  0.50400001928E-02 0.  1.
    10030    2    1    2    0    0  0.00000000000E+00  0.00000000000E+00  0.16849765623E+03  0.33899679621E+04  0.33857778019E+04 0.  0.
        2    1    3    3  502    0  0.96059490750E+03  0.87672280585E+02  0.14771728430E+04  0.17642189811E+04  0.25500000920E-02 0. -1.
       -2    1    3    3    0  502 -0.96059490750E+03 -0.87672280585E+02 -0.13086751867E+04  0.16257489811E+04  0.25500000920E-02 0.  1.
</event>
<event>
 5   0  0.2599367E-07  0.3403921E+04  0.7818609E-02  0.8136945E-01
        1   -1    0    0  501    0  0.00000000000E+00  0.00000000000E+00  0.25855977343E+04  0.25855977343E+04  0.50400001928E-02 0. -1.
       -1   -1    0    0    0  501  0.00000000000E+00  0.00000000000E+00 -0.11203093053E+04  0.11203093053E+04  0.50400001928E-02 0.  1.
    10030    2    1    2    0    0  0.00000000000E+00  0.00000000000E+00  0.14652884290E+04  0.37059070396E+04  0.34039207991E+04 0.  0.
        2    1    3    3  502    0 -0.32103270554E+03 -0.72464560708E+03  0.23724185257E+04  0.25013082407E+04  0.25500000920E-02 0. -1.
       -2    1    3    3    0  502  0.32103270554E+03  0.72464560708E+03 -0.90713009675E+03  0.12045987989E+04  0.25500000920E-02 0.  1.
</event>
<event>
 5   0  0.8489228E-07  0.3396781E+04  0.7818609E-02  0.8138697E-01
       -2   -1    0    0    0  501  0.00000000000E+00  0.00000000000E+00  0.16220998794E+04  0.16220998794E+04  0.25500000920E-02 0. -1.
        2   -1    0    0  501    0  0.00000000000E+00  0.00000000000E+00 -0.17782695846E+04  0.17782695846E+04  0.25500000920E-02 0.  1.
    10030    2    1    2    0    0  0.00000000000E+00  0.00000000000E+00 -0.15616970520E+03  0.34003694641E+04  0.33967813464E+04 0.  0.
        3    1    3    3  502    0  0.34948457574E+03  0.36132506746E+03  0.15459221361E+04  0.16255985156E+04  0.10100000352E+00 0. -1.
       -3    1    3    3    0  502 -0.34948457574E+03 -0.36132506746E+03 -0.17020918413E+04  0.17747709484E+04  0.10100000352E+00 0.  1.
</event>
<event>
 5   0  0.7899402E-07  0.3404008E+04  0.7818609E-02  0.8136923E-01
       -2   -1    0    0    0  501  0.00000000000E+00  0.00000000000E+00  0.15051110582E+04  0.15051110582E+04  0.25500000920E-02 0.  1.
        2   -1    0    0  501    0  0.00000000000E+00  0.00000000000E+00 -0.19246535263E+04  0.19246535263E+04  0.25500000920E-02 0. -1.
    10030    2    1    2    0    0  0.00000000000E+00  0.00000000000E+00 -0.41954246819E+03  0.34297645845E+04  0.34040078176E+04 0.  0.
        2    1    3    3  502    0  0.11420837136E+04 -0.70535948332E+03 -0.12640779169E+04  0.18438492861E+04  0.25500000920E-02 0. -1.
       -2    1    3    3    0  502 -0.11420837136E+04  0.70535948332E+03  0.84453544873E+03  0.15859152984E+04  0.25500000920E-02 0.  1.
</event>
<event>
 5   0  0.7899402E-07  0.3377014E+04  0.7818609E-02  0.8143571E-01
        2   -1    0    0  501    0  0.00000000000E+00  0.00000000000E+00  0.13983675376E+04  0.13983675376E+04  0.25500000920E-02 0. -1.
       -2   -1    0    0    0  501  0.00000000000E+00  0.00000000000E+00 -0.20388461424E+04  0.20388461424E+04  0.25500000920E-02 0.  1.
    10030    2    1    2    0    0  0.00000000000E+00  0.00000000000E+00 -0.64047860478E+03  0.34372136801E+04  0.33770142196E+04 0.  0.
        2    1    3    3  502    0  0.13254295401E+04 -0.48107225075E+02 -0.13838450705E+04  0.19167954899E+04  0.25500000920E-02 0.  1.
       -2    1    3    3    0  502 -0.13254295401E+04  0.48107225075E+02  0.74336646572E+03  0.15204181902E+04  0.25500000920E-02 0. -1.
</event>
<event>
 5   0  0.2592200E-07  0.3370742E+04  0.7818609E-02  0.8145125E-01
       -1   -1    0    0    0  501  0.00000000000E+00  0.00000000000E+00  0.12373082549E+04  0.12373082549E+04  0.50400001928E-02 0. -1.
        1   -1    0    0  501    0  0.00000000000E+00  0.00000000000E+00 -0.22956894461E+04  0.22956894461E+04  0.50400001928E-02 0.  1.
    10030    2    1    2    0    0  0.00000000000E+00  0.00000000000E+00 -0.10583811912E+04  0.35329977010E+04  0.33707420562E+04 0.  0.
        4    1    3    3  502    0 -0.91754629993E+03  0.95686703468E+02  0.94917487276E+03  0.13236244595E+04  0.12699999809E+01 0. -1.
       -4    1    3    3    0  502  0.91754629993E+03 -0.95686703468E+02 -0.20075560640E+04  0.22093732416E+04  0.12699999809E+01 0.  1.
</event>
<event>
 5   0  0.2553250E-07  0.3405930E+04  0.7818609E-02  0.8136452E-01
        3   -1    0    0  501    0  0.00000000000E+00  0.00000000000E+00  0.17194172465E+04  0.17194172494E+04  0.10100000352E+00 0.  1.
       -3   -1    0    0    0  501  0.00000000000E+00  0.00000000000E+00 -0.16866706252E+04  0.16866706282E+04  0.10100000352E+00 0. -1.
    10030    2    1    2    0    0  0.00000000000E+00  0.00000000000E+00  0.32746621312E+02  0.34060878776E+04  0.34059304586E+04 0.  0.
        4    1    3    3  502    0  0.66122509777E+03 -0.89887045235E+03  0.13028628050E+04  0.17154124348E+04  0.12699999809E+01 0.  1.
       -4    1    3    3    0  502 -0.66122509777E+03  0.89887045235E+03 -0.12701161837E+04  0.16906754428E+04  0.12699999809E+01 0. -1.
</event>
<event>
 5   0  0.7838333E-07  0.3351203E+04  0.7818609E-02  0.8149988E-01
       -2   -1    0    0    0  501  0.00000000000E+00  0.00000000000E+00  0.98987531463E+03  0.98987531463E+03  0.25500000920E-02 0.  1.
        2   -1    0    0  501    0  0.00000000000E+00  0.00000000000E+00 -0.28363577084E+04  0.28363577084E+04  0.25500000920E-02 0. -1.
    10030    2    1    2    0    0  0.00000000000E+00  0.00000000000E+00 -0.18464823937E+04  0.38262330230E+04  0.33512030550E+04 0.  0.
        1    1    3    3  502    0  0.11459894237E+03  0.12593997856E+04 -0.21783448051E+04  0.25188105978E+04  0.50400001928E-02 0. -1.
       -1    1    3    3    0  502 -0.11459894237E+03 -0.12593997856E+04  0.33186241140E+03  0.13074224252E+04  0.50400001928E-02 0.  1.
</event>
<event>
 5   0  0.8489228E-07  0.3412680E+04  0.7818609E-02  0.8134801E-01
        2   -1    0    0  501    0  0.00000000000E+00  0.00000000000E+00  0.21835899281E+04  0.21835899281E+04  0.25500000920E-02 0. -1.
       -2   -1    0    0    0  501  0.00000000000E+00  0.00000000000E+00 -0.13333987725E+04  0.13333987725E+04  0.25500000920E-02 0.  1.
    10030    2    1    2    0    0  0.00000000000E+00  0.00000000000E+00  0.85019115563E+03  0.35169887006E+04  0.34126799614E+04 0.  0.
        3    1    3    3  502    0  0.90833197595E+03 -0.12979931786E+04 -0.22810940399E+03  0.16005896353E+04  0.10100000352E+00 0.  1.
       -3    1    3    3    0  502 -0.90833197595E+03  0.12979931786E+04  0.10783005596E+04  0.19163990653E+04  0.10100000352E+00 0. -1.
</event>
<event>
 5   0  0.2599367E-07  0.3288574E+04  0.7818609E-02  0.8165809E-01
       -1   -1    0    0    0  501  0.00000000000E+00  0.00000000000E+00  0.10992770272E+04  0.10992770273E+04  0.50400001928E-02 0.  1.
        1   -1    0    0  501    0  0.00000000000E+00  0.00000000000E+00 -0.24595075965E+04  0.24595075965E+04  0.50400001928E-02 0. -1.
    10030    2    1    2    0    0  0.00000000000E+00  0.00000000000E+00 -0.13602305692E+04  0.35587846237E+04  0.32885742802E+04 0.  0.
        2    1    3    3  502    0  0.10078268540E+04  0.19811960027E+03 -0.20696413357E+04  0.23104938005E+04  0.25500000920E-02 0. -1.
       -2    1    3    3    0  502 -0.10078268540E+04 -0.19811960027E+03  0.70941076650E+03  0.12482908232E+04  0.25500000920E-02 0.  1.
</event>
<event>
 5   0  0.8489228E-07  0.3429579E+04  0.7818609E-02  0.8130685E-01
       -2   -1    0    0    0  501  0.00000000000E+00  0.00000000000E+00  0.19867810076E+04  0.19867810076E+04  0.25500000920E-02 0.  1.
        2   -1    0    0  501    0  0.00000000000E+00  0.00000000000E+00 -0.14800338902E+04  0.14800338902E+04  0.25500000920E-02 0. -1.
    10030    2    1    2    0    0  0.00000000000E+00  0.00000000000E+00  0.50674711735E+03  0.34668148978E+04  0.34295791133E+04 0.  0.
        3    1    3    3  502    0  0.13670131550E+03  0.16879254630E+04  0.52597459237E+03  0.17732537609E+04  0.10100000352E+00 0.  1.
       -3    1    3    3    0  502 -0.13670131550E+03 -0.16879254630E+04 -0.19227475017E+02  0.16935611369E+04  0.10100000352E+00 0. -1.
</event>
<event>
 5   0  0.7899402E-07  0.3393412E+04  0.7818609E-02  0.8139525E-01
        2   -1    0    0  501    0  0.00000000000E+00  0.00000000000E+00  0.24429350179E+04  0.24429350179E+04  0.25500000920E-02 0. -1.
       -2   -1    0    0    0  501  0.00000000000E+00  0.00000000000E+00 -0.11784233700E+04  0.11784233700E+04  0.25500000920E-02 0.  1.
    10030    2    1    2    0    0  0.00000000000E+00  0.00000000000E+00  0.12645116479E+04  0.36213583878E+04  0.33934122746E+04 0.  0.
        2    1    3    3  502    0 -0.16366455209E+04  0.40012012192E+03  0.41853580550E+03  0.17360520999E+04  0.25500000920E-02 0. -1.
       -2    1    3    3    0  502  0.16366455209E+04 -0.40012012192E+03  0.84597584243E+03  0.18853062879E+04  0.25500000920E-02 0.  1.
</event>
<event>
 5   0  0.8489228E-07  0.3407309E+04  0.7818609E-02  0.8136115E-01
       -2   -1    0    0    0  501  0.00000000000E+00  0.00000000000E+00  0.13259450798E+04  0.13259450798E+04  0.25500000920E-02 0. -1.
        2   -1    0    0  501    0  0.00000000000E+00  0.00000000000E+00 -0.21889580617E+04  0.21889580617E+04  0.25500000920E-02 0.  1.
    10030    2    1    2    0    0  0.00000000000E+00  0.00000000000E+00 -0.86301298184E+03  0.35149031415E+04  0.34073087162E+04 0.  0.
        3    1    3    3  502    0  0.84205308342E+03  0.12143509678E+04 -0.13060606830E+04  0.19721805663E+04  0.10100000352E+00 0.  1.
       -3    1    3    3    0  502 -0.84205308342E+03 -0.12143509678E+04  0.44304770113E+03  0.15427225752E+04  0.10100000352E+00 0. -1.
</event>
<event>
 5   0  0.2553250E-07  0.3416065E+04  0.7818609E-02  0.8133975E-01
       -1   -1    0    0    0  501  0.00000000000E+00  0.00000000000E+00  0.14496994667E+04  0.14496994667E+04  0.50400001928E-02 0.  1.
        1   -1    0    0  501    0  0.00000000000E+00  0.00000000000E+00 -0.20124001117E+04  0.20124001117E+04  0.50400001928E-02 0. -1.
    10030    2    1    2    0    0  0.00000000000E+00  0.00000000000E+00 -0.56270064499E+03  0.34620995784E+04  0.34160652036E+04 0.  0.
        5    1    3    3  502    0 -0.41793976669E+03  0.20421045293E+03  0.13842619205E+04  0.14603351370E+04  0.46999998093E+01 0.  1.
       -5    1    3    3    0  502  0.41793976669E+03 -0.20421045293E+03 -0.19469625655E+04  0.20017644415E+04  0.46999998093E+01 0. -1.
</event>
<event>
 5   0  0.2553250E-07  0.3358652E+04  0.7818609E-02  0.8148130E-01
       -1   -1    0    0    0  501  0.00000000000E+00  0.00000000000E+00  0.15686771367E+04  0.15686771367E+04  0.50400001928E-02 0. -1.
        1   -1    0    0  501    0  0.00000000000E+00  0.00000000000E+00 -0.17977792881E+04  0.17977792881E+04  0.50400001928E-02 0.  1.
    10030    2    1    2    0    0  0.00000000000E+00  0.00000000000E+00 -0.22910215142E+03  0.33664564248E+04  0.33586516736E+04 0.  0.
        5    1    3    3  502    0 -0.13237890289E+04 -0.81157493610E+03  0.52649896745E+03  0.16396019403E+04  0.46999998093E+01 0. -1.
       -5    1    3    3    0  502  0.13237890289E+04  0.81157493610E+03 -0.75560111887E+03  0.17268544845E+04  0.46999998093E+01 0.  1.
</event>
<event>
 5   0  0.7838333E-07  0.3416005E+04  0.7818609E-02  0.8133989E-01
       -2   -1    0    0    0  501  0.00000000000E+00  0.00000000000E+00  0.13381918733E+04  0.13381918733E+04  0.25500000920E-02 0. -1.
        2   -1    0    0  501    0  0.00000000000E+00  0.00000000000E+00 -0.21800106164E+04  0.21800106164E+04  0.25500000920E-02 0.  1.
    10030    2    1    2    0    0  0.00000000000E+00  0.00000000000E+00 -0.84181874311E+03  0.35182024896E+04  0.34160049710E+04 0.  0.
        1    1    3    3  502    0 -0.13830864685E+04  0.85957758003E+03 -0.95156238024E+03  0.18860733705E+04  0.50400001928E-02 0.  1.
       -1    1    3    3    0  502  0.13830864685E+04 -0.85957758003E+03  0.10974363713E+03  0.16321291191E+04  0.50400001928E-02 0. -1.
</event>
<event>
 5   0  0.2592200E-07  0.3125710E+04  0.7818609E-02  0.8208717E-01
       -1   -1    0    0    0  501  0.00000000000E+00  0.00000000000E+00  0.16418397945E+04  0.16418397945E+04  0.50400001928E-02 0. -1.
        1   -1    0    0  501    0  0.00000000000E+00  0.00000000000E+00 -0.14876702333E+04  0.14876702333E+04  0.50400001928E-02 0.  1.
    10030    2    1    2    0    0  0.00000000000E+00  0.00000000000E+00  0.15416956125E+03  0.31295100278E+04  0.31257102809E+04 0.  0.
        4    1    3    3  502    0  0.10605435977E+04 -0.16637678801E+03  0.12142826875E+04  0.16207769792E+04  0.12699999809E+01 0. -1.
       -4    1    3    3    0  502 -0.10605435977E+04  0.16637678801E+03 -0.10601131263E+04  0.15087330485E+04  0.12699999809E+01 0.  1.
</event>
<event>
 5   0  0.7899402E-07  0.3359894E+04  0.7818609E-02  0.8147821E-01
        2   -1    0    0  501    0  0.00000000000E+00  0.00000000000E+00  0.22594917893E+04  0.22594917893E+04  0.25500000920E-02 0.  1.
       -2   -1    0    0    0  501  0.00000000000E+00  0.00000000000E+00 -0.12490512736E+04  0.12490512736E+04  0.25500000920E-02 0. -1.
    10030    2    1    2    0    0  0.00000000000E+00  0.00000000000E+00  0.10104405157E+04  0.35085430629E+04  0.33598935085E+04 0.  0.
        2    1    3    3  502    0 -0.60276862931E+03  0.45307950687E+03 -0.10623993346E+04  0.13028059741E+04  0.25500000920E-02 0. -1.
       -2    1    3    3    0  502  0.60276862931E+03 -0.45307950687E+03  0.20728398502E+04  0.22057370888E+04  0.25500000920E-02 0.  1.
</event>
<event>
 5   0  0.2641442E-07  0.3394442E+04  0.7818609E-02  0.8139272E-01
       -1   -1    0    0    0  501  0.00000000000E+00  0.00000000000E+00  0.11229466146E+04  0.11229466146E+04  0.50400001928E-02 0.  1.
        1   -1    0    0  501    0  0.00000000000E+00  0.00000000000E+00 -0.25651797946E+04  0.25651797946E+04  0.50400001928E-02 0. -1.
    10030    2    1    2    0    0  0.00000000000E+00  0.00000000000E+00 -0.14422331800E+04  0.36881264092E+04  0.33944424969E+04 0.  0.
        1    1    3    3  502    0 -0.16741773835E+04 -0.27814986676E+03 -0.74063485440E+03  0.18516957761E+04  0.50400001928E-02 0. -1.
       -1    1    3    3    0  502  0.16741773835E+04  0.27814986676E+03 -0.70159832558E+03  0.18364306331E+04  0.50400001928E-02 0.  1.
</event>
<event>
 5   0  0.7610412E-07  0.3398790E+04  0.7818609E-02  0.8138203E-01
        2   -1    0    0  501    0  0.00000000000E+00  0.00000000000E+00  0.19271230538E+04  0.19271230538E+04  0.25500000920E-02 0. -1.
       -2   -1    0    0    0  501  0.00000000000E+00  0.00000000000E+00 -0.14985771380E+04  0.14985771380E+04  0.25500000920E-02 0.  1.
    10030    2    1    2    0    0  0.00000000000E+00  0.00000000000E+00  0.42854591575E+03  0.34257001918E+04  0.33987895202E+04 0.  0.
        4    1    3    3  502    0  0.49614536428E+03 -0.29289815694E+03 -0.13971322925E+04  0.15112676164E+04  0.12699999809E+01 0.  1.
       -4    1    3    3    0  502 -0.49614536428E+03  0.29289815694E+03  0.18256782082E+04  0.19144325754E+04  0.12699999809E+01 0. -1.
</event>
<event>
 5   0  0.2592200E-07  0.3373386E+04  0.7818609E-02  0.8144469E-01
        1   -1    0    0  501    0  0.00000000000E+00  0.00000000000E+00  0.29375877160E+04  0.29375877160E+04  0.50400001928E-02 0. -1.
       -1   -1    0    0    0  501  0.00000000000E+00  0.00000000000E+00 -0.96845915935E+03  0.96845915936E+03  0.50400001928E-02 0.  1.
    10030    2    1    2    0    0  0.00000000000E+00  0.00000000000E+00  0.19691285567E+04  0.39060468754E+04  0.33733862690E+04 0.  0.
        4    1    3    3  502    0  0.84710315547E+03  0.99680370396E+02  0.26694640908E+04  0.28024203962E+04  0.12699999809E+01 0. -1.
       -4    1    3    3    0  502 -0.84710315547E+03 -0.99680370396E+02 -0.70033553412E+03  0.11036264792E+04  0.12699999809E+01 0.  1.
</event>
<event>
 5   0  0.7822003E-07  0.3076088E+04  0.7818609E-02  0.8222331E-01
       -2   -1    0    0    0  501  0.00000000000E+00  0.00000000000E+00  0.11724883915E+04  0.11724883915E+04  0.25500000920E-02 0. -1.
        2   -1    0    0  501    0  0.00000000000E+00  0.00000000000E+00 -0.20175710154E+04  0.20175710154E+04  0.25500000920E-02 0.  1.
    10030    2    1    2    0    0  0.00000000000E+00  0.00000000000E+00 -0.84508262392E+03  0.31900594069E+04  0.30760875115E+04 0.  0.
        5    1    3    3  502    0 -0.10313146997E+04 -0.16037380553E+03 -0.15940998779E+04  0.19053887472E+04  0.46999998093E+01 0.  1.
       -5    1    3    3    0  502  0.10313146997E+04  0.16037380553E+03  0.74901725395E+03  0.12846706597E+04  0.46999998093E+01 0. -1.
</event>
<event>
 5   0  0.2592200E-07  0.3399258E+04  0.7818609E-02  0.8138089E-01
       -1   -1    0    0    0  501  0.00000000000E+00  0.00000000000E+00  0.22117207670E+04  0.22117207670E+04  0.50400001928E-02 0.  1.
        1   -1    0    0  501    0  0.00000000000E+00  0.00000000000E+00 -0.13061044073E+04  0.13061044073E+04  0.50400001928E-02 0. -1.
    10030    2    1    2    0    0  0.00000000000E+00  0.00000000000E+00  0.90561635970E+03  0.35178251743E+04  0.33992577081E+04 0.  0.
        4    1    3    3  502    0  0.21370274464E+03 -0.94152655132E+03  0.19003818952E+04  0.21315707989E+04  0.12699999809E+01 0.  1.
       -4    1    3    3    0  502 -0.21370274464E+03  0.94152655132E+03 -0.99476553555E+03  0.13862543755E+04  0.12699999809E+01 0. -1.
</event>
<event>
 5   0  0.2553250E-07  0.3388783E+04  0.7818609E-02  0.8140665E-01
       -1   -1    0    0    0  501  0.00000000000E+00  0.00000000000E+00  0.17499834848E+04  0.17499834848E+04  0.50400001928E-02 0. -1.
        1   -1    0    0  501    0  0.00000000000E+00  0.00000000000E+00 -0.16405651716E+04  0.16405651716E+04  0.50400001928E-02 0.  1.
    10030    2    1    2    0    0  0.00000000000E+00  0.00000000000E+00  0.10941831320E+03  0.33905486564E+04  0.33887826463E+04 0.  0.
        5    1    3    3  502    0 -0.89562806122E+03 -0.14077326288E+04  0.34995459897E+03  0.17048023608E+04  0.46999998093E+01 0. -1.
       -5    1    3    3    0  502  0.89562806122E+03  0.14077326288E+04 -0.24053628576E+03  0.16857462955E+04  0.46999998093E+01 0.  1.
</event>
<event>
 5   0  0.7838333E-07  0.3358308E+04  0.7818609E-02  0.8148215E-01
        2   -1    0    0  501    0  0.00000000000E+00  0.00000000000E+00  0.16793735638E+04  0.16793735638E+04  0.25500000920E-02 0.  1.
       -2   -1    0    0    0  501  0.00000000000E+00  0.00000000000E+00 -0.16789340862E+04  0.16789340862E+04  0.25500000920E-02 0. -1.
    10030    2    1    2    0    0  0.00000000000E+00  0.00000000000E+00  0.43947756702E+00  0.33583076500E+04  0.33583076213E+04 0.  0.
        1    1    3    3  502    0  0.15517327798E+04  0.59869596104E+03 -0.23053131079E+03  0.16791236283E+04  0.50400001928E-02 0.  1.
       -1    1    3    3    0  502 -0.15517327798E+04 -0.59869596104E+03  0.23097078835E+03  0.16791840217E+04  0.50400001928E-02 0. -1.
</event>
<event>
 5   0  0.2622205E-07  0.3184248E+04  0.7818609E-02  0.8192990E-01
       -1   -1    0    0    0  501  0.00000000000E+00  0.00000000000E+00  0.15074244492E+04  0.15074244492E+04  0.50400001928E-02 0.  1.
        1   -1    0    0  501    0  0.00000000000E+00  0.00000000000E+00 -0.16815827763E+04  0.16815827763E+04  0.50400001928E-02 0. -1.
    10030    2    1    2    0    0  0.00000000000E+00  0.00000000000E+00 -0.17415832705E+03  0.31890072255E+04  0.31842480999E+04 0.  0.
        3    1    3    3  502    0  0.62265382815E+03  0.28772093440E+03 -0.15260208709E+04  0.16730872166E+04  0.10100000352E+00 0. -1.
       -3    1    3    3    0  502 -0.62265382815E+03 -0.28772093440E+03  0.13518625438E+04  0.15159200089E+04  0.10100000352E+00 0.  1.
</event>
<event>
 5   0  0.7838333E-07  0.3405805E+04  0.7818609E-02  0.8136483E-01
       -2   -1    0    0    0  501  0.00000000000E+00  0.00000000000E+00  0.11503463699E+04  0.11503463699E+04  0.25500000920E-02 0.  1.
        2   -1    0    0  501    0  0.00000000000E+00  0.00000000000E+00 -0.25208727190E+04  0.25208727190E+04  0.25500000920E-02 0. -1.
    10030    2    1    2    0    0  0.00000000000E+00  0.00000000000E+00 -0.13705263491E+04  0.36712190889E+04  0.34058049159E+04 0.  0.
        1    1    3    3  502    0  0.47068251796E+03 -0.16109835794E+04 -0.37458989855E+03  0.17196301108E+04  0.50400001928E-02 0.  1.
       -1    1    3    3    0  502 -0.47068251796E+03  0.16109835794E+04 -0.99593645059E+03  0.19515889781E+04  0.50400001928E-02 0. -1.
</event>
<event>
 5   0  0.2622205E-07  0.3400970E+04  0.7818609E-02  0.8137668E-01
        1   -1    0    0  501    0  0.00000000000E+00  0.00000000000E+00  0.19023704058E+04  0.19023704058E+04  0.50400001928E-02 0. -1.
       -1   -1    0    0    0  501  0.00000000000E+00  0.00000000000E+00 -0.15200245705E+04  0.15200245705E+04  0.50400001928E-02 0.  1.
    10030    2    1    2    0    0  0.00000000000E+00  0.00000000000E+00  0.38234583533E+03  0.34223949764E+04  0.34009703081E+04 0.  0.
        3    1    3    3  502    0  0.55623188942E+03 -0.14524995632E+04 -0.50054430305E+03  0.16339196753E+04  0.10100000352E+00 0.  1.
       -3    1    3    3    0  502 -0.55623188942E+03  0.14524995632E+04  0.88289013838E+03  0.17884753011E+04  0.10100000352E+00 0. -1.
</event>
<event>
 5   0  0.2553250E-07  0.3399747E+04  0.7818609E-02  0.8137968E-01
        1   -1    0    0  501    0  0.00000000000E+00  0.00000000000E+00  0.21211399937E+04  0.21211399937E+04  0.50400001928E-02 0. -1.
       -1   -1    0    0    0  501  0.00000000000E+00  0.00000000000E+00 -0.13622721001E+04  0.13622721001E+04  0.50400001928E-02 0.  1.
    10030    2    1    2    0    0  0.00000000000E+00  0.00000000000E+00  0.75886789362E+03  0.34834120938E+04  0.33997469517E+04 0.  0.
        5    1    3    3  502    0  0.75496172005E+03  0.12126871973E+04  0.13235046326E+04  0.19473736261E+04  0.46999998093E+01 0. -1.
       -5    1    3    3    0  502 -0.75496172005E+03 -0.12126871973E+04 -0.56463673897E+03  0.15360384677E+04  0.46999998093E+01 0.  1.
</event>
<event>
 5   0  0.7610412E-07  0.3317794E+04  0.7818609E-02  0.8158382E-01
        2   -1    0    0  501    0  0.00000000000E+00  0.00000000000E+00  0.18332151556E+04  0.18332151556E+04  0.25500000920E-02 0.  1.
       -2   -1    0    0    0  501  0.00000000000E+00  0.00000000000E+00 -0.15011548171E+04  0.15011548171E+04  0.25500000920E-02 0. -1.
    10030    2    1    2    0    0  0.00000000000E+00  0.00000000000E+00  0.33206033853E+03  0.33343699728E+04  0.33177943045E+04 0.  0.
        4    1    3    3  502    0  0.33501356713E+03 -0.19603991194E+03  0.17869339921E+04  0.18286061474E+04  0.12699999809E+01 0.  1.
       -4    1    3    3    0  502 -0.33501356713E+03  0.19603991194E+03 -0.14548736535E+04  0.15057638254E+04  0.12699999809E+01 0. -1.
</event>
<event>
 5   0  0.7899402E-07  0.3403591E+04  0.7818609E-02  0.8137026E-01
        2   -1    0    0  501    0  0.00000000000E+00  0.00000000000E+00  0.24846382319E+04  0.24846382319E+04  0.25500000920E-02 0.  1.
       -2   -1    0    0    0  501  0.00000000000E+00  0.00000000000E+00 -0.11656052823E+04  0.11656052823E+04  0.25500000920E-02 0. -1.
    10030    2    1    2    0    0  0.00000000000E+00  0.00000000000E+00  0.13190329496E+04  0.36502435143E+04  0.34035907203E+04 0.  0.
        2    1    3    3  502    0  0.12509252945E+04 -0.11434143305E+04  0.82530574401E+03  0.18850305024E+04  0.25500000920E-02 0.  1.
       -2    1    3    3    0  502 -0.12509252945E+04  0.11434143305E+04  0.49372720559E+03  0.17652130119E+04  0.25500000920E-02 0. -1.
</event>
<event>
 5   0  0.2592200E-07  0.3447166E+04  0.7818609E-02  0.8126426E-01
        1   -1    0    0  501    0  0.00000000000E+00  0.00000000000E+00  0.16035196818E+04  0.16035196818E+04  0.50400001928E-02 0.  1.
       -1   -1    0    0    0  501  0.00000000000E+00  0.00000000000E+00 -0.18526362149E+04  0.18526362149E+04  0.50400001928E-02 0. -1.
    10030    2    1    2    0    0  0.00000000000E+00  0.00000000000E+00 -0.24911653308E+03  0.34561558967E+04  0.34471661601E+04 0.  0.
        4    1    3    3  502    0 -0.11178870503E+04  0.95086791045E+03 -0.10307492756E+04  0.17933953615E+04  0.12699999809E+01 0. -1.
       -4    1    3    3    0  502  0.11178870503E+04 -0.95086791045E+03  0.78163274256E+03  0.16627605352E+04  0.12699999809E+01 0.  1.
</event>
<event>
 5   0  0.7822003E-07  0.3221050E+04  0.7818609E-02  0.8183280E-01
        2   -1    0    0  501    0  0.00000000000E+00  0.00000000000E+00  0.24623306029E+04  0.24623306029E+04  0.25500000920E-02 0.  1.
       -2   -1    0    0    0  501  0.00000000000E+00  0.00000000000E+00 -0.10533884627E+04  0.10533884627E+04  0.25500000920E-02 0. -1.
    10030    2    1    2    0    0  0.00000000000E+00  0.00000000000E+00  0.14089421402E+04  0.35157190656E+04  0.32210499210E+04 0.  0.
        5    1    3    3  502    0  0.53776089088E+03 -0.14816830045E+04  0.10651514953E+04  0.19024040316E+04  0.46999998093E+01 0. -1.
       -5    1    3    3    0  502 -0.53776089088E+03  0.14816830045E+04  0.34379064492E+03  0.16133150340E+04  0.46999998093E+01 0.  1.
</event>
<event>
 5   0  0.2641442E-07  0.3394466E+04  0.7818609E-02  0.8139266E-01
        1   -1    0    0  501    0  0.00000000000E+00  0.00000000000E+00  0.90369344005E+03  0.90369344007E+03  0.50400001928E-02 0.  1.
       -1   -1    0    0    0  501  0.00000000000E+00  0.00000000000E+00 -0.31875860640E+04  0.31875860640E+04  0.50400001928E-02 0. -1.
    10030    2    1    2    0    0  0.00000000000E+00  0.00000000000E+00 -0.22838926239E+04  0.40912795041E+04  0.33944664474E+04 0.  0.
        1    1    3    3  502    0 -0.16833719489E+04 -0.20870424785E+03 -0.10726869617E+04  0.20069768059E+04  0.50400001928E-02 0.  1.
       -1    1    3    3    0  502  0.16833719489E+04  0.20870424785E+03 -0.12112056622E+04  0.20843026982E+04  0.50400001928E-02 0. -1.
</event>
<event>
 5   0  0.7610412E-07  0.3398766E+04  0.7818609E-02  0.8138209E-01
        2   -1    0    0  501    0  0.00000000000E+00  0.00000000000E+00  0.16052989808E+04  0.16052989808E+04  0.25500000920E-02 0. -1.
       -2   -1    0    0    0  501  0.00000000000E+00  0.00000000000E+00 -0.17989812056E+04  0.17989812056E+04  0.25500000920E-02 0.  1.
    10030    2    1    2    0    0  0.00000000000E+00  0.00000000000E+00 -0.19368222480E+03  0.34042801864E+04  0.33987660678E+04 0.  0.
        4    1    3    3  502    0 -0.34190953449E+03  0.22357586357E+03  0.15553843648E+04  0.16081388099E+04  0.12699999809E+01 0. -1.
       -4    1    3    3    0  502  0.34190953449E+03 -0.22357586357E+03 -0.17490665896E+04  0.17961413765E+04  0.12699999809E+01 0.  1.
</event>
<event>
 5   0  0.2599367E-07  0.3387170E+04  0.7818609E-02  0.8141063E-01
        1   -1    0    0  501    0  0.00000000000E+00  0.00000000000E+00  0.16853124913E+04  0.16853124913E+04  0.50400001928E-02 0.  1.
       -1   -1    0    0    0  501  0.00000000000E+00  0.00000000000E+00 -0.17018976336E+04  0.17018976336E+04  0.50400001928E-02 0. -1.
    10030    2    1    2    0    0  0.00000000000E+00  0.00000000000E+00 -0.16585142369E+02  0.33872101249E+04  0.33871695209E+04 0.  0.
        2    1    3    3  502    0  0.39812171224E+03  0.10948127539E+04 -0.12375808638E+04  0.16996241521E+04  0.25500000920E-02 0. -1.
       -2    1    3    3    0  502 -0.39812171224E+03 -0.10948127539E+04  0.12209957214E+04  0.16875859728E+04  0.25500000920E-02 0.  1.
</event>
<event>
 5   0  0.2599367E-07  0.3379694E+04  0.7818609E-02  0.8142908E-01
        1   -1    0    0  501    0  0.00000000000E+00  0.00000000000E+00  0.21518320880E+04  0.21518320880E+04  0.50400001928E-02 0. -1.
       -1   -1    0    0    0  501  0.00000000000E+00  0.00000000000E+00 -0.13270469162E+04  0.13270469162E+04  0.50400001928E-02 0.  1.
    10030    2    1    2    0    0  0.00000000000E+00  0.00000000000E+00  0.82478517180E+03  0.34788790043E+04  0.33796935581E+04 0.  0.
        2    1    3    3  502    0  0.65504374295E+03  0.15180727241E+04  0.52923233422E+02  0.16542152126E+04  0.25500000920E-02 0.  1.
       -2    1    3    3    0  502 -0.65504374295E+03 -0.15180727241E+04  0.77186193837E+03  0.18246637917E+04  0.25500000920E-02 0. -1.
</event>
<event>
 5   0  0.7899402E-07  0.3385502E+04  0.7818609E-02  0.8141474E-01
       -2   -1    0    0    0  501  0.00000000000E+00  0.00000000000E+00  0.17768837662E+04  0.17768837662E+04  0.25500000920E-02 0.  1.
        2   -1    0    0  501    0  0.00000000000E+00  0.00000000000E+00 -0.16126015981E+04  0.16126015981E+04  0.25500000920E-02 0. -1.
    10030    2    1    2    0    0  0.00000000000E+00  0.00000000000E+00  0.16428216806E+03  0.33894853643E+04  0.33855017950E+04 0.  0.
        2    1    3    3  502    0  0.96329016397E+02 -0.16872491520E+04 -0.14495133781E+02  0.16900589011E+04  0.25500000920E-02 0. -1.
       -2    1    3    3    0  502 -0.96329016397E+02  0.16872491520E+04  0.17877730184E+03  0.16994264632E+04  0.25500000920E-02 0.  1.
</event>
<event>
 5   0  0.2553250E-07  0.3400453E+04  0.7818609E-02  0.8137795E-01
        1   -1    0    0  501    0  0.00000000000E+00  0.00000000000E+00  0.11892895436E+04  0.11892895436E+04  0.50400001928E-02 0.  1.
       -1   -1    0    0    0  501  0.00000000000E+00  0.00000000000E+00 -0.24306703280E+04  0.24306703280E+04  0.50400001928E-02 0. -1.
    10030    2    1    2    0    0  0.00000000000E+00  0.00000000000E+00 -0.12413807844E+04  0.36199598717E+04  0.34004533846E+04 0.  0.
        5    1    3    3  502    0  0.50639590484E+03 -0.37412179760E+03  0.10606094517E+04  0.12334173790E+04  0.46999998093E+01 0.  1.
       -5    1    3    3    0  502 -0.50639590484E+03  0.37412179760E+03 -0.23019902361E+04  0.23865424926E+04  0.46999998093E+01 0. -1.
</event>
<event>
 5   0  0.2592200E-07  0.3394796E+04  0.7818609E-02  0.8139185E-01
       -1   -1    0    0    0  501  0.00000000000E+00  0.00000000000E+00  0.16103701079E+04  0.16103701079E+04  0.50400001928E-02 0.  1.
        1   -1    0    0  501    0  0.00000000000E+00  0.00000000000E+00 -0.17891292100E+04  0.17891292100E+04  0.50400001928E-02 0. -1.
    10030    2    1    2    0    0  0.00000000000E+00  0.00000000000E+00 -0.17875910209E+03  0.33994993179E+04  0.33947961346E+04 0.  0.
        4    1    3    3  502    0  0.46695063713E+03 -0.66787621638E+03 -0.15804209213E+04  0.17781545038E+04  0.12699999809E+01 0. -1.
       -4    1    3    3    0  502 -0.46695063713E+03  0.66787621638E+03  0.14016618192E+04  0.16213448141E+04  0.12699999809E+01 0.  1.
</event>
<event>
 5   0  0.2553250E-07  0.3408335E+04  0.7818609E-02  0.8135864E-01
        1   -1    0    0  501    0  0.00000000000E+00  0.00000000000E+00  0.15622501431E+04  0.15622501431E+04  0.50400001928E-02 0. -1.
       -1   -1    0    0    0  501  0.00000000000E+00  0.00000000000E+00 -0.18589770979E+04  0.18589770979E+04  0.50400001928E-02 0.  1.
    10030    2    1    2    0    0  0.00000000000E+00  0.00000000000E+00 -0.29672695477E+03  0.34212272410E+04  0.34083352166E+04 0.  0.
        5    1    3    3  502    0 -0.13747025420E+04  0.97939713325E+03  0.87342359010E+02  0.16901705835E+04  0.46999998093E+01 0. -1.
       -5    1    3    3    0  502  0.13747025420E+04 -0.97939713325E+03 -0.38406931378E+03  0.17310566575E+04  0.46999998093E+01 0.  1.
</event>
<event>
 5   0  0.7899402E-07  0.3403576E+04  0.7818609E-02  0.8137029E-01
       -2   -1    0    0    0  501  0.00000000000E+00  0.00000000000E+00  0.10067828503E+04  0.10067828503E+04  0.25500000920E-02 0. -1.
        2   -1    0    0  501    0  0.00000000000E+00  0.00000000000E+00 -0.28765708444E+04  0.28765708444E+04  0.25500000920E-02 0.  1.
    10030    2    1    2    0    0  0.00000000000E+00  0.00000000000E+00 -0.18697879942E+04  0.38833536947E+04  0.34035758806E+04 0.  0.
        2    1    3    3  502    0  0.52656683999E+03 -0.47007340830E+03 -0.27016706853E+04  0.27923585261E+04  0.25500000920E-02 0.  1.
       -2    1    3    3    0  502 -0.52656683999E+03  0.47007340830E+03  0.83188269115E+03  0.10909951686E+04  0.25500000920E-02 0. -1.
</event>
<event>
 5   0  0.7899402E-07  0.3390912E+04  0.7818609E-02  0.8140141E-01
       -2   -1    0    0    0  501  0.00000000000E+00  0.00000000000E+00  0.20542439349E+04  0.20542439349E+04  0.25500000920E-02 0.  1.
        2   -1    0    0  501    0  0.00000000000E+00  0.00000000000E+00 -0.13993325266E+04  0.13993325266E+04  0.25500000920E-02 0. -1.
    10030    2    1    2    0    0  0.00000000000E+00  0.00000000000E+00  0.65491140825E+03  0.34535764615E+04  0.33909115917E+04 0.  0.
        2    1    3    3  502    0  0.14358470046E+03 -0.15760077412E+04  0.94710145203E+03  0.18442933950E+04  0.25500000920E-02 0.  1.
       -2    1    3    3    0  502 -0.14358470046E+03  0.15760077412E+04 -0.29219004378E+03  0.16092830665E+04  0.25500000920E-02 0. -1.
</event>
<event>
 5   0  0.2641442E-07  0.3403613E+04  0.7818609E-02  0.8137020E-01
       -1   -1    0    0    0  501  0.00000000000E+00  0.00000000000E+00  0.12724251644E+04  0.12724251644E+04  0.50400001928E-02 0.  1.
        1   -1    0    0  501    0  0.00000000000E+00  0.00000000000E+00 -0.22760826575E+04  0.22760826575E+04  0.50400001928E-02 0. -1.
    10030    2    1    2    0    0  0.00000000000E+00  0.00000000000E+00 -0.10036574931E+04  0.35485078220E+04  0.34036126982E+04 0.  0.
        1    1    3    3  502    0 -0.16607919781E+02  0.73757106109E+03  0.10970339715E+04  0.13220326879E+04  0.50400001928E-02 0.  1.
       -1    1    3    3    0  502  0.16607919781E+02 -0.73757106109E+03 -0.21006914646E+04  0.22264751341E+04  0.50400001928E-02 0. -1.
</event>
<event>
 5   0  0.8489228E-07  0.3391504E+04  0.7818609E-02  0.8139995E-01
        2   -1    0    0  501    0  0.00000000000E+00  0.00000000000E+00  0.30739203994E+04  0.30739203994E+04  0.25500000920E-02 0.  1.
       -2   -1    0    0    0  501  0.00000000000E+00  0.00000000000E+00 -0.93547460015E+03  0.93547460016E+03  0.25500000920E-02 0. -1.
    10030    2    1    2    0    0  0.00000000000E+00  0.00000000000E+00  0.21384457992E+04  0.40093949996E+04  0.33915037706E+04 0.  0.
        3    1    3    3  502    0  0.18883644344E+03 -0.63163764503E+03 -0.77777288581E+03  0.10195861852E+04  0.10100000352E+00 0. -1.
       -3    1    3    3    0  502 -0.18883644344E+03  0.63163764503E+03  0.29162186851E+04  0.29898088143E+04  0.10100000352E+00 0.  1.
</event>
<event>
 5   0  0.8489228E-07  0.3306634E+04  0.7818609E-02  0.8161210E-01
        2   -1    0    0  501    0  0.00000000000E+00  0.00000000000E+00  0.20932335228E+04  0.20932335228E+04  0.25500000920E-02 0. -1.
       -2   -1    0    0    0  501  0.00000000000E+00  0.00000000000E+00 -0.13058535182E+04  0.13058535182E+04  0.25500000920E-02 0.  1.
    10030    2    1    2    0    0  0.00000000000E+00  0.00000000000E+00  0.78738000463E+03  0.33990870409E+04  0.33066335509E+04 0.  0.
        3    1    3    3  502    0  0.24711447824E+03 -0.56823231968E+03 -0.11819761384E+04  0.13345490386E+04  0.10100000352E+00 0.  1.
       -3    1    3    3    0  502 -0.24711447824E+03  0.56823231968E+03  0.19693561431E+04  0.20645380023E+04  0.10100000352E+00 0. -1.
</event>
<event>
 5   0  0.7610412E-07  0.3418178E+04  0.7818609E-02  0.8133459E-01
       -2   -1    0    0    0  501  0.00000000000E+00  0.00000000000E+00  0.10539685352E+04  0.10539685352E+04  0.25500000920E-02 0.  1.
        2   -1    0    0  501    0  0.00000000000E+00  0.00000000000E+00 -0.27714164694E+04  0.27714164694E+04  0.25500000920E-02 0. -1.
    10030    2    1    2    0    0  0.00000000000E+00  0.00000000000E+00 -0.17174479342E+04  0.38253850046E+04  0.34181783199E+04 0.  0.
        4    1    3    3  502    0 -0.98864845751E+02 -0.14805259229E+04  0.90396283912E+02  0.14865747096E+04  0.12699999809E+01 0.  1.
       -4    1    3    3    0  502  0.98864845751E+02  0.14805259229E+04 -0.18078442181E+04  0.23388102950E+04  0.12699999809E+01 0. -1.
</event>
<event>
 5   0  0.2592200E-07  0.3403500E+04  0.7818609E-02  0.8137048E-01
        1   -1    0    0  501    0  0.00000000000E+00  0.00000000000E+00  0.93690499251E+03  0.93690499252E+03  0.50400001928E-02 0. -1.
       -1   -1    0    0    0  501  0.00000000000E+00  0.00000000000E+00 -0.30909791609E+04  0.30909791609E+04  0.50400001928E-02 0.  1.
    10030    2    1    2    0    0  0.00000000000E+00  0.00000000000E+00 -0.21540741684E+04  0.40278841534E+04  0.34035004378E+04 0.  0.
        4    1    3    3  502    0 -0.12746021200E+04  0.15191379376E+03 -0.23992590070E+04  0.27210537960E+04  0.12699999809E+01 0.  1.
       -4    1    3    3    0  502  0.12746021200E+04 -0.15191379376E+03  0.24518483861E+03  0.13068303574E+04  0.12699999809E+01 0. -1.
</event>
<event>
 5   0  0.2592200E-07  0.3399239E+04  0.7818609E-02  0.8138093E-01
        1   -1    0    0  501    0  0.00000000000E+00  0.00000000000E+00  0.16375238797E+04  0.16375238797E+04  0.50400001928E-02 0.  1.
       -1   -1    0    0    0  501  0.00000000000E+00  0.00000000000E+00 -0.17640696247E+04  0.17640696247E+04  0.50400001928E-02 0. -1.
    10030    2    1    2    0    0  0.00000000000E+00  0.00000000000E+00 -0.12654574497E+03  0.34015935044E+04  0.33992388183E+04 0.  0.
        4    1    3    3  502    0  0.16518747868E+03  0.11601186305E+04  0.11686535752E+04  0.16549667464E+04  0.12699999809E+01 0.  1.
       -4    1    3    3    0  502 -0.16518747868E+03 -0.11601186305E+04 -0.12951993201E+04  0.17466267580E+04  0.12699999809E+01 0. -1.
</event>
<event>
 5   0  0.7822003E-07  0.3381037E+04  0.7818609E-02  0.8142576E-01
        2   -1    0    0  501    0  0.00000000000E+00  0.00000000000E+00  0.20500832829E+04  0.20500832829E+04  0.25500000920E-02 0. -1.
       -2   -1    0    0    0  501  0.00000000000E+00  0.00000000000E+00 -0.13940178256E+04  0.13940178256E+04  0.25500000920E-02 0.  1.
    10030    2    1    2    0    0  0.00000000000E+00  0.00000000000E+00  0.65606545727E+03  0.34441011085E+04  0.33810369062E+04 0.  0.
        5    1    3    3  502    0  0.11677184070E+04 -0.87760545163E+03  0.11948292124E+04  0.18871662734E+04  0.46999998093E+01 0. -1.
       -5    1    3    3    0  502 -0.11677184070E+04  0.87760545163E+03 -0.53876375515E+03  0.15569348351E+04  0.46999998093E+01 0.  1.
</event>
<event>
 5   0  0.2592200E-07  0.3411090E+04  0.7818609E-02  0.8135190E-01
       -1   -1    0    0    0  501  0.00000000000E+00  0.00000000000E+00  0.20839935827E+04  0.20839935827E+04  0.50400001928E-02 0. -1.
        1   -1    0    0  501    0  0.00000000000E+00  0.00000000000E+00 -0.13958222349E+04  0.13958222349E+04  0.50400001928E-02 0.  1.
    10030    2    1    2    0    0  0.00000000000E+00  0.00000000000E+00  0.68817134784E+03  0.34798158176E+04  0.34110904885E+04 0.  0.
        4    1    3    3  502    0 -0.27099900097E+03  0.16816697890E+04  0.43201523430E+03  0.17572969338E+04  0.12699999809E+01 0. -1.
       -4    1    3    3    0  502  0.27099900097E+03 -0.16816697890E+04  0.25615611354E+03  0.17225188839E+04  0.12699999809E+01 0.  1.
</event>
<event>
 5   0  0.8489228E-07  0.3444438E+04  0.7818609E-02  0.8127085E-01
        2   -1    0    0  501    0  0.00000000000E+00  0.00000000000E+00  0.22417778695E+04  0.22417778695E+04  0.25500000920E-02 0.  1.
       -2   -1    0    0    0  501  0.00000000000E+00  0.00000000000E+00 -0.13230743355E+04  0.13230743355E+04  0.25500000920E-02 0. -1.
    10030    2    1    2    0    0  0.00000000000E+00  0.00000000000E+00  0.91870353401E+03  0.35648522051E+04  0.34444382794E+04 0.  0.
        3    1    3    3  502    0 -0.24876608687E+03 -0.14254100378E+04 -0.50730233197E+03  0.15333081908E+04  0.10100000352E+00 0. -1.
       -3    1    3    3    0  502  0.24876608687E+03  0.14254100378E+04  0.14260058660E+04  0.20315440142E+04  0.10100000352E+00 0.  1.
</event>
<event>
 5   0  0.8489228E-07  0.3421880E+04  0.7818609E-02  0.8132557E-01
       -2   -1    0    0    0  501  0.00000000000E+00  0.00000000000E+00  0.15869414468E+04  0.15869414468E+04  0.25500000920E-02 0. -1.
        2   -1    0    0  501    0  0.00000000000E+00  0.00000000000E+00 -0.18446269413E+04  0.18446269413E+04  0.25500000920E-02 0.  1.
    10030    2    1    2    0    0  0.00000000000E+00  0.00000000000E+00 -0.25768549448E+03  0.34315683881E+04  0.34218795695E+04 0.  0.
        3    1    3    3  502    0  0.12564930079E+04 -0.11018204380E+04 -0.49666729114E+03  0.17434051063E+04  0.10100000352E+00 0.  1.
       -3    1    3    3    0  502 -0.12564930079E+04  0.11018204380E+04  0.23898179666E+03  0.16881632818E+04  0.10100000352E+00 0. -1.
</event>
<event>
 5   0  0.2592200E-07  0.3382265E+04  0.7818609E-02  0.8142273E-01
       -1   -1    0    0    0  501  0.00000000000E+00  0.00000000000E+00  0.16225514955E+04  0.16225514955E+04  0.50400001928E-02 0. -1.
        1   -1    0    0  501    0  0.00000000000E+00  0.00000000000E+00 -0.17626120289E+04  0.17626120289E+04  0.50400001928E-02 0.  1.
    10030    2    1    2    0    0  0.00000000000E+00  0.00000000000E+00 -0.14006053344E+03  0.33851635244E+04  0.33822647936E+04 0.  0.
        4    1    3    3  502    0  0.16512452723E+04  0.25315953395E+03 -0.33336500015E+03  0.17034771895E+04  0.12699999809E+01 0. -1.
       -4    1    3    3    0  502 -0.16512452723E+04 -0.25315953395E+03  0.19330446671E+03  0.16816863348E+04  0.12699999809E+01 0.  1.
</event>
<event>
 5   0  0.2622205E-07  0.3389737E+04  0.7818609E-02  0.8140430E-01
        1   -1    0    0  501    0  0.00000000000E+00  0.00000000000E+00  0.17686312077E+04  0.17686312077E+04  0.50400001928E-02 0.  1.
       -1   -1    0    0    0  501  0.00000000000E+00  0.00000000000E+00 -0.16241825735E+04  0.16241825735E+04  0.50400001928E-02 0. -1.
    10030    2    1    2    0    0  0.00000000000E+00  0.00000000000E+00  0.14444863422E+03  0.33928137812E+04  0.33897374450E+04 0.  0.
        3    1    3    3  502    0  0.93982426089E+03 -0.13522203689E+04 -0.32915135021E+03  0.16793183704E+04  0.10100000352E+00 0.  1.
       -3    1    3    3    0  502 -0.93982426089E+03  0.13522203689E+04  0.47359998443E+03  0.17134954108E+04  0.10100000352E+00 0. -1.
</event>
<event>
 5   0  0.2592200E-07  0.3448124E+04  0.7818609E-02  0.8126195E-01
       -1   -1    0    0    0  501  0.00000000000E+00  0.00000000000E+00  0.16104722952E+04  0.16104722952E+04  0.50400001928E-02 0. -1.
        1   -1    0    0  501    0  0.00000000000E+00  0.00000000000E+00 -0.18456636255E+04  0.18456636255E+04  0.50400001928E-02 0.  1.
    10030    2    1    2    0    0  0.00000000000E+00  0.00000000000E+00 -0.23519133029E+03  0.34561359207E+04  0.34481242061E+04 0.  0.
        4    1    3    3  502    0  0.77117306305E+03 -0.12054240433E+04 -0.10814085451E+04  0.17936557840E+04  0.12699999809E+01 0.  1.
       -4    1    3    3    0  502 -0.77117306305E+03  0.12054240433E+04  0.84621721482E+03  0.16624801367E+04  0.12699999809E+01 0. -1.
</event>
<event>
 5   0  0.7822003E-07  0.3444767E+04  0.7818609E-02  0.8127006E-01
       -2   -1    0    0    0  501  0.00000000000E+00  0.00000000000E+00  0.16503155730E+04  0.16503155730E+04  0.25500000920E-02 0.  1.
        2   -1    0    0  501    0  0.00000000000E+00  0.00000000000E+00 -0.17975982805E+04  0.17975982805E+04  0.25500000920E-02 0. -1.
    10030    2    1    2    0    0  0.00000000000E+00  0.00000000000E+00 -0.14728270743E+03  0.34479138535E+04  0.34447667186E+04 0.  0.
        5    1    3    3  502    0 -0.12819339525E+04  0.68680293535E+03  0.84998521532E+03  0.16845028605E+04  0.46999998093E+01 0.  1.
       -5    1    3    3    0  502  0.12819339525E+04 -0.68680293535E+03 -0.99726792275E+03  0.17634109930E+04  0.46999998093E+01 0. -1.
</event>
<event>
 5   0  0.2592200E-07  0.3399710E+04  0.7818609E-02  0.8137977E-01
        1   -1    0    0  501    0  0.00000000000E+00  0.00000000000E+00  0.15773670068E+04  0.15773670068E+04  0.50400001928E-02 0.  1.
       -1   -1    0    0    0  501  0.00000000000E+00  0.00000000000E+00 -0.18318548391E+04  0.18318548391E+04  0.50400001928E-02 0. -1.
    10030    2    1    2    0    0  0.00000000000E+00  0.00000000000E+00 -0.25448783232E+03  0.34092218459E+04  0.33997102138E+04 0.  0.
        4    1    3    3  502    0  0.33830479639E+03 -0.40685675664E+03  0.14926774930E+04  0.15836888162E+04  0.12699999809E+01 0.  1.
       -4    1    3    3    0  502 -0.33830479639E+03  0.40685675664E+03 -0.17471653253E+04  0.18255330297E+04  0.12699999809E+01 0. -1.
</event>
<event>
 5   0  0.2599367E-07  0.3402329E+04  0.7818609E-02  0.8137335E-01
       -1   -1    0    0    0  501  0.00000000000E+00  0.00000000000E+00  0.99917693358E+03  0.99917693359E+03  0.50400001928E-02 0. -1.
        1   -1    0    0  501    0  0.00000000000E+00  0.00000000000E+00 -0.28963441242E+04  0.28963441242E+04  0.50400001928E-02 0.  1.
    10030    2    1    2    0    0  0.00000000000E+00  0.00000000000E+00 -0.18971671906E+04  0.38955210578E+04  0.34023287558E+04 0.  0.
        2    1    3    3  502    0  0.13020628062E+04 -0.10391061161E+04 -0.13433053012E+04  0.21399949075E+04  0.25500000920E-02 0.  1.
       -2    1    3    3    0  502 -0.13020628062E+04  0.10391061161E+04 -0.55386188937E+03  0.17555261503E+04  0.25500000920E-02 0. -1.
</event>
<event>
 5   0  0.2553250E-07  0.3388849E+04  0.7818609E-02  0.8140649E-01
        1   -1    0    0  501    0  0.00000000000E+00  0.00000000000E+00  0.94638758967E+03  0.94638758968E+03  0.50400001928E-02 0.  1.
       -1   -1    0    0    0  501  0.00000000000E+00  0.00000000000E+00 -0.30337189434E+04  0.30337189434E+04  0.50400001928E-02 0. -1.
    10030    2    1    2    0    0  0.00000000000E+00  0.00000000000E+00 -0.20873313538E+04  0.39801065331E+04  0.33888487477E+04 0.  0.
        5    1    3    3  502    0 -0.67755679917E+03 -0.57074514766E+03 -0.27400428530E+04  0.28797031385E+04  0.46999998093E+01 0. -1.
       -5    1    3    3    0  502  0.67755679917E+03  0.57074514766E+03  0.65271149921E+03  0.11004033946E+04  0.46999998093E+01 0.  1.
</event>
<event>
 5   0  0.7899402E-07  0.3397979E+04  0.7818609E-02  0.8138403E-01
        2   -1    0    0  501    0  0.00000000000E+00  0.00000000000E+00  0.20602210964E+04  0.20602210964E+04  0.25500000920E-02 0. -1.
       -2   -1    0    0    0  501  0.00000000000E+00  0.00000000000E+00 -0.14010946926E+04  0.14010946926E+04  0.25500000920E-02 0.  1.
    10030    2    1    2    0    0  0.00000000000E+00  0.00000000000E+00  0.65912640384E+03  0.34613157890E+04  0.33979787190E+04 0.  0.
        2    1    3    3  502    0 -0.84877206492E+03 -0.13035872913E+04  0.10255341467E+04  0.18631892363E+04  0.25500000920E-02 0. -1.
       -2    1    3    3    0  502  0.84877206492E+03  0.13035872913E+04 -0.36640774283E+03  0.15981265527E+04  0.25500000920E-02 0.  1.
</event>
<event>
 5   0  0.7610412E-07  0.3391741E+04  0.7818609E-02  0.8139936E-01
       -2   -1    0    0    0  501  0.00000000000E+00  0.00000000000E+00  0.13225527487E+04  0.13225527487E+04  0.25500000920E-02 0. -1.
        2   -1    0    0  501    0  0.00000000000E+00  0.00000000000E+00 -0.21745647317E+04  0.21745647317E+04  0.25500000920E-02 0.  1.
    10030    2    1    2    0    0  0.00000000000E+00  0.00000000000E+00 -0.85201198300E+03  0.34971174803E+04  0.33917408881E+04 0.  0.
        4    1    3    3  502    0  0.70887400619E+03 -0.11948569598E+04  0.57672580182E+03  0.15042605407E+04  0.12699999809E+01 0. -1.
       -4    1    3    3    0  502 -0.70887400619E+03  0.11948569598E+04 -0.14287377848E+04  0.19928569396E+04  0.12699999809E+01 0.  1.
</event>
<event>
 5   0  0.8489228E-07  0.3388450E+04  0.7818609E-02  0.8140747E-01
       -2   -1    0    0    0  501  0.00000000000E+00  0.00000000000E+00  0.12899485416E+04  0.12899485416E+04  0.25500000920E-02 0.  1.
        2   -1    0    0  501    0  0.00000000000E+00  0.00000000000E+00 -0.22252036026E+04  0.22252036026E+04  0.25500000920E-02 0. -1.
    10030    2    1    2    0    0  0.00000000000E+00  0.00000000000E+00 -0.93525506105E+03  0.35151521442E+04  0.33884498768E+04 0.  0.
        3    1    3    3  502    0  0.14604339340E+04  0.73074778354E+02  0.42005001560E+03  0.15213971292E+04  0.10100000352E+00 0.  1.
       -3    1    3    3    0  502 -0.14604339340E+04 -0.73074778354E+02 -0.13553050767E+04  0.19937550150E+04  0.10100000352E+00 0. -1.
</event>
<event>
 5   0  0.2641442E-07  0.3369726E+04  0.7818609E-02  0.8145377E-01
        1   -1    0    0  501    0  0.00000000000E+00  0.00000000000E+00  0.23514442697E+04  0.23514442697E+04  0.50400001928E-02 0.  1.
       -1   -1    0    0    0  501  0.00000000000E+00  0.00000000000E+00 -0.12072425548E+04  0.12072425548E+04  0.50400001928E-02 0. -1.
    10030    2    1    2    0    0  0.00000000000E+00  0.00000000000E+00  0.11442017149E+04  0.35586868245E+04  0.33697261536E+04 0.  0.
        1    1    3    3  502    0 -0.13377952133E+04 -0.10033480297E+04  0.78945834450E+03  0.18492289688E+04  0.50400001928E-02 0. -1.
       -1    1    3    3    0  502  0.13377952133E+04  0.10033480297E+04  0.35474337037E+03  0.17094578556E+04  0.50400001928E-02 0.  1.
</event>
<event>
 5   0  0.2622205E-07  0.3355080E+04  0.7818609E-02  0.8149020E-01
        1   -1    0    0  501    0  0.00000000000E+00  0.00000000000E+00  0.17738919779E+04  0.17738919779E+04  0.50400001928E-02 0. -1.
       -1   -1    0    0    0  501  0.00000000000E+00  0.00000000000E+00 -0.15864219125E+04  0.15864219125E+04  0.50400001928E-02 0.  1.
    10030    2    1    2    0    0  0.00000000000E+00  0.00000000000E+00  0.18747006538E+03  0.33603138904E+04  0.33550803890E+04 0.  0.
        3    1    3    3  502    0  0.22382688608E+03 -0.71114351659E+03 -0.14113790469E+04  0.15961874578E+04  0.10100000352E+00 0.  1.
       -3    1    3    3    0  502 -0.22382688608E+03  0.71114351659E+03  0.15988491123E+04  0.17641264326E+04  0.10100000352E+00 0. -1.
</event>
<event>
 5   0  0.2553250E-07  0.3398333E+04  0.7818609E-02  0.8138316E-01
       -1   -1    0    0    0  501  0.00000000000E+00  0.00000000000E+00  0.21326970091E+04  0.21326970091E+04  0.50400001928E-02 0.  1.
        1   -1    0    0  501    0  0.00000000000E+00  0.00000000000E+00 -0.13537628386E+04  0.13537628386E+04  0.50400001928E-02 0. -1.
    10030    2    1    2    0    0  0.00000000000E+00  0.00000000000E+00  0.77893417052E+03  0.34864598477E+04  0.33983325069E+04 0.  0.
        5    1    3    3  502    0  0.75033997272E+03 -0.10362358778E+04  0.15366546306E+04  0.19995310482E+04  0.46999998093E+01 0.  1.
       -5    1    3    3    0  502 -0.75033997272E+03  0.10362358778E+04 -0.75772046007E+03  0.14869287995E+04  0.46999998093E+01 0. -1.
</event>
<event>
 5   0  0.2553250E-07  0.3369133E+04  0.7818609E-02  0.8145524E-01
       -1   -1    0    0    0  501  0.00000000000E+00  0.00000000000E+00  0.12886543360E+04  0.12886543360E+04  0.50400001928E-02 0.  1.
        1   -1    0    0  501    0  0.00000000000E+00  0.00000000000E+00 -0.22021140828E+04  0.22021140828E+04  0.50400001928E-02 0. -1.
    10030    2    1    2    0    0  0.00000000000E+00  0.00000000000E+00 -0.91345974679E+03  0.34907684189E+04  0.33691327438E+04 0.  0.
        5    1    3    3  502    0  0.10216394247E+04  0.96879695404E+03  0.50155453667E+03  0.14946215894E+04  0.46999998093E+01 0.  1.
       -5    1    3    3    0  502 -0.10216394247E+04 -0.96879695404E+03 -0.14150142835E+04  0.19961468294E+04  0.46999998093E+01 0. -1.
</event>
<event>
 5   0  0.7899402E-07  0.3356058E+04  0.7818609E-02  0.8148776E-01
        2   -1    0    0  501    0  0.00000000000E+00  0.00000000000E+00  0.20085918056E+04  0.20085918056E+04  0.25500000920E-02 0.  1.
       -2   -1    0    0    0  501  0.00000000000E+00  0.00000000000E+00 -0.14018682870E+04  0.14018682870E+04  0.25500000920E-02 0. -1.
    10030    2    1    2    0    0  0.00000000000E+00  0.00000000000E+00  0.60672351861E+03  0.34104600927E+04  0.33560578981E+04 0.  0.
        2    1    3    3  502    0 -0.20181828517E+03 -0.28018292684E+03 -0.13653741441E+04  0.14083606236E+04  0.25500000920E-02 0. -1.
       -2    1    3    3    0  502  0.20181828517E+03  0.28018292684E+03  0.19720976627E+04  0.20020994691E+04  0.25500000920E-02 0.  1.
</event>
<event>
 5   0  0.7899402E-07  0.3349550E+04  0.7818609E-02  0.8150400E-01
       -2   -1    0    0    0  501  0.00000000000E+00  0.00000000000E+00  0.15411380052E+04  0.15411380052E+04  0.25500000920E-02 0. -1.
        2   -1    0    0  501    0  0.00000000000E+00  0.00000000000E+00 -0.18200006207E+04  0.18200006207E+04  0.25500000920E-02 0.  1.
    10030    2    1    2    0    0  0.00000000000E+00  0.00000000000E+00 -0.27886261553E+03  0.33611386259E+04  0.33495504928E+04 0.  0.
        2    1    3    3  502    0  0.87049653150E+03 -0.12178673332E+03 -0.15699424010E+04  0.17992541128E+04  0.25500000920E-02 0.  1.
       -2    1    3    3    0  502 -0.87049653150E+03  0.12178673332E+03  0.12910797855E+04  0.15618845131E+04  0.25500000920E-02 0. -1.
</event>
<event>
 5   0  0.2622205E-07  0.3419833E+04  0.7818609E-02  0.8133056E-01
       -1   -1    0    0    0  501  0.00000000000E+00  0.00000000000E+00  0.19247290028E+04  0.19247290028E+04  0.50400001928E-02 0. -1.
        1   -1    0    0  501    0  0.00000000000E+00  0.00000000000E+00 -0.15190787948E+04  0.15190787948E+04  0.50400001928E-02 0.  1.
    10030    2    1    2    0    0  0.00000000000E+00  0.00000000000E+00  0.40565020796E+03  0.34438077976E+04  0.34198333374E+04 0.  0.
        3    1    3    3  502    0 -0.92767733472E+02 -0.17055217589E+04  0.28341539507E+03  0.17313967249E+04  0.10100000352E+00 0. -1.
       -3    1    3    3    0  502  0.92767733472E+02  0.17055217589E+04  0.12223481289E+03  0.17124110728E+04  0.10100000352E+00 0.  1.
</event>
<event>
 5   0  0.2641442E-07  0.3359966E+04  0.7818609E-02  0.8147803E-01
        1   -1    0    0  501    0  0.00000000000E+00  0.00000000000E+00  0.22669271328E+04  0.22669271328E+04  0.50400001928E-02 0.  1.
       -1   -1    0    0    0  501  0.00000000000E+00  0.00000000000E+00 -0.12450080496E+04  0.12450080497E+04  0.50400001928E-02 0. -1.
    10030    2    1    2    0    0  0.00000000000E+00  0.00000000000E+00  0.10219190831E+04  0.35119351824E+04  0.33599657905E+04 0.  0.
        1    1    3    3  502    0 -0.12422295251E+04 -0.89185597145E+03  0.12379774927E+04  0.19675186249E+04  0.50400001928E-02 0.  1.
       -1    1    3    3    0  502  0.12422295251E+04  0.89185597145E+03 -0.21605840957E+03  0.15444165575E+04  0.50400001928E-02 0. -1.
</event>
<event>
 5   0  0.7838333E-07  0.3375305E+04  0.7818609E-02  0.8143994E-01
       -2   -1    0    0    0  501  0.00000000000E+00  0.00000000000E+00  0.17580658733E+04  0.17580658733E+04  0.25500000920E-02 0. -1.
        2   -1    0    0  501    0  0.00000000000E+00  0.00000000000E+00 -0.16200591457E+04  0.16200591458E+04  0.25500000920E-02 0.  1.
    10030    2    1    2    0    0  0.00000000000E+00  0.00000000000E+00  0.13800672751E+03  0.33781250190E+04  0.33753048436E+04 0.  0.
        1    1    3    3  502    0 -0.13860020239E+04  0.43194780772E+02 -0.89372722402E+03  0.16497320238E+04  0.50400001928E-02 0.  1.
       -1    1    3    3    0  502  0.13860020239E+04 -0.43194780772E+02  0.10317339515E+04  0.17283929952E+04  0.50400001928E-02 0. -1.
</event>
<event>
 5   0  0.7822003E-07  0.3380750E+04  0.7818609E-02  0.8142647E-01
        2   -1    0    0  501    0  0.00000000000E+00  0.00000000000E+00  0.32660433168E+04  0.32660433168E+04  0.25500000920E-02 0. -1.
       -2   -1    0    0    0  501  0.00000000000E+00  0.00000000000E+00 -0.87487140832E+03  0.87487140832E+03  0.25500000920E-02 0.  1.
    10030    2    1    2    0    0  0.00000000000E+00  0.00000000000E+00  0.23911719084E+04  0.41409147251E+04  0.33807501630E+04 0.  0.
        5    1    3    3  502    0  0.86957579974E+03  0.14095002995E+04  0.78113606051E+03  0.18311332013E+04  0.46999998093E+01 0.  1.
       -5    1    3    3    0  502 -0.86957579974E+03 -0.14095002995E+04  0.16100358479E+04  0.23097815238E+04  0.46999998093E+01 0. -1.
</event>
<event>
 5   0  0.2599367E-07  0.3452216E+04  0.7818609E-02  0.8125208E-01
        1   -1    0    0  501    0  0.00000000000E+00  0.00000000000E+00  0.12568797867E+04  0.12568797867E+04  0.50400001928E-02 0.  1.
       -1   -1    0    0    0  501  0.00000000000E+00  0.00000000000E+00 -0.23705126480E+04  0.23705126480E+04  0.50400001928E-02 0. -1.
    10030    2    1    2    0    0  0.00000000000E+00  0.00000000000E+00 -0.11136328613E+04  0.36273924347E+04  0.34522163498E+04 0.  0.
        2    1    3    3  502    0 -0.13322704004E+04  0.33965901009E+03 -0.16533899339E+04  0.21503513519E+04  0.25500000920E-02 0. -1.
       -2    1    3    3    0  502  0.13322704004E+04 -0.33965901009E+03  0.53975707265E+03  0.14770410828E+04  0.25500000920E-02 0.  1.
</event>
<event>
 5   0  0.2599367E-07  0.3413850E+04  0.7818609E-02  0.8134515E-01
       -1   -1    0    0    0  501  0.00000000000E+00  0.00000000000E+00  0.12841714257E+04  0.12841714257E+04  0.50400001928E-02 0.  1.
        1   -1    0    0  501    0  0.00000000000E+00  0.00000000000E+00 -0.22688506176E+04  0.22688506176E+04  0.50400001928E-02 0. -1.
    10030    2    1    2    0    0  0.00000000000E+00  0.00000000000E+00 -0.98467919186E+03  0.35530220433E+04  0.34138501035E+04 0.  0.
        2    1    3    3  502    0  0.26423583276E+02 -0.63470148153E+03  0.11565612844E+04  0.13195371086E+04  0.25500000920E-02 0.  1.
       -2    1    3    3    0  502 -0.26423583276E+02  0.63470148153E+03 -0.21412404762E+04  0.22334849347E+04  0.25500000920E-02 0. -1.
</event>
<event>
 5   0  0.2622205E-07  0.3411218E+04  0.7818609E-02  0.8135158E-01
       -1   -1    0    0    0  501  0.00000000000E+00  0.00000000000E+00  0.16750186449E+04  0.16750186449E+04  0.50400001928E-02 0. -1.
        1   -1    0    0  501    0  0.00000000000E+00  0.00000000000E+00 -0.17367584741E+04  0.17367584741E+04  0.50400001928E-02 0.  1.
    10030    2    1    2    0    0  0.00000000000E+00  0.00000000000E+00 -0.61739829174E+02  0.34117771190E+04  0.34112184484E+04 0.  0.
        3    1    3    3  502    0 -0.15441857162E+04 -0.72409284801E+03 -0.14049409286E+02  0.17055841741E+04  0.10100000352E+00 0. -1.
       -3    1    3    3    0  502  0.15441857162E+04  0.72409284801E+03 -0.47690419888E+02  0.17061929449E+04  0.10100000352E+00 0.  1.
</event>
<event>
 5   0  0.8489228E-07  0.3372937E+04  0.7818609E-02  0.8144581E-01
       -2   -1    0    0    0  501  0.00000000000E+00  0.00000000000E+00  0.21149426900E+04  0.21149426900E+04  0.25500000920E-02 0.  1.
        2   -1    0    0  501    0  0.00000000000E+00  0.00000000000E+00 -0.13448004589E+04  0.13448004589E+04  0.25500000920E-02 0. -1.
    10030    2    1    2    0    0  0.00000000000E+00  0.00000000000E+00  0.77014223111E+03  0.34597431489E+04  0.33729369399E+04 0.  0.
        3    1    3    3  502    0  0.73408750993E+03 -0.13166589400E+04  0.11606392919E+04  0.19025138141E+04  0.10100000352E+00 0.  1.
       -3    1    3    3    0  502 -0.73408750993E+03  0.13166589400E+04 -0.39049706080E+03  0.15572293349E+04  0.10100000352E+00 0. -1.
</event>
<event>
 5   0  0.2553250E-07  0.3372124E+04  0.7818609E-02  0.8144782E-01
       -1   -1    0    0    0  501  0.00000000000E+00  0.00000000000E+00  0.14369220313E+04  0.14369220313E+04  0.50400001928E-02 0.  1.
        1   -1    0    0  501    0  0.00000000000E+00  0.00000000000E+00 -0.19783988435E+04  0.19783988435E+04  0.50400001928E-02 0. -1.
    10030    2    1    2    0    0  0.00000000000E+00  0.00000000000E+00 -0.54147681227E+03  0.34153208748E+04  0.33721238915E+04 0.  0.
        5    1    3    3  502    0 -0.28649869978E+03 -0.95693729794E+03  0.11049589898E+04  0.14895526028E+04  0.46999998093E+01 0.  1.
       -5    1    3    3    0  502  0.28649869978E+03  0.95693729794E+03 -0.16464358021E+04  0.19257682720E+04  0.46999998093E+01 0. -1.
</event>
<event>
 5   0  0.2599367E-07  0.3404843E+04  0.7818609E-02  0.8136719E-01
       -1   -1    0    0    0  501  0.00000000000E+00  0.00000000000E+00  0.12850986744E+04  0.12850986744E+04  0.50400001928E-02 0.  1.
        1   -1    0    0  501    0  0.00000000000E+00  0.00000000000E+00 -0.22552662778E+04  0.22552662779E+04  0.50400001928E-02 0. -1.
    10030    2    1    2    0    0  0.00000000000E+00  0.00000000000E+00 -0.97016760342E+03  0.35403649523E+04  0.34048434350E+04 0.  0.
        2    1    3    3  502    0  0.11397258856E+04  0.24174620845E+03 -0.17757897639E+04  0.21238751397E+04  0.25500000920E-02 0. -1.
       -2    1    3    3    0  502 -0.11397258856E+04 -0.24174620845E+03  0.80562216047E+03  0.14164898126E+04  0.25500000920E-02 0.  1.
</event>
<event>
 5   0  0.7838333E-07  0.3399144E+04  0.7818609E-02  0.8138116E-01
       -2   -1    0    0    0  501  0.00000000000E+00  0.00000000000E+00  0.17970837531E+04  0.17970837531E+04  0.25500000920E-02 0.  1.
        2   -1    0    0  501    0  0.00000000000E+00  0.00000000000E+00 -0.16073516167E+04  0.16073516167E+04  0.25500000920E-02 0. -1.
    10030    2    1    2    0    0  0.00000000000E+00  0.00000000000E+00  0.18973213635E+03  0.34044353698E+04  0.33991442899E+04 0.  0.
        1    1    3    3  502    0 -0.14499507887E+04  0.25876404974E+03  0.94426008064E+03  0.17495551500E+04  0.50400001928E-02 0.  1.
       -1    1    3    3    0  502  0.14499507887E+04 -0.25876404974E+03 -0.75452794429E+03  0.16548802198E+04  0.50400001928E-02 0. -1.
</event>
<event>
 5   0  0.7822003E-07  0.3409137E+04  0.7818609E-02  0.8135668E-01
        2   -1    0    0  501    0  0.00000000000E+00  0.00000000000E+00  0.24069302396E+04  0.24069302396E+04  0.25500000920E-02 0.  1.
       -2   -1    0    0    0  501  0.00000000000E+00  0.00000000000E+00 -0.12071614142E+04  0.12071614142E+04  0.25500000920E-02 0. -1.
    10030    2    1    2    0    0  0.00000000000E+00  0.00000000000E+00  0.11997688253E+04  0.36140916538E+04  0.34091367306E+04 0.  0.
        5    1    3    3  502    0  0.13119428293E+04 -0.14215702720E+03  0.17436979295E+04  0.21867572263E+04  0.46999998093E+01 0.  1.
       -5    1    3    3    0  502 -0.13119428293E+04  0.14215702720E+03 -0.54392910413E+03  0.14273344275E+04  0.46999998093E+01 0. -1.
</event>
<event>
 5   0  0.7822003E-07  0.3418134E+04  0.7818609E-02  0.8133470E-01
        2   -1    0    0  501    0  0.00000000000E+00  0.00000000000E+00  0.21421864375E+04  0.21421864375E+04  0.25500000920E-02 0.  1.
       -2   -1    0    0    0  501  0.00000000000E+00  0.00000000000E+00 -0.13635181249E+04  0.13635181249E+04  0.25500000920E-02 0. -1.
    10030    2    1    2    0    0  0.00000000000E+00  0.00000000000E+00  0.77866831256E+03  0.35057045624E+04  0.34181340140E+04 0.  0.
        5    1    3    3  502    0  0.11900808115E+03  0.11420810239E+04 -0.90894605537E+03  0.14644852373E+04  0.46999998093E+01 0. -1.
       -5    1    3    3    0  502 -0.11900808115E+03 -0.11420810239E+04  0.16876143679E+04  0.20412193252E+04  0.46999998093E+01 0.  1.
</event>
<event>
 5   0  0.7822003E-07  0.3409046E+04  0.7818609E-02  0.8135690E-01
        2   -1    0    0  501    0  0.00000000000E+00  0.00000000000E+00  0.28482289600E+04  0.28482289600E+04  0.25500000920E-02 0. -1.
       -2   -1    0    0    0  501  0.00000000000E+00  0.00000000000E+00 -0.10200718353E+04  0.10200718353E+04  0.25500000920E-02 0.  1.
    10030    2    1    2    0    0  0.00000000000E+00  0.00000000000E+00  0.18281571248E+04  0.38683007953E+04  0.34090456978E+04 0.  0.
        5    1    3    3  502    0 -0.72079927310E+03  0.20663297653E+03  0.26510207102E+04  0.27550284345E+04  0.46999998093E+01 0. -1.
       -5    1    3    3    0  502  0.72079927310E+03 -0.20663297653E+03 -0.82286358542E+03  0.11132723608E+04  0.46999998093E+01 0.  1.
</event>
<event>
 5   0  0.7899402E-07  0.3398108E+04  0.7818609E-02  0.8138371E-01
        2   -1    0    0  501    0  0.00000000000E+00  0.00000000000E+00  0.22504893416E+04  0.22504893416E+04  0.25500000920E-02 0. -1.
       -2   -1    0    0    0  501  0.00000000000E+00  0.00000000000E+00 -0.12827361071E+04  0.12827361071E+04  0.25500000920E-02 0.  1.
    10030    2    1    2    0    0  0.00000000000E+00  0.00000000000E+00  0.96775323452E+03  0.35332254486E+04  0.33981076716E+04 0.  0.
        2    1    3    3  502    0 -0.78789398431E+02 -0.10320664539E+04 -0.91707189443E+03  0.13828918230E+04  0.25500000920E-02 0.  1.
       -2    1    3    3    0  502  0.78789398431E+02  0.10320664539E+04  0.18848251290E+04  0.21503336256E+04  0.25500000920E-02 0. -1.
</event>
<event>
 5   0  0.7610412E-07  0.3408725E+04  0.7818609E-02  0.8135768E-01
       -2   -1    0    0    0  501  0.00000000000E+00  0.00000000000E+00  0.11642406724E+04  0.11642406724E+04  0.25500000920E-02 0.  1.
        2   -1    0    0  501    0  0.00000000000E+00  0.00000000000E+00 -0.24950609576E+04  0.24950609577E+04  0.25500000920E-02 0. -1.
    10030    2    1    2    0    0  0.00000000000E+00  0.00000000000E+00 -0.13308202852E+04  0.36593016301E+04  0.34087249505E+04 0.  0.
        4    1    3    3  502    0 -0.11210436480E+04  0.70707937850E+03  0.48487500665E+03  0.14113133930E+04  0.12699999809E+01 0.  1.
       -4    1    3    3    0  502  0.11210436480E+04 -0.70707937850E+03 -0.18156952919E+04  0.22479882371E+04  0.12699999809E+01 0. -1.
</event>
<event>
 5   0  0.8489228E-07  0.3299156E+04  0.7818609E-02  0.8163110E-01
        2   -1    0    0  501    0  0.00000000000E+00  0.00000000000E+00  0.27049490195E+04  0.27049490195E+04  0.25500000920E-02 0. -1.
       -2   -1    0    0    0  501  0.00000000000E+00  0.00000000000E+00 -0.10059734759E+04  0.10059734759E+04  0.25500000920E-02 0.  1.
    10030    2    1    2    0    0  0.00000000000E+00  0.00000000000E+00  0.16989755437E+04  0.37109224954E+04  0.32991556297E+04 0.  0.
        3    1    3    3  502    0  0.15812706313E+04 -0.90755093432E+02  0.33103262485E+03  0.16180963832E+04  0.10100000352E+00 0.  1.
       -3    1    3    3    0  502 -0.15812706313E+04  0.90755093432E+02  0.13679429188E+04  0.20928261122E+04  0.10100000352E+00 0. -1.
</event>
<event>
 5   0  0.7822003E-07  0.3386488E+04  0.7818609E-02  0.8141231E-01
       -2   -1    0    0    0  501  0.00000000000E+00  0.00000000000E+00  0.14305519683E+04  0.14305519683E+04  0.25500000920E-02 0.  1.
        2   -1    0    0  501    0  0.00000000000E+00  0.00000000000E+00 -0.20041740638E+04  0.20041740638E+04  0.25500000920E-02 0. -1.
    10030    2    1    2    0    0  0.00000000000E+00  0.00000000000E+00 -0.57362209554E+03  0.34347260321E+04  0.33864879458E+04 0.  0.
        5    1    3    3  502    0 -0.74687427297E+03 -0.14964974335E+03 -0.18205807593E+04  0.19735127607E+04  0.46999998093E+01 0. -1.
       -5    1    3    3    0  502  0.74687427297E+03  0.14964974335E+03  0.12469586638E+04  0.14612132714E+04  0.46999998093E+01 0.  1.
</event>
<event>
 5   0  0.7610412E-07  0.3412827E+04  0.7818609E-02  0.8134765E-01
        2   -1    0    0  501    0  0.00000000000E+00  0.00000000000E+00  0.19386539439E+04  0.19386539439E+04  0.25500000920E-02 0.  1.
       -2   -1    0    0    0  501  0.00000000000E+00  0.00000000000E+00 -0.15019945933E+04  0.15019945933E+04  0.25500000920E-02 0. -1.
    10030    2    1    2    0    0  0.00000000000E+00  0.00000000000E+00  0.43665935060E+03  0.34406485372E+04  0.34128274155E+04 0.  0.
        4    1    3    3  502    0  0.14132182467E+04  0.92206795849E+03 -0.37611878448E+02  0.16878422317E+04  0.12699999809E+01 0.  1.
       -4    1    3    3    0  502 -0.14132182467E+04 -0.92206795849E+03  0.47427122905E+03  0.17528063055E+04  0.12699999809E+01 0. -1.
</event>
<event>
 5   0  0.2553250E-07  0.3376393E+04  0.7818609E-02  0.8143725E-01
       -3   -1    0    0    0  501  0.00000000000E+00  0.00000000000E+00  0.15600861234E+04  0.15600861267E+04  0.10100000352E+00 0.  1.
        3   -1    0    0  501    0  0.00000000000E+00  0.00000000000E+00 -0.18268273483E+04  0.18268273510E+04  0.10100000352E+00 0. -1.
    10030    2    1    2    0    0  0.00000000000E+00  0.00000000000E+00 -0.26674122480E+03  0.33869134778E+04  0.33763933457E+04 0.  0.
        3    1    3    3  502    0 -0.30300217661E+02  0.12298361916E+04 -0.12930838939E+04  0.17847916204E+04  0.10100000352E+00 0. -1.
       -3    1    3    3    0  502  0.30300217661E+02 -0.12298361916E+04  0.10263426691E+04  0.16021218574E+04  0.10100000352E+00 0.  1.
</event>
<event>
 5   0  0.7838333E-07  0.3409126E+04  0.7818609E-02  0.8135670E-01
        2   -1    0    0  501    0  0.00000000000E+00  0.00000000000E+00  0.21107434784E+04  0.21107434784E+04  0.25500000920E-02 0.  1.
       -2   -1    0    0    0  501  0.00000000000E+00  0.00000000000E+00 -0.13765457433E+04  0.13765457433E+04  0.25500000920E-02 0. -1.
    10030    2    1    2    0    0  0.00000000000E+00  0.00000000000E+00  0.73419773505E+03  0.34872892217E+04  0.34091259586E+04 0.  0.
        1    1    3    3  502    0 -0.17021588728E+04 -0.62680847702E+02  0.43387366556E+03  0.17577030678E+04  0.50400001928E-02 0. -1.
       -1    1    3    3    0  502  0.17021588728E+04  0.62680847702E+02  0.30032406949E+03  0.17295861539E+04  0.50400001928E-02 0.  1.
</event>
<event>
 5   0  0.2599367E-07  0.3406333E+04  0.7818609E-02  0.8136354E-01
        1   -1    0    0  501    0  0.00000000000E+00  0.00000000000E+00  0.21177249077E+04  0.21177249077E+04  0.50400001928E-02 0. -1.
       -1   -1    0    0    0  501  0.00000000000E+00  0.00000000000E+00 -0.13697605410E+04  0.13697605411E+04  0.50400001928E-02 0.  1.
    10030    2    1    2    0    0  0.00000000000E+00  0.00000000000E+00  0.74796436669E+03  0.34874854488E+04  0.34063329347E+04 0.  0.
        2    1    3    3  502    0  0.34059129814E+03 -0.80931088336E+03 -0.11201659243E+04  0.14232913392E+04  0.25500000920E-02 0.  1.
       -2    1    3    3    0  502 -0.34059129814E+03  0.80931088336E+03  0.18681302909E+04  0.20641941096E+04  0.25500000920E-02 0. -1.
</event>
<event>
 5   0  0.8489228E-07  0.3234277E+04  0.7818609E-02  0.8179823E-01
        2   -1    0    0  501    0  0.00000000000E+00  0.00000000000E+00  0.21272354518E+04  0.21272354518E+04  0.25500000920E-02 0.  1.
       -2   -1    0    0    0  501  0.00000000000E+00  0.00000000000E+00 -0.12293593999E+04  0.12293593999E+04  0.25500000920E-02 0. -1.
    10030    2    1    2    0    0  0.00000000000E+00  0.00000000000E+00  0.89787605198E+03  0.33565948517E+04  0.32342769816E+04 0.  0.
        3    1    3    3  502    0 -0.12390607286E+04 -0.31777022785E+03  0.14757433255E+04  0.19529638450E+04  0.10100000352E+00 0.  1.
       -3    1    3    3    0  502  0.12390607286E+04  0.31777022785E+03 -0.57786727353E+03  0.14036310067E+04  0.10100000352E+00 0. -1.
</event>
<event>
 5   0  0.2592200E-07  0.3414560E+04  0.7818609E-02  0.8134342E-01
       -1   -1    0    0    0  501  0.00000000000E+00  0.00000000000E+00  0.25374696473E+04  0.25374696473E+04  0.50400001928E-02 0.  1.
        1   -1    0    0  501    0  0.00000000000E+00  0.00000000000E+00 -0.11487055663E+04  0.11487055663E+04  0.50400001928E-02 0. -1.
    10030    2    1    2    0    0  0.00000000000E+00  0.00000000000E+00  0.13887640810E+04  0.36861752135E+04  0.34145602985E+04 0.  0.
        4    1    3    3  502    0  0.68062769872E+03 -0.15264692590E+04  0.31817698437E+03  0.17013526000E+04  0.12699999809E+01 0. -1.
       -4    1    3    3    0  502 -0.68062769872E+03  0.15264692590E+04  0.10705870966E+04  0.19848226136E+04  0.12699999809E+01 0.  1.
</event>
<event>
 5   0  0.2641442E-07  0.3402043E+04  0.7818609E-02  0.8137405E-01
        1   -1    0    0  501    0  0.00000000000E+00  0.00000000000E+00  0.22119134976E+04  0.22119134976E+04  0.50400001928E-02 0. -1.
       -1   -1    0    0    0  501  0.00000000000E+00  0.00000000000E+00 -0.13081318462E+04  0.13081318462E+04  0.50400001928E-02 0.  1.
    10030    2    1    2    0    0  0.00000000000E+00  0.00000000000E+00  0.90378165142E+03  0.35200453439E+04  0.34020432022E+04 0.  0.
        1    1    3    3  502    0 -0.12974443951E+04  0.67006121011E+03  0.13545795077E+04  0.19917905578E+04  0.50400001928E-02 0. -1.
       -1    1    3    3    0  502  0.12974443951E+04 -0.67006121011E+03 -0.45079785623E+03  0.15282547860E+04  0.50400001928E-02 0.  1.
</event>
<event>
 5   0  0.2553250E-07  0.3394841E+04  0.7818609E-02  0.8139174E-01
        1   -1    0    0  501    0  0.00000000000E+00  0.00000000000E+00  0.18848112379E+04  0.18848112379E+04  0.50400001928E-02 0.  1.
       -1   -1    0    0    0  501  0.00000000000E+00  0.00000000000E+00 -0.15286600259E+04  0.15286600260E+04  0.50400001928E-02 0. -1.
    10030    2    1    2    0    0  0.00000000000E+00  0.00000000000E+00  0.35615121192E+03  0.34134712638E+04  0.33948405534E+04 0.  0.
        5    1    3    3  502    0 -0.10438538671E+04 -0.13372618300E+04  0.23595371273E+03  0.17127744576E+04  0.46999998093E+01 0.  1.
       -5    1    3    3    0  502  0.10438538671E+04  0.13372618300E+04  0.12019749919E+03  0.17006968063E+04  0.46999998093E+01 0. -1.
</event>
<event>
 5   0  0.7610412E-07  0.3384508E+04  0.7818609E-02  0.8141719E-01
        2   -1    0    0  501    0  0.00000000000E+00  0.00000000000E+00  0.27148845400E+04  0.27148845400E+04  0.25500000920E-02 0. -1.
       -2   -1    0    0    0  501  0.00000000000E+00  0.00000000000E+00 -0.10548230405E+04  0.10548230405E+04  0.25500000920E-02 0.  1.
    10030    2    1    2    0    0  0.00000000000E+00  0.00000000000E+00  0.16600614996E+04  0.37697075805E+04  0.33845075063E+04 0.  0.
        4    1    3    3  502    0  0.16836029218E+04  0.75523729887E+02  0.10007696331E+04  0.19600418627E+04  0.12699999809E+01 0.  1.
       -4    1    3    3    0  502 -0.16836029218E+04 -0.75523729887E+02  0.65929186646E+03  0.18096657178E+04  0.12699999809E+01 0. -1.
</event>
<event>
 5   0  0.2599367E-07  0.3260506E+04  0.7818609E-02  0.8173018E-01
        1   -1    0    0  501    0  0.00000000000E+00  0.00000000000E+00  0.10373011921E+04  0.10373011921E+04  0.50400001928E-02 0.  1.
       -1   -1    0    0    0  501  0.00000000000E+00  0.00000000000E+00 -0.25621541774E+04  0.25621541774E+04  0.50400001928E-02 0. -1.
    10030    2    1    2    0    0  0.00000000000E+00  0.00000000000E+00 -0.15248529854E+04  0.35994553695E+04  0.32605064530E+04 0.  0.
        2    1    3    3  502    0  0.15197744512E+04  0.10466413266E+03 -0.14033455117E+04  0.20712430056E+04  0.25500000920E-02 0. -1.
       -2    1    3    3    0  502 -0.15197744512E+04 -0.10466413266E+03 -0.12150747365E+03  0.15282123639E+04  0.25500000920E-02 0.  1.
</event>
<event>
 5   0  0.7899402E-07  0.3420452E+04  0.7818609E-02  0.8132905E-01
       -2   -1    0    0    0  501  0.00000000000E+00  0.00000000000E+00  0.11440348632E+04  0.11440348632E+04  0.25500000920E-02 0. -1.
        2   -1    0    0  501    0  0.00000000000E+00  0.00000000000E+00 -0.25566298805E+04  0.25566298805E+04  0.25500000920E-02 0.  1.
    10030    2    1    2    0    0  0.00000000000E+00  0.00000000000E+00 -0.14125950173E+04  0.37006647437E+04  0.34204524354E+04 0.  0.
        2    1    3    3  502    0  0.46903603873E+03  0.58139769206E+03  0.95819586880E+03  0.12149721828E+04  0.25500000920E-02 0. -1.
       -2    1    3    3    0  502 -0.46903603873E+03 -0.58139769206E+03 -0.23707908861E+04  0.24856925609E+04  0.25500000920E-02 0.  1.
</event>
<event>
 5   0  0.7838333E-07  0.3366000E+04  0.7818609E-02  0.8146302E-01
        2   -1    0    0  501    0  0.00000000000E+00  0.00000000000E+00  0.28484655673E+04  0.28484655673E+04  0.25500000920E-02 0. -1.
       -2   -1    0    0    0  501  0.00000000000E+00  0.00000000000E+00 -0.99439111933E+03  0.99439111934E+03  0.25500000920E-02 0.  1.
    10030    2    1    2    0    0  0.00000000000E+00  0.00000000000E+00  0.18540744480E+04  0.38428566866E+04  0.33659999191E+04 0.  0.
        1    1    3    3  502    0  0.62274244874E+03 -0.15436473111E+04  0.64314555156E+03  0.17844582872E+04  0.50400001928E-02 0. -1.
       -1    1    3    3    0  502 -0.62274244874E+03  0.15436473111E+04  0.12109288964E+04  0.20583983994E+04  0.50400001928E-02 0.  1.
</event>
<event>
 5   0  0.7822003E-07  0.3379382E+04  0.7818609E-02  0.8142985E-01
        2   -1    0    0  501    0  0.00000000000E+00  0.00000000000E+00  0.20188784767E+04  0.20188784767E+04  0.25500000920E-02 0. -1.
       -2   -1    0    0    0  501  0.00000000000E+00  0.00000000000E+00 -0.14141788553E+04  0.14141788553E+04  0.25500000920E-02 0.  1.
    10030    2    1    2    0    0  0.00000000000E+00  0.00000000000E+00  0.60469962144E+03  0.34330573320E+04  0.33793817501E+04 0.  0.
        5    1    3    3  502    0 -0.12519359182E+04  0.52877349691E+03 -0.71763350838E+03  0.15368685359E+04  0.46999998093E+01 0.  1.
       -5    1    3    3    0  502  0.12519359182E+04 -0.52877349691E+03  0.13223331298E+04  0.18961887961E+04  0.46999998093E+01 0. -1.
</event>
<event>
 5   0  0.2599367E-07  0.3434527E+04  0.7818609E-02  0.8129484E-01
        1   -1    0    0  501    0  0.00000000000E+00  0.00000000000E+00  0.17567857275E+04  0.17567857275E+04  0.50400001928E-02 0.  1.
       -1   -1    0    0    0  501  0.00000000000E+00  0.00000000000E+00 -0.16786304484E+04  0.16786304484E+04  0.50400001928E-02 0. -1.
    10030    2    1    2    0    0  0.00000000000E+00  0.00000000000E+00  0.78155279086E+02  0.34354161759E+04  0.34345270495E+04 0.  0.
        2    1    3    3  502    0 -0.94095338141E+03  0.57595348799E+03  0.13554268092E+04  0.17476548634E+04  0.25500000920E-02 0.  1.
       -2    1    3    3    0  502  0.94095338141E+03 -0.57595348799E+03 -0.12772715301E+04  0.16877613125E+04  0.25500000920E-02 0. -1.
</event>
<event>
 5   0  0.2592200E-07  0.3394350E+04  0.7818609E-02  0.8139294E-01
       -1   -1    0    0    0  501  0.00000000000E+00  0.00000000000E+00  0.17386695023E+04  0.17386695023E+04  0.50400001928E-02 0.  1.
        1   -1    0    0  501    0  0.00000000000E+00  0.00000000000E+00 -0.16566708379E+04  0.16566708379E+04  0.50400001928E-02 0. -1.
    10030    2    1    2    0    0  0.00000000000E+00  0.00000000000E+00  0.81998664386E+02  0.33953403402E+04  0.33943500475E+04 0.  0.
        4    1    3    3  502    0  0.16547039651E+04  0.36885678040E+03 -0.38402108721E+02  0.16957525974E+04  0.12699999809E+01 0.  1.
       -4    1    3    3    0  502 -0.16547039651E+04 -0.36885678040E+03  0.12040077311E+03  0.16995877429E+04  0.12699999809E+01 0. -1.
</event>
<event>
 5   0  0.7610412E-07  0.3380179E+04  0.7818609E-02  0.8142788E-01
       -2   -1    0    0    0  501  0.00000000000E+00  0.00000000000E+00  0.10398507164E+04  0.10398507164E+04  0.25500000920E-02 0.  1.
        2   -1    0    0  501    0  0.00000000000E+00  0.00000000000E+00 -0.27469345193E+04  0.27469345193E+04  0.25500000920E-02 0. -1.
    10030    2    1    2    0    0  0.00000000000E+00  0.00000000000E+00 -0.17070838028E+04  0.37867852357E+04  0.33801785917E+04 0.  0.
        4    1    3    3  502    0 -0.42584541761E+03 -0.96946581002E+03  0.62218090475E+03  0.12281363799E+04  0.12699999809E+01 0.  1.
       -4    1    3    3    0  502  0.42584541761E+03  0.96946581002E+03 -0.23292647076E+04  0.25586488558E+04  0.12699999809E+01 0. -1.
</event>
<event>
 5   0  0.8489228E-07  0.3512876E+04  0.7818609E-02  0.8110745E-01
       -2   -1    0    0    0  501  0.00000000000E+00  0.00000000000E+00  0.12744620104E+04  0.12744620104E+04  0.25500000920E-02 0.  1.
        2   -1    0    0  501    0  0.00000000000E+00  0.00000000000E+00 -0.24206875353E+04  0.24206875353E+04  0.25500000920E-02 0. -1.
    10030    2    1    2    0    0  0.00000000000E+00  0.00000000000E+00 -0.11462255248E+04  0.36951495457E+04  0.35128759175E+04 0.  0.
        3    1    3    3  502    0  0.82651836092E+03 -0.33537314333E+03 -0.21647216681E+04  0.23412876066E+04  0.10100000352E+00 0. -1.
       -3    1    3    3    0  502 -0.82651836092E+03  0.33537314333E+03  0.10184961433E+04  0.13538619391E+04  0.10100000352E+00 0.  1.
</event>
<event>
 5   0  0.2641442E-07  0.3225398E+04  0.7818609E-02  0.8182142E-01
        1   -1    0    0  501    0  0.00000000000E+00  0.00000000000E+00  0.15731634674E+04  0.15731634674E+04  0.50400001928E-02 0.  1.
       -1   -1    0    0    0  501  0.00000000000E+00  0.00000000000E+00 -0.16532281027E+04  0.16532281027E+04  0.50400001928E-02 0. -1.
    10030    2    1    2    0    0  0.00000000000E+00  0.00000000000E+00 -0.80064635300E+02  0.32263915702E+04  0.32253979938E+04 0.  0.
        1    1    3    3  502    0 -0.97845788061E+03  0.31153519555E+03 -0.12839442546E+04  0.16440641262E+04  0.50400001928E-02 0. -1.
       -1    1    3    3    0  502  0.97845788061E+03 -0.31153519555E+03  0.12038796193E+04  0.15823274440E+04  0.50400001928E-02 0.  1.
</event>
<event>
 5   0  0.2622205E-07  0.3407114E+04  0.7818609E-02  0.8136163E-01
        1   -1    0    0  501    0  0.00000000000E+00  0.00000000000E+00  0.21946793304E+04  0.21946793304E+04  0.50400001928E-02 0.  1.
       -1   -1    0    0    0  501  0.00000000000E+00  0.00000000000E+00 -0.13223370078E+04  0.13223370078E+04  0.50400001928E-02 0. -1.
    10030    2    1    2    0    0  0.00000000000E+00  0.00000000000E+00  0.87234232266E+03  0.35170163382E+04  0.34071135578E+04 0.  0.
        3    1    3    3  502    0  0.11934970930E+04 -0.12154365628E+04  0.41593420044E+03  0.17534886993E+04  0.10100000352E+00 0. -1.
       -3    1    3    3    0  502 -0.11934970930E+04  0.12154365628E+04  0.45640812222E+03  0.17635276390E+04  0.10100000352E+00 0.  1.
</event>
<event>
 5   0  0.2599367E-07  0.3393073E+04  0.7818609E-02  0.8139608E-01
        1   -1    0    0  501    0  0.00000000000E+00  0.00000000000E+00  0.25211710988E+04  0.25211710988E+04  0.50400001928E-02 0.  1.
       -1   -1    0    0    0  501  0.00000000000E+00  0.00000000000E+00 -0.11416269083E+04  0.11416269083E+04  0.50400001928E-02 0. -1.
    10030    2    1    2    0    0  0.00000000000E+00  0.00000000000E+00  0.13795441905E+04  0.36627980071E+04  0.33930733955E+04 0.  0.
        2    1    3    3  502    0 -0.74843109410E+03 -0.11097495468E+04  0.18150072598E+04  0.22552038738E+04  0.25500000920E-02 0.  1.
       -2    1    3    3    0  502  0.74843109410E+03  0.11097495468E+04 -0.43546306931E+03  0.14075941333E+04  0.25500000920E-02 0. -1.
</event>
<event>
 5   0  0.2599367E-07  0.3351452E+04  0.7818609E-02  0.8149926E-01
       -1   -1    0    0    0  501  0.00000000000E+00  0.00000000000E+00  0.22063811962E+04  0.22063811962E+04  0.50400001928E-02 0. -1.
        1   -1    0    0  501    0  0.00000000000E+00  0.00000000000E+00 -0.12726980039E+04  0.12726980039E+04  0.50400001928E-02 0.  1.
    10030    2    1    2    0    0  0.00000000000E+00  0.00000000000E+00  0.93368319232E+03  0.34790792002E+04  0.33514515926E+04 0.  0.
        2    1    3    3  502    0 -0.14469991630E+04  0.63914080855E+03 -0.10716140952E+03  0.15854939668E+04  0.25500000920E-02 0.  1.
       -2    1    3    3    0  502  0.14469991630E+04 -0.63914080855E+03  0.10408446018E+04  0.18935852334E+04  0.25500000920E-02 0. -1.
</event>
<event>
 5   0  0.7822003E-07  0.3375877E+04  0.7818609E-02  0.8143852E-01
       -2   -1    0    0    0  501  0.00000000000E+00  0.00000000000E+00  0.14467255078E+04  0.14467255078E+04  0.25500000920E-02 0. -1.
        2   -1    0    0  501    0  0.00000000000E+00  0.00000000000E+00 -0.19693685959E+04  0.19693685959E+04  0.25500000920E-02 0.  1.
    10030    2    1    2    0    0  0.00000000000E+00  0.00000000000E+00 -0.52264308812E+03  0.34160941036E+04  0.33758766458E+04 0.  0.
        5    1    3    3  502    0  0.87108139439E+03  0.12278147193E+04 -0.10338308864E+04  0.18262366145E+04  0.46999998093E+01 0.  1.
       -5    1    3    3    0  502 -0.87108139439E+03 -0.12278147193E+04  0.51118779824E+03  0.15898574891E+04  0.46999998093E+01 0. -1.
</event>
<event>
 5   0  0.2553250E-07  0.3405479E+04  0.7818609E-02  0.8136563E-01
       -1   -1    0    0    0  501  0.00000000000E+00  0.00000000000E+00  0.16246531434E+04  0.16246531435E+04  0.50400001928E-02 0.  1.
        1   -1    0    0  501    0  0.00000000000E+00  0.00000000000E+00 -0.17845794473E+04  0.17845794473E+04  0.50400001928E-02 0. -1.
    10030    2    1    2    0    0  0.00000000000E+00  0.00000000000E+00 -0.15992630385E+03  0.34092325908E+04  0.34054794721E+04 0.  0.
        5    1    3    3  502    0  0.67736790457E+03 -0.10822952772E+04 -0.12077526016E+04  0.17575206348E+04  0.46999998093E+01 0. -1.
       -5    1    3    3    0  502 -0.67736790457E+03  0.10822952772E+04  0.10478262977E+04  0.16517119559E+04  0.46999998093E+01 0.  1.
</event>
<event>
 5   0  0.2622205E-07  0.3406479E+04  0.7818609E-02  0.8136318E-01
        1   -1    0    0  501    0  0.00000000000E+00  0.00000000000E+00  0.16661471585E+04  0.16661471585E+04  0.50400001928E-02 0.  1.
       -1   -1    0    0    0  501  0.00000000000E+00  0.00000000000E+00 -0.17411579875E+04  0.17411579875E+04  0.50400001928E-02 0. -1.
    10030    2    1    2    0    0  0.00000000000E+00  0.00000000000E+00 -0.75010829030E+02  0.34073051460E+04  0.34064793752E+04 0.  0.
        3    1    3    3  502    0 -0.20531196640E+03  0.46426998495E+03  0.15887195093E+04  0.16678517056E+04  0.10100000352E+00 0.  1.
       -3    1    3    3    0  502  0.20531196640E+03 -0.46426998495E+03 -0.16637303383E+04  0.17394534404E+04  0.10100000352E+00 0. -1.
</event>
<event>
 5   0  0.2553250E-07  0.3397339E+04  0.7818609E-02  0.8138560E-01
       -1   -1    0    0    0  501  0.00000000000E+00  0.00000000000E+00  0.14752800986E+04  0.14752800986E+04  0.50400001928E-02 0. -1.
        1   -1    0    0  501    0  0.00000000000E+00  0.00000000000E+00 -0.19558848279E+04  0.19558848279E+04  0.50400001928E-02 0.  1.
    10030    2    1    2    0    0  0.00000000000E+00  0.00000000000E+00 -0.48060472929E+03  0.34311649266E+04  0.33973389362E+04 0.  0.
        5    1    3    3  502    0 -0.91723555637E+03 -0.95171221340E+03  0.83726912425E+03  0.15646465669E+04  0.46999998093E+01 0. -1.
       -5    1    3    3    0  502  0.91723555637E+03  0.95171221340E+03 -0.13178738535E+04  0.18665183596E+04  0.46999998093E+01 0.  1.
</event>
<event>
 5   0  0.2641442E-07  0.3366811E+04  0.7818609E-02  0.8146100E-01
        1   -1    0    0  501    0  0.00000000000E+00  0.00000000000E+00  0.14863467514E+04  0.14863467514E+04  0.50400001928E-02 0.  1.
       -1   -1    0    0    0  501  0.00000000000E+00  0.00000000000E+00 -0.19065900523E+04  0.19065900523E+04  0.50400001928E-02 0. -1.
    10030    2    1    2    0    0  0.00000000000E+00  0.00000000000E+00 -0.42024330090E+03  0.33929368037E+04  0.33668109127E+04 0.  0.
        1    1    3    3  502    0 -0.88323435262E+03 -0.60874401983E+03  0.10973206996E+04  0.15345308473E+04  0.50400001928E-02 0.  1.
       -1    1    3    3    0  502  0.88323435262E+03  0.60874401983E+03 -0.15175640005E+04  0.18584059565E+04  0.50400001928E-02 0. -1.
</event>
<event>
 5   0  0.7899402E-07  0.3380539E+04  0.7818609E-02  0.8142699E-01
       -2   -1    0    0    0  501  0.00000000000E+00  0.00000000000E+00  0.15399945085E+04  0.15399945085E+04  0.25500000920E-02 0. -1.
        2   -1    0    0  501    0  0.00000000000E+00  0.00000000000E+00 -0.18552089231E+04  0.18552089231E+04  0.25500000920E-02 0.  1.
    10030    2    1    2    0    0  0.00000000000E+00  0.00000000000E+00 -0.31521441464E+03  0.33952034316E+04  0.33805393378E+04 0.  0.
        2    1    3    3  502    0 -0.11551753109E+04  0.88855539928E+03 -0.10175050515E+04  0.17774355759E+04  0.25500000920E-02 0.  1.
       -2    1    3    3    0  502  0.11551753109E+04 -0.88855539928E+03  0.70229063687E+03  0.16177678557E+04  0.25500000920E-02 0. -1.
</event>
<event>
 5   0  0.7838333E-07  0.3403373E+04  0.7818609E-02  0.8137079E-01
       -2   -1    0    0    0  501  0.00000000000E+00  0.00000000000E+00  0.11228477566E+04  0.11228477566E+04  0.25500000920E-02 0.  1.
        2   -1    0    0  501    0  0.00000000000E+00  0.00000000000E+00 -0.25789216004E+04  0.25789216004E+04  0.25500000920E-02 0. -1.
    10030    2    1    2    0    0  0.00000000000E+00  0.00000000000E+00 -0.14560738438E+04  0.37017693570E+04  0.34033726411E+04 0.  0.
        1    1    3    3  502    0 -0.12101010397E+03  0.25208685703E+03 -0.25537616227E+04  0.25690250396E+04  0.50400001928E-02 0. -1.
       -1    1    3    3    0  502  0.12101010397E+03 -0.25208685703E+03  0.10976877788E+04  0.11327443174E+04  0.50400001928E-02 0.  1.
</event>
<event>
 5   0  0.2553250E-07  0.3310721E+04  0.7818609E-02  0.8160173E-01
       -1   -1    0    0    0  501  0.00000000000E+00  0.00000000000E+00  0.11274807788E+04  0.11274807788E+04  0.50400001928E-02 0. -1.
        1   -1    0    0  501    0  0.00000000000E+00  0.00000000000E+00 -0.24303899647E+04  0.24303899647E+04  0.50400001928E-02 0.  1.
    10030    2    1    2    0    0  0.00000000000E+00  0.00000000000E+00 -0.13029091859E+04  0.35578707435E+04  0.33107207494E+04 0.  0.
        5    1    3    3  502    0  0.13347048259E+04  0.11444739207E+03  0.39359111642E+03  0.13962346632E+04  0.46999998093E+01 0. -1.
       -5    1    3    3    0  502 -0.13347048259E+04 -0.11444739207E+03 -0.16965003023E+04  0.21616360803E+04  0.46999998093E+01 0.  1.
</event>
<event>
 5   0  0.2599367E-07  0.3416735E+04  0.7818609E-02  0.8133811E-01
        1   -1    0    0  501    0  0.00000000000E+00  0.00000000000E+00  0.11388062729E+04  0.11388062729E+04  0.50400001928E-02 0.  1.
       -1   -1    0    0    0  501  0.00000000000E+00  0.00000000000E+00 -0.25627886942E+04  0.25627886942E+04  0.50400001928E-02 0. -1.
    10030    2    1    2    0    0  0.00000000000E+00  0.00000000000E+00 -0.14239824213E+04  0.37015949671E+04  0.34167351908E+04 0.  0.
        2    1    3    3  502    0  0.10010448908E+04 -0.72081346106E+03  0.56843199780E+03  0.13582259956E+04  0.25500000920E-02 0.  1.
       -2    1    3    3    0  502 -0.10010448908E+04  0.72081346106E+03 -0.19924144191E+04  0.23433689714E+04  0.25500000920E-02 0. -1.
</event>
<event>
 5   0  0.2622205E-07  0.3403728E+04  0.7818609E-02  0.8136992E-01
       -1   -1    0    0    0  501  0.00000000000E+00  0.00000000000E+00  0.20097256302E+04  0.20097256302E+04  0.50400001928E-02 0.  1.
        1   -1    0    0  501    0  0.00000000000E+00  0.00000000000E+00 -0.14411624733E+04  0.14411624733E+04  0.50400001928E-02 0. -1.
    10030    2    1    2    0    0  0.00000000000E+00  0.00000000000E+00  0.56856315689E+03  0.34508881035E+04  0.34037280501E+04 0.  0.
        3    1    3    3  502    0  0.80472699694E+03 -0.68821946814E+03 -0.10665108163E+04  0.15028895193E+04  0.10100000352E+00 0. -1.
       -3    1    3    3    0  502 -0.80472699694E+03  0.68821946814E+03  0.16350739731E+04  0.19479985841E+04  0.10100000352E+00 0.  1.
</event>
<event>
 5   0  0.7899402E-07  0.3432534E+04  0.7818609E-02  0.8129967E-01
       -2   -1    0    0    0  501  0.00000000000E+00  0.00000000000E+00  0.14790978192E+04  0.14790978192E+04  0.25500000920E-02 0.  1.
        2   -1    0    0  501    0  0.00000000000E+00  0.00000000000E+00 -0.19914660622E+04  0.19914660622E+04  0.25500000920E-02 0. -1.
    10030    2    1    2    0    0  0.00000000000E+00  0.00000000000E+00 -0.51236824304E+03  0.34705638814E+04  0.34325344045E+04 0.  0.
        2    1    3    3  502    0  0.12188043502E+02  0.90847550712E+03  0.12160029195E+04  0.15179391937E+04  0.25500000920E-02 0.  1.
       -2    1    3    3    0  502 -0.12188043502E+02 -0.90847550712E+03 -0.17283711626E+04  0.19526246877E+04  0.25500000920E-02 0. -1.
</event>
<event>
 5   0  0.7838333E-07  0.3423983E+04  0.7818609E-02  0.8132045E-01
       -2   -1    0    0    0  501  0.00000000000E+00  0.00000000000E+00  0.11981075023E+04  0.11981075023E+04  0.25500000920E-02 0. -1.
        2   -1    0    0  501    0  0.00000000000E+00  0.00000000000E+00 -0.24462872638E+04  0.24462872638E+04  0.25500000920E-02 0.  1.
    10030    2    1    2    0    0  0.00000000000E+00  0.00000000000E+00 -0.12481797615E+04  0.36443947660E+04  0.34239831328E+04 0.  0.
        1    1    3    3  502    0  0.13860799415E+04  0.32665451894E+03 -0.16355210026E+04  0.21686054802E+04  0.50400001928E-02 0.  1.
       -1    1    3    3    0  502 -0.13860799415E+04 -0.32665451894E+03  0.38734124109E+03  0.14757892858E+04  0.50400001928E-02 0. -1.
</event>
<event>
 5   0  0.2641442E-07  0.3403400E+04  0.7818609E-02  0.8137072E-01
        1   -1    0    0  501    0  0.00000000000E+00  0.00000000000E+00  0.21699301463E+04  0.21699301463E+04  0.50400001928E-02 0.  1.
       -1   -1    0    0    0  501  0.00000000000E+00  0.00000000000E+00 -0.13345052412E+04  0.13345052412E+04  0.50400001928E-02 0. -1.
    10030    2    1    2    0    0  0.00000000000E+00  0.00000000000E+00  0.83542490513E+03  0.35044353875E+04  0.34034001547E+04 0.  0.
        1    1    3    3  502    0 -0.22654311582E+03  0.14213898408E+04 -0.51704349783E+03  0.15293805417E+04  0.50400001928E-02 0. -1.
       -1    1    3    3    0  502  0.22654311582E+03 -0.14213898408E+04  0.13524684030E+04  0.19750548458E+04  0.50400001928E-02 0.  1.
</event>
<event>
 5   0  0.7899402E-07  0.3404699E+04  0.7818609E-02  0.8136754E-01
        2   -1    0    0  501    0  0.00000000000E+00  0.00000000000E+00  0.10562587573E+04  0.10562587573E+04  0.25500000920E-02 0.  1.
       -2   -1    0    0    0  501  0.00000000000E+00  0.00000000000E+00 -0.27436402623E+04  0.27436402623E+04  0.25500000920E-02 0. -1.
    10030    2    1    2    0    0  0.00000000000E+00  0.00000000000E+00 -0.16873815050E+04  0.37998990196E+04  0.34046991374E+04 0.  0.
        2    1    3    3  502    0  0.12177761543E+04 -0.14916926248E+03  0.47344959543E+03  0.13150607401E+04  0.25500000920E-02 0.  1.
       -2    1    3    3    0  502 -0.12177761543E+04  0.14916926248E+03 -0.21608311004E+04  0.24848382795E+04  0.25500000920E-02 0. -1.
</event>
<event>
 5   0  0.2592200E-07  0.3388317E+04  0.7818609E-02  0.8140780E-01
        1   -1    0    0  501    0  0.00000000000E+00  0.00000000000E+00  0.18549222239E+04  0.18549222239E+04  0.50400001928E-02 0. -1.
       -1   -1    0    0    0  501  0.00000000000E+00  0.00000000000E+00 -0.15473282840E+04  0.15473282840E+04  0.50400001928E-02 0.  1.
    10030    2    1    2    0    0  0.00000000000E+00  0.00000000000E+00  0.30759393990E+03  0.34022505079E+04  0.33883173533E+04 0.  0.
        4    1    3    3  502    0  0.15305230061E+04  0.30281573334E+03  0.81679537973E+03  0.17610662526E+04  0.12699999809E+01 0. -1.
       -4    1    3    3    0  502 -0.15305230061E+04 -0.30281573334E+03 -0.50920143983E+03  0.16411842553E+04  0.12699999809E+01 0.  1.
</event>
<event>
 5   0  0.2622205E-07  0.3397610E+04  0.7818609E-02  0.8138493E-01
        1   -1    0    0  501    0  0.00000000000E+00  0.00000000000E+00  0.21056633577E+04  0.21056633577E+04  0.50400001928E-02 0.  1.
       -1   -1    0    0    0  501  0.00000000000E+00  0.00000000000E+00 -0.13705598914E+04  0.13705598914E+04  0.50400001928E-02 0. -1.
    10030    2    1    2    0    0  0.00000000000E+00  0.00000000000E+00  0.73510346630E+03  0.34762232492E+04  0.33976095967E+04 0.  0.
        3    1    3    3  502    0  0.68758524343E+03 -0.15414799880E+04  0.17073735027E+03  0.16964920493E+04  0.10100000352E+00 0. -1.
       -3    1    3    3    0  502 -0.68758524343E+03  0.15414799880E+04  0.56436611603E+03  0.17797311998E+04  0.10100000352E+00 0.  1.
</event>
<event>
 5   0  0.7822003E-07  0.3401609E+04  0.7818609E-02  0.8137512E-01
        2   -1    0    0  501    0  0.00000000000E+00  0.00000000000E+00  0.18746426386E+04  0.18746426386E+04  0.25500000920E-02 0. -1.
       -2   -1    0    0    0  501  0.00000000000E+00  0.00000000000E+00 -0.15430861584E+04  0.15430861584E+04  0.25500000920E-02 0.  1.
    10030    2    1    2    0    0  0.00000000000E+00  0.00000000000E+00  0.33155648027E+03  0.34177287970E+04  0.34016085063E+04 0.  0.
        5    1    3    3  502    0  0.12915386738E+03 -0.13076219608E+03  0.18646292746E+04  0.18736712345E+04  0.46999998093E+01 0. -1.
       -5    1    3    3    0  502 -0.12915386738E+03  0.13076219608E+03 -0.15330727944E+04  0.15440575625E+04  0.46999998093E+01 0.  1.
</event>
<event>
 5   0  0.7899402E-07  0.3495393E+04  0.7818609E-02  0.8114883E-01
       -2   -1    0    0    0  501  0.00000000000E+00  0.00000000000E+00  0.15034493325E+04  0.15034493325E+04  0.25500000920E-02 0.  1.
        2   -1    0    0  501    0  0.00000000000E+00  0.00000000000E+00 -0.20316238300E+04  0.20316238300E+04  0.25500000920E-02 0. -1.
    10030    2    1    2    0    0  0.00000000000E+00  0.00000000000E+00 -0.52817449752E+03  0.35350731625E+04  0.34953932489E+04 0.  0.
        2    1    3    3  502    0  0.26693001209E+03 -0.85194092495E+03 -0.17836040956E+04  0.19945672565E+04  0.25500000920E-02 0. -1.
       -2    1    3    3    0  502 -0.26693001209E+03  0.85194092495E+03  0.12554295980E+04  0.15405059061E+04  0.25500000920E-02 0.  1.
</event>
<event>
 5   0  0.2553250E-07  0.3375239E+04  0.7818609E-02  0.8144010E-01
       -3   -1    0    0    0  501  0.00000000000E+00  0.00000000000E+00  0.12962570880E+04  0.12962570920E+04  0.10100000352E+00 0. -1.
        3   -1    0    0  501    0  0.00000000000E+00  0.00000000000E+00 -0.21971405888E+04  0.21971405911E+04  0.10100000352E+00 0.  1.
    10030    2    1    2    0    0  0.00000000000E+00  0.00000000000E+00 -0.90088350077E+03  0.34933976831E+04  0.33752387012E+04 0.  0.
        4    1    3    3  502    0 -0.14898392554E+04  0.67728400734E+03 -0.24045218812E+02  0.16367389587E+04  0.12699999809E+01 0. -1.
       -4    1    3    3    0  502  0.14898392554E+04 -0.67728400734E+03 -0.87683828196E+03  0.18566587244E+04  0.12699999809E+01 0.  1.
</event>
<event>
 5   0  0.2553250E-07  0.3407751E+04  0.7818609E-02  0.8136006E-01
        1   -1    0    0  501    0  0.00000000000E+00  0.00000000000E+00  0.13162343931E+04  0.13162343931E+04  0.50400001928E-02 0.  1.
       -1   -1    0    0    0  501  0.00000000000E+00  0.00000000000E+00 -0.22056804129E+04  0.22056804129E+04  0.50400001928E-02 0. -1.
    10030    2    1    2    0    0  0.00000000000E+00  0.00000000000E+00 -0.88944601978E+03  0.35219148061E+04  0.34077514110E+04 0.  0.
        5    1    3    3  502    0 -0.12942478135E+04 -0.45581810276E+03  0.59922707123E+03  0.14973118308E+04  0.46999998093E+01 0.  1.
       -5    1    3    3    0  502  0.12942478135E+04  0.45581810276E+03 -0.14886730910E+04  0.20246029753E+04  0.46999998093E+01 0. -1.
</event>
<event>
 5   0  0.2599367E-07  0.3379906E+04  0.7818609E-02  0.8142856E-01
       -1   -1    0    0    0  501  0.00000000000E+00  0.00000000000E+00  0.12128337988E+04  0.12128337988E+04  0.50400001928E-02 0.  1.
        1   -1    0    0  501    0  0.00000000000E+00  0.00000000000E+00 -0.23547669304E+04  0.23547669304E+04  0.50400001928E-02 0. -1.
    10030    2    1    2    0    0  0.00000000000E+00  0.00000000000E+00 -0.11419331316E+04  0.35676007292E+04  0.33799058694E+04 0.  0.
        2    1    3    3  502    0  0.81883277219E+02  0.90989495546E+03  0.92971984875E+03  0.13034541412E+04  0.25500000920E-02 0.  1.
       -2    1    3    3    0  502 -0.81883277219E+02 -0.90989495546E+03 -0.20716529803E+04  0.22641465880E+04  0.25500000920E-02 0. -1.
</event>
<event>
 5   0  0.2641442E-07  0.3376717E+04  0.7818609E-02  0.8143645E-01
       -1   -1    0    0    0  501  0.00000000000E+00  0.00000000000E+00  0.20884654049E+04  0.20884654049E+04  0.50400001928E-02 0. -1.
        1   -1    0    0  501    0  0.00000000000E+00  0.00000000000E+00 -0.13649034416E+04  0.13649034416E+04  0.50400001928E-02 0.  1.
    10030    2    1    2    0    0  0.00000000000E+00  0.00000000000E+00  0.72356196325E+03  0.34533688465E+04  0.33767165228E+04 0.  0.
        1    1    3    3  502    0 -0.60332557766E+03  0.14838609850E+04  0.90747417572E+03  0.18410199769E+04  0.50400001928E-02 0. -1.
       -1    1    3    3    0  502  0.60332557766E+03 -0.14838609850E+04 -0.18391221247E+03  0.16123488697E+04  0.50400001928E-02 0.  1.
</event>
<event>
 5   0  0.7899402E-07  0.3397247E+04  0.7818609E-02  0.8138582E-01
        2   -1    0    0  501    0  0.00000000000E+00  0.00000000000E+00  0.27394417785E+04  0.27394417785E+04  0.25500000920E-02 0.  1.
       -2   -1    0    0    0  501  0.00000000000E+00  0.00000000000E+00 -0.10532518033E+04  0.10532518033E+04  0.25500000920E-02 0. -1.
    10030    2    1    2    0    0  0.00000000000E+00  0.00000000000E+00  0.16861899752E+04  0.37926935818E+04  0.33972471169E+04 0.  0.
        2    1    3    3  502    0 -0.22357149370E+03 -0.16390552355E+04  0.41239565576E+03  0.17048625911E+04  0.25500000920E-02 0. -1.
       -2    1    3    3    0  502  0.22357149370E+03  0.16390552355E+04  0.12737943194E+04  0.20878309907E+04  0.25500000920E-02 0.  1.
</event>
<event>
 5   0  0.2641442E-07  0.3405168E+04  0.7818609E-02  0.8136639E-01
        1   -1    0    0  501    0  0.00000000000E+00  0.00000000000E+00  0.17083737232E+04  0.17083737232E+04  0.50400001928E-02 0.  1.
       -1   -1    0    0    0  501  0.00000000000E+00  0.00000000000E+00 -0.16968137851E+04  0.16968137851E+04  0.50400001928E-02 0. -1.
    10030    2    1    2    0    0  0.00000000000E+00  0.00000000000E+00  0.11559938138E+02  0.34051875083E+04  0.34051678864E+04 0.  0.
        1    1    3    3  502    0 -0.14728951758E+04  0.85337894498E+03  0.39190655001E+02  0.17027071768E+04  0.50400001928E-02 0.  1.
       -1    1    3    3    0  502  0.14728951758E+04 -0.85337894498E+03 -0.27630716863E+02  0.17024803315E+04  0.50400001928E-02 0. -1.
</event>
<event>
 5   0  0.7822003E-07  0.3361078E+04  0.7818609E-02  0.8147526E-01
        2   -1    0    0  501    0  0.00000000000E+00  0.00000000000E+00  0.16313538819E+04  0.16313538819E+04  0.25500000920E-02 0. -1.
       -2   -1    0    0    0  501  0.00000000000E+00  0.00000000000E+00 -0.17312069139E+04  0.17312069139E+04  0.25500000920E-02 0.  1.
    10030    2    1    2    0    0  0.00000000000E+00  0.00000000000E+00 -0.99853032023E+02  0.33625607958E+04  0.33610778743E+04 0.  0.
        5    1    3    3  502    0  0.10109802593E+04  0.13421136166E+04 -0.78904528505E+02  0.16821409154E+04  0.46999998093E+01 0.  1.
       -5    1    3    3    0  502 -0.10109802593E+04 -0.13421136166E+04 -0.20948503518E+02  0.16804198804E+04  0.46999998093E+01 0. -1.
</event>
<event>
 5   0  0.2622205E-07  0.3387225E+04  0.7818609E-02  0.8141049E-01
       -1   -1    0    0    0  501  0.00000000000E+00  0.00000000000E+00  0.20196398644E+04  0.20196398644E+04  0.50400001928E-02 0.  1.
        1   -1    0    0  501    0  0.00000000000E+00  0.00000000000E+00 -0.14202156497E+04  0.14202156497E+04  0.50400001928E-02 0. -1.
    10030    2    1    2    0    0  0.00000000000E+00  0.00000000000E+00  0.59942421469E+03  0.34398555142E+04  0.33872254972E+04 0.  0.
        3    1    3    3  502    0 -0.12155988893E+04  0.11046146801E+04  0.71900733588E+03  0.17929935333E+04  0.10100000352E+00 0.  1.
       -3    1    3    3    0  502  0.12155988893E+04 -0.11046146801E+04 -0.11958312119E+03  0.16468619809E+04  0.10100000352E+00 0. -1.
</event>
<event>
 5   0  0.2553250E-07  0.3351789E+04  0.7818609E-02  0.8149841E-01
       -3   -1    0    0    0  501  0.00000000000E+00  0.00000000000E+00  0.18422166370E+04  0.18422166398E+04  0.10100000352E+00 0.  1.
        3   -1    0    0  501    0  0.00000000000E+00  0.00000000000E+00 -0.15245883593E+04  0.15245883627E+04  0.10100000352E+00 0. -1.
    10030    2    1    2    0    0  0.00000000000E+00  0.00000000000E+00  0.31762827768E+03  0.33668050025E+04  0.33517888063E+04 0.  0.
        4    1    3    3  502    0  0.66563943960E+03  0.15255343911E+04  0.35536754416E+03  0.17019455768E+04  0.12699999809E+01 0.  1.
       -4    1    3    3    0  502 -0.66563943960E+03 -0.15255343911E+04 -0.37739266477E+02  0.16648594257E+04  0.12699999809E+01 0. -1.
</event>
<event>
 5   0  0.2553250E-07  0.3416665E+04  0.7818609E-02  0.8133828E-01
        1   -1    0    0  501    0  0.00000000000E+00  0.00000000000E+00  0.18294346631E+04  0.18294346631E+04  0.50400001928E-02 0. -1.
       -1   -1    0    0    0  501  0.00000000000E+00  0.00000000000E+00 -0.15952464379E+04  0.15952464379E+04  0.50400001928E-02 0.  1.
    10030    2    1    2    0    0  0.00000000000E+00  0.00000000000E+00  0.23418822527E+03  0.34246811010E+04  0.34166645312E+04 0.  0.
        5    1    3    3  502    0  0.64357493637E+03  0.91066306296E+03 -0.11801144070E+04  0.16236342003E+04  0.46999998093E+01 0.  1.
       -5    1    3    3    0  502 -0.64357493637E+03 -0.91066306296E+03  0.14143026322E+04  0.18010469007E+04  0.46999998093E+01 0. -1.
</event>
<event>
 5   0  0.7899402E-07  0.3399097E+04  0.7818609E-02  0.8138128E-01
       -2   -1    0    0    0  501  0.00000000000E+00  0.00000000000E+00  0.10776605215E+04  0.10776605215E+04  0.25500000920E-02 0.  1.
        2   -1    0    0  501    0  0.00000000000E+00  0.00000000000E+00 -0.26803104729E+04  0.26803104729E+04  0.25500000920E-02 0. -1.
    10030    2    1    2    0    0  0.00000000000E+00  0.00000000000E+00 -0.16026499514E+04  0.37579709943E+04  0.33990968106E+04 0.  0.
        2    1    3    3  502    0  0.15475753332E+04 -0.70222245571E+03 -0.82227249996E+03  0.18879189213E+04  0.25500000920E-02 0.  1.
       -2    1    3    3    0  502 -0.15475753332E+04  0.70222245571E+03 -0.78037745143E+03  0.18700520730E+04  0.25500000920E-02 0. -1.
</event>
<event>
 5   0  0.2553250E-07  0.3510506E+04  0.7818609E-02  0.8111305E-01
       -3   -1    0    0    0  501  0.00000000000E+00  0.00000000000E+00  0.21178046014E+04  0.21178046038E+04  0.10100000352E+00 0.  1.
        3   -1    0    0  501    0  0.00000000000E+00  0.00000000000E+00 -0.14547673739E+04  0.14547673774E+04  0.10100000352E+00 0. -1.
    10030    2    1    2    0    0  0.00000000000E+00  0.00000000000E+00  0.66303722751E+03  0.35725719812E+04  0.35105059744E+04 0.  0.
        4    1    3    3  502    0  0.16467366426E+04 -0.17183074229E+02  0.94960709735E+03  0.19009976540E+04  0.12699999809E+01 0.  1.
       -4    1    3    3    0  502 -0.16467366426E+04  0.17183074229E+02 -0.28656986984E+03  0.16715743272E+04  0.12699999809E+01 0. -1.
</event>
<event>
 5   0  0.2641442E-07  0.3405282E+04  0.7818609E-02  0.8136611E-01
        1   -1    0    0  501    0  0.00000000000E+00  0.00000000000E+00  0.19889202255E+04  0.19889202255E+04  0.50400001928E-02 0.  1.
       -1   -1    0    0    0  501  0.00000000000E+00  0.00000000000E+00 -0.14575676181E+04  0.14575676182E+04  0.50400001928E-02 0. -1.
    10030    2    1    2    0    0  0.00000000000E+00  0.00000000000E+00  0.53135260736E+03  0.34464878437E+04  0.34052816129E+04 0.  0.
        1    1    3    3  502    0  0.16971020931E+04 -0.92067995602E+02  0.16269196007E+03  0.17073665992E+04  0.50400001928E-02 0. -1.
       -1    1    3    3    0  502 -0.16971020931E+04  0.92067995602E+02  0.36866064729E+03  0.17391212445E+04  0.50400001928E-02 0.  1.
</event>
<event>
 5   0  0.7899402E-07  0.3383394E+04  0.7818609E-02  0.8141994E-01
       -2   -1    0    0    0  501  0.00000000000E+00  0.00000000000E+00  0.17529313158E+04  0.17529313158E+04  0.25500000920E-02 0.  1.
        2   -1    0    0  501    0  0.00000000000E+00  0.00000000000E+00 -0.16326015083E+04  0.16326015083E+04  0.25500000920E-02 0. -1.
    10030    2    1    2    0    0  0.00000000000E+00  0.00000000000E+00  0.12032980753E+03  0.33855328242E+04  0.33833937461E+04 0.  0.
        2    1    3    3  502    0  0.83748306864E+03  0.14661646306E+04  0.16425805378E+03  0.16964661277E+04  0.25500000920E-02 0. -1.
       -2    1    3    3    0  502 -0.83748306864E+03 -0.14661646306E+04 -0.43928246248E+02  0.16890666964E+04  0.25500000920E-02 0.  1.
</event>
<event>
 5   0  0.2599367E-07  0.3373495E+04  0.7818609E-02  0.8144442E-01
        1   -1    0    0  501    0  0.00000000000E+00  0.00000000000E+00  0.13906308173E+04  0.13906308173E+04  0.50400001928E-02 0.  1.
       -1   -1    0    0    0  501  0.00000000000E+00  0.00000000000E+00 -0.20459180050E+04  0.20459180050E+04  0.50400001928E-02 0. -1.
    10030    2    1    2    0    0  0.00000000000E+00  0.00000000000E+00 -0.65528718773E+03  0.34365488223E+04  0.33734947028E+04 0.  0.
        2    1    3    3  502    0  0.12642896017E+04 -0.22949038240E+03 -0.14407809516E+04  0.19305294049E+04  0.25500000920E-02 0. -1.
       -2    1    3    3    0  502 -0.12642896017E+04  0.22949038240E+03  0.78549376389E+03  0.15060194174E+04  0.25500000920E-02 0.  1.
</event>
<event>
 5   0  0.2599367E-07  0.3386626E+04  0.7818609E-02  0.8141197E-01
        1   -1    0    0  501    0  0.00000000000E+00  0.00000000000E+00  0.12511018107E+04  0.12511018107E+04  0.50400001928E-02 0.  1.
       -1   -1    0    0    0  501  0.00000000000E+00  0.00000000000E+00 -0.22918264355E+04  0.22918264355E+04  0.50400001928E-02 0. -1.
    10030    2    1    2    0    0  0.00000000000E+00  0.00000000000E+00 -0.10407246248E+04  0.35429282462E+04  0.33866255791E+04 0.  0.
        2    1    3    3  502    0  0.10040153816E+04  0.39883830404E+03  0.84373016814E+03  0.13707660179E+04  0.25500000920E-02 0.  1.
       -2    1    3    3    0  502 -0.10040153816E+04 -0.39883830404E+03 -0.18844547929E+04  0.21721622282E+04  0.25500000920E-02 0. -1.
</event>
<event>
 5   0  0.2592200E-07  0.3392524E+04  0.7818609E-02  0.8139744E-01
       -1   -1    0    0    0  501  0.00000000000E+00  0.00000000000E+00  0.13684482434E+04  0.13684482434E+04  0.50400001928E-02 0.  1.
        1   -1    0    0  501    0  0.00000000000E+00  0.00000000000E+00 -0.21026036520E+04  0.21026036520E+04  0.50400001928E-02 0. -1.
    10030    2    1    2    0    0  0.00000000000E+00  0.00000000000E+00 -0.73415540852E+03  0.34710518954E+04  0.33925237062E+04 0.  0.
        4    1    3    3  502    0  0.10824753741E+04  0.32532769233E+03  0.92699615746E+03  0.14618189121E+04  0.12699999809E+01 0.  1.
       -4    1    3    3    0  502 -0.10824753741E+04 -0.32532769233E+03 -0.16611515660E+04  0.20092329833E+04  0.12699999809E+01 0. -1.
</event>
<event>
 5   0  0.2592200E-07  0.3391239E+04  0.7818609E-02  0.8140060E-01
        1   -1    0    0  501    0  0.00000000000E+00  0.00000000000E+00  0.19637605445E+04  0.19637605445E+04  0.50400001928E-02 0.  1.
       -1   -1    0    0    0  501  0.00000000000E+00  0.00000000000E+00 -0.14640913188E+04  0.14640913188E+04  0.50400001928E-02 0. -1.
    10030    2    1    2    0    0  0.00000000000E+00  0.00000000000E+00  0.49966922572E+03  0.34278518633E+04  0.33912385734E+04 0.  0.
        4    1    3    3  502    0 -0.15139031885E+03 -0.34540703404E+03  0.19208306566E+04  0.19575027642E+04  0.12699999809E+01 0.  1.
       -4    1    3    3    0  502  0.15139031885E+03  0.34540703404E+03 -0.14211614308E+04  0.14703490991E+04  0.12699999809E+01 0. -1.
</event>
<event>
 5   0  0.2553250E-07  0.3393544E+04  0.7818609E-02  0.8139493E-01
        1   -1    0    0  501    0  0.00000000000E+00  0.00000000000E+00  0.84320191541E+03  0.84320191542E+03  0.50400001928E-02 0.  1.
       -1   -1    0    0    0  501  0.00000000000E+00  0.00000000000E+00 -0.34144080297E+04  0.34144080297E+04  0.50400001928E-02 0. -1.
    10030    2    1    2    0    0  0.00000000000E+00  0.00000000000E+00 -0.25712061143E+04  0.42576099451E+04  0.33935441006E+04 0.  0.
        5    1    3    3  502    0 -0.11794711391E+04  0.84746902490E+03 -0.18492300805E+03  0.14640951216E+04  0.46999998093E+01 0.  1.
       -5    1    3    3    0  502  0.11794711391E+04 -0.84746902490E+03 -0.23862831062E+04  0.27935148235E+04  0.46999998093E+01 0. -1.
</event>
<event>
 5   0  0.2622205E-07  0.3461798E+04  0.7818609E-02  0.8122903E-01
       -1   -1    0    0    0  501  0.00000000000E+00  0.00000000000E+00  0.26647470306E+04  0.26647470306E+04  0.50400001928E-02 0.  1.
        1   -1    0    0  501    0  0.00000000000E+00  0.00000000000E+00 -0.11243137271E+04  0.11243137271E+04  0.50400001928E-02 0. -1.
    10030    2    1    2    0    0  0.00000000000E+00  0.00000000000E+00  0.15404333035E+04  0.37890607576E+04  0.34617981834E+04 0.  0.
        3    1    3    3  502    0 -0.50854415211E+03  0.13798074659E+04 -0.22906833383E+03  0.14882735331E+04  0.10100000352E+00 0. -1.
       -3    1    3    3    0  502  0.50854415211E+03 -0.13798074659E+04  0.17695016373E+04  0.23007872245E+04  0.10100000352E+00 0.  1.
</event>
<event>
 5   0  0.7822003E-07  0.3390119E+04  0.7818609E-02  0.8140336E-01
       -2   -1    0    0    0  501  0.00000000000E+00  0.00000000000E+00  0.27874935663E+04  0.27874935663E+04  0.25500000920E-02 0. -1.
        2   -1    0    0  501    0  0.00000000000E+00  0.00000000000E+00 -0.10307561493E+04  0.10307561493E+04  0.25500000920E-02 0.  1.
    10030    2    1    2    0    0  0.00000000000E+00  0.00000000000E+00  0.17567374170E+04  0.38182497156E+04  0.33901186614E+04 0.  0.
        5    1    3    3  502    0  0.11259662828E+04 -0.10283726686E+04  0.17120147644E+04  0.22926768327E+04  0.46999998093E+01 0. -1.
       -5    1    3    3    0  502 -0.11259662828E+04  0.10283726686E+04  0.44722652664E+02  0.15255728830E+04  0.46999998093E+01 0.  1.
</event>
<event>
 5   0  0.2553250E-07  0.3447914E+04  0.7818609E-02  0.8126246E-01
       -1   -1    0    0    0  501  0.00000000000E+00  0.00000000000E+00  0.30871997720E+04  0.30871997720E+04  0.50400001928E-02 0. -1.
        1   -1    0    0  501    0  0.00000000000E+00  0.00000000000E+00 -0.96269365959E+03  0.96269365961E+03  0.50400001928E-02 0.  1.
    10030    2    1    2    0    0  0.00000000000E+00  0.00000000000E+00  0.21245061124E+04  0.40498934316E+04  0.34479139470E+04 0.  0.
        5    1    3    3  502    0 -0.57370325648E+03 -0.99509276100E+03  0.25722602085E+04  0.28170711208E+04  0.46999998093E+01 0. -1.
       -5    1    3    3    0  502  0.57370325648E+03  0.99509276100E+03 -0.44775409607E+03  0.12328223108E+04  0.46999998093E+01 0.  1.
</event>
<event>
 5   0  0.7838333E-07  0.3404027E+04  0.7818609E-02  0.8136919E-01
       -2   -1    0    0    0  501  0.00000000000E+00  0.00000000000E+00  0.14776787422E+04  0.14776787422E+04  0.25500000920E-02 0. -1.
        2   -1    0    0  501    0  0.00000000000E+00  0.00000000000E+00 -0.19604060914E+04  0.19604060914E+04  0.25500000920E-02 0.  1.
    10030    2    1    2    0    0  0.00000000000E+00  0.00000000000E+00 -0.48272734912E+03  0.34380848336E+04  0.34040272663E+04 0.  0.
        1    1    3    3  502    0  0.53189603321E+03  0.11175894469E+04 -0.14213551845E+04  0.18847201709E+04  0.50400001928E-02 0.  1.
       -1    1    3    3    0  502 -0.53189603321E+03 -0.11175894469E+04  0.93862783536E+03  0.15533646627E+04  0.50400001928E-02 0. -1.
</event>
<event>
 5   0  0.2622205E-07  0.3211606E+04  0.7818609E-02  0.8185759E-01
        1   -1    0    0  501    0  0.00000000000E+00  0.00000000000E+00  0.14471535985E+04  0.14471535985E+04  0.50400001928E-02 0.  1.
       -1   -1    0    0    0  501  0.00000000000E+00  0.00000000000E+00 -0.17818453004E+04  0.17818453004E+04  0.50400001928E-02 0. -1.
    10030    2    1    2    0    0  0.00000000000E+00  0.00000000000E+00 -0.33469170186E+03  0.32289988989E+04  0.32116063511E+04 0.  0.
        3    1    3    3  502    0  0.32821403222E+02 -0.72373460991E+03  0.12735008278E+04  0.14651530291E+04  0.10100000352E+00 0.  1.
       -3    1    3    3    0  502 -0.32821403222E+02  0.72373460991E+03 -0.16081925296E+04  0.17638458699E+04  0.10100000352E+00 0. -1.
</event>
<event>
 5   0  0.2592200E-07  0.3323409E+04  0.7818609E-02  0.8156965E-01
       -1   -1    0    0    0  501  0.00000000000E+00  0.00000000000E+00  0.11358191102E+04  0.11358191102E+04  0.50400001928E-02 0.  1.
        1   -1    0    0  501    0  0.00000000000E+00  0.00000000000E+00 -0.24310746256E+04  0.24310746256E+04  0.50400001928E-02 0. -1.
    10030    2    1    2    0    0  0.00000000000E+00  0.00000000000E+00 -0.12952555154E+04  0.35668937358E+04  0.33234085021E+04 0.  0.
        4    1    3    3  502    0  0.86841268412E+03  0.11227234578E+04 -0.15749989346E+04  0.21202056055E+04  0.12699999809E+01 0. -1.
       -4    1    3    3    0  502 -0.86841268412E+03 -0.11227234578E+04  0.27974341924E+03  0.14466881302E+04  0.12699999809E+01 0.  1.
</event>
<event>
 5   0  0.7838333E-07  0.3402036E+04  0.7818609E-02  0.8137407E-01
        2   -1    0    0  501    0  0.00000000000E+00  0.00000000000E+00  0.22855776941E+04  0.22855776941E+04  0.25500000920E-02 0. -1.
       -2   -1    0    0    0  501  0.00000000000E+00  0.00000000000E+00 -0.12659654292E+04  0.12659654292E+04  0.25500000920E-02 0.  1.
    10030    2    1    2    0    0  0.00000000000E+00  0.00000000000E+00  0.10196122649E+04  0.35515431233E+04  0.34020360648E+04 0.  0.
        1    1    3    3  502    0 -0.19760576993E+03  0.70396321326E+03 -0.10935439216E+04  0.13154659077E+04  0.50400001928E-02 0.  1.
       -1    1    3    3    0  502  0.19760576993E+03 -0.70396321326E+03  0.21131561864E+04  0.22360772156E+04  0.50400001928E-02 0. -1.
</event>
<event>
 5   0  0.8489228E-07  0.3397836E+04  0.7818609E-02  0.8138438E-01
       -2   -1    0    0    0  501  0.00000000000E+00  0.00000000000E+00  0.13922700048E+04  0.13922700048E+04  0.25500000920E-02 0. -1.
        2   -1    0    0  501    0  0.00000000000E+00  0.00000000000E+00 -0.20731055787E+04  0.20731055787E+04  0.25500000920E-02 0.  1.
    10030    2    1    2    0    0  0.00000000000E+00  0.00000000000E+00 -0.68083557390E+03  0.34653755836E+04  0.33978362021E+04 0.  0.
        3    1    3    3  502    0  0.14738080561E+04  0.76800196372E+03  0.19275848040E+02  0.16620194857E+04  0.10100000352E+00 0. -1.
       -3    1    3    3    0  502 -0.14738080561E+04 -0.76800196372E+03 -0.70011142194E+03  0.18033560979E+04  0.10100000352E+00 0.  1.
</event>
<event>
 5   0  0.7838333E-07  0.3498769E+04  0.7818609E-02  0.8114082E-01
       -2   -1    0    0    0  501  0.00000000000E+00  0.00000000000E+00  0.15579046339E+04  0.15579046339E+04  0.25500000920E-02 0. -1.
        2   -1    0    0  501    0  0.00000000000E+00  0.00000000000E+00 -0.19643992948E+04  0.19643992948E+04  0.25500000920E-02 0.  1.
    10030    2    1    2    0    0  0.00000000000E+00  0.00000000000E+00 -0.40649466091E+03  0.35223039287E+04  0.34987693632E+04 0.  0.
        1    1    3    3  502    0 -0.63909400698E+03  0.16219239508E+04 -0.35006489860E+03  0.17780955782E+04  0.50400001928E-02 0.  1.
       -1    1    3    3    0  502  0.63909400698E+03 -0.16219239508E+04 -0.56429762307E+02  0.17442083505E+04  0.50400001928E-02 0. -1.
</event>
<event>
 5   0  0.8489228E-07  0.3352916E+04  0.7818609E-02  0.8149560E-01
        2   -1    0    0  501    0  0.00000000000E+00  0.00000000000E+00  0.19779641798E+04  0.19779641798E+04  0.25500000920E-02 0. -1.
       -2   -1    0    0    0  501  0.00000000000E+00  0.00000000000E+00 -0.14209107691E+04  0.14209107691E+04  0.25500000920E-02 0.  1.
    10030    2    1    2    0    0  0.00000000000E+00  0.00000000000E+00  0.55705341073E+03  0.33988749490E+04  0.33529155099E+04 0.  0.
        3    1    3    3  502    0  0.16076203655E+04  0.38911064743E+02 -0.20183931755E+03  0.16207086199E+04  0.10100000352E+00 0. -1.
       -3    1    3    3    0  502 -0.16076203655E+04 -0.38911064743E+02  0.75889272828E+03  0.17781663290E+04  0.10100000352E+00 0.  1.
</event>
<event>
 5   0  0.7899402E-07  0.3424495E+04  0.7818609E-02  0.8131920E-01
       -2   -1    0    0    0  501  0.00000000000E+00  0.00000000000E+00  0.13726162148E+04  0.13726162148E+04  0.25500000920E-02 0.  1.
        2   -1    0    0  501    0  0.00000000000E+00  0.00000000000E+00 -0.21359154797E+04  0.21359154797E+04  0.25500000920E-02 0. -1.
    10030    2    1    2    0    0  0.00000000000E+00  0.00000000000E+00 -0.76329926487E+03  0.35085316945E+04  0.34244954203E+04 0.  0.
        2    1    3    3  502    0 -0.11935721839E+04  0.10736243391E+04  0.22836760153E+03  0.16215534346E+04  0.25500000920E-02 0.  1.
       -2    1    3    3    0  502  0.11935721839E+04 -0.10736243391E+04 -0.99166686640E+03  0.18869782600E+04  0.25500000920E-02 0. -1.
</event>
<event>
 5   0  0.7838333E-07  0.3415112E+04  0.7818609E-02  0.8134207E-01
       -2   -1    0    0    0  501  0.00000000000E+00  0.00000000000E+00  0.23744813222E+04  0.23744813222E+04  0.25500000920E-02 0. -1.
        2   -1    0    0  501    0  0.00000000000E+00  0.00000000000E+00 -0.12279515869E+04  0.12279515869E+04  0.25500000920E-02 0.  1.
    10030    2    1    2    0    0  0.00000000000E+00  0.00000000000E+00  0.11465297353E+04  0.36024329091E+04  0.34151123599E+04 0.  0.
        1    1    3    3  502    0 -0.61313360451E+03 -0.37837527786E+03 -0.10597606846E+04  0.12814809310E+04  0.50400001928E-02 0.  1.
       -1    1    3    3    0  502  0.61313360451E+03  0.37837527786E+03  0.22062904199E+04  0.23209519781E+04  0.50400001928E-02 0. -1.
</event>
<event>
 5   0  0.2553250E-07  0.3086328E+04  0.7818609E-02  0.8219500E-01
        1   -1    0    0  501    0  0.00000000000E+00  0.00000000000E+00  0.13937875772E+04  0.13937875773E+04  0.50400001928E-02 0. -1.
       -1   -1    0    0    0  501  0.00000000000E+00  0.00000000000E+00 -0.17085491112E+04  0.17085491112E+04  0.50400001928E-02 0.  1.
    10030    2    1    2    0    0  0.00000000000E+00  0.00000000000E+00 -0.31476153394E+03  0.31023366884E+04  0.30863276082E+04 0.  0.
        5    1    3    3  502    0 -0.40741207832E+03  0.64821006342E+03 -0.15041707679E+04  0.16878129864E+04  0.46999998093E+01 0.  1.
       -5    1    3    3    0  502  0.40741207832E+03 -0.64821006342E+03  0.11894092340E+04  0.14145237021E+04  0.46999998093E+01 0. -1.
</event>
<event>
 5   0  0.2553250E-07  0.3398009E+04  0.7818609E-02  0.8138395E-01
        1   -1    0    0  501    0  0.00000000000E+00  0.00000000000E+00  0.18645495349E+04  0.18645495349E+04  0.50400001928E-02 0. -1.
       -1   -1    0    0    0  501  0.00000000000E+00  0.00000000000E+00 -0.15481576628E+04  0.15481576629E+04  0.50400001928E-02 0.  1.
    10030    2    1    2    0    0  0.00000000000E+00  0.00000000000E+00  0.31639187206E+03  0.34127071978E+04  0.33980092114E+04 0.  0.
        5    1    3    3  502    0 -0.12010189179E+04 -0.10674289055E+04 -0.39622779311E+03  0.16549530094E+04  0.46999998093E+01 0.  1.
       -5    1    3    3    0  502  0.12010189179E+04  0.10674289055E+04  0.71261966517E+03  0.17577541883E+04  0.46999998093E+01 0. -1.
</event>
<event>
 5   0  0.7899402E-07  0.3425963E+04  0.7818609E-02  0.8131563E-01
       -2   -1    0    0    0  501  0.00000000000E+00  0.00000000000E+00  0.10866169359E+04  0.10866169359E+04  0.25500000920E-02 0.  1.
        2   -1    0    0  501    0  0.00000000000E+00  0.00000000000E+00 -0.27004050977E+04  0.27004050977E+04  0.25500000920E-02 0. -1.
    10030    2    1    2    0    0  0.00000000000E+00  0.00000000000E+00 -0.16137881617E+04  0.37870220336E+04  0.34259631714E+04 0.  0.
        2    1    3    3  502    0 -0.90416346318E+03  0.11744097541E+04 -0.17562141538E+04  0.22980509117E+04  0.25500000920E-02 0. -1.
       -2    1    3    3    0  502  0.90416346318E+03 -0.11744097541E+04  0.14242599209E+03  0.14889711219E+04  0.25500000920E-02 0.  1.
</event>
<event>
 5   0  0.2622205E-07  0.3388669E+04  0.7818609E-02  0.8140693E-01
       -1   -1    0    0    0  501  0.00000000000E+00  0.00000000000E+00  0.18283819377E+04  0.18283819377E+04  0.50400001928E-02 0.  1.
        1   -1    0    0  501    0  0.00000000000E+00  0.00000000000E+00 -0.15701146092E+04  0.15701146092E+04  0.50400001928E-02 0. -1.
    10030    2    1    2    0    0  0.00000000000E+00  0.00000000000E+00  0.25826732846E+03  0.33984965469E+04  0.33886688782E+04 0.  0.
        3    1    3    3  502    0 -0.80873525517E+03 -0.35427786602E+03 -0.13211597147E+04  0.15890338326E+04  0.10100000352E+00 0. -1.
       -3    1    3    3    0  502  0.80873525517E+03  0.35427786602E+03  0.15794270432E+04  0.18094627142E+04  0.10100000352E+00 0.  1.
</event>
<event>
 5   0  0.2553250E-07  0.3322491E+04  0.7818609E-02  0.8157196E-01
        1   -1    0    0  501    0  0.00000000000E+00  0.00000000000E+00  0.16472069567E+04  0.16472069567E+04  0.50400001928E-02 0. -1.
       -1   -1    0    0    0  501  0.00000000000E+00  0.00000000000E+00 -0.16754036321E+04  0.16754036321E+04  0.50400001928E-02 0.  1.
    10030    2    1    2    0    0  0.00000000000E+00  0.00000000000E+00 -0.28196675390E+02  0.33226105889E+04  0.33224909440E+04 0.  0.
        5    1    3    3  502    0 -0.11075921151E+03 -0.29831801217E+02  0.16432352747E+04  0.16472406616E+04  0.46999998093E+01 0. -1.
       -5    1    3    3    0  502  0.11075921151E+03  0.29831801217E+02 -0.16714319501E+04  0.16753699272E+04  0.46999998093E+01 0.  1.
</event>
<event>
 5   0  0.7822003E-07  0.3408711E+04  0.7818609E-02  0.8135772E-01
       -2   -1    0    0    0  501  0.00000000000E+00  0.00000000000E+00  0.13287988767E+04  0.13287988767E+04  0.25500000920E-02 0.  1.
        2   -1    0    0  501    0  0.00000000000E+00  0.00000000000E+00 -0.21860546240E+04  0.21860546240E+04  0.25500000920E-02 0. -1.
    10030    2    1    2    0    0  0.00000000000E+00  0.00000000000E+00 -0.85725574734E+03  0.35148535007E+04  0.34087105649E+04 0.  0.
        5    1    3    3  502    0 -0.13483330520E+04  0.10392656056E+04 -0.34403790718E+03  0.17367956672E+04  0.46999998093E+01 0.  1.
       -5    1    3    3    0  502  0.13483330520E+04 -0.10392656056E+04 -0.51321784016E+03  0.17780578335E+04  0.46999998093E+01 0. -1.
</event>
<event>
 5   0  0.8489228E-07  0.3321411E+04  0.7818609E-02  0.8157469E-01
       -2   -1    0    0    0  501  0.00000000000E+00  0.00000000000E+00  0.10527251365E+04  0.10527251365E+04  0.25500000920E-02 0. -1.
        2   -1    0    0  501    0  0.00000000000E+00  0.00000000000E+00 -0.26198127705E+04  0.26198127705E+04  0.25500000920E-02 0.  1.
    10030    2    1    2    0    0  0.00000000000E+00  0.00000000000E+00 -0.15670876341E+04  0.36725379070E+04  0.33214109992E+04 0.  0.
        3    1    3    3  502    0  0.13613117414E+04 -0.24932128391E+03 -0.17985238155E+04  0.22693652604E+04  0.10100000352E+00 0.  1.
       -3    1    3    3    0  502 -0.13613117414E+04  0.24932128391E+03  0.23143618138E+03  0.14031726466E+04  0.10100000352E+00 0. -1.
</event>
<event>
 5   0  0.2553250E-07  0.3699813E+04  0.7818609E-02  0.8068003E-01
        1   -1    0    0  501    0  0.00000000000E+00  0.00000000000E+00  0.19040485193E+04  0.19040485194E+04  0.50400001928E-02 0. -1.
       -1   -1    0    0    0  501  0.00000000000E+00  0.00000000000E+00 -0.17973040017E+04  0.17973040017E+04  0.50400001928E-02 0.  1.
    10030    2    1    2    0    0  0.00000000000E+00  0.00000000000E+00  0.10674451764E+03  0.37013525211E+04  0.36998129808E+04 0.  0.
        5    1    3    3  502    0 -0.13132847911E+04  0.13016495018E+04  0.10928437832E+03  0.18522887285E+04  0.46999998093E+01 0.  1.
       -5    1    3    3    0  502  0.13132847911E+04 -0.13016495018E+04 -0.25398606822E+01  0.18490637926E+04  0.46999998093E+01 0. -1.
</event>
<event>
 5   0  0.7899402E-07  0.3437184E+04  0.7818609E-02  0.8128840E-01
        2   -1    0    0  501    0  0.00000000000E+00  0.00000000000E+00  0.21757522736E+04  0.21757522736E+04  0.25500000920E-02 0. -1.
       -2   -1    0    0    0  501  0.00000000000E+00  0.00000000000E+00 -0.13574881316E+04  0.13574881316E+04  0.25500000920E-02 0.  1.
    10030    2    1    2    0    0  0.00000000000E+00  0.00000000000E+00  0.81826414204E+03  0.35332404051E+04  0.34371836661E+04 0.  0.
        2    1    3    3  502    0  0.11442606122E+04  0.97724574636E+02  0.17234069860E+04  0.20709935009E+04  0.25500000920E-02 0. -1.
       -2    1    3    3    0  502 -0.11442606122E+04 -0.97724574636E+02 -0.90514284401E+03  0.14622469043E+04  0.25500000920E-02 0.  1.
</event>
<event>
 5   0  0.2641442E-07  0.3156358E+04  0.7818609E-02  0.8200439E-01
       -1   -1    0    0    0  501  0.00000000000E+00  0.00000000000E+00  0.15518201774E+04  0.15518201774E+04  0.50400001928E-02 0. -1.
        1   -1    0    0  501    0  0.00000000000E+00  0.00000000000E+00 -0.16049856855E+04  0.16049856856E+04  0.50400001928E-02 0.  1.
    10030    2    1    2    0    0  0.00000000000E+00  0.00000000000E+00 -0.53165508127E+02  0.31568058630E+04  0.31563581364E+04 0.  0.
        1    1    3    3  502    0 -0.42807119214E+03 -0.10010552736E+04 -0.11692388267E+04  0.15976470324E+04  0.50400001928E-02 0.  1.
       -1    1    3    3    0  502  0.42807119214E+03  0.10010552736E+04  0.11160733186E+04  0.15591588305E+04  0.50400001928E-02 0. -1.
</event>
<event>
 5   0  0.7838333E-07  0.3407678E+04  0.7818609E-02  0.8136024E-01
        2   -1    0    0  501    0  0.00000000000E+00  0.00000000000E+00  0.12292405340E+04  0.12292405340E+04  0.25500000920E-02 0. -1.
       -2   -1    0    0    0  501  0.00000000000E+00  0.00000000000E+00 -0.23616760232E+04  0.23616760232E+04  0.25500000920E-02 0.  1.
    10030    2    1    2    0    0  0.00000000000E+00  0.00000000000E+00 -0.11324354892E+04  0.35909165572E+04  0.34076783275E+04 0.  0.
        1    1    3    3  502    0 -0.86353720917E+03  0.12946208762E+04  0.16486639397E+03  0.15649027614E+04  0.50400001928E-02 0. -1.
       -1    1    3    3    0  502  0.86353720917E+03 -0.12946208762E+04 -0.12973018832E+04  0.20260137958E+04  0.50400001928E-02 0.  1.
</event>
<event>
 5   0  0.2599367E-07  0.3188445E+04  0.7818609E-02  0.8191876E-01
        1   -1    0    0  501    0  0.00000000000E+00  0.00000000000E+00  0.15179476679E+04  0.15179476679E+04  0.50400001928E-02 0.  1.
       -1   -1    0    0    0  501  0.00000000000E+00  0.00000000000E+00 -0.16743298425E+04  0.16743298425E+04  0.50400001928E-02 0. -1.
    10030    2    1    2    0    0  0.00000000000E+00  0.00000000000E+00 -0.15638217460E+03  0.31922775104E+04  0.31884448119E+04 0.  0.
        2    1    3    3  502    0  0.67030109064E+03 -0.14381656595E+04  0.76659185343E+02  0.15885530042E+04  0.25500000920E-02 0. -1.
       -2    1    3    3    0  502 -0.67030109064E+03  0.14381656595E+04 -0.23304135994E+03  0.16037245062E+04  0.25500000920E-02 0.  1.
</event>
<event>
 5   0  0.2622205E-07  0.3410825E+04  0.7818609E-02  0.8135255E-01
       -1   -1    0    0    0  501  0.00000000000E+00  0.00000000000E+00  0.10236089144E+04  0.10236089144E+04  0.50400001928E-02 0. -1.
        1   -1    0    0  501    0  0.00000000000E+00  0.00000000000E+00 -0.28413509024E+04  0.28413509024E+04  0.50400001928E-02 0.  1.
    10030    2    1    2    0    0  0.00000000000E+00  0.00000000000E+00 -0.18177419880E+04  0.38649598168E+04  0.34108251862E+04 0.  0.
        3    1    3    3  502    0 -0.12227063304E+04  0.96706284575E+03 -0.16924723968E+04  0.23010180664E+04  0.10100000352E+00 0.  1.
       -3    1    3    3    0  502  0.12227063304E+04 -0.96706284575E+03 -0.12526959122E+03  0.15639417504E+04  0.10100000352E+00 0. -1.
</event>
<event>
 5   0  0.2553250E-07  0.3527429E+04  0.7818609E-02  0.8107320E-01
        1   -1    0    0  501    0  0.00000000000E+00  0.00000000000E+00  0.20269487762E+04  0.20269487762E+04  0.50400001928E-02 0.  1.
       -1   -1    0    0    0  501  0.00000000000E+00  0.00000000000E+00 -0.15346659445E+04  0.15346659445E+04  0.50400001928E-02 0. -1.
    10030    2    1    2    0    0  0.00000000000E+00  0.00000000000E+00  0.49228283164E+03  0.35616147207E+04  0.35274292385E+04 0.  0.
        5    1    3    3  502    0  0.14427156571E+04 -0.69307821749E+03 -0.50190378135E+03  0.16774132999E+04  0.46999998093E+01 0. -1.
       -5    1    3    3    0  502 -0.14427156571E+04  0.69307821749E+03  0.99418661299E+03  0.18842014208E+04  0.46999998093E+01 0.  1.
</event>
<event>
 5   0  0.2599367E-07  0.3405819E+04  0.7818609E-02  0.8136480E-01
       -1   -1    0    0    0  501  0.00000000000E+00  0.00000000000E+00  0.18698675191E+04  0.18698675191E+04  0.50400001928E-02 0.  1.
        1   -1    0    0  501    0  0.00000000000E+00  0.00000000000E+00 -0.15508587542E+04  0.15508587542E+04  0.50400001928E-02 0. -1.
    10030    2    1    2    0    0  0.00000000000E+00  0.00000000000E+00  0.31900876486E+03  0.34207262733E+04  0.34058187922E+04 0.  0.
        2    1    3    3  502    0 -0.57638344523E+02 -0.56931129998E+03  0.17704146288E+04  0.18605927800E+04  0.25500000920E-02 0.  1.
       -2    1    3    3    0  502  0.57638344523E+02  0.56931129998E+03 -0.14514058640E+04  0.15601334933E+04  0.25500000920E-02 0. -1.
</event>
<event>
 5   0  0.7610412E-07  0.3369809E+04  0.7818609E-02  0.8145356E-01
       -2   -1    0    0    0  501  0.00000000000E+00  0.00000000000E+00  0.16225092478E+04  0.16225092478E+04  0.25500000920E-02 0.  1.
        2   -1    0    0  501    0  0.00000000000E+00  0.00000000000E+00 -0.17496995242E+04  0.17496995242E+04  0.25500000920E-02 0. -1.
    10030    2    1    2    0    0  0.00000000000E+00  0.00000000000E+00 -0.12719027637E+03  0.33722087720E+04  0.33698092877E+04 0.  0.
        4    1    3    3  502    0  0.95985006306E+03 -0.34559731267E+03 -0.14055020175E+04  0.17367173576E+04  0.12699999809E+01 0. -1.
       -4    1    3    3    0  502 -0.95985006306E+03  0.34559731267E+03  0.12783117412E+04  0.16354914144E+04  0.12699999809E+01 0.  1.
</event>
<event>
 5   0  0.2592200E-07  0.3378680E+04  0.7818609E-02  0.8143159E-01
        1   -1    0    0  501    0  0.00000000000E+00  0.00000000000E+00  0.15371357108E+04  0.15371357108E+04  0.50400001928E-02 0. -1.
       -1   -1    0    0    0  501  0.00000000000E+00  0.00000000000E+00 -0.18566156246E+04  0.18566156246E+04  0.50400001928E-02 0.  1.
    10030    2    1    2    0    0  0.00000000000E+00  0.00000000000E+00 -0.31947991384E+03  0.33937513355E+04  0.33786803210E+04 0.  0.
        4    1    3    3  502    0 -0.14620735484E+03 -0.10456812218E+04 -0.14843500060E+04  0.18215713989E+04  0.12699999809E+01 0.  1.
       -4    1    3    3    0  502  0.14620735484E+03  0.10456812218E+04  0.11648700922E+04  0.15721799365E+04  0.12699999809E+01 0. -1.
</event>
<event>
 5   0  0.2553250E-07  0.3559742E+04  0.7818609E-02  0.8099776E-01
        1   -1    0    0  501    0  0.00000000000E+00  0.00000000000E+00  0.27018181857E+04  0.27018181857E+04  0.50400001928E-02 0.  1.
       -1   -1    0    0    0  501  0.00000000000E+00  0.00000000000E+00 -0.11725219813E+04  0.11725219813E+04  0.50400001928E-02 0. -1.
    10030    2    1    2    0    0  0.00000000000E+00  0.00000000000E+00  0.15292962045E+04  0.38743401670E+04  0.35597422447E+04 0.  0.
        5    1    3    3  502    0  0.92631226498E+03  0.13897112938E+04  0.94993735562E+02  0.16728412334E+04  0.46999998093E+01 0. -1.
       -5    1    3    3    0  502 -0.92631226498E+03 -0.13897112938E+04  0.14343024689E+04  0.22014989336E+04  0.46999998093E+01 0.  1.
</event>
<event>
 5   0  0.2599367E-07  0.3394083E+04  0.7818609E-02  0.8139360E-01
        1   -1    0    0  501    0  0.00000000000E+00  0.00000000000E+00  0.26848680349E+04  0.26848680349E+04  0.50400001928E-02 0. -1.
       -1   -1    0    0    0  501  0.00000000000E+00  0.00000000000E+00 -0.10726596100E+04  0.10726596100E+04  0.50400001928E-02 0.  1.
    10030    2    1    2    0    0  0.00000000000E+00  0.00000000000E+00  0.16122084249E+04  0.37575276450E+04  0.33940827918E+04 0.  0.
        2    1    3    3  502    0 -0.56341788450E+03  0.11464318910E+04 -0.43076131777E+03  0.13480731086E+04  0.25500000920E-02 0.  1.
       -2    1    3    3    0  502  0.56341788450E+03 -0.11464318910E+04  0.20429697427E+04  0.24094545364E+04  0.25500000920E-02 0. -1.
</event>
<event>
 5   0  0.7838333E-07  0.3383697E+04  0.7818609E-02  0.8141919E-01
       -2   -1    0    0    0  501  0.00000000000E+00  0.00000000000E+00  0.16926246890E+04  0.16926246890E+04  0.25500000920E-02 0. -1.
        2   -1    0    0  501    0  0.00000000000E+00  0.00000000000E+00 -0.16910730389E+04  0.16910730389E+04  0.25500000920E-02 0.  1.
    10030    2    1    2    0    0  0.00000000000E+00  0.00000000000E+00  0.15516501451E+01  0.33836977279E+04  0.33836973721E+04 0.  0.
        1    1    3    3  502    0  0.24403684114E+03  0.37268446495E+03  0.16329231366E+04  0.16925973119E+04  0.50400001928E-02 0. -1.
       -1    1    3    3    0  502 -0.24403684114E+03 -0.37268446495E+03 -0.16313714864E+04  0.16911004160E+04  0.50400001928E-02 0.  1.
</event>
<event>
 5   0  0.8489228E-07  0.3422955E+04  0.7818609E-02  0.8132295E-01
       -2   -1    0    0    0  501  0.00000000000E+00  0.00000000000E+00  0.16016156933E+04  0.16016156933E+04  0.25500000920E-02 0.  1.
        2   -1    0    0  501    0  0.00000000000E+00  0.00000000000E+00 -0.18288748428E+04  0.18288748428E+04  0.25500000920E-02 0. -1.
    10030    2    1    2    0    0  0.00000000000E+00  0.00000000000E+00 -0.22725914951E+03  0.34304905360E+04  0.34229546589E+04 0.  0.
        3    1    3    3  502    0  0.90704238432E+03  0.79371825716E+03  0.11041340358E+04  0.16345722798E+04  0.10100000352E+00 0.  1.
       -3    1    3    3    0  502 -0.90704238432E+03 -0.79371825716E+03 -0.13313931853E+04  0.17959182562E+04  0.10100000352E+00 0. -1.
</event>
<event>
 5   0  0.8489228E-07  0.3399857E+04  0.7818609E-02  0.8137942E-01
        2   -1    0    0  501    0  0.00000000000E+00  0.00000000000E+00  0.23891396407E+04  0.23891396407E+04  0.25500000920E-02 0. -1.
       -2   -1    0    0    0  501  0.00000000000E+00  0.00000000000E+00 -0.12095383747E+04  0.12095383747E+04  0.25500000920E-02 0.  1.
    10030    2    1    2    0    0  0.00000000000E+00  0.00000000000E+00  0.11796012659E+04  0.35986780154E+04  0.33998565134E+04 0.  0.
        3    1    3    3  502    0 -0.59408368755E+03  0.81240981059E+02  0.22734885333E+04  0.23512306663E+04  0.10100000352E+00 0. -1.
       -3    1    3    3    0  502  0.59408368755E+03 -0.81240981059E+02 -0.10938872674E+04  0.12474473491E+04  0.10100000352E+00 0.  1.
</event>
<event>
 5   0  0.2592200E-07  0.3368366E+04  0.7818609E-02  0.8145714E-01
        1   -1    0    0  501    0  0.00000000000E+00  0.00000000000E+00  0.18485733604E+04  0.18485733604E+04  0.50400001928E-02 0. -1.
       -1   -1    0    0    0  501  0.00000000000E+00  0.00000000000E+00 -0.15344117161E+04  0.15344117161E+04  0.50400001928E-02 0.  1.
    10030    2    1    2    0    0  0.00000000000E+00  0.00000000000E+00  0.31416164435E+03  0.33829850765E+04  0.33683661454E+04 0.  0.
        4    1    3    3  502    0  0.57669078312E+03 -0.10418278338E+04 -0.10390934731E+04  0.15804095524E+04  0.12699999809E+01 0.  1.
       -4    1    3    3    0  502 -0.57669078312E+03  0.10418278338E+04  0.13532551174E+04  0.18025755242E+04  0.12699999809E+01 0. -1.
</event>
<event>
 5   0  0.7838333E-07  0.3416406E+04  0.7818609E-02  0.8133892E-01
       -2   -1    0    0    0  501  0.00000000000E+00  0.00000000000E+00  0.20156495649E+04  0.20156495649E+04  0.25500000920E-02 0. -1.
        2   -1    0    0  501    0  0.00000000000E+00  0.00000000000E+00 -0.14476509876E+04  0.14476509876E+04  0.25500000920E-02 0.  1.
    10030    2    1    2    0    0  0.00000000000E+00  0.00000000000E+00  0.56799857730E+03  0.34633005525E+04  0.34164057624E+04 0.  0.
        1    1    3    3  502    0 -0.16969240742E+04  0.44060928903E+02  0.90421600918E+02  0.16999025692E+04  0.50400001928E-02 0.  1.
       -1    1    3    3    0  502  0.16969240742E+04 -0.44060928903E+02  0.47757697638E+03  0.17633979833E+04  0.50400001928E-02 0. -1.
</event>
<event>
 5   0  0.2599367E-07  0.3399029E+04  0.7818609E-02  0.8138145E-01
       -1   -1    0    0    0  501  0.00000000000E+00  0.00000000000E+00  0.28498725603E+04  0.28498725603E+04  0.50400001928E-02 0. -1.
        1   -1    0    0  501    0  0.00000000000E+00  0.00000000000E+00 -0.10135015032E+04  0.10135015032E+04  0.50400001928E-02 0.  1.
    10030    2    1    2    0    0  0.00000000000E+00  0.00000000000E+00  0.18363710571E+04  0.38633740635E+04  0.33990293461E+04 0.  0.
        2    1    3    3  502    0 -0.85842024631E+03 -0.79575227432E+03  0.23186835737E+04  0.25973833980E+04  0.25500000920E-02 0. -1.
       -2    1    3    3    0  502  0.85842024631E+03  0.79575227432E+03 -0.48231251664E+03  0.12659906655E+04  0.25500000920E-02 0.  1.
</event>
<event>
 5   0  0.2641442E-07  0.3413193E+04  0.7818609E-02  0.8134676E-01
        1   -1    0    0  501    0  0.00000000000E+00  0.00000000000E+00  0.25138068513E+04  0.25138068513E+04  0.50400001928E-02 0. -1.
       -1   -1    0    0    0  501  0.00000000000E+00  0.00000000000E+00 -0.11585899033E+04  0.11585899033E+04  0.50400001928E-02 0.  1.
    10030    2    1    2    0    0  0.00000000000E+00  0.00000000000E+00  0.13552169481E+04  0.36723967546E+04  0.34131927790E+04 0.  0.
        1    1    3    3  502    0  0.51835738885E+02 -0.91465955733E+03  0.22268085553E+04  0.24078964661E+04  0.50400001928E-02 0. -1.
       -1    1    3    3    0  502 -0.51835738885E+02  0.91465955733E+03 -0.87159160726E+03  0.12645002885E+04  0.50400001928E-02 0.  1.
</event>
<event>
 5   0  0.2553250E-07  0.3393949E+04  0.7818609E-02  0.8139393E-01
        1   -1    0    0  501    0  0.00000000000E+00  0.00000000000E+00  0.15528824423E+04  0.15528824423E+04  0.50400001928E-02 0. -1.
       -1   -1    0    0    0  501  0.00000000000E+00  0.00000000000E+00 -0.18544363249E+04  0.18544363250E+04  0.50400001928E-02 0.  1.
    10030    2    1    2    0    0  0.00000000000E+00  0.00000000000E+00 -0.30155388264E+03  0.34073187673E+04  0.33939485025E+04 0.  0.
        5    1    3    3  502    0  0.10929096225E+03 -0.83106386437E+03 -0.16320853729E+04  0.18347578630E+04  0.46999998093E+01 0.  1.
       -5    1    3    3    0  502 -0.10929096225E+03  0.83106386437E+03  0.13305314903E+04  0.15725609043E+04  0.46999998093E+01 0. -1.
</event>
<event>
 5   0  0.7899402E-07  0.3402843E+04  0.7818609E-02  0.8137209E-01
        2   -1    0    0  501    0  0.00000000000E+00  0.00000000000E+00  0.13971082992E+04  0.13971082992E+04  0.25500000920E-02 0. -1.
       -2   -1    0    0    0  501  0.00000000000E+00  0.00000000000E+00 -0.20720187181E+04  0.20720187181E+04  0.25500000920E-02 0.  1.
    10030    2    1    2    0    0  0.00000000000E+00  0.00000000000E+00 -0.67491041888E+03  0.34691270173E+04  0.34028426629E+04 0.  0.
        2    1    3    3  502    0 -0.15625042957E+04  0.63040236816E+03 -0.57872464438E+03  0.17815019040E+04  0.25500000920E-02 0. -1.
       -2    1    3    3    0  502  0.15625042957E+04 -0.63040236816E+03 -0.96185774499E+02  0.16876251133E+04  0.25500000920E-02 0.  1.
</event>
<event>
 5   0  0.7838333E-07  0.3405189E+04  0.7818609E-02  0.8136634E-01
        2   -1    0    0  501    0  0.00000000000E+00  0.00000000000E+00  0.21701796452E+04  0.21701796452E+04  0.25500000920E-02 0. -1.
       -2   -1    0    0    0  501  0.00000000000E+00  0.00000000000E+00 -0.13357546919E+04  0.13357546919E+04  0.25500000920E-02 0.  1.
    10030    2    1    2    0    0  0.00000000000E+00  0.00000000000E+00  0.83442495326E+03  0.35059343371E+04  0.34051887720E+04 0.  0.
        1    1    3    3  502    0  0.64919344251E+03  0.87166637026E+03 -0.93212387263E+03  0.14318202753E+04  0.50400001928E-02 0.  1.
       -1    1    3    3    0  502 -0.64919344251E+03 -0.87166637026E+03  0.17665488259E+04  0.20741140617E+04  0.50400001928E-02 0. -1.
</event>
<event>
 5   0  0.7822003E-07  0.3080096E+04  0.7818609E-02  0.8221222E-01
        2   -1    0    0  501    0  0.00000000000E+00  0.00000000000E+00  0.13183322680E+04  0.13183322680E+04  0.25500000920E-02 0. -1.
       -2   -1    0    0    0  501  0.00000000000E+00  0.00000000000E+00 -0.17990519748E+04  0.17990519748E+04  0.25500000920E-02 0.  1.
    10030    2    1    2    0    0  0.00000000000E+00  0.00000000000E+00 -0.48071970681E+03  0.31173842428E+04  0.30800962778E+04 0.  0.
        5    1    3    3  502    0 -0.51416170135E+03  0.75402976040E+03 -0.14958622976E+04  0.17522982732E+04  0.46999998093E+01 0.  1.
       -5    1    3    3    0  502  0.51416170135E+03 -0.75402976040E+03  0.10151425908E+04  0.13650859696E+04  0.46999998093E+01 0. -1.
</event>
<event>
 5   0  0.2553250E-07  0.3373883E+04  0.7818609E-02  0.8144346E-01
        3   -1    0    0  501    0  0.00000000000E+00  0.00000000000E+00  0.17439227994E+04  0.17439228024E+04  0.10100000352E+00 0.  1.
       -3   -1    0    0    0  501  0.00000000000E+00  0.00000000000E+00 -0.16318218445E+04  0.16318218476E+04  0.10100000352E+00 0. -1.
    10030    2    1    2    0    0  0.00000000000E+00  0.00000000000E+00  0.11210095497E+03  0.33757446499E+04  0.33738828251E+04 0.  0.
        3    1    3    3  502    0  0.76122898823E+03  0.48663416640E+03  0.14814379464E+04  0.17352062655E+04  0.10100000352E+00 0.  1.
       -3    1    3    3    0  502 -0.76122898823E+03 -0.48663416640E+03 -0.13693369915E+04  0.16405383845E+04  0.10100000352E+00 0. -1.
</event>
<event>
 5   0  0.2599367E-07  0.3403191E+04  0.7818609E-02  0.8137124E-01
       -1   -1    0    0    0  501  0.00000000000E+00  0.00000000000E+00  0.17559544039E+04  0.17559544039E+04  0.50400001928E-02 0. -1.
        1   -1    0    0  501    0  0.00000000000E+00  0.00000000000E+00 -0.16489195725E+04  0.16489195725E+04  0.50400001928E-02 0.  1.
    10030    2    1    2    0    0  0.00000000000E+00  0.00000000000E+00  0.10703483142E+03  0.34048739764E+04  0.34031911994E+04 0.  0.
        2    1    3    3  502    0 -0.11576608257E+04  0.76272914910E+03  0.10406629002E+04  0.17334686655E+04  0.25500000920E-02 0. -1.
       -2    1    3    3    0  502  0.11576608257E+04 -0.76272914910E+03 -0.93362806883E+03  0.16714053109E+04  0.25500000920E-02 0.  1.
</event>
<event>
 5   0  0.7610412E-07  0.3379148E+04  0.7818609E-02  0.8143043E-01
        2   -1    0    0  501    0  0.00000000000E+00  0.00000000000E+00  0.17531087013E+04  0.17531087013E+04  0.25500000920E-02 0.  1.
       -2   -1    0    0    0  501  0.00000000000E+00  0.00000000000E+00 -0.16283421479E+04  0.16283421479E+04  0.25500000920E-02 0. -1.
    10030    2    1    2    0    0  0.00000000000E+00  0.00000000000E+00  0.12476655335E+03  0.33814508492E+04  0.33791482881E+04 0.  0.
        4    1    3    3  502    0 -0.11049183433E+04  0.89704105675E+03  0.97357058073E+03  0.17243458155E+04  0.12699999809E+01 0.  1.
       -4    1    3    3    0  502  0.11049183433E+04 -0.89704105675E+03 -0.84880402739E+03  0.16571050337E+04  0.12699999809E+01 0. -1.
</event>
<event>
 5   0  0.7838333E-07  0.3362422E+04  0.7818609E-02  0.8147191E-01
        2   -1    0    0  501    0  0.00000000000E+00  0.00000000000E+00  0.17953209384E+04  0.17953209384E+04  0.25500000920E-02 0.  1.
       -2   -1    0    0    0  501  0.00000000000E+00  0.00000000000E+00 -0.15743534933E+04  0.15743534933E+04  0.25500000920E-02 0. -1.
    10030    2    1    2    0    0  0.00000000000E+00  0.00000000000E+00  0.22096744509E+03  0.33696744317E+04  0.33624216219E+04 0.  0.
        1    1    3    3  502    0 -0.11625644429E+04 -0.79612804944E+02 -0.11039782299E+04  0.16051984970E+04  0.50400001928E-02 0. -1.
       -1    1    3    3    0  502  0.11625644429E+04  0.79612804944E+02  0.13249456750E+04  0.17644759347E+04  0.50400001928E-02 0.  1.
</event>
<event>
 5   0  0.2641442E-07  0.3404560E+04  0.7818609E-02  0.8136788E-01
        1   -1    0    0  501    0  0.00000000000E+00  0.00000000000E+00  0.21220423588E+04  0.21220423588E+04  0.50400001928E-02 0. -1.
       -1   -1    0    0    0  501  0.00000000000E+00  0.00000000000E+00 -0.13655513389E+04  0.13655513389E+04  0.50400001928E-02 0.  1.
    10030    2    1    2    0    0  0.00000000000E+00  0.00000000000E+00  0.75649101993E+03  0.34875936977E+04  0.34045603442E+04 0.  0.
        1    1    3    3  502    0 -0.11869002940E+04  0.11096137666E+04 -0.14186039804E+03  0.16309811132E+04  0.50400001928E-02 0.  1.
       -1    1    3    3    0  502  0.11869002940E+04 -0.11096137666E+04  0.89835141796E+03  0.18566125846E+04  0.50400001928E-02 0. -1.
</event>
<event>
 5   0  0.2553250E-07  0.3389966E+04  0.7818609E-02  0.8140373E-01
       -1   -1    0    0    0  501  0.00000000000E+00  0.00000000000E+00  0.13309568373E+04  0.13309568373E+04  0.50400001928E-02 0. -1.
        1   -1    0    0  501    0  0.00000000000E+00  0.00000000000E+00 -0.21585728337E+04  0.21585728337E+04  0.50400001928E-02 0.  1.
    10030    2    1    2    0    0  0.00000000000E+00  0.00000000000E+00 -0.82761599641E+03  0.34895296709E+04  0.33899659418E+04 0.  0.
        5    1    3    3  502    0 -0.27588693228E+03 -0.13821892576E+04 -0.13829393020E+04  0.19746148856E+04  0.46999998093E+01 0.  1.
       -5    1    3    3    0  502  0.27588693228E+03  0.13821892576E+04  0.55532330561E+03  0.15149147854E+04  0.46999998093E+01 0. -1.
</event>
<event>
 5   0  0.7822003E-07  0.3396433E+04  0.7818609E-02  0.8138782E-01
        2   -1    0    0  501    0  0.00000000000E+00  0.00000000000E+00  0.20244487842E+04  0.20244487842E+04  0.25500000920E-02 0. -1.
       -2   -1    0    0    0  501  0.00000000000E+00  0.00000000000E+00 -0.14245552980E+04  0.14245552980E+04  0.25500000920E-02 0.  1.
    10030    2    1    2    0    0  0.00000000000E+00  0.00000000000E+00  0.59989348617E+03  0.34490040822E+04  0.33964329766E+04 0.  0.
        5    1    3    3  502    0 -0.82608997463E+03 -0.78493196227E+03 -0.97865875928E+03  0.15021111439E+04  0.46999998093E+01 0.  1.
       -5    1    3    3    0  502  0.82608997463E+03  0.78493196227E+03  0.15785522455E+04  0.19468929383E+04  0.46999998093E+01 0. -1.
</event>
<event>
 5   0  0.7822003E-07  0.3405808E+04  0.7818609E-02  0.8136482E-01
       -2   -1    0    0    0  501  0.00000000000E+00  0.00000000000E+00  0.13419962964E+04  0.13419962964E+04  0.25500000920E-02 0. -1.
        2   -1    0    0  501    0  0.00000000000E+00  0.00000000000E+00 -0.21608713186E+04  0.21608713186E+04  0.25500000920E-02 0.  1.
    10030    2    1    2    0    0  0.00000000000E+00  0.00000000000E+00 -0.81887502223E+03  0.35028676150E+04  0.34058075733E+04 0.  0.
        5    1    3    3  502    0  0.97867014693E+03 -0.13839185031E+04 -0.57791527012E+03  0.17908193178E+04  0.46999998093E+01 0.  1.
       -5    1    3    3    0  502 -0.97867014693E+03  0.13839185031E+04 -0.24095975212E+03  0.17120482972E+04  0.46999998093E+01 0. -1.
</event>
<event>
 5   0  0.7822003E-07  0.3399638E+04  0.7818609E-02  0.8137995E-01
       -2   -1    0    0    0  501  0.00000000000E+00  0.00000000000E+00  0.13094612282E+04  0.13094612282E+04  0.25500000920E-02 0.  1.
        2   -1    0    0  501    0  0.00000000000E+00  0.00000000000E+00 -0.22065444735E+04  0.22065444735E+04  0.25500000920E-02 0. -1.
    10030    2    1    2    0    0  0.00000000000E+00  0.00000000000E+00 -0.89708324535E+03  0.35160057017E+04  0.33996378844E+04 0.  0.
        5    1    3    3  502    0 -0.17966700226E+03  0.13788450733E+04 -0.14596924879E+04  0.20159906292E+04  0.46999998093E+01 0. -1.
       -5    1    3    3    0  502  0.17966700226E+03 -0.13788450733E+04  0.56260924251E+03  0.15000150725E+04  0.46999998093E+01 0.  1.
</event>
<event>
 5   0  0.7610412E-07  0.3388283E+04  0.7818609E-02  0.8140788E-01
       -2   -1    0    0    0  501  0.00000000000E+00  0.00000000000E+00  0.28361849612E+04  0.28361849612E+04  0.25500000920E-02 0.  1.
        2   -1    0    0  501    0  0.00000000000E+00  0.00000000000E+00 -0.10119635689E+04  0.10119635689E+04  0.25500000920E-02 0. -1.
    10030    2    1    2    0    0  0.00000000000E+00  0.00000000000E+00  0.18242213923E+04  0.38481485301E+04  0.33882832559E+04 0.  0.
        4    1    3    3  502    0  0.21755238055E+03 -0.14972516648E+04  0.46408237962E+02  0.15136865341E+04  0.12699999809E+01 0. -1.
       -4    1    3    3    0  502 -0.21755238055E+03  0.14972516648E+04  0.17778131543E+04  0.23344619960E+04  0.12699999809E+01 0.  1.
</event>
<event>
 5   0  0.7610412E-07  0.3397582E+04  0.7818609E-02  0.8138500E-01
       -2   -1    0    0    0  501  0.00000000000E+00  0.00000000000E+00  0.19090112407E+04  0.19090112407E+04  0.25500000920E-02 0.  1.
        2   -1    0    0  501    0  0.00000000000E+00  0.00000000000E+00 -0.15117204564E+04  0.15117204564E+04  0.25500000920E-02 0. -1.
    10030    2    1    2    0    0  0.00000000000E+00  0.00000000000E+00  0.39729078425E+03  0.34207316971E+04  0.33975822840E+04 0.  0.
        4    1    3    3  502    0  0.16428154380E+04  0.26110284096E+03 -0.14848263483E+03  0.16700496886E+04  0.12699999809E+01 0. -1.
       -4    1    3    3    0  502 -0.16428154380E+04 -0.26110284096E+03  0.54577341908E+03  0.17506820084E+04  0.12699999809E+01 0.  1.
</event>
<event>
 5   0  0.2553250E-07  0.3396452E+04  0.7818609E-02  0.8138778E-01
        1   -1    0    0  501    0  0.00000000000E+00  0.00000000000E+00  0.23604306552E+04  0.23604306552E+04  0.50400001928E-02 0. -1.
       -1   -1    0    0    0  501  0.00000000000E+00  0.00000000000E+00 -0.12217986017E+04  0.12217986017E+04  0.50400001928E-02 0.  1.
    10030    2    1    2    0    0  0.00000000000E+00  0.00000000000E+00  0.11386320536E+04  0.35822292569E+04  0.33964516036E+04 0.  0.
        5    1    3    3  502    0 -0.54427821812E+03  0.39836120345E+03 -0.10744626571E+04  0.12686301741E+04  0.46999998093E+01 0.  1.
       -5    1    3    3    0  502  0.54427821812E+03 -0.39836120345E+03  0.22130947107E+04  0.23135990828E+04  0.46999998093E+01 0. -1.
</event>
<event>
 5   0  0.8489228E-07  0.3398569E+04  0.7818609E-02  0.8138258E-01
       -2   -1    0    0    0  501  0.00000000000E+00  0.00000000000E+00  0.14398190768E+04  0.14398190768E+04  0.25500000920E-02 0. -1.
        2   -1    0    0  501    0  0.00000000000E+00  0.00000000000E+00 -0.20055075411E+04  0.20055075411E+04  0.25500000920E-02 0.  1.
    10030    2    1    2    0    0  0.00000000000E+00  0.00000000000E+00 -0.56568846431E+03  0.34453266179E+04  0.33985691203E+04 0.  0.
        3    1    3    3  502    0 -0.61318044063E+03 -0.79843926652E+03 -0.16706461563E+04  0.19505266225E+04  0.10100000352E+00 0.  1.
       -3    1    3    3    0  502  0.61318044063E+03  0.79843926652E+03  0.11049576920E+04  0.14947999955E+04  0.10100000352E+00 0. -1.
</event>
<event>
 5   0  0.7899402E-07  0.3380014E+04  0.7818609E-02  0.8142829E-01
        2   -1    0    0  501    0  0.00000000000E+00  0.00000000000E+00  0.15707785359E+04  0.15707785359E+04  0.25500000920E-02 0. -1.
       -2   -1    0    0    0  501  0.00000000000E+00  0.00000000000E+00 -0.18182858422E+04  0.18182858422E+04  0.25500000920E-02 0.  1.
    10030    2    1    2    0    0  0.00000000000E+00  0.00000000000E+00 -0.24750730637E+03  0.33890643781E+04  0.33800144219E+04 0.  0.
        2    1    3    3  502    0 -0.10039846341E+04 -0.13438202868E+04 -0.32994048514E+03  0.17095902528E+04  0.25500000920E-02 0.  1.
       -2    1    3    3    0  502  0.10039846341E+04  0.13438202868E+04  0.82433178771E+02  0.16794741253E+04  0.25500000920E-02 0. -1.
</event>
<event>
 5   0  0.2622205E-07  0.3402160E+04  0.7818609E-02  0.8137376E-01
        1   -1    0    0  501    0  0.00000000000E+00  0.00000000000E+00  0.10875325845E+04  0.10875325845E+04  0.50400001928E-02 0. -1.
       -1   -1    0    0    0  501  0.00000000000E+00  0.00000000000E+00 -0.26607691089E+04  0.26607691089E+04  0.50400001928E-02 0.  1.
    10030    2    1    2    0    0  0.00000000000E+00  0.00000000000E+00 -0.15732365244E+04  0.37483016934E+04  0.34021599643E+04 0.  0.
        3    1    3    3  502    0 -0.12324733390E+04  0.10070674123E+04 -0.12511633534E+03  0.15965053748E+04  0.10100000352E+00 0. -1.
       -3    1    3    3    0  502  0.12324733390E+04 -0.10070674123E+04 -0.14481201891E+04  0.21517963186E+04  0.10100000352E+00 0.  1.
</event>
<event>
 5   0  0.7822003E-07  0.3409382E+04  0.7818609E-02  0.8135607E-01
        2   -1    0    0  501    0  0.00000000000E+00  0.00000000000E+00  0.11663936114E+04  0.11663936114E+04  0.25500000920E-02 0.  1.
       -2   -1    0    0    0  501  0.00000000000E+00  0.00000000000E+00 -0.24914162305E+04  0.24914162305E+04  0.25500000920E-02 0. -1.
    10030    2    1    2    0    0  0.00000000000E+00  0.00000000000E+00 -0.13250226191E+04  0.36578098419E+04  0.34093823339E+04 0.  0.
        5    1    3    3  502    0 -0.62122829763E+03 -0.30053378356E+02  0.10403137193E+04  0.12120653976E+04  0.46999998093E+01 0.  1.
       -5    1    3    3    0  502  0.62122829763E+03  0.30053378356E+02 -0.23653363384E+04  0.24457444444E+04  0.46999998093E+01 0. -1.
</event>
<event>
 5   0  0.7899402E-07  0.3383881E+04  0.7818609E-02  0.8141874E-01
       -2   -1    0    0    0  501  0.00000000000E+00  0.00000000000E+00  0.10912629925E+04  0.10912629925E+04  0.25500000920E-02 0.  1.
        2   -1    0    0  501    0  0.00000000000E+00  0.00000000000E+00 -0.26232569314E+04  0.26232569314E+04  0.25500000920E-02 0. -1.
    10030    2    1    2    0    0  0.00000000000E+00  0.00000000000E+00 -0.15319939388E+04  0.37145199239E+04  0.33838813272E+04 0.  0.
        2    1    3    3  502    0  0.99857602403E+03 -0.67420807329E+03 -0.20698954566E+04  0.23950319002E+04  0.25500000920E-02 0. -1.
       -2    1    3    3    0  502 -0.99857602403E+03  0.67420807329E+03  0.53790151774E+03  0.13194880237E+04  0.25500000920E-02 0.  1.
</event>
<event>
 5   0  0.2641442E-07  0.3374063E+04  0.7818609E-02  0.8144301E-01
       -1   -1    0    0    0  501  0.00000000000E+00  0.00000000000E+00  0.10157417750E+04  0.10157417751E+04  0.50400001928E-02 0. -1.
        1   -1    0    0  501    0  0.00000000000E+00  0.00000000000E+00 -0.28019679683E+04  0.28019679683E+04  0.50400001928E-02 0.  1.
    10030    2    1    2    0    0  0.00000000000E+00  0.00000000000E+00 -0.17862261933E+04  0.38177097434E+04  0.33740633769E+04 0.  0.
        1    1    3    3  502    0  0.53345066441E+03 -0.44433961078E+03  0.84660831779E+03  0.10948757669E+04  0.50400001928E-02 0. -1.
       -1    1    3    3    0  502 -0.53345066441E+03  0.44433961078E+03 -0.26328345111E+04  0.27228339765E+04  0.50400001928E-02 0.  1.
</event>
<event>
 5   0  0.7822003E-07  0.3336560E+04  0.7818609E-02  0.8153654E-01
        2   -1    0    0  501    0  0.00000000000E+00  0.00000000000E+00  0.16935308212E+04  0.16935308212E+04  0.25500000920E-02 0.  1.
       -2   -1    0    0    0  501  0.00000000000E+00  0.00000000000E+00 -0.16434058915E+04  0.16434058915E+04  0.25500000920E-02 0. -1.
    10030    2    1    2    0    0  0.00000000000E+00  0.00000000000E+00  0.50124929724E+02  0.33369367128E+04  0.33365602222E+04 0.  0.
        5    1    3    3  502    0  0.16449266813E+03 -0.10466392157E+04 -0.12637353228E+04  0.16491090145E+04  0.46999998093E+01 0. -1.
       -5    1    3    3    0  502 -0.16449266813E+03  0.10466392157E+04  0.13138602526E+04  0.16878276982E+04  0.46999998093E+01 0.  1.
</event>
<event>
 5   0  0.7822003E-07  0.3392479E+04  0.7818609E-02  0.8139755E-01
       -2   -1    0    0    0  501  0.00000000000E+00  0.00000000000E+00  0.14655296555E+04  0.14655296555E+04  0.25500000920E-02 0. -1.
        2   -1    0    0  501    0  0.00000000000E+00  0.00000000000E+00 -0.19632684273E+04  0.19632684273E+04  0.25500000920E-02 0.  1.
    10030    2    1    2    0    0  0.00000000000E+00  0.00000000000E+00 -0.49773877178E+03  0.34287980828E+04  0.33924787999E+04 0.  0.
        5    1    3    3  502    0  0.67327879084E+03 -0.13393239748E+04 -0.10511641885E+04  0.18308635342E+04  0.46999998093E+01 0.  1.
       -5    1    3    3    0  502 -0.67327879084E+03  0.13393239748E+04  0.55342541676E+03  0.15979345486E+04  0.46999998093E+01 0. -1.
</event>
<event>
 5   0  0.8489228E-07  0.3478743E+04  0.7818609E-02  0.8118846E-01
       -2   -1    0    0    0  501  0.00000000000E+00  0.00000000000E+00  0.17100556380E+04  0.17100556380E+04  0.25500000920E-02 0. -1.
        2   -1    0    0  501    0  0.00000000000E+00  0.00000000000E+00 -0.17691903499E+04  0.17691903499E+04  0.25500000920E-02 0.  1.
    10030    2    1    2    0    0  0.00000000000E+00  0.00000000000E+00 -0.59134711868E+02  0.34792459879E+04  0.34787434125E+04 0.  0.
        3    1    3    3  502    0  0.56886590310E+03  0.88252865369E+02  0.16120158451E+04  0.17117219631E+04  0.10100000352E+00 0. -1.
       -3    1    3    3    0  502 -0.56886590310E+03 -0.88252865369E+02 -0.16711505569E+04  0.17675240248E+04  0.10100000352E+00 0.  1.
</event>
<event>
 5   0  0.2599367E-07  0.3408282E+04  0.7818609E-02  0.8135877E-01
        1   -1    0    0  501    0  0.00000000000E+00  0.00000000000E+00  0.16585906152E+04  0.16585906152E+04  0.50400001928E-02 0.  1.
       -1   -1    0    0    0  501  0.00000000000E+00  0.00000000000E+00 -0.17509422517E+04  0.17509422517E+04  0.50400001928E-02 0. -1.
    10030    2    1    2    0    0  0.00000000000E+00  0.00000000000E+00 -0.92351636567E+02  0.34095328669E+04  0.34082819053E+04 0.  0.
        2    1    3    3  502    0  0.16652110480E+04  0.35424637220E+03 -0.12155637794E+03  0.17068082141E+04  0.25500000920E-02 0.  1.
       -2    1    3    3    0  502 -0.16652110480E+04 -0.35424637220E+03  0.29204741372E+02  0.17027246529E+04  0.25500000920E-02 0. -1.
</event>
<event>
 5   0  0.2553250E-07  0.3418867E+04  0.7818609E-02  0.8133291E-01
        1   -1    0    0  501    0  0.00000000000E+00  0.00000000000E+00  0.17422285370E+04  0.17422285370E+04  0.50400001928E-02 0. -1.
       -1   -1    0    0    0  501  0.00000000000E+00  0.00000000000E+00 -0.16772557040E+04  0.16772557040E+04  0.50400001928E-02 0.  1.
    10030    2    1    2    0    0  0.00000000000E+00  0.00000000000E+00  0.64972832992E+02  0.34194842411E+04  0.34188669184E+04 0.  0.
        5    1    3    3  502    0 -0.75114810911E+03 -0.49994243124E+03  0.14846351900E+04  0.17373340651E+04  0.46999998093E+01 0. -1.
       -5    1    3    3    0  502  0.75114810911E+03  0.49994243124E+03 -0.14196623570E+04  0.16821501759E+04  0.46999998093E+01 0.  1.
</event>
<event>
 5   0  0.7899402E-07  0.3397952E+04  0.7818609E-02  0.8138409E-01
        2   -1    0    0  501    0  0.00000000000E+00  0.00000000000E+00  0.10016882722E+04  0.10016882722E+04  0.25500000920E-02 0.  1.
       -2   -1    0    0    0  501  0.00000000000E+00  0.00000000000E+00 -0.28816546355E+04  0.28816546355E+04  0.25500000920E-02 0. -1.
    10030    2    1    2    0    0  0.00000000000E+00  0.00000000000E+00 -0.18799663632E+04  0.38833429077E+04  0.33979521203E+04 0.  0.
        2    1    3    3  502    0 -0.12966981976E+04  0.49202666076E+03  0.18152475686E+03  0.13987378910E+04  0.25500000920E-02 0.  1.
       -2    1    3    3    0  502  0.12966981976E+04 -0.49202666076E+03 -0.20614911201E+04  0.24846050166E+04  0.25500000920E-02 0. -1.
</event>
<event>
 5   0  0.7838333E-07  0.3167575E+04  0.7818609E-02  0.8197433E-01
        2   -1    0    0  501    0  0.00000000000E+00  0.00000000000E+00  0.17297045313E+04  0.17297045313E+04  0.25500000920E-02 0. -1.
       -2   -1    0    0    0  501  0.00000000000E+00  0.00000000000E+00 -0.14501802173E+04  0.14501802173E+04  0.25500000920E-02 0.  1.
    10030    2    1    2    0    0  0.00000000000E+00  0.00000000000E+00  0.27952431400E+03  0.31798847486E+04  0.31675752828E+04 0.  0.
        1    1    3    3  502    0  0.15623199545E+04  0.21004939169E+03 -0.13864908368E+02  0.15764379540E+04  0.50400001928E-02 0. -1.
       -1    1    3    3    0  502 -0.15623199545E+04 -0.21004939169E+03  0.29338922237E+03  0.16034467946E+04  0.50400001928E-02 0.  1.
</event>
<event>
 5   0  0.2592200E-07  0.3390217E+04  0.7818609E-02  0.8140312E-01
       -1   -1    0    0    0  501  0.00000000000E+00  0.00000000000E+00  0.10877425520E+04  0.10877425520E+04  0.50400001928E-02 0.  1.
        1   -1    0    0  501    0  0.00000000000E+00  0.00000000000E+00 -0.26416110253E+04  0.26416110253E+04  0.50400001928E-02 0. -1.
    10030    2    1    2    0    0  0.00000000000E+00  0.00000000000E+00 -0.15538684733E+04  0.37293535773E+04  0.33902169359E+04 0.  0.
        4    1    3    3  502    0  0.13397779078E+04 -0.10307298267E+04 -0.91600170193E+03  0.19226204900E+04  0.12699999809E+01 0. -1.
       -4    1    3    3    0  502 -0.13397779078E+04  0.10307298267E+04 -0.63786677132E+03  0.18067330873E+04  0.12699999809E+01 0.  1.
</event>
<event>
 5   0  0.2622205E-07  0.3391302E+04  0.7818609E-02  0.8140044E-01
       -1   -1    0    0    0  501  0.00000000000E+00  0.00000000000E+00  0.27234263326E+04  0.27234263326E+04  0.50400001928E-02 0.  1.
        1   -1    0    0  501    0  0.00000000000E+00  0.00000000000E+00 -0.10557407387E+04  0.10557407387E+04  0.50400001928E-02 0. -1.
    10030    2    1    2    0    0  0.00000000000E+00  0.00000000000E+00  0.16676855939E+04  0.37791670714E+04  0.33913018906E+04 0.  0.
        3    1    3    3  502    0  0.58761078480E+03 -0.96100308368E+03  0.22462470708E+04  0.25128548057E+04  0.10100000352E+00 0.  1.
       -3    1    3    3    0  502 -0.58761078480E+03  0.96100308368E+03 -0.57856147696E+03  0.12663122656E+04  0.10100000352E+00 0. -1.
</event>
<event>
 5   0  0.7899402E-07  0.3399770E+04  0.7818609E-02  0.8137963E-01
       -2   -1    0    0    0  501  0.00000000000E+00  0.00000000000E+00  0.11535051141E+04  0.11535051141E+04  0.25500000920E-02 0.  1.
        2   -1    0    0  501    0  0.00000000000E+00  0.00000000000E+00 -0.25050680797E+04  0.25050680797E+04  0.25500000920E-02 0. -1.
    10030    2    1    2    0    0  0.00000000000E+00  0.00000000000E+00 -0.13515629656E+04  0.36585731939E+04  0.33997698988E+04 0.  0.
        2    1    3    3  502    0  0.12635291427E+04 -0.80209968604E+03 -0.15432060238E+04  0.21497336190E+04  0.25500000920E-02 0.  1.
       -2    1    3    3    0  502 -0.12635291427E+04  0.80209968604E+03  0.19164305822E+03  0.15088395748E+04  0.25500000920E-02 0. -1.
</event>
<event>
 5   0  0.2641442E-07  0.3404675E+04  0.7818609E-02  0.8136760E-01
       -1   -1    0    0    0  501  0.00000000000E+00  0.00000000000E+00  0.29176162164E+04  0.29176162165E+04  0.50400001928E-02 0. -1.
        1   -1    0    0  501    0  0.00000000000E+00  0.00000000000E+00 -0.99326022082E+03  0.99326022083E+03  0.50400001928E-02 0.  1.
    10030    2    1    2    0    0  0.00000000000E+00  0.00000000000E+00  0.19243559956E+04  0.39108764373E+04  0.34046745086E+04 0.  0.
        1    1    3    3  502    0  0.14242901612E+04  0.90082587089E+03  0.12384881051E+04  0.20913972601E+04  0.50400001928E-02 0. -1.
       -1    1    3    3    0  502 -0.14242901612E+04 -0.90082587089E+03  0.68586789055E+03  0.18194791772E+04  0.50400001928E-02 0.  1.
</event>
<event>
 5   0  0.2641442E-07  0.3395747E+04  0.7818609E-02  0.8138951E-01
       -1   -1    0    0    0  501  0.00000000000E+00  0.00000000000E+00  0.12274831797E+04  0.12274831797E+04  0.50400001928E-02 0. -1.
        1   -1    0    0  501    0  0.00000000000E+00  0.00000000000E+00 -0.23485247993E+04  0.23485247993E+04  0.50400001928E-02 0.  1.
    10030    2    1    2    0    0  0.00000000000E+00  0.00000000000E+00 -0.11210416196E+04  0.35760079790E+04  0.33957471568E+04 0.  0.
        1    1    3    3  502    0 -0.30889906794E+03  0.15838372814E+04 -0.11165807465E+04  0.19623230446E+04  0.50400001928E-02 0.  1.
       -1    1    3    3    0  502  0.30889906794E+03 -0.15838372814E+04 -0.44608731278E+01  0.16136849344E+04  0.50400001928E-02 0. -1.
</event>
<event>
 5   0  0.2599367E-07  0.3394335E+04  0.7818609E-02  0.8139298E-01
        1   -1    0    0  501    0  0.00000000000E+00  0.00000000000E+00  0.21504503741E+04  0.21504503741E+04  0.50400001928E-02 0.  1.
       -1   -1    0    0    0  501  0.00000000000E+00  0.00000000000E+00 -0.13394296231E+04  0.13394296231E+04  0.50400001928E-02 0. -1.
    10030    2    1    2    0    0  0.00000000000E+00  0.00000000000E+00  0.81102075097E+03  0.34898799972E+04  0.33943346530E+04 0.  0.
        2    1    3    3  502    0 -0.54952770220E+03 -0.61487760922E+03  0.19306125243E+04  0.20993617813E+04  0.25500000920E-02 0.  1.
       -2    1    3    3    0  502  0.54952770220E+03  0.61487760922E+03 -0.11195917733E+04  0.13905182159E+04  0.25500000920E-02 0. -1.
</event>
<event>
 5   0  0.7610412E-07  0.3398929E+04  0.7818609E-02  0.8138169E-01
        2   -1    0    0  501    0  0.00000000000E+00  0.00000000000E+00  0.13458925731E+04  0.13458925731E+04  0.25500000920E-02 0.  1.
       -2   -1    0    0    0  501  0.00000000000E+00  0.00000000000E+00 -0.21459207572E+04  0.21459207572E+04  0.25500000920E-02 0. -1.
    10030    2    1    2    0    0  0.00000000000E+00  0.00000000000E+00 -0.80002818406E+03  0.34918133303E+04  0.33989285427E+04 0.  0.
        4    1    3    3  502    0 -0.11438913208E+03  0.14802165306E+04 -0.12496900604E+04  0.19405805087E+04  0.12699999809E+01 0. -1.
       -4    1    3    3    0  502  0.11438913208E+03 -0.14802165306E+04  0.44966187630E+03  0.15512328216E+04  0.12699999809E+01 0.  1.
</event>
<event>
 5   0  0.7822003E-07  0.3406750E+04  0.7818609E-02  0.8136252E-01
        2   -1    0    0  501    0  0.00000000000E+00  0.00000000000E+00  0.19111409754E+04  0.19111409754E+04  0.25500000920E-02 0.  1.
       -2   -1    0    0    0  501  0.00000000000E+00  0.00000000000E+00 -0.15181962619E+04  0.15181962619E+04  0.25500000920E-02 0. -1.
    10030    2    1    2    0    0  0.00000000000E+00  0.00000000000E+00  0.39294471351E+03  0.34293372372E+04  0.34067504075E+04 0.  0.
        5    1    3    3  502    0  0.20685121462E+03  0.12535956432E+04  0.13385319513E+04  0.18455295545E+04  0.46999998093E+01 0.  1.
       -5    1    3    3    0  502 -0.20685121462E+03 -0.12535956432E+04 -0.94558723782E+03  0.15838076828E+04  0.46999998093E+01 0. -1.
</event>
<event>
 5   0  0.7610412E-07  0.3391151E+04  0.7818609E-02  0.8140082E-01
        2   -1    0    0  501    0  0.00000000000E+00  0.00000000000E+00  0.25659262424E+04  0.25659262424E+04  0.25500000920E-02 0.  1.
       -2   -1    0    0    0  501  0.00000000000E+00  0.00000000000E+00 -0.11204437082E+04  0.11204437082E+04  0.25500000920E-02 0. -1.
    10030    2    1    2    0    0  0.00000000000E+00  0.00000000000E+00  0.14454825342E+04  0.36863699507E+04  0.33911507865E+04 0.  0.
        4    1    3    3  502    0 -0.16580527953E+04 -0.19997140007E+03  0.10412442758E+04  0.19680749192E+04  0.12699999809E+01 0.  1.
       -4    1    3    3    0  502  0.16580527953E+04  0.19997140007E+03  0.40423825835E+03  0.17182950315E+04  0.12699999809E+01 0. -1.
</event>
<event>
 5   0  0.7838333E-07  0.3406492E+04  0.7818609E-02  0.8136315E-01
        2   -1    0    0  501    0  0.00000000000E+00  0.00000000000E+00  0.16762482175E+04  0.16762482175E+04  0.25500000920E-02 0. -1.
       -2   -1    0    0    0  501  0.00000000000E+00  0.00000000000E+00 -0.17306785366E+04  0.17306785366E+04  0.25500000920E-02 0.  1.
    10030    2    1    2    0    0  0.00000000000E+00  0.00000000000E+00 -0.54430319111E+02  0.34069267540E+04  0.34064919269E+04 0.  0.
        1    1    3    3  502    0 -0.66627677621E+03 -0.15660807805E+04  0.39972715084E+02  0.17023899587E+04  0.50400001928E-02 0. -1.
       -1    1    3    3    0  502  0.66627677621E+03  0.15660807805E+04 -0.94403034195E+02  0.17045367953E+04  0.50400001928E-02 0.  1.
</event>
<event>
 5   0  0.7822003E-07  0.3439407E+04  0.7818609E-02  0.8128302E-01
        2   -1    0    0  501    0  0.00000000000E+00  0.00000000000E+00  0.27618438628E+04  0.27618438628E+04  0.25500000920E-02 0.  1.
       -2   -1    0    0    0  501  0.00000000000E+00  0.00000000000E+00 -0.10707992085E+04  0.10707992085E+04  0.25500000920E-02 0. -1.
    10030    2    1    2    0    0  0.00000000000E+00  0.00000000000E+00  0.16910446544E+04  0.38326430713E+04  0.34394070548E+04 0.  0.
        5    1    3    3  502    0  0.16970941087E+04  0.49962600543E+02  0.11501520915E+04  0.20507307475E+04  0.46999998093E+01 0.  1.
       -5    1    3    3    0  502 -0.16970941087E+04 -0.49962600543E+02  0.54089256285E+03  0.17819123238E+04  0.46999998093E+01 0. -1.
</event>
<event>
 5   0  0.8489228E-07  0.3395926E+04  0.7818609E-02  0.8138907E-01
       -2   -1    0    0    0  501  0.00000000000E+00  0.00000000000E+00  0.14101540028E+04  0.14101540028E+04  0.25500000920E-02 0. -1.
        2   -1    0    0  501    0  0.00000000000E+00  0.00000000000E+00 -0.20445132889E+04  0.20445132889E+04  0.25500000920E-02 0.  1.
    10030    2    1    2    0    0  0.00000000000E+00  0.00000000000E+00 -0.63435928604E+03  0.34546672917E+04  0.33959261465E+04 0.  0.
        3    1    3    3  502    0  0.11303902639E+04 -0.18365399801E+03 -0.15924860202E+04  0.19615103044E+04  0.10100000352E+00 0.  1.
       -3    1    3    3    0  502 -0.11303902639E+04  0.18365399801E+03  0.95812673415E+03  0.14931569873E+04  0.10100000352E+00 0. -1.
</event>
<event>
 5   0  0.7610412E-07  0.3420565E+04  0.7818609E-02  0.8132877E-01
        2   -1    0    0  501    0  0.00000000000E+00  0.00000000000E+00  0.20380214641E+04  0.20380214641E+04  0.25500000920E-02 0. -1.
       -2   -1    0    0    0  501  0.00000000000E+00  0.00000000000E+00 -0.14352480088E+04  0.14352480088E+04  0.25500000920E-02 0.  1.
    10030    2    1    2    0    0  0.00000000000E+00  0.00000000000E+00  0.60277345524E+03  0.34732694729E+04  0.34205650108E+04 0.  0.
        4    1    3    3  502    0 -0.29851698445E+03 -0.49311011461E+03  0.19364128366E+04  0.20203876513E+04  0.12699999809E+01 0. -1.
       -4    1    3    3    0  502  0.29851698445E+03  0.49311011461E+03 -0.13336393813E+04  0.14528818216E+04  0.12699999809E+01 0.  1.
</event>
<event>
 5   0  0.2622205E-07  0.3348597E+04  0.7818609E-02  0.8150639E-01
        1   -1    0    0  501    0  0.00000000000E+00  0.00000000000E+00  0.27193323108E+04  0.27193323109E+04  0.50400001928E-02 0. -1.
       -1   -1    0    0    0  501  0.00000000000E+00  0.00000000000E+00 -0.10308690357E+04  0.10308690357E+04  0.50400001928E-02 0.  1.
    10030    2    1    2    0    0  0.00000000000E+00  0.00000000000E+00  0.16884632751E+04  0.37502013466E+04  0.33485970060E+04 0.  0.
        3    1    3    3  502    0 -0.29443327230E+03  0.93761175864E+03  0.23623361683E+04  0.25586009739E+04  0.10100000352E+00 0. -1.
       -3    1    3    3    0  502  0.29443327230E+03 -0.93761175864E+03 -0.67387289312E+03  0.11916003726E+04  0.10100000352E+00 0.  1.
</event>
<event>
 5   0  0.2599367E-07  0.3406860E+04  0.7818609E-02  0.8136225E-01
        1   -1    0    0  501    0  0.00000000000E+00  0.00000000000E+00  0.18063101625E+04  0.18063101625E+04  0.50400001928E-02 0.  1.
       -1   -1    0    0    0  501  0.00000000000E+00  0.00000000000E+00 -0.16064093323E+04  0.16064093323E+04  0.50400001928E-02 0. -1.
    10030    2    1    2    0    0  0.00000000000E+00  0.00000000000E+00  0.19990083017E+03  0.34127194948E+04  0.34068598457E+04 0.  0.
        2    1    3    3  502    0  0.41576209405E+03 -0.15940283431E+04  0.53415762613E+03  0.17317935348E+04  0.25500000920E-02 0. -1.
       -2    1    3    3    0  502 -0.41576209405E+03  0.15940283431E+04 -0.33425679595E+03  0.16809259600E+04  0.25500000920E-02 0.  1.
</event>
<event>
 5   0  0.2553250E-07  0.3237415E+04  0.7818609E-02  0.8179005E-01
        1   -1    0    0  501    0  0.00000000000E+00  0.00000000000E+00  0.21273176967E+04  0.21273176967E+04  0.50400001928E-02 0.  1.
       -1   -1    0    0    0  501  0.00000000000E+00  0.00000000000E+00 -0.12316986851E+04  0.12316986851E+04  0.50400001928E-02 0. -1.
    10030    2    1    2    0    0  0.00000000000E+00  0.00000000000E+00  0.89561901158E+03  0.33590163818E+04  0.32374152713E+04 0.  0.
        5    1    3    3  502    0 -0.12938690555E+04 -0.96725273418E+03  0.55421561700E+03  0.17078793940E+04  0.46999998093E+01 0.  1.
       -5    1    3    3    0  502  0.12938690555E+04  0.96725273418E+03  0.34140339458E+03  0.16511369877E+04  0.46999998093E+01 0. -1.
</event>
<event>
 5   0  0.7610412E-07  0.3422753E+04  0.7818609E-02  0.8132344E-01
       -2   -1    0    0    0  501  0.00000000000E+00  0.00000000000E+00  0.17948285318E+04  0.17948285318E+04  0.25500000920E-02 0.  1.
        2   -1    0    0  501    0  0.00000000000E+00  0.00000000000E+00 -0.16318047490E+04  0.16318047490E+04  0.25500000920E-02 0. -1.
    10030    2    1    2    0    0  0.00000000000E+00  0.00000000000E+00  0.16302378281E+03  0.34266332808E+04  0.34227531151E+04 0.  0.
        4    1    3    3  502    0 -0.50152418496E+03 -0.13792740851E+04 -0.79976132014E+03  0.16713896290E+04  0.12699999809E+01 0.  1.
       -4    1    3    3    0  502  0.50152418496E+03  0.13792740851E+04  0.96278510294E+03  0.17552436518E+04  0.12699999809E+01 0. -1.
</event>
<event>
 5   0  0.2641442E-07  0.3393915E+04  0.7818609E-02  0.8139401E-01
        1   -1    0    0  501    0  0.00000000000E+00  0.00000000000E+00  0.21849742331E+04  0.21849742332E+04  0.50400001928E-02 0. -1.
       -1   -1    0    0    0  501  0.00000000000E+00  0.00000000000E+00 -0.13179396869E+04  0.13179396869E+04  0.50400001928E-02 0.  1.
    10030    2    1    2    0    0  0.00000000000E+00  0.00000000000E+00  0.86703454622E+03  0.35029139201E+04  0.33939147054E+04 0.  0.
        1    1    3    3  502    0 -0.52425445993E+02  0.12948828002E+04  0.15642353439E+04  0.20313301318E+04  0.50400001928E-02 0. -1.
       -1    1    3    3    0  502  0.52425445993E+02 -0.12948828002E+04 -0.69720079763E+03  0.14715837882E+04  0.50400001928E-02 0.  1.
</event>
<event>
 5   0  0.2553250E-07  0.3402593E+04  0.7818609E-02  0.8137270E-01
        1   -1    0    0  501    0  0.00000000000E+00  0.00000000000E+00  0.31008024743E+04  0.31008024743E+04  0.50400001928E-02 0. -1.
       -1   -1    0    0    0  501  0.00000000000E+00  0.00000000000E+00 -0.93343889278E+03  0.93343889280E+03  0.50400001928E-02 0.  1.
    10030    2    1    2    0    0  0.00000000000E+00  0.00000000000E+00  0.21673635815E+04  0.40342413671E+04  0.34025929103E+04 0.  0.
        5    1    3    3  502    0 -0.34947423044E+03  0.61958635842E+03 -0.74864322794E+03  0.10327188708E+04  0.46999998093E+01 0.  1.
       -5    1    3    3    0  502  0.34947423044E+03 -0.61958635842E+03  0.29160068094E+04  0.30015224963E+04  0.46999998093E+01 0. -1.
</event>
<event>
 5   0  0.2641442E-07  0.3000759E+04  0.7818609E-02  0.8243514E-01
       -1   -1    0    0    0  501  0.00000000000E+00  0.00000000000E+00  0.12474292705E+04  0.12474292705E+04  0.50400001928E-02 0.  1.
        1   -1    0    0  501    0  0.00000000000E+00  0.00000000000E+00 -0.18046220638E+04  0.18046220638E+04  0.50400001928E-02 0. -1.
    10030    2    1    2    0    0  0.00000000000E+00  0.00000000000E+00 -0.55719279330E+03  0.30520513343E+04  0.30007588271E+04 0.  0.
        1    1    3    3  502    0 -0.89688051059E+03 -0.45040467142E+03 -0.14129537053E+04  0.17331177662E+04  0.50400001928E-02 0. -1.
       -1    1    3    3    0  502  0.89688051059E+03  0.45040467142E+03  0.85576091201E+03  0.13189335680E+04  0.50400001928E-02 0.  1.
</event>
<event>
 5   0  0.2599367E-07  0.3363480E+04  0.7818609E-02  0.8146928E-01
       -1   -1    0    0    0  501  0.00000000000E+00  0.00000000000E+00  0.20935127548E+04  0.20935127548E+04  0.50400001928E-02 0.  1.
        1   -1    0    0  501    0  0.00000000000E+00  0.00000000000E+00 -0.13509585064E+04  0.13509585064E+04  0.50400001928E-02 0. -1.
    10030    2    1    2    0    0  0.00000000000E+00  0.00000000000E+00  0.74255424838E+03  0.34444712613E+04  0.33634796651E+04 0.  0.
        2    1    3    3  502    0  0.14060553348E+04 -0.42741413371E+03 -0.46607598410E+03  0.15417202305E+04  0.25500000920E-02 0. -1.
       -2    1    3    3    0  502 -0.14060553348E+04  0.42741413371E+03  0.12086302325E+04  0.19027510308E+04  0.25500000920E-02 0.  1.
</event>
<event>
 5   0  0.7822003E-07  0.3402531E+04  0.7818609E-02  0.8137285E-01
        2   -1    0    0  501    0  0.00000000000E+00  0.00000000000E+00  0.16569813470E+04  0.16569813470E+04  0.25500000920E-02 0. -1.
       -2   -1    0    0    0  501  0.00000000000E+00  0.00000000000E+00 -0.17467329340E+04  0.17467329340E+04  0.25500000920E-02 0.  1.
    10030    2    1    2    0    0  0.00000000000E+00  0.00000000000E+00 -0.89751587071E+02  0.34037142810E+04  0.34025307580E+04 0.  0.
        5    1    3    3  502    0 -0.28044659705E+03  0.16715970202E+04  0.10144506805E+03  0.16979988468E+04  0.46999998093E+01 0. -1.
       -5    1    3    3    0  502  0.28044659705E+03 -0.16715970202E+04 -0.19119665512E+03  0.17057154343E+04  0.46999998093E+01 0.  1.
</event>
<event>
 5   0  0.7610412E-07  0.3407827E+04  0.7818609E-02  0.8135988E-01
        2   -1    0    0  501    0  0.00000000000E+00  0.00000000000E+00  0.17223366619E+04  0.17223366619E+04  0.25500000920E-02 0. -1.
       -2   -1    0    0    0  501  0.00000000000E+00  0.00000000000E+00 -0.16856871415E+04  0.16856871415E+04  0.25500000920E-02 0.  1.
    10030    2    1    2    0    0  0.00000000000E+00  0.00000000000E+00  0.36649520412E+02  0.34080238034E+04  0.34078267352E+04 0.  0.
        4    1    3    3  502    0  0.28660534039E+03  0.10977288309E+04 -0.12530346969E+04  0.16903398392E+04  0.12699999809E+01 0.  1.
       -4    1    3    3    0  502 -0.28660534039E+03 -0.10977288309E+04  0.12896842174E+04  0.17176839642E+04  0.12699999809E+01 0. -1.
</event>
<event>
 5   0  0.2622205E-07  0.3392228E+04  0.7818609E-02  0.8139817E-01
       -1   -1    0    0    0  501  0.00000000000E+00  0.00000000000E+00  0.11010844749E+04  0.11010844749E+04  0.50400001928E-02 0.  1.
        1   -1    0    0  501    0  0.00000000000E+00  0.00000000000E+00 -0.26126987250E+04  0.26126987250E+04  0.50400001928E-02 0. -1.
    10030    2    1    2    0    0  0.00000000000E+00  0.00000000000E+00 -0.15116142501E+04  0.37137831999E+04  0.33922275889E+04 0.  0.
        3    1    3    3  502    0 -0.16689920341E+04  0.29387359422E+03 -0.67912561651E+03  0.18256800685E+04  0.10100000352E+00 0.  1.
       -3    1    3    3    0  502  0.16689920341E+04 -0.29387359422E+03 -0.83248863361E+03  0.18881031314E+04  0.10100000352E+00 0. -1.
</event>
<event>
 5   0  0.2599367E-07  0.3408248E+04  0.7818609E-02  0.8135885E-01
        1   -1    0    0  501    0  0.00000000000E+00  0.00000000000E+00  0.26257481200E+04  0.26257481200E+04  0.50400001928E-02 0. -1.
       -1   -1    0    0    0  501  0.00000000000E+00  0.00000000000E+00 -0.11059855364E+04  0.11059855364E+04  0.50400001928E-02 0.  1.
    10030    2    1    2    0    0  0.00000000000E+00  0.00000000000E+00  0.15197625837E+04  0.37317336564E+04  0.34082484903E+04 0.  0.
        2    1    3    3  502    0  0.15227822677E+01 -0.77003069847E+03  0.24243966371E+04  0.25437469704E+04  0.25500000920E-02 0. -1.
       -2    1    3    3    0  502 -0.15227822677E+01  0.77003069847E+03 -0.90463405343E+03  0.11879866860E+04  0.25500000920E-02 0.  1.
</event>
<event>
 5   0  0.7610412E-07  0.3369834E+04  0.7818609E-02  0.8145350E-01
        2   -1    0    0  501    0  0.00000000000E+00  0.00000000000E+00  0.22597647271E+04  0.22597647271E+04  0.25500000920E-02 0.  1.
       -2   -1    0    0    0  501  0.00000000000E+00  0.00000000000E+00 -0.12563012169E+04  0.12563012169E+04  0.25500000920E-02 0. -1.
    10030    2    1    2    0    0  0.00000000000E+00  0.00000000000E+00  0.10034635102E+04  0.35160659440E+04  0.33698339285E+04 0.  0.
        4    1    3    3  502    0 -0.59959230835E+03 -0.15585670109E+04  0.26771929561E+03  0.16912472610E+04  0.12699999809E+01 0.  1.
       -4    1    3    3    0  502  0.59959230835E+03  0.15585670109E+04  0.73574421464E+03  0.18248186830E+04  0.12699999809E+01 0. -1.
</event>
<event>
 5   0  0.2641442E-07  0.3408052E+04  0.7818609E-02  0.8135933E-01
        1   -1    0    0  501    0  0.00000000000E+00  0.00000000000E+00  0.14793542325E+04  0.14793542325E+04  0.50400001928E-02 0. -1.
       -1   -1    0    0    0  501  0.00000000000E+00  0.00000000000E+00 -0.19628186681E+04  0.19628186681E+04  0.50400001928E-02 0.  1.
    10030    2    1    2    0    0  0.00000000000E+00  0.00000000000E+00 -0.48346443556E+03  0.34421729006E+04  0.34080517040E+04 0.  0.
        1    1    3    3  502    0 -0.51561984772E+03  0.79893761318E+03 -0.16699401551E+04  0.19216829236E+04  0.50400001928E-02 0.  1.
       -1    1    3    3    0  502  0.51561984772E+03 -0.79893761318E+03  0.11864757195E+04  0.15204899770E+04  0.50400001928E-02 0. -1.
</event>
<event>
 5   0  0.7610412E-07  0.3412058E+04  0.7818609E-02  0.8134953E-01
        2   -1    0    0  501    0  0.00000000000E+00  0.00000000000E+00  0.16919034666E+04  0.16919034666E+04  0.25500000920E-02 0. -1.
       -2   -1    0    0    0  501  0.00000000000E+00  0.00000000000E+00 -0.17202725490E+04  0.17202725490E+04  0.25500000920E-02 0.  1.
    10030    2    1    2    0    0  0.00000000000E+00  0.00000000000E+00 -0.28369082447E+02  0.34121760156E+04  0.34120580822E+04 0.  0.
        4    1    3    3  502    0 -0.70360975182E+03  0.15276410687E+04 -0.30016568030E+03  0.17084656760E+04  0.12699999809E+01 0.  1.
       -4    1    3    3    0  502  0.70360975182E+03 -0.15276410687E+04  0.27179659786E+03  0.17037103396E+04  0.12699999809E+01 0. -1.
</event>
<event>
 5   0  0.2641442E-07  0.3459295E+04  0.7818609E-02  0.8123505E-01
       -1   -1    0    0    0  501  0.00000000000E+00  0.00000000000E+00  0.14240864349E+04  0.14240864349E+04  0.50400001928E-02 0. -1.
        1   -1    0    0  501    0  0.00000000000E+00  0.00000000000E+00 -0.21007717294E+04  0.21007717294E+04  0.50400001928E-02 0.  1.
    10030    2    1    2    0    0  0.00000000000E+00  0.00000000000E+00 -0.67668529449E+03  0.35248581644E+04  0.34592950280E+04 0.  0.
        1    1    3    3  502    0  0.11411514393E+02 -0.17287963232E+04 -0.39239108426E+03  0.17728050408E+04  0.50400001928E-02 0.  1.
       -1    1    3    3    0  502 -0.11411514393E+02  0.17287963232E+04 -0.28429421023E+03  0.17520531235E+04  0.50400001928E-02 0. -1.
</event>
<event>
 5   0  0.2641442E-07  0.3387252E+04  0.7818609E-02  0.8141042E-01
       -1   -1    0    0    0  501  0.00000000000E+00  0.00000000000E+00  0.15724755793E+04  0.15724755793E+04  0.50400001928E-02 0.  1.
        1   -1    0    0  501    0  0.00000000000E+00  0.00000000000E+00 -0.18241104558E+04  0.18241104558E+04  0.50400001928E-02 0. -1.
    10030    2    1    2    0    0  0.00000000000E+00  0.00000000000E+00 -0.25163487649E+03  0.33965860351E+04  0.33872520696E+04 0.  0.
        1    1    3    3  502    0  0.65448528717E+03  0.44086252352E+03 -0.16284989700E+04  0.18096186480E+04  0.50400001928E-02 0. -1.
       -1    1    3    3    0  502 -0.65448528717E+03 -0.44086252352E+03  0.13768640935E+04  0.15869673871E+04  0.50400001928E-02 0.  1.
</event>
<event>
 5   0  0.8489228E-07  0.3393973E+04  0.7818609E-02  0.8139387E-01
        2   -1    0    0  501    0  0.00000000000E+00  0.00000000000E+00  0.21236137391E+04  0.21236137391E+04  0.25500000920E-02 0.  1.
       -2   -1    0    0    0  501  0.00000000000E+00  0.00000000000E+00 -0.13560669579E+04  0.13560669579E+04  0.25500000920E-02 0. -1.
    10030    2    1    2    0    0  0.00000000000E+00  0.00000000000E+00  0.76754678126E+03  0.34796806970E+04  0.33939725532E+04 0.  0.
        3    1    3    3  502    0  0.16515666760E+04 -0.11452490813E+03  0.76597965810E+03  0.18241472766E+04  0.10100000352E+00 0.  1.
       -3    1    3    3    0  502 -0.16515666760E+04  0.11452490813E+03  0.15671231647E+01  0.16555334204E+04  0.10100000352E+00 0. -1.
</event>
<event>
 5   0  0.2553250E-07  0.3403667E+04  0.7818609E-02  0.8137007E-01
       -1   -1    0    0    0  501  0.00000000000E+00  0.00000000000E+00  0.17226616171E+04  0.17226616171E+04  0.50400001928E-02 0. -1.
        1   -1    0    0  501    0  0.00000000000E+00  0.00000000000E+00 -0.16812571137E+04  0.16812571137E+04  0.50400001928E-02 0.  1.
    10030    2    1    2    0    0  0.00000000000E+00  0.00000000000E+00  0.41404503344E+02  0.34039187308E+04  0.34036669039E+04 0.  0.
        5    1    3    3  502    0  0.99974952943E+03 -0.13299160153E+04  0.37855449218E+03  0.17063121997E+04  0.46999998093E+01 0. -1.
       -5    1    3    3    0  502 -0.99974952943E+03  0.13299160153E+04 -0.33714998883E+03  0.16976065311E+04  0.46999998093E+01 0.  1.
</event>
<event>
 5   0  0.8489228E-07  0.3371830E+04  0.7818609E-02  0.8144855E-01
        2   -1    0    0  501    0  0.00000000000E+00  0.00000000000E+00  0.30431022139E+04  0.30431022139E+04  0.25500000920E-02 0.  1.
       -2   -1    0    0    0  501  0.00000000000E+00  0.00000000000E+00 -0.93401722245E+03  0.93401722246E+03  0.25500000920E-02 0. -1.
    10030    2    1    2    0    0  0.00000000000E+00  0.00000000000E+00  0.21090849915E+04  0.39771194364E+04  0.33718302908E+04 0.  0.
        3    1    3    3  502    0  0.69050418692E+03  0.40591606718E+03 -0.69525537762E+03  0.10606337427E+04  0.10100000352E+00 0. -1.
       -3    1    3    3    0  502 -0.69050418692E+03 -0.40591606718E+03  0.28043403691E+04  0.29164856937E+04  0.10100000352E+00 0.  1.
</event>
<event>
 5   0  0.7610412E-07  0.3486147E+04  0.7818609E-02  0.8117081E-01
        2   -1    0    0  501    0  0.00000000000E+00  0.00000000000E+00  0.18383937488E+04  0.18383937488E+04  0.25500000920E-02 0.  1.
       -2   -1    0    0    0  501  0.00000000000E+00  0.00000000000E+00 -0.16526957565E+04  0.16526957565E+04  0.25500000920E-02 0. -1.
    10030    2    1    2    0    0  0.00000000000E+00  0.00000000000E+00  0.18569799226E+03  0.34910895053E+04  0.34861471842E+04 0.  0.
        4    1    3    3  502    0  0.20663441363E+03  0.12569033719E+04 -0.10987118629E+04  0.16821632613E+04  0.12699999809E+01 0. -1.
       -4    1    3    3    0  502 -0.20663441363E+03 -0.12569033719E+04  0.12844098551E+04  0.18089262440E+04  0.12699999809E+01 0.  1.
</event>
<event>
 5   0  0.8489228E-07  0.3374603E+04  0.7818609E-02  0.8144168E-01
        2   -1    0    0  501    0  0.00000000000E+00  0.00000000000E+00  0.21615172591E+04  0.21615172591E+04  0.25500000920E-02 0.  1.
       -2   -1    0    0    0  501  0.00000000000E+00  0.00000000000E+00 -0.13171244121E+04  0.13171244121E+04  0.25500000920E-02 0. -1.
    10030    2    1    2    0    0  0.00000000000E+00  0.00000000000E+00  0.84439284703E+03  0.34786416711E+04  0.33746034724E+04 0.  0.
        3    1    3    3  502    0  0.37596106639E+03  0.11617844160E+04 -0.77813273965E+03  0.14479572933E+04  0.10100000352E+00 0. -1.
       -3    1    3    3    0  502 -0.37596106639E+03 -0.11617844160E+04  0.16225255867E+04  0.20306843778E+04  0.10100000352E+00 0.  1.
</event>
<event>
 5   0  0.7838333E-07  0.3390677E+04  0.7818609E-02  0.8140198E-01
        2   -1    0    0  501    0  0.00000000000E+00  0.00000000000E+00  0.24716795886E+04  0.24716795886E+04  0.25500000920E-02 0. -1.
       -2   -1    0    0    0  501  0.00000000000E+00  0.00000000000E+00 -0.11628422409E+04  0.11628422409E+04  0.25500000920E-02 0.  1.
    10030    2    1    2    0    0  0.00000000000E+00  0.00000000000E+00  0.13088373477E+04  0.36345218295E+04  0.33906774731E+04 0.  0.
        1    1    3    3  502    0 -0.88289673297E+03  0.30142387137E+03 -0.86294302783E+03  0.12708397462E+04  0.50400001928E-02 0.  1.
       -1    1    3    3    0  502  0.88289673297E+03 -0.30142387137E+03  0.21717803755E+04  0.23636820833E+04  0.50400001928E-02 0. -1.
</event>
<event>
 5   0  0.2599367E-07  0.3406869E+04  0.7818609E-02  0.8136222E-01
        1   -1    0    0  501    0  0.00000000000E+00  0.00000000000E+00  0.22187079362E+04  0.22187079362E+04  0.50400001928E-02 0. -1.
       -1   -1    0    0    0  501  0.00000000000E+00  0.00000000000E+00 -0.13078285905E+04  0.13078285905E+04  0.50400001928E-02 0.  1.
    10030    2    1    2    0    0  0.00000000000E+00  0.00000000000E+00  0.91087934572E+03  0.35265365267E+04  0.34068693388E+04 0.  0.
        2    1    3    3  502    0 -0.11436894965E+04 -0.80448885572E+03  0.14624743565E+04  0.20233781720E+04  0.25500000920E-02 0. -1.
       -2    1    3    3    0  502  0.11436894965E+04  0.80448885572E+03 -0.55159501077E+03  0.15031583547E+04  0.25500000920E-02 0.  1.
</event>
<event>
 5   0  0.2592200E-07  0.3330826E+04  0.7818609E-02  0.8155096E-01
        1   -1    0    0  501    0  0.00000000000E+00  0.00000000000E+00  0.35441051765E+04  0.35441051765E+04  0.50400001928E-02 0. -1.
       -1   -1    0    0    0  501  0.00000000000E+00  0.00000000000E+00 -0.78259557712E+03  0.78259557713E+03  0.50400001928E-02 0.  1.
    10030    2    1    2    0    0  0.00000000000E+00  0.00000000000E+00  0.27615095994E+04  0.43267007537E+04  0.33308263455E+04 0.  0.
        4    1    3    3  502    0  0.49831238767E+03  0.12917264796E+02  0.34449256918E+04  0.34808040344E+04  0.12699999809E+01 0. -1.
       -4    1    3    3    0  502 -0.49831238767E+03 -0.12917264796E+02 -0.68341609235E+03  0.84589671924E+03  0.12699999809E+01 0.  1.
</event>
<event>
 5   0  0.7822003E-07  0.3319435E+04  0.7818609E-02  0.8157968E-01
       -2   -1    0    0    0  501  0.00000000000E+00  0.00000000000E+00  0.19028474862E+04  0.19028474862E+04  0.25500000920E-02 0. -1.
        2   -1    0    0  501    0  0.00000000000E+00  0.00000000000E+00 -0.14476529715E+04  0.14476529715E+04  0.25500000920E-02 0.  1.
    10030    2    1    2    0    0  0.00000000000E+00  0.00000000000E+00  0.45519451466E+03  0.33505004577E+04  0.33194353843E+04 0.  0.
        5    1    3    3  502    0  0.86210826268E+03 -0.10770385656E+04  0.11589448044E+04  0.18017818620E+04  0.46999998093E+01 0. -1.
       -5    1    3    3    0  502 -0.86210826268E+03  0.10770385656E+04 -0.70375028973E+03  0.15487185957E+04  0.46999998093E+01 0.  1.
</event>
<event>
 5   0  0.2641442E-07  0.3384581E+04  0.7818609E-02  0.8141701E-01
        1   -1    0    0  501    0  0.00000000000E+00  0.00000000000E+00  0.12376333203E+04  0.12376333203E+04  0.50400001928E-02 0. -1.
       -1   -1    0    0    0  501  0.00000000000E+00  0.00000000000E+00 -0.23139705537E+04  0.23139705537E+04  0.50400001928E-02 0.  1.
    10030    2    1    2    0    0  0.00000000000E+00  0.00000000000E+00 -0.10763372335E+04  0.35516038740E+04  0.33845809545E+04 0.  0.
        1    1    3    3  502    0  0.88467213035E+01 -0.12068385778E+04 -0.17830111409E+04  0.21530597636E+04  0.50400001928E-02 0.  1.
       -1    1    3    3    0  502 -0.88467213035E+01  0.12068385778E+04  0.70667390738E+03  0.13985441104E+04  0.50400001928E-02 0. -1.
</event>
<event>
 5   0  0.2592200E-07  0.3426563E+04  0.7818609E-02  0.8131418E-01
       -1   -1    0    0    0  501  0.00000000000E+00  0.00000000000E+00  0.12180980497E+04  0.12180980497E+04  0.50400001928E-02 0. -1.
        1   -1    0    0  501    0  0.00000000000E+00  0.00000000000E+00 -0.24097677660E+04  0.24097677660E+04  0.50400001928E-02 0.  1.
    10030    2    1    2    0    0  0.00000000000E+00  0.00000000000E+00 -0.11916697162E+04  0.36278658157E+04  0.34265629520E+04 0.  0.
        4    1    3    3  502    0 -0.65037866241E+03  0.42666150172E+03  0.10203772592E+04  0.12830447403E+04  0.12699999809E+01 0. -1.
       -4    1    3    3    0  502  0.65037866241E+03 -0.42666150172E+03 -0.22120469754E+04  0.23448210755E+04  0.12699999809E+01 0.  1.
</event>
<event>
 5   0  0.2553250E-07  0.3376114E+04  0.7818609E-02  0.8143794E-01
        1   -1    0    0  501    0  0.00000000000E+00  0.00000000000E+00  0.19454657247E+04  0.19454657247E+04  0.50400001928E-02 0.  1.
       -1   -1    0    0    0  501  0.00000000000E+00  0.00000000000E+00 -0.14647065345E+04  0.14647065345E+04  0.50400001928E-02 0. -1.
    10030    2    1    2    0    0  0.00000000000E+00  0.00000000000E+00  0.48075919020E+03  0.34101722591E+04  0.33761139551E+04 0.  0.
        5    1    3    3  502    0  0.35150312919E+03 -0.59734890166E+03  0.17951062446E+04  0.19242683492E+04  0.46999998093E+01 0.  1.
       -5    1    3    3    0  502 -0.35150312919E+03  0.59734890166E+03 -0.13143470544E+04  0.14859039100E+04  0.46999998093E+01 0. -1.
</event>
<event>
 5   0  0.7610412E-07  0.3395474E+04  0.7818609E-02  0.8139018E-01
       -2   -1    0    0    0  501  0.00000000000E+00  0.00000000000E+00  0.16646112852E+04  0.16646112852E+04  0.25500000920E-02 0. -1.
        2   -1    0    0  501    0  0.00000000000E+00  0.00000000000E+00 -0.17315216332E+04  0.17315216332E+04  0.25500000920E-02 0.  1.
    10030    2    1    2    0    0  0.00000000000E+00  0.00000000000E+00 -0.66910347996E+02  0.33961329184E+04  0.33954737232E+04 0.  0.
        4    1    3    3  502    0 -0.98510048342E+03 -0.92215271416E+03  0.99704589513E+03  0.16777636069E+04  0.12699999809E+01 0. -1.
       -4    1    3    3    0  502  0.98510048342E+03  0.92215271416E+03 -0.10639562431E+04  0.17183693115E+04  0.12699999809E+01 0.  1.
</event>
<event>
 5   0  0.2641442E-07  0.3419779E+04  0.7818609E-02  0.8133069E-01
       -1   -1    0    0    0  501  0.00000000000E+00  0.00000000000E+00  0.12457243038E+04  0.12457243038E+04  0.50400001928E-02 0. -1.
        1   -1    0    0  501    0  0.00000000000E+00  0.00000000000E+00 -0.23470055194E+04  0.23470055194E+04  0.50400001928E-02 0.  1.
    10030    2    1    2    0    0  0.00000000000E+00  0.00000000000E+00 -0.11012812155E+04  0.35927298232E+04  0.34197788330E+04 0.  0.
        1    1    3    3  502    0  0.63101652653E+03 -0.17467761375E+03  0.11088095938E+04  0.12876928363E+04  0.50400001928E-02 0. -1.
       -1    1    3    3    0  502 -0.63101652653E+03  0.17467761375E+03 -0.22100908093E+04  0.23050369869E+04  0.50400001928E-02 0.  1.
</event>
<event>
 5   0  0.7899402E-07  0.3390223E+04  0.7818609E-02  0.8140310E-01
        2   -1    0    0  501    0  0.00000000000E+00  0.00000000000E+00  0.17807641705E+04  0.17807641705E+04  0.25500000920E-02 0. -1.
       -2   -1    0    0    0  501  0.00000000000E+00  0.00000000000E+00 -0.16135784824E+04  0.16135784824E+04  0.25500000920E-02 0.  1.
    10030    2    1    2    0    0  0.00000000000E+00  0.00000000000E+00  0.16718568813E+03  0.33943426529E+04  0.33902228527E+04 0.  0.
        2    1    3    3  502    0  0.12721914247E+04 -0.10126589959E+04 -0.39600228473E+03  0.16735492441E+04  0.25500000920E-02 0. -1.
       -2    1    3    3    0  502 -0.12721914247E+04  0.10126589959E+04  0.56318797286E+03  0.17207934088E+04  0.25500000920E-02 0.  1.
</event>
<event>
 5   0  0.7822003E-07  0.3392328E+04  0.7818609E-02  0.8139792E-01
        2   -1    0    0  501    0  0.00000000000E+00  0.00000000000E+00  0.15704390421E+04  0.15704390421E+04  0.25500000920E-02 0.  1.
       -2   -1    0    0    0  501  0.00000000000E+00  0.00000000000E+00 -0.18319544766E+04  0.18319544766E+04  0.25500000920E-02 0. -1.
    10030    2    1    2    0    0  0.00000000000E+00  0.00000000000E+00 -0.26151543441E+03  0.34023935187E+04  0.33923283057E+04 0.  0.
        5    1    3    3  502    0  0.14945790550E+04  0.36988495359E+02 -0.93426894660E+03  0.17629563962E+04  0.46999998093E+01 0. -1.
       -5    1    3    3    0  502 -0.14945790550E+04 -0.36988495359E+02  0.67275351219E+03  0.16394371225E+04  0.46999998093E+01 0.  1.
</event>
<event>
 5   0  0.2622205E-07  0.3005839E+04  0.7818609E-02  0.8242065E-01
       -1   -1    0    0    0  501  0.00000000000E+00  0.00000000000E+00  0.12441300270E+04  0.12441300270E+04  0.50400001928E-02 0.  1.
        1   -1    0    0  501    0  0.00000000000E+00  0.00000000000E+00 -0.18155394748E+04  0.18155394748E+04  0.50400001928E-02 0. -1.
    10030    2    1    2    0    0  0.00000000000E+00  0.00000000000E+00 -0.57140944786E+03  0.30596695018E+04  0.30058391014E+04 0.  0.
        3    1    3    3  502    0  0.12335624790E+04 -0.55023537933E+03 -0.95654573282E+03  0.16551178543E+04  0.10100000352E+00 0. -1.
       -3    1    3    3    0  502 -0.12335624790E+04  0.55023537933E+03  0.38513628496E+03  0.14045516475E+04  0.10100000352E+00 0.  1.
</event>
<event>
 5   0  0.2553250E-07  0.3400322E+04  0.7818609E-02  0.8137827E-01
       -1   -1    0    0    0  501  0.00000000000E+00  0.00000000000E+00  0.13481392589E+04  0.13481392589E+04  0.50400001928E-02 0. -1.
        1   -1    0    0  501    0  0.00000000000E+00  0.00000000000E+00 -0.21441017129E+04  0.21441017129E+04  0.50400001928E-02 0.  1.
    10030    2    1    2    0    0  0.00000000000E+00  0.00000000000E+00 -0.79596245404E+03  0.34922409719E+04  0.34003221579E+04 0.  0.
        5    1    3    3  502    0  0.11154353209E+04 -0.12811185223E+04 -0.32488868787E+03  0.17294610064E+04  0.46999998093E+01 0.  1.
       -5    1    3    3    0  502 -0.11154353209E+04  0.12811185223E+04 -0.47107376617E+03  0.17627799654E+04  0.46999998093E+01 0. -1.
</event>
<event>
 5   0  0.7899402E-07  0.3400270E+04  0.7818609E-02  0.8137840E-01
        2   -1    0    0  501    0  0.00000000000E+00  0.00000000000E+00  0.10593740464E+04  0.10593740464E+04  0.25500000920E-02 0. -1.
       -2   -1    0    0    0  501  0.00000000000E+00  0.00000000000E+00 -0.27284592596E+04  0.27284592596E+04  0.25500000920E-02 0.  1.
    10030    2    1    2    0    0  0.00000000000E+00  0.00000000000E+00 -0.16690852132E+04  0.37878333060E+04  0.34002699460E+04 0.  0.
        2    1    3    3  502    0  0.12505168225E+04 -0.10982387319E+04 -0.44778400975E+03  0.17234938802E+04  0.25500000920E-02 0. -1.
       -2    1    3    3    0  502 -0.12505168225E+04  0.10982387319E+04 -0.12213012034E+04  0.20643394259E+04  0.25500000920E-02 0.  1.
</event>
<event>
 5   0  0.2592200E-07  0.3399924E+04  0.7818609E-02  0.8137925E-01
        1   -1    0    0  501    0  0.00000000000E+00  0.00000000000E+00  0.27416288209E+04  0.27416288209E+04  0.50400001928E-02 0.  1.
       -1   -1    0    0    0  501  0.00000000000E+00  0.00000000000E+00 -0.10540706931E+04  0.10540706931E+04  0.50400001928E-02 0. -1.
    10030    2    1    2    0    0  0.00000000000E+00  0.00000000000E+00  0.16875581279E+04  0.37956995140E+04  0.33999238765E+04 0.  0.
        4    1    3    3  502    0 -0.96201687022E+03  0.76515352630E+03  0.21547532813E+04  0.24807054830E+04  0.12699999809E+01 0.  1.
       -4    1    3    3    0  502  0.96201687022E+03 -0.76515352630E+03 -0.46719515339E+03  0.13149940310E+04  0.12699999809E+01 0. -1.
</event>
<event>
 5   0  0.8489228E-07  0.3385798E+04  0.7818609E-02  0.8141401E-01
       -2   -1    0    0    0  501  0.00000000000E+00  0.00000000000E+00  0.21350135611E+04  0.21350135612E+04  0.25500000920E-02 0.  1.
        2   -1    0    0  501    0  0.00000000000E+00  0.00000000000E+00 -0.13423370700E+04  0.13423370700E+04  0.25500000920E-02 0. -1.
    10030    2    1    2    0    0  0.00000000000E+00  0.00000000000E+00  0.79267649112E+03  0.34773506312E+04  0.33857984867E+04 0.  0.
        3    1    3    3  502    0 -0.86921499900E+03  0.31003310205E+02  0.18879921706E+04  0.20787040112E+04  0.10100000352E+00 0.  1.
       -3    1    3    3    0  502  0.86921499900E+03 -0.31003310205E+02 -0.10953156795E+04  0.13986466200E+04  0.10100000352E+00 0. -1.
</event>
<event>
 5   0  0.7822003E-07  0.3411276E+04  0.7818609E-02  0.8135144E-01
       -2   -1    0    0    0  501  0.00000000000E+00  0.00000000000E+00  0.95621173083E+03  0.95621173083E+03  0.25500000920E-02 0.  1.
        2   -1    0    0  501    0  0.00000000000E+00  0.00000000000E+00 -0.30424226277E+04  0.30424226277E+04  0.25500000920E-02 0. -1.
    10030    2    1    2    0    0  0.00000000000E+00  0.00000000000E+00 -0.20862108969E+04  0.39986343585E+04  0.34112755425E+04 0.  0.
        5    1    3    3  502    0  0.28966975398E+03 -0.60809111713E+03 -0.28799161340E+04  0.29576379769E+04  0.46999998093E+01 0. -1.
       -5    1    3    3    0  502 -0.28966975398E+03  0.60809111713E+03  0.79370523718E+03  0.10409963817E+04  0.46999998093E+01 0.  1.
</event>
<event>
 5   0  0.7610412E-07  0.3377186E+04  0.7818609E-02  0.8143529E-01
       -2   -1    0    0    0  501  0.00000000000E+00  0.00000000000E+00  0.98622488644E+03  0.98622488644E+03  0.25500000920E-02 0.  1.
        2   -1    0    0  501    0  0.00000000000E+00  0.00000000000E+00 -0.28911719181E+04  0.28911719181E+04  0.25500000920E-02 0. -1.
    10030    2    1    2    0    0  0.00000000000E+00  0.00000000000E+00 -0.19049470317E+04  0.38773968046E+04  0.33771856310E+04 0.  0.
        4    1    3    3  502    0 -0.15784190529E+04  0.21931966692E+03 -0.31133979060E+03  0.16237123824E+04  0.12699999809E+01 0.  1.
       -4    1    3    3    0  502  0.15784190529E+04 -0.21931966692E+03 -0.15936072411E+04  0.22536844221E+04  0.12699999809E+01 0. -1.
</event>
<event>
 5   0  0.2592200E-07  0.3401403E+04  0.7818609E-02  0.8137562E-01
        1   -1    0    0  501    0  0.00000000000E+00  0.00000000000E+00  0.15720011916E+04  0.15720011916E+04  0.50400001928E-02 0. -1.
       -1   -1    0    0    0  501  0.00000000000E+00  0.00000000000E+00 -0.18399388627E+04  0.18399388627E+04  0.50400001928E-02 0.  1.
    10030    2    1    2    0    0  0.00000000000E+00  0.00000000000E+00 -0.26793767106E+03  0.34119400543E+04  0.34014032896E+04 0.  0.
        4    1    3    3  502    0 -0.67491527233E+03  0.15129518967E+04 -0.51967317420E+03  0.17362591649E+04  0.12699999809E+01 0.  1.
       -4    1    3    3    0  502  0.67491527233E+03 -0.15129518967E+04  0.25173550314E+03  0.16756808894E+04  0.12699999809E+01 0. -1.
</event>
<event>
 5   0  0.7838333E-07  0.3404808E+04  0.7818609E-02  0.8136727E-01
       -2   -1    0    0    0  501  0.00000000000E+00  0.00000000000E+00  0.17236044449E+04  0.17236044449E+04  0.25500000920E-02 0. -1.
        2   -1    0    0  501    0  0.00000000000E+00  0.00000000000E+00 -0.16814644388E+04  0.16814644388E+04  0.25500000920E-02 0.  1.
    10030    2    1    2    0    0  0.00000000000E+00  0.00000000000E+00  0.42140006138E+02  0.34050688838E+04  0.34048081184E+04 0.  0.
        1    1    3    3  502    0  0.12501155039E+04  0.98943357254E+03 -0.57597824347E+03  0.16951455703E+04  0.50400001928E-02 0.  1.
       -1    1    3    3    0  502 -0.12501155039E+04 -0.98943357254E+03  0.61811824961E+03  0.17099233135E+04  0.50400001928E-02 0. -1.
</event>
<event>
 5   0  0.2641442E-07  0.3398319E+04  0.7818609E-02  0.8138319E-01
       -1   -1    0    0    0  501  0.00000000000E+00  0.00000000000E+00  0.10843843238E+04  0.10843843238E+04  0.50400001928E-02 0. -1.
        1   -1    0    0  501    0  0.00000000000E+00  0.00000000000E+00 -0.26624723282E+04  0.26624723282E+04  0.50400001928E-02 0.  1.
    10030    2    1    2    0    0  0.00000000000E+00  0.00000000000E+00 -0.15780880044E+04  0.37468566519E+04  0.33983191464E+04 0.  0.
        1    1    3    3  502    0 -0.15843046989E+04  0.47948044458E+03 -0.36599869469E+03  0.16952515802E+04  0.50400001928E-02 0.  1.
       -1    1    3    3    0  502  0.15843046989E+04 -0.47948044458E+03 -0.12120893097E+04  0.20516050717E+04  0.50400001928E-02 0. -1.
</event>
<event>
 5   0  0.7610412E-07  0.3406850E+04  0.7818609E-02  0.8136227E-01
       -2   -1    0    0    0  501  0.00000000000E+00  0.00000000000E+00  0.12814933356E+04  0.12814933356E+04  0.25500000920E-02 0. -1.
        2   -1    0    0  501    0  0.00000000000E+00  0.00000000000E+00 -0.22642782618E+04  0.22642782618E+04  0.25500000920E-02 0.  1.
    10030    2    1    2    0    0  0.00000000000E+00  0.00000000000E+00 -0.98278492613E+03  0.35457715974E+04  0.34068504531E+04 0.  0.
        4    1    3    3  502    0  0.23624767091E+03 -0.55371497426E+02 -0.22461983288E+04  0.22592670294E+04  0.12699999809E+01 0.  1.
       -4    1    3    3    0  502 -0.23624767091E+03  0.55371497426E+02  0.12634134027E+04  0.12865045681E+04  0.12699999809E+01 0. -1.
</event>
<event>
 5   0  0.2641442E-07  0.3441654E+04  0.7818609E-02  0.8127758E-01
        1   -1    0    0  501    0  0.00000000000E+00  0.00000000000E+00  0.17375796834E+04  0.17375796834E+04  0.50400001928E-02 0. -1.
       -1   -1    0    0    0  501  0.00000000000E+00  0.00000000000E+00 -0.17042354804E+04  0.17042354804E+04  0.50400001928E-02 0.  1.
    10030    2    1    2    0    0  0.00000000000E+00  0.00000000000E+00  0.33344202958E+02  0.34418151638E+04  0.34416536412E+04 0.  0.
        1    1    3    3  502    0 -0.24886409827E+03 -0.76936338577E+03 -0.15024092565E+04  0.17061907669E+04  0.50400001928E-02 0.  1.
       -1    1    3    3    0  502  0.24886409827E+03  0.76936338577E+03  0.15357534595E+04  0.17356243969E+04  0.50400001928E-02 0. -1.
</event>
<event>
 5   0  0.7822003E-07  0.3389967E+04  0.7818609E-02  0.8140373E-01
       -2   -1    0    0    0  501  0.00000000000E+00  0.00000000000E+00  0.12032257485E+04  0.12032257485E+04  0.25500000920E-02 0. -1.
        2   -1    0    0  501    0  0.00000000000E+00  0.00000000000E+00 -0.23877230920E+04  0.23877230920E+04  0.25500000920E-02 0.  1.
    10030    2    1    2    0    0  0.00000000000E+00  0.00000000000E+00 -0.11844973435E+04  0.35909488406E+04  0.33899674952E+04 0.  0.
        5    1    3    3  502    0  0.33024057171E+03  0.49620787067E+03  0.10885388075E+04  0.12410559663E+04  0.46999998093E+01 0. -1.
       -5    1    3    3    0  502 -0.33024057171E+03 -0.49620787067E+03 -0.22730361511E+04  0.23498928742E+04  0.46999998093E+01 0.  1.
</event>
<event>
 5   0  0.7822003E-07  0.3437338E+04  0.7818609E-02  0.8128803E-01
       -2   -1    0    0    0  501  0.00000000000E+00  0.00000000000E+00  0.20855186666E+04  0.20855186666E+04  0.25500000920E-02 0. -1.
        2   -1    0    0  501    0  0.00000000000E+00  0.00000000000E+00 -0.14163490991E+04  0.14163490991E+04  0.25500000920E-02 0.  1.
    10030    2    1    2    0    0  0.00000000000E+00  0.00000000000E+00  0.66916956748E+03  0.35018677656E+04  0.34373376235E+04 0.  0.
        5    1    3    3  502    0 -0.71988022153E+03 -0.10990755955E+04 -0.79418921908E+03  0.15352372141E+04  0.46999998093E+01 0.  1.
       -5    1    3    3    0  502  0.71988022153E+03  0.10990755955E+04  0.14633587866E+04  0.19666305515E+04  0.46999998093E+01 0. -1.
</event>
<event>
 5   0  0.7899402E-07  0.3390152E+04  0.7818609E-02  0.8140328E-01
       -2   -1    0    0    0  501  0.00000000000E+00  0.00000000000E+00  0.30894438032E+04  0.30894438032E+04  0.25500000920E-02 0.  1.
        2   -1    0    0  501    0  0.00000000000E+00  0.00000000000E+00 -0.93003243793E+03  0.93003243793E+03  0.25500000920E-02 0. -1.
    10030    2    1    2    0    0  0.00000000000E+00  0.00000000000E+00  0.21594113653E+04  0.40194762412E+04  0.33901521808E+04 0.  0.
        2    1    3    3  502    0  0.13958583280E+04 -0.29555537999E+03 -0.53328030096E+01  0.14268152975E+04  0.25500000920E-02 0. -1.
       -2    1    3    3    0  502 -0.13958583280E+04  0.29555537999E+03  0.21647441683E+04  0.25926609436E+04  0.25500000920E-02 0.  1.
</event>
<event>
 5   0  0.7899402E-07  0.3401769E+04  0.7818609E-02  0.8137472E-01
       -2   -1    0    0    0  501  0.00000000000E+00  0.00000000000E+00  0.12799764100E+04  0.12799764100E+04  0.25500000920E-02 0. -1.
        2   -1    0    0  501    0  0.00000000000E+00  0.00000000000E+00 -0.22602042796E+04  0.22602042796E+04  0.25500000920E-02 0.  1.
    10030    2    1    2    0    0  0.00000000000E+00  0.00000000000E+00 -0.98022786964E+03  0.35401806896E+04  0.34017690454E+04 0.  0.
        2    1    3    3  502    0  0.12346646009E+03  0.13357089057E+03  0.12698257118E+04  0.12827870002E+04  0.25500000920E-02 0. -1.
       -2    1    3    3    0  502 -0.12346646009E+03 -0.13357089057E+03 -0.22500535814E+04  0.22573936894E+04  0.25500000920E-02 0.  1.
</event>
<event>
 5   0  0.7838333E-07  0.3374241E+04  0.7818609E-02  0.8144257E-01
        2   -1    0    0  501    0  0.00000000000E+00  0.00000000000E+00  0.16549336828E+04  0.16549336828E+04  0.25500000920E-02 0. -1.
       -2   -1    0    0    0  501  0.00000000000E+00  0.00000000000E+00 -0.17199336520E+04  0.17199336520E+04  0.25500000920E-02 0.  1.
    10030    2    1    2    0    0  0.00000000000E+00  0.00000000000E+00 -0.64999969176E+02  0.33748673348E+04  0.33742413268E+04 0.  0.
        1    1    3    3  502    0 -0.75829615561E+03 -0.30491176809E+03 -0.15087114385E+04  0.17158655106E+04  0.50400001928E-02 0.  1.
       -1    1    3    3    0  502  0.75829615561E+03  0.30491176809E+03  0.14437114693E+04  0.16590018242E+04  0.50400001928E-02 0. -1.
</event>
<event>
 5   0  0.2553250E-07  0.3346655E+04  0.7818609E-02  0.8151124E-01
        1   -1    0    0  501    0  0.00000000000E+00  0.00000000000E+00  0.22101659348E+04  0.22101659348E+04  0.50400001928E-02 0.  1.
       -1   -1    0    0    0  501  0.00000000000E+00  0.00000000000E+00 -0.12668848554E+04  0.12668848554E+04  0.50400001928E-02 0. -1.
    10030    2    1    2    0    0  0.00000000000E+00  0.00000000000E+00  0.94328107936E+03  0.34770507902E+04  0.33466554951E+04 0.  0.
        5    1    3    3  502    0  0.26950970303E+03 -0.26367851219E+02  0.21872425579E+04  0.22039471048E+04  0.46999998093E+01 0.  1.
       -5    1    3    3    0  502 -0.26950970303E+03  0.26367851219E+02 -0.12439614786E+04  0.12731036854E+04  0.46999998093E+01 0. -1.
</event>
<event>
 5   0  0.2622205E-07  0.3318818E+04  0.7818609E-02  0.8158124E-01
        1   -1    0    0  501    0  0.00000000000E+00  0.00000000000E+00  0.16537465691E+04  0.16537465691E+04  0.50400001928E-02 0.  1.
       -1   -1    0    0    0  501  0.00000000000E+00  0.00000000000E+00 -0.16650904105E+04  0.16650904105E+04  0.50400001928E-02 0. -1.
    10030    2    1    2    0    0  0.00000000000E+00  0.00000000000E+00 -0.11343841342E+02  0.33188369796E+04  0.33188175928E+04 0.  0.
        3    1    3    3  502    0 -0.10022334243E+04  0.12501765808E+03 -0.13223178657E+04  0.16639188081E+04  0.10100000352E+00 0. -1.
       -3    1    3    3    0  502  0.10022334243E+04 -0.12501765808E+03  0.13109740244E+04  0.16549181715E+04  0.10100000352E+00 0.  1.
</event>
<event>
 5   0  0.8489228E-07  0.3509403E+04  0.7818609E-02  0.8111565E-01
        2   -1    0    0  501    0  0.00000000000E+00  0.00000000000E+00  0.17728450465E+04  0.17728450465E+04  0.25500000920E-02 0. -1.
       -2   -1    0    0    0  501  0.00000000000E+00  0.00000000000E+00 -0.17367437767E+04  0.17367437767E+04  0.25500000920E-02 0.  1.
    10030    2    1    2    0    0  0.00000000000E+00  0.00000000000E+00  0.36101269765E+02  0.35095888232E+04  0.35094031410E+04 0.  0.
        3    1    3    3  502    0  0.54383944258E+01  0.12454416306E+04 -0.12180662035E+04  0.17420791365E+04  0.10100000352E+00 0.  1.
       -3    1    3    3    0  502 -0.54383944258E+01 -0.12454416306E+04  0.12541674733E+04  0.17675096867E+04  0.10100000352E+00 0. -1.
</event>
<event>
 5   0  0.2641442E-07  0.3386621E+04  0.7818609E-02  0.8141198E-01
       -1   -1    0    0    0  501  0.00000000000E+00  0.00000000000E+00  0.15289836039E+04  0.15289836039E+04  0.50400001928E-02 0. -1.
        1   -1    0    0  501    0  0.00000000000E+00  0.00000000000E+00 -0.18752982017E+04  0.18752982017E+04  0.50400001928E-02 0.  1.
    10030    2    1    2    0    0  0.00000000000E+00  0.00000000000E+00 -0.34631459782E+03  0.34042818056E+04  0.33866208543E+04 0.  0.
        1    1    3    3  502    0 -0.20050837279E+02 -0.16765972364E+04  0.64549725182E+02  0.16779591760E+04  0.50400001928E-02 0. -1.
       -1    1    3    3    0  502  0.20050837279E+02  0.16765972364E+04 -0.41086432300E+03  0.17263226295E+04  0.50400001928E-02 0.  1.
</event>
<event>
 5   0  0.7899402E-07  0.3421932E+04  0.7818609E-02  0.8132544E-01
        2   -1    0    0  501    0  0.00000000000E+00  0.00000000000E+00  0.26393666248E+04  0.26393666248E+04  0.25500000920E-02 0.  1.
       -2   -1    0    0    0  501  0.00000000000E+00  0.00000000000E+00 -0.11091313147E+04  0.11091313147E+04  0.25500000920E-02 0. -1.
    10030    2    1    2    0    0  0.00000000000E+00  0.00000000000E+00  0.15302353101E+04  0.37484979394E+04  0.34219317202E+04 0.  0.
        2    1    3    3  502    0 -0.13741199503E+04 -0.98388584504E+03  0.47288696908E+03  0.17549527285E+04  0.25500000920E-02 0. -1.
       -2    1    3    3    0  502  0.13741199503E+04  0.98388584504E+03  0.10573483410E+04  0.19935452109E+04  0.25500000920E-02 0.  1.
</event>
<event>
 5   0  0.2592200E-07  0.3399604E+04  0.7818609E-02  0.8138004E-01
        1   -1    0    0  501    0  0.00000000000E+00  0.00000000000E+00  0.10239822079E+04  0.10239822080E+04  0.50400001928E-02 0.  1.
       -1   -1    0    0    0  501  0.00000000000E+00  0.00000000000E+00 -0.28216570904E+04  0.28216570904E+04  0.50400001928E-02 0. -1.
    10030    2    1    2    0    0  0.00000000000E+00  0.00000000000E+00 -0.17976748825E+04  0.38456392984E+04  0.33996038931E+04 0.  0.
        4    1    3    3  502    0 -0.14079261704E+04 -0.55179928711E+03 -0.20725416126E+02  0.15123391519E+04  0.12699999809E+01 0.  1.
       -4    1    3    3    0  502  0.14079261704E+04  0.55179928711E+03 -0.17769494664E+04  0.23333001465E+04  0.12699999809E+01 0. -1.
</event>
<event>
 5   0  0.2641442E-07  0.3369662E+04  0.7818609E-02  0.8145393E-01
       -1   -1    0    0    0  501  0.00000000000E+00  0.00000000000E+00  0.19633065420E+04  0.19633065420E+04  0.50400001928E-02 0.  1.
        1   -1    0    0  501    0  0.00000000000E+00  0.00000000000E+00 -0.14458542254E+04  0.14458542254E+04  0.50400001928E-02 0. -1.
    10030    2    1    2    0    0  0.00000000000E+00  0.00000000000E+00  0.51745231660E+03  0.34091607674E+04  0.33696617394E+04 0.  0.
        1    1    3    3  502    0 -0.31835017810E+03 -0.11216078480E+04 -0.97179730632E+03  0.15178079606E+04  0.50400001928E-02 0. -1.
       -1    1    3    3    0  502  0.31835017810E+03  0.11216078480E+04  0.14892496229E+04  0.18913528069E+04  0.50400001928E-02 0.  1.
</event>
<event>
 5   0  0.2599367E-07  0.3069226E+04  0.7818609E-02  0.8224235E-01
        1   -1    0    0  501    0  0.00000000000E+00  0.00000000000E+00  0.15409354038E+04  0.15409354038E+04  0.50400001928E-02 0. -1.
       -1   -1    0    0    0  501  0.00000000000E+00  0.00000000000E+00 -0.15283161263E+04  0.15283161263E+04  0.50400001928E-02 0.  1.
    10030    2    1    2    0    0  0.00000000000E+00  0.00000000000E+00  0.12619277519E+02  0.30692515302E+04  0.30692255879E+04 0.  0.
        2    1    3    3  502    0  0.67741263446E+03  0.11437685826E+04 -0.76047058957E+03  0.15314731357E+04  0.25500000920E-02 0.  1.
       -2    1    3    3    0  502 -0.67741263446E+03 -0.11437685826E+04  0.77308986709E+03  0.15377783944E+04  0.25500000920E-02 0. -1.
</event>
<event>
 5   0  0.2622205E-07  0.3418670E+04  0.7818609E-02  0.8133339E-01
        1   -1    0    0  501    0  0.00000000000E+00  0.00000000000E+00  0.23551513007E+04  0.23551513007E+04  0.50400001928E-02 0.  1.
       -1   -1    0    0    0  501  0.00000000000E+00  0.00000000000E+00 -0.12406109770E+04  0.12406109770E+04  0.50400001928E-02 0. -1.
    10030    2    1    2    0    0  0.00000000000E+00  0.00000000000E+00  0.11145403237E+04  0.35957622778E+04  0.34186702422E+04 0.  0.
        3    1    3    3  502    0 -0.22411161794E+03  0.11765772942E+04 -0.72543884299E+03  0.14002934234E+04  0.10100000352E+00 0. -1.
       -3    1    3    3    0  502  0.22411161794E+03 -0.11765772942E+04  0.18399791667E+04  0.21954688544E+04  0.10100000352E+00 0.  1.
</event>
<event>
 5   0  0.7610412E-07  0.3392777E+04  0.7818609E-02  0.8139681E-01
       -2   -1    0    0    0  501  0.00000000000E+00  0.00000000000E+00  0.13187151205E+04  0.13187151205E+04  0.25500000920E-02 0.  1.
        2   -1    0    0  501    0  0.00000000000E+00  0.00000000000E+00 -0.21822255551E+04  0.21822255551E+04  0.25500000920E-02 0. -1.
    10030    2    1    2    0    0  0.00000000000E+00  0.00000000000E+00 -0.86351043466E+03  0.35009406756E+04  0.33927769369E+04 0.  0.
        4    1    3    3  502    0  0.15589812630E+03 -0.10326633249E+04 -0.18111732761E+04  0.20907051484E+04  0.12699999809E+01 0. -1.
       -4    1    3    3    0  502 -0.15589812630E+03  0.10326633249E+04  0.94766284143E+03  0.14102355273E+04  0.12699999809E+01 0.  1.
</event>
<event>
 5   0  0.7610412E-07  0.3376392E+04  0.7818609E-02  0.8143725E-01
        2   -1    0    0  501    0  0.00000000000E+00  0.00000000000E+00  0.19824932495E+04  0.19824932495E+04  0.25500000920E-02 0. -1.
       -2   -1    0    0    0  501  0.00000000000E+00  0.00000000000E+00 -0.14375863127E+04  0.14375863127E+04  0.25500000920E-02 0.  1.
    10030    2    1    2    0    0  0.00000000000E+00  0.00000000000E+00  0.54490693683E+03  0.34200795622E+04  0.33763916600E+04 0.  0.
        4    1    3    3  502    0  0.89297227030E+03  0.50009426838E+02  0.17227982100E+04  0.19411171277E+04  0.12699999809E+01 0. -1.
       -4    1    3    3    0  502 -0.89297227030E+03 -0.50009426838E+02 -0.11778912732E+04  0.14789624345E+04  0.12699999809E+01 0.  1.
</event>
<event>
 5   0  0.2599367E-07  0.3420241E+04  0.7818609E-02  0.8132956E-01
        1   -1    0    0  501    0  0.00000000000E+00  0.00000000000E+00  0.17350336300E+04  0.17350336300E+04  0.50400001928E-02 0.  1.
       -1   -1    0    0    0  501  0.00000000000E+00  0.00000000000E+00 -0.16855651918E+04  0.16855651918E+04  0.50400001928E-02 0. -1.
    10030    2    1    2    0    0  0.00000000000E+00  0.00000000000E+00  0.49468438226E+02  0.34205988218E+04  0.34202410987E+04 0.  0.
        2    1    3    3  502    0  0.15556731799E+04 -0.44749987400E+03  0.57627817575E+03  0.17182757974E+04  0.25500000920E-02 0.  1.
       -2    1    3    3    0  502 -0.15556731799E+04  0.44749987400E+03 -0.52680973752E+03  0.17023230245E+04  0.25500000920E-02 0. -1.
</event>
<event>
 5   0  0.7610412E-07  0.3391068E+04  0.7818609E-02  0.8140102E-01
       -2   -1    0    0    0  501  0.00000000000E+00  0.00000000000E+00  0.15424055896E+04  0.15424055896E+04  0.25500000920E-02 0. -1.
        2   -1    0    0  501    0  0.00000000000E+00  0.00000000000E+00 -0.18638646071E+04  0.18638646071E+04  0.25500000920E-02 0.  1.
    10030    2    1    2    0    0  0.00000000000E+00  0.00000000000E+00 -0.32145901756E+03  0.34062701967E+04  0.33910677895E+04 0.  0.
        4    1    3    3  502    0 -0.72998435868E+03  0.15286039390E+04 -0.23403894450E+03  0.17100535099E+04  0.12699999809E+01 0. -1.
       -4    1    3    3    0  502  0.72998435868E+03 -0.15286039390E+04 -0.87420073054E+02  0.16962166868E+04  0.12699999809E+01 0.  1.
</event>
<event>
 5   0  0.7838333E-07  0.3381593E+04  0.7818609E-02  0.8142439E-01
       -2   -1    0    0    0  501  0.00000000000E+00  0.00000000000E+00  0.17277840145E+04  0.17277840145E+04  0.25500000920E-02 0.  1.
        2   -1    0    0  501    0  0.00000000000E+00  0.00000000000E+00 -0.16546005024E+04  0.16546005024E+04  0.25500000920E-02 0. -1.
    10030    2    1    2    0    0  0.00000000000E+00  0.00000000000E+00  0.73183512089E+02  0.33823845169E+04  0.33815927008E+04 0.  0.
        1    1    3    3  502    0 -0.24459904962E+03 -0.60309913013E+03 -0.15242976123E+04  0.16574198221E+04  0.50400001928E-02 0. -1.
       -1    1    3    3    0  502  0.24459904962E+03  0.60309913013E+03  0.15974811243E+04  0.17249646949E+04  0.50400001928E-02 0.  1.
</event>
<event>
 5   0  0.7610412E-07  0.3393291E+04  0.7818609E-02  0.8139555E-01
       -2   -1    0    0    0  501  0.00000000000E+00  0.00000000000E+00  0.13859864894E+04  0.13859864894E+04  0.25500000920E-02 0.  1.
        2   -1    0    0  501    0  0.00000000000E+00  0.00000000000E+00 -0.20769366403E+04  0.20769366403E+04  0.25500000920E-02 0. -1.
    10030    2    1    2    0    0  0.00000000000E+00  0.00000000000E+00 -0.69095015089E+03  0.34629231296E+04  0.33932911002E+04 0.  0.
        4    1    3    3  502    0  0.28722259083E+03  0.44285101965E+03 -0.19910119836E+04  0.20597922648E+04  0.12699999809E+01 0. -1.
       -4    1    3    3    0  502 -0.28722259083E+03 -0.44285101965E+03  0.13000618327E+04  0.14031308649E+04  0.12699999809E+01 0.  1.
</event>
<event>
 5   0  0.2553250E-07  0.3452353E+04  0.7818609E-02  0.8125176E-01
        1   -1    0    0  501    0  0.00000000000E+00  0.00000000000E+00  0.17872864895E+04  0.17872864895E+04  0.50400001928E-02 0. -1.
       -1   -1    0    0    0  501  0.00000000000E+00  0.00000000000E+00 -0.16671554709E+04  0.16671554709E+04  0.50400001928E-02 0.  1.
    10030    2    1    2    0    0  0.00000000000E+00  0.00000000000E+00  0.12013101858E+03  0.34544419605E+04  0.34523525018E+04 0.  0.
        5    1    3    3  502    0 -0.36750171997E+03 -0.10392539643E+04  0.13892354024E+04  0.17734439404E+04  0.46999998093E+01 0. -1.
       -5    1    3    3    0  502  0.36750171997E+03  0.10392539643E+04 -0.12691043838E+04  0.16809980201E+04  0.46999998093E+01 0.  1.
</event>
<event>
 5   0  0.7822003E-07  0.3445074E+04  0.7818609E-02  0.8126932E-01
        2   -1    0    0  501    0  0.00000000000E+00  0.00000000000E+00  0.11085034411E+04  0.11085034411E+04  0.25500000920E-02 0. -1.
       -2   -1    0    0    0  501  0.00000000000E+00  0.00000000000E+00 -0.26767019326E+04  0.26767019326E+04  0.25500000920E-02 0.  1.
    10030    2    1    2    0    0  0.00000000000E+00  0.00000000000E+00 -0.15681984915E+04  0.37852053736E+04  0.34450737600E+04 0.  0.
        5    1    3    3  502    0 -0.65855694028E+02  0.17307370292E+03  0.10975280658E+04  0.11130505039E+04  0.46999998093E+01 0. -1.
       -5    1    3    3    0  502  0.65855694028E+02 -0.17307370292E+03 -0.26657265573E+04  0.26721548697E+04  0.46999998093E+01 0.  1.
</event>
<event>
 5   0  0.2553250E-07  0.3393963E+04  0.7818609E-02  0.8139389E-01
        1   -1    0    0  501    0  0.00000000000E+00  0.00000000000E+00  0.20198280780E+04  0.20198280780E+04  0.50400001928E-02 0.  1.
       -1   -1    0    0    0  501  0.00000000000E+00  0.00000000000E+00 -0.14257386360E+04  0.14257386360E+04  0.50400001928E-02 0. -1.
    10030    2    1    2    0    0  0.00000000000E+00  0.00000000000E+00  0.59408944200E+03  0.34455667140E+04  0.33939634228E+04 0.  0.
        5    1    3    3  502    0  0.16021585858E+04  0.10472819306E+03 -0.26071261399E+03  0.16266140556E+04  0.46999998093E+01 0.  1.
       -5    1    3    3    0  502 -0.16021585858E+04 -0.10472819306E+03  0.85480205598E+03  0.18189526584E+04  0.46999998093E+01 0. -1.
</event>
<event>
 5   0  0.2622205E-07  0.3103891E+04  0.7818609E-02  0.8214671E-01
        1   -1    0    0  501    0  0.00000000000E+00  0.00000000000E+00  0.17432272322E+04  0.17432272322E+04  0.50400001928E-02 0.  1.
       -1   -1    0    0    0  501  0.00000000000E+00  0.00000000000E+00 -0.13816525073E+04  0.13816525073E+04  0.50400001928E-02 0. -1.
    10030    2    1    2    0    0  0.00000000000E+00  0.00000000000E+00  0.36157472492E+03  0.31248797395E+04  0.31038906399E+04 0.  0.
        3    1    3    3  502    0  0.65643803517E+03  0.62176616790E+03 -0.10891026549E+04  0.14155029723E+04  0.10100000352E+00 0. -1.
       -3    1    3    3    0  502 -0.65643803517E+03 -0.62176616790E+03  0.14506773798E+04  0.17093767672E+04  0.10100000352E+00 0.  1.
</event>
<event>
 5   0  0.8489228E-07  0.3401754E+04  0.7818609E-02  0.8137476E-01
        2   -1    0    0  501    0  0.00000000000E+00  0.00000000000E+00  0.22051859481E+04  0.22051859481E+04  0.25500000920E-02 0. -1.
       -2   -1    0    0    0  501  0.00000000000E+00  0.00000000000E+00 -0.13118993214E+04  0.13118993214E+04  0.25500000920E-02 0.  1.
    10030    2    1    2    0    0  0.00000000000E+00  0.00000000000E+00  0.89328662674E+03  0.35170852695E+04  0.34017536353E+04 0.  0.
        3    1    3    3  502    0  0.94275606850E+03 -0.11542425761E+04 -0.40085307812E+03  0.15432913301E+04  0.10100000352E+00 0.  1.
       -3    1    3    3    0  502 -0.94275606850E+03  0.11542425761E+04  0.12941397049E+04  0.19737939394E+04  0.10100000352E+00 0. -1.
</event>
<event>
 5   0  0.2641442E-07  0.3414080E+04  0.7818609E-02  0.8134459E-01
        1   -1    0    0  501    0  0.00000000000E+00  0.00000000000E+00  0.21942756573E+04  0.21942756573E+04  0.50400001928E-02 0. -1.
       -1   -1    0    0    0  501  0.00000000000E+00  0.00000000000E+00 -0.13279941491E+04  0.13279941491E+04  0.50400001928E-02 0.  1.
    10030    2    1    2    0    0  0.00000000000E+00  0.00000000000E+00  0.86628150818E+03  0.35222698063E+04  0.34140798083E+04 0.  0.
        1    1    3    3  502    0 -0.21315789307E+03 -0.11192309863E+04  0.17445924136E+04  0.20836787127E+04  0.50400001928E-02 0. -1.
       -1    1    3    3    0  502  0.21315789307E+03  0.11192309863E+04 -0.87831090545E+03  0.14385910936E+04  0.50400001928E-02 0.  1.
</event>
<event>
 5   0  0.2592200E-07  0.3520210E+04  0.7818609E-02  0.8109017E-01
        1   -1    0    0  501    0  0.00000000000E+00  0.00000000000E+00  0.16304383331E+04  0.16304383331E+04  0.50400001928E-02 0. -1.
       -1   -1    0    0    0  501  0.00000000000E+00  0.00000000000E+00 -0.19000839646E+04  0.19000839646E+04  0.50400001928E-02 0.  1.
    10030    2    1    2    0    0  0.00000000000E+00  0.00000000000E+00 -0.26964563159E+03  0.35305222977E+04  0.35202100687E+04 0.  0.
        4    1    3    3  502    0  0.80226665065E+03  0.66419577184E+03 -0.15578451480E+04  0.18739452820E+04  0.12699999809E+01 0.  1.
       -4    1    3    3    0  502 -0.80226665065E+03 -0.66419577184E+03  0.12881995164E+04  0.16565770157E+04  0.12699999809E+01 0. -1.
</event>
<event>
 5   0  0.2553250E-07  0.3405849E+04  0.7818609E-02  0.8136472E-01
       -1   -1    0    0    0  501  0.00000000000E+00  0.00000000000E+00  0.12580463984E+04  0.12580463984E+04  0.50400001928E-02 0. -1.
        1   -1    0    0  501    0  0.00000000000E+00  0.00000000000E+00 -0.23051232119E+04  0.23051232119E+04  0.50400001928E-02 0.  1.
    10030    2    1    2    0    0  0.00000000000E+00  0.00000000000E+00 -0.10470768135E+04  0.35631696104E+04  0.34058490599E+04 0.  0.
        5    1    3    3  502    0 -0.77664942092E+03 -0.44977140022E+03 -0.20376093490E+04  0.22265113035E+04  0.46999998093E+01 0.  1.
       -5    1    3    3    0  502  0.77664942092E+03  0.44977140022E+03  0.99053253550E+03  0.13366583069E+04  0.46999998093E+01 0. -1.
</event>
<event>
 5   0  0.2592200E-07  0.3212546E+04  0.7818609E-02  0.8185512E-01
        1   -1    0    0  501    0  0.00000000000E+00  0.00000000000E+00  0.20258001482E+04  0.20258001482E+04  0.50400001928E-02 0. -1.
       -1   -1    0    0    0  501  0.00000000000E+00  0.00000000000E+00 -0.12736266373E+04  0.12736266373E+04  0.50400001928E-02 0.  1.
    10030    2    1    2    0    0  0.00000000000E+00  0.00000000000E+00  0.75217351089E+03  0.32994267854E+04  0.32125460498E+04 0.  0.
        4    1    3    3  502    0  0.91204492453E+01 -0.67418153109E+03 -0.11212533419E+04  0.13083633246E+04  0.12699999809E+01 0.  1.
       -4    1    3    3    0  502 -0.91204492453E+01  0.67418153109E+03  0.18734268528E+04  0.19910634609E+04  0.12699999809E+01 0. -1.
</event>
<event>
 5   0  0.2641442E-07  0.3395734E+04  0.7818609E-02  0.8138954E-01
        1   -1    0    0  501    0  0.00000000000E+00  0.00000000000E+00  0.16022230567E+04  0.16022230567E+04  0.50400001928E-02 0.  1.
       -1   -1    0    0    0  501  0.00000000000E+00  0.00000000000E+00 -0.17992199904E+04  0.17992199904E+04  0.50400001928E-02 0. -1.
    10030    2    1    2    0    0  0.00000000000E+00  0.00000000000E+00 -0.19699693366E+03  0.34014430471E+04  0.33957336484E+04 0.  0.
        1    1    3    3  502    0  0.73343866357E+03 -0.10738103497E+04  0.99501041246E+03  0.16373901983E+04  0.50400001928E-02 0.  1.
       -1    1    3    3    0  502 -0.73343866357E+03  0.10738103497E+04 -0.11920073461E+04  0.17640528489E+04  0.50400001928E-02 0. -1.
</event>
<event>
 5   0  0.7610412E-07  0.3393851E+04  0.7818609E-02  0.8139417E-01
       -2   -1    0    0    0  501  0.00000000000E+00  0.00000000000E+00  0.23010709541E+04  0.23010709541E+04  0.25500000920E-02 0. -1.
        2   -1    0    0  501    0  0.00000000000E+00  0.00000000000E+00 -0.12513982665E+04  0.12513982665E+04  0.25500000920E-02 0.  1.
    10030    2    1    2    0    0  0.00000000000E+00  0.00000000000E+00  0.10496726876E+04  0.35524692206E+04  0.33938510298E+04 0.  0.
        4    1    3    3  502    0 -0.61376124110E+03  0.66285339968E+03  0.20284538557E+04  0.22205188917E+04  0.12699999809E+01 0. -1.
       -4    1    3    3    0  502  0.61376124110E+03 -0.66285339968E+03 -0.97878116819E+03  0.13319503289E+04  0.12699999809E+01 0.  1.
</event>
<event>
 5   0  0.2592200E-07  0.3348484E+04  0.7818609E-02  0.8150667E-01
       -1   -1    0    0    0  501  0.00000000000E+00  0.00000000000E+00  0.17071991761E+04  0.17071991762E+04  0.50400001928E-02 0. -1.
        1   -1    0    0  501    0  0.00000000000E+00  0.00000000000E+00 -0.16419206059E+04  0.16419206059E+04  0.50400001928E-02 0.  1.
    10030    2    1    2    0    0  0.00000000000E+00  0.00000000000E+00  0.65278570245E+02  0.33491197821E+04  0.33484835408E+04 0.  0.
        4    1    3    3  502    0  0.10407544874E+04  0.33084302879E+03 -0.12366396205E+04  0.16498200437E+04  0.12699999809E+01 0.  1.
       -4    1    3    3    0  502 -0.10407544874E+04 -0.33084302879E+03  0.13019181907E+04  0.16992997384E+04  0.12699999809E+01 0. -1.
</event>
<event>
 5   0  0.2641442E-07  0.3344835E+04  0.7818609E-02  0.8151580E-01
       -1   -1    0    0    0  501  0.00000000000E+00  0.00000000000E+00  0.18307763716E+04  0.18307763716E+04  0.50400001928E-02 0. -1.
        1   -1    0    0  501    0  0.00000000000E+00  0.00000000000E+00 -0.15277561050E+04  0.15277561050E+04  0.50400001928E-02 0.  1.
    10030    2    1    2    0    0  0.00000000000E+00  0.00000000000E+00  0.30302026658E+03  0.33585324766E+04  0.33448346917E+04 0.  0.
        1    1    3    3  502    0  0.13919986322E+04 -0.75444628025E+03 -0.38933323550E+03  0.16304691810E+04  0.50400001928E-02 0.  1.
       -1    1    3    3    0  502 -0.13919986322E+04  0.75444628025E+03  0.69235350209E+03  0.17280632956E+04  0.50400001928E-02 0. -1.
</event>
<event>
 5   0  0.2622205E-07  0.3400121E+04  0.7818609E-02  0.8137877E-01
       -1   -1    0    0    0  501  0.00000000000E+00  0.00000000000E+00  0.20817996777E+04  0.20817996777E+04  0.50400001928E-02 0. -1.
        1   -1    0    0  501    0  0.00000000000E+00  0.00000000000E+00 -0.13883207686E+04  0.13883207686E+04  0.50400001928E-02 0.  1.
    10030    2    1    2    0    0  0.00000000000E+00  0.00000000000E+00  0.69347890912E+03  0.34701204463E+04  0.34001210147E+04 0.  0.
        3    1    3    3  502    0  0.62071561569E+03  0.54344100653E+03  0.18638107625E+04  0.20382361423E+04  0.10100000352E+00 0. -1.
       -3    1    3    3    0  502 -0.62071561569E+03 -0.54344100653E+03 -0.11703318533E+04  0.14318843041E+04  0.10100000352E+00 0.  1.
</event>
<event>
 5   0  0.2622205E-07  0.3341591E+04  0.7818609E-02  0.8152392E-01
       -1   -1    0    0    0  501  0.00000000000E+00  0.00000000000E+00  0.22093123938E+04  0.22093123938E+04  0.50400001928E-02 0. -1.
        1   -1    0    0  501    0  0.00000000000E+00  0.00000000000E+00 -0.12635416746E+04  0.12635416746E+04  0.50400001928E-02 0.  1.
    10030    2    1    2    0    0  0.00000000000E+00  0.00000000000E+00  0.94577071924E+03  0.34728540684E+04  0.33415914063E+04 0.  0.
        3    1    3    3  502    0  0.15905478432E+04  0.21469085337E+03  0.95547878739E+03  0.18678528656E+04  0.10100000352E+00 0. -1.
       -3    1    3    3    0  502 -0.15905478432E+04 -0.21469085337E+03 -0.97080681439E+01  0.16050012028E+04  0.10100000352E+00 0.  1.
</event>
<event>
 5   0  0.7610412E-07  0.3395202E+04  0.7818609E-02  0.8139085E-01
       -2   -1    0    0    0  501  0.00000000000E+00  0.00000000000E+00  0.13479774102E+04  0.13479774102E+04  0.25500000920E-02 0. -1.
        2   -1    0    0  501    0  0.00000000000E+00  0.00000000000E+00 -0.21379055307E+04  0.21379055307E+04  0.25500000920E-02 0.  1.
    10030    2    1    2    0    0  0.00000000000E+00  0.00000000000E+00 -0.78992812057E+03  0.34858829409E+04  0.33952015319E+04 0.  0.
        4    1    3    3  502    0  0.78765934252E+01 -0.16974429543E+04 -0.41727281014E+03  0.17479968063E+04  0.12699999809E+01 0.  1.
       -4    1    3    3    0  502 -0.78765934252E+01  0.16974429543E+04 -0.37265531044E+03  0.17378861346E+04  0.12699999809E+01 0. -1.
</event>
<event>
 5   0  0.2599367E-07  0.3211210E+04  0.7818609E-02  0.8185863E-01
        1   -1    0    0  501    0  0.00000000000E+00  0.00000000000E+00  0.22177501815E+04  0.22177501815E+04  0.50400001928E-02 0. -1.
       -1   -1    0    0    0  501  0.00000000000E+00  0.00000000000E+00 -0.11624243246E+04  0.11624243246E+04  0.50400001928E-02 0.  1.
    10030    2    1    2    0    0  0.00000000000E+00  0.00000000000E+00  0.10553258569E+04  0.33801745061E+04  0.32112095895E+04 0.  0.
        2    1    3    3  502    0  0.69699966460E+03  0.35277397873E+03 -0.94889631824E+03  0.12290900029E+04  0.25500000920E-02 0.  1.
       -2    1    3    3    0  502 -0.69699966460E+03 -0.35277397873E+03  0.20042221751E+04  0.21510845032E+04  0.25500000920E-02 0. -1.
</event>
<event>
 5   0  0.2592200E-07  0.3321979E+04  0.7818609E-02  0.8157325E-01
       -1   -1    0    0    0  501  0.00000000000E+00  0.00000000000E+00  0.21023557292E+04  0.21023557292E+04  0.50400001928E-02 0.  1.
        1   -1    0    0  501    0  0.00000000000E+00  0.00000000000E+00 -0.13122833411E+04  0.13122833411E+04  0.50400001928E-02 0. -1.
    10030    2    1    2    0    0  0.00000000000E+00  0.00000000000E+00  0.79007238809E+03  0.34146390702E+04  0.33219791693E+04 0.  0.
        4    1    3    3  502    0  0.59404658571E+03  0.83858724137E+03 -0.94626169918E+03  0.13969726997E+04  0.12699999809E+01 0. -1.
       -4    1    3    3    0  502 -0.59404658571E+03 -0.83858724137E+03  0.17363340873E+04  0.20176663706E+04  0.12699999809E+01 0.  1.
</event>
<event>
 5   0  0.7610412E-07  0.3360340E+04  0.7818609E-02  0.8147709E-01
       -2   -1    0    0    0  501  0.00000000000E+00  0.00000000000E+00  0.10214666184E+04  0.10214666184E+04  0.25500000920E-02 0.  1.
        2   -1    0    0  501    0  0.00000000000E+00  0.00000000000E+00 -0.27636457550E+04  0.27636457550E+04  0.25500000920E-02 0. -1.
    10030    2    1    2    0    0  0.00000000000E+00  0.00000000000E+00 -0.17421791367E+04  0.37851123734E+04  0.33603403898E+04 0.  0.
        4    1    3    3  502    0  0.77846168334E+03 -0.52086984457E+03  0.70010234634E+03  0.11693814158E+04  0.12699999809E+01 0.  1.
       -4    1    3    3    0  502 -0.77846168334E+03  0.52086984457E+03 -0.24422814830E+04  0.26157309576E+04  0.12699999809E+01 0. -1.
</event>
<event>
 5   0  0.7822003E-07  0.3392045E+04  0.7818609E-02  0.8139862E-01
        2   -1    0    0  501    0  0.00000000000E+00  0.00000000000E+00  0.13745776268E+04  0.13745776268E+04  0.25500000920E-02 0.  1.
       -2   -1    0    0    0  501  0.00000000000E+00  0.00000000000E+00 -0.20926366748E+04  0.20926366748E+04  0.25500000920E-02 0. -1.
    10030    2    1    2    0    0  0.00000000000E+00  0.00000000000E+00 -0.71805904799E+03  0.34672143016E+04  0.33920445482E+04 0.  0.
        5    1    3    3  502    0  0.77848280252E+03 -0.60822846875E+03  0.10501040896E+04  0.14417759996E+04  0.46999998093E+01 0.  1.
       -5    1    3    3    0  502 -0.77848280252E+03  0.60822846875E+03 -0.17681631376E+04  0.20254383020E+04  0.46999998093E+01 0. -1.
</event>
<event>
 5   0  0.2592200E-07  0.3398275E+04  0.7818609E-02  0.8138330E-01
       -1   -1    0    0    0  501  0.00000000000E+00  0.00000000000E+00  0.13857380459E+04  0.13857380459E+04  0.50400001928E-02 0.  1.
        1   -1    0    0  501    0  0.00000000000E+00  0.00000000000E+00 -0.20834155212E+04  0.20834155213E+04  0.50400001928E-02 0. -1.
    10030    2    1    2    0    0  0.00000000000E+00  0.00000000000E+00 -0.69767747539E+03  0.34691535671E+04  0.33982749466E+04 0.  0.
        4    1    3    3  502    0 -0.10242690906E+04 -0.32938056045E+03  0.99367501229E+03  0.14645853907E+04  0.12699999809E+01 0.  1.
       -4    1    3    3    0  502  0.10242690906E+04  0.32938056045E+03 -0.16913524877E+04  0.20045681765E+04  0.12699999809E+01 0. -1.
</event>
<event>
 5   0  0.7610412E-07  0.3607185E+04  0.7818609E-02  0.8088848E-01
       -2   -1    0    0    0  501  0.00000000000E+00  0.00000000000E+00  0.30168500495E+04  0.30168500495E+04  0.25500000920E-02 0.  1.
        2   -1    0    0  501    0  0.00000000000E+00  0.00000000000E+00 -0.10782587758E+04  0.10782587758E+04  0.25500000920E-02 0. -1.
    10030    2    1    2    0    0  0.00000000000E+00  0.00000000000E+00  0.19385912737E+04  0.40951088253E+04  0.36071845204E+04 0.  0.
        4    1    3    3  502    0 -0.88467242396E+03 -0.13115974769E+03  0.27473879098E+04  0.28892888600E+04  0.12699999809E+01 0.  1.
       -4    1    3    3    0  502  0.88467242396E+03  0.13115974769E+03 -0.80879663606E+03  0.12058199652E+04  0.12699999809E+01 0. -1.
</event>
<event>
 5   0  0.8489228E-07  0.3404952E+04  0.7818609E-02  0.8136692E-01
        2   -1    0    0  501    0  0.00000000000E+00  0.00000000000E+00  0.11835398515E+04  0.11835398515E+04  0.25500000920E-02 0.  1.
       -2   -1    0    0    0  501  0.00000000000E+00  0.00000000000E+00 -0.24489452288E+04  0.24489452288E+04  0.25500000920E-02 0. -1.
    10030    2    1    2    0    0  0.00000000000E+00  0.00000000000E+00 -0.12654053773E+04  0.36324850803E+04  0.34049518484E+04 0.  0.
        3    1    3    3  502    0 -0.10732525590E+04  0.10235865599E+04  0.25911626107E+03  0.15055702402E+04  0.10100000352E+00 0.  1.
       -3    1    3    3    0  502  0.10732525590E+04 -0.10235865599E+04 -0.15245216384E+04  0.21269148401E+04  0.10100000352E+00 0. -1.
</event>
<event>
 5   0  0.2553250E-07  0.3358675E+04  0.7818609E-02  0.8148124E-01
        1   -1    0    0  501    0  0.00000000000E+00  0.00000000000E+00  0.16283029105E+04  0.16283029105E+04  0.50400001928E-02 0.  1.
       -1   -1    0    0    0  501  0.00000000000E+00  0.00000000000E+00 -0.17319715527E+04  0.17319715527E+04  0.50400001928E-02 0. -1.
    10030    2    1    2    0    0  0.00000000000E+00  0.00000000000E+00 -0.10366864217E+03  0.33602744632E+04  0.33586749293E+04 0.  0.
        5    1    3    3  502    0  0.15628233300E+04 -0.42819182311E+03 -0.49293796625E+03  0.16937458271E+04  0.46999998093E+01 0. -1.
       -5    1    3    3    0  502 -0.15628233300E+04  0.42819182311E+03  0.38926932408E+03  0.16665286361E+04  0.46999998093E+01 0.  1.
</event>
<event>
 5   0  0.7899402E-07  0.3392675E+04  0.7818609E-02  0.8139706E-01
       -2   -1    0    0    0  501  0.00000000000E+00  0.00000000000E+00  0.17796198658E+04  0.17796198658E+04  0.25500000920E-02 0. -1.
        2   -1    0    0  501    0  0.00000000000E+00  0.00000000000E+00 -0.16169525824E+04  0.16169525824E+04  0.25500000920E-02 0.  1.
    10030    2    1    2    0    0  0.00000000000E+00  0.00000000000E+00  0.16266728336E+03  0.33965724482E+04  0.33926750141E+04 0.  0.
        2    1    3    3  502    0 -0.22242944534E+02 -0.85779306062E+03 -0.13836509123E+04  0.16281257723E+04  0.25500000920E-02 0.  1.
       -2    1    3    3    0  502  0.22242944534E+02  0.85779306062E+03  0.15463181956E+04  0.17684466759E+04  0.25500000920E-02 0. -1.
</event>
<event>
 5   0  0.2553250E-07  0.3335825E+04  0.7818609E-02  0.8153839E-01
        1   -1    0    0  501    0  0.00000000000E+00  0.00000000000E+00  0.20246189420E+04  0.20246189420E+04  0.50400001928E-02 0.  1.
       -1   -1    0    0    0  501  0.00000000000E+00  0.00000000000E+00 -0.13740525955E+04  0.13740525955E+04  0.50400001928E-02 0. -1.
    10030    2    1    2    0    0  0.00000000000E+00  0.00000000000E+00  0.65056634643E+03  0.33986715375E+04  0.33358254824E+04 0.  0.
        5    1    3    3  502    0  0.16463271869E+04 -0.89363010765E+01  0.52969290823E+02  0.16472100350E+04  0.46999998093E+01 0. -1.
       -5    1    3    3    0  502 -0.16463271869E+04  0.89363010765E+01  0.59759705561E+03  0.17514615025E+04  0.46999998093E+01 0.  1.
</event>
<event>
 5   0  0.7899402E-07  0.3404078E+04  0.7818609E-02  0.8136906E-01
       -2   -1    0    0    0  501  0.00000000000E+00  0.00000000000E+00  0.11151107107E+04  0.11151107108E+04  0.25500000920E-02 0. -1.
        2   -1    0    0  501    0  0.00000000000E+00  0.00000000000E+00 -0.25978913306E+04  0.25978913306E+04  0.25500000920E-02 0.  1.
    10030    2    1    2    0    0  0.00000000000E+00  0.00000000000E+00 -0.14827806198E+04  0.37130020413E+04  0.34040778182E+04 0.  0.
        2    1    3    3  502    0  0.15220520728E+04  0.76107429310E+03 -0.70588043087E+03  0.18423202150E+04  0.25500000920E-02 0.  1.
       -2    1    3    3    0  502 -0.15220520728E+04 -0.76107429310E+03 -0.77690018895E+03  0.18706818263E+04  0.25500000920E-02 0. -1.
</event>
<event>
 5   0  0.2622205E-07  0.3409964E+04  0.7818609E-02  0.8135465E-01
       -1   -1    0    0    0  501  0.00000000000E+00  0.00000000000E+00  0.15492891602E+04  0.15492891602E+04  0.50400001928E-02 0.  1.
        1   -1    0    0  501    0  0.00000000000E+00  0.00000000000E+00 -0.18763204425E+04  0.18763204425E+04  0.50400001928E-02 0. -1.
    10030    2    1    2    0    0  0.00000000000E+00  0.00000000000E+00 -0.32703128225E+03  0.34256096027E+04  0.34099635908E+04 0.  0.
        3    1    3    3  502    0  0.88639665879E+03  0.20971348494E+03 -0.16114073362E+04  0.18510300904E+04  0.10100000352E+00 0. -1.
       -3    1    3    3    0  502 -0.88639665879E+03 -0.20971348494E+03  0.12843760539E+04  0.15745795123E+04  0.10100000352E+00 0.  1.
</event>
<event>
 5   0  0.8489228E-07  0.3444541E+04  0.7818609E-02  0.8127060E-01
        2   -1    0    0  501    0  0.00000000000E+00  0.00000000000E+00  0.16194419147E+04  0.16194419147E+04  0.25500000920E-02 0. -1.
       -2   -1    0    0    0  501  0.00000000000E+00  0.00000000000E+00 -0.18316288399E+04  0.18316288399E+04  0.25500000920E-02 0.  1.
    10030    2    1    2    0    0  0.00000000000E+00  0.00000000000E+00 -0.21218692521E+03  0.34510707546E+04  0.34445414879E+04 0.  0.
        3    1    3    3  502    0  0.41407685542E+03  0.58504908740E+02  0.15678020657E+04  0.16226169585E+04  0.10100000352E+00 0. -1.
       -3    1    3    3    0  502 -0.41407685542E+03 -0.58504908740E+02 -0.17799889909E+04  0.18284537961E+04  0.10100000352E+00 0.  1.
</event>
<event>
 5   0  0.2592200E-07  0.3131397E+04  0.7818609E-02  0.8207174E-01
       -1   -1    0    0    0  501  0.00000000000E+00  0.00000000000E+00  0.14245067346E+04  0.14245067346E+04  0.50400001928E-02 0.  1.
        1   -1    0    0  501    0  0.00000000000E+00  0.00000000000E+00 -0.17208841568E+04  0.17208841568E+04  0.50400001928E-02 0. -1.
    10030    2    1    2    0    0  0.00000000000E+00  0.00000000000E+00 -0.29637742214E+03  0.31453908914E+04  0.31313965388E+04 0.  0.
        4    1    3    3  502    0  0.45003907965E+03  0.17557272117E+03 -0.16441559306E+04  0.17136543673E+04  0.12699999809E+01 0. -1.
       -4    1    3    3    0  502 -0.45003907965E+03 -0.17557272117E+03  0.13477785084E+04  0.14317365241E+04  0.12699999809E+01 0.  1.
</event>
<event>
 5   0  0.2641442E-07  0.3410866E+04  0.7818609E-02  0.8135245E-01
       -1   -1    0    0    0  501  0.00000000000E+00  0.00000000000E+00  0.26465771614E+04  0.26465771614E+04  0.50400001928E-02 0. -1.
        1   -1    0    0  501    0  0.00000000000E+00  0.00000000000E+00 -0.10989671057E+04  0.10989671057E+04  0.50400001928E-02 0.  1.
    10030    2    1    2    0    0  0.00000000000E+00  0.00000000000E+00  0.15476100557E+04  0.37455442671E+04  0.34108657218E+04 0.  0.
        1    1    3    3  502    0  0.10323313680E+04 -0.40131405796E+03  0.21978698767E+04  0.24611771618E+04  0.50400001928E-02 0. -1.
       -1    1    3    3    0  502 -0.10323313680E+04  0.40131405796E+03 -0.65025982100E+03  0.12843671053E+04  0.50400001928E-02 0.  1.
</event>
<event>
 5   0  0.7899402E-07  0.3402622E+04  0.7818609E-02  0.8137263E-01
        2   -1    0    0  501    0  0.00000000000E+00  0.00000000000E+00  0.21556746155E+04  0.21556746155E+04  0.25500000920E-02 0. -1.
       -2   -1    0    0    0  501  0.00000000000E+00  0.00000000000E+00 -0.13427164373E+04  0.13427164373E+04  0.25500000920E-02 0.  1.
    10030    2    1    2    0    0  0.00000000000E+00  0.00000000000E+00  0.81295817825E+03  0.34983910528E+04  0.34026223650E+04 0.  0.
        2    1    3    3  502    0  0.12681204257E+04 -0.90002232620E+03  0.11160411655E+04  0.19140839806E+04  0.25500000920E-02 0.  1.
       -2    1    3    3    0  502 -0.12681204257E+04  0.90002232620E+03 -0.30308298726E+03  0.15843070722E+04  0.25500000920E-02 0. -1.
</event>
<event>
 5   0  0.2622205E-07  0.3395375E+04  0.7818609E-02  0.8139042E-01
        1   -1    0    0  501    0  0.00000000000E+00  0.00000000000E+00  0.24765191504E+04  0.24765191504E+04  0.50400001928E-02 0.  1.
       -1   -1    0    0    0  501  0.00000000000E+00  0.00000000000E+00 -0.11637879970E+04  0.11637879971E+04  0.50400001928E-02 0. -1.
    10030    2    1    2    0    0  0.00000000000E+00  0.00000000000E+00  0.13127311534E+04  0.36403071475E+04  0.33953752439E+04 0.  0.
        3    1    3    3  502    0  0.16837829062E+04  0.20870138058E+03  0.59328136530E+03  0.17974047764E+04  0.10100000352E+00 0. -1.
       -3    1    3    3    0  502 -0.16837829062E+04 -0.20870138058E+03  0.71944978808E+03  0.18429023711E+04  0.10100000352E+00 0.  1.
</event>
<event>
 5   0  0.7610412E-07  0.3421552E+04  0.7818609E-02  0.8132637E-01
       -2   -1    0    0    0  501  0.00000000000E+00  0.00000000000E+00  0.12146028172E+04  0.12146028172E+04  0.25500000920E-02 0. -1.
        2   -1    0    0  501    0  0.00000000000E+00  0.00000000000E+00 -0.24096389335E+04  0.24096389335E+04  0.25500000920E-02 0.  1.
    10030    2    1    2    0    0  0.00000000000E+00  0.00000000000E+00 -0.11950361163E+04  0.36242417506E+04  0.34215518333E+04 0.  0.
        4    1    3    3  502    0 -0.48618611784E+03 -0.15613589326E+04 -0.11298149566E+04  0.19876373177E+04  0.12699999809E+01 0.  1.
       -4    1    3    3    0  502  0.48618611784E+03  0.15613589326E+04 -0.65221159708E+02  0.16366044330E+04  0.12699999809E+01 0. -1.
</event>
<event>
 5   0  0.8489228E-07  0.3402356E+04  0.7818609E-02  0.8137328E-01
        2   -1    0    0  501    0  0.00000000000E+00  0.00000000000E+00  0.15580342713E+04  0.15580342714E+04  0.25500000920E-02 0.  1.
       -2   -1    0    0    0  501  0.00000000000E+00  0.00000000000E+00 -0.18574732091E+04  0.18574732091E+04  0.25500000920E-02 0. -1.
    10030    2    1    2    0    0  0.00000000000E+00  0.00000000000E+00 -0.29943893773E+03  0.34155074804E+04  0.34023561941E+04 0.  0.
        3    1    3    3  502    0 -0.79131579869E+03 -0.14171492742E+02  0.13619648832E+04  0.15752237548E+04  0.10100000352E+00 0.  1.
       -3    1    3    3    0  502  0.79131579869E+03  0.14171492742E+02 -0.16614038209E+04  0.18402837256E+04  0.10100000352E+00 0. -1.
</event>
<event>
 5   0  0.7822003E-07  0.3395337E+04  0.7818609E-02  0.8139052E-01
       -2   -1    0    0    0  501  0.00000000000E+00  0.00000000000E+00  0.18019414563E+04  0.18019414563E+04  0.25500000920E-02 0. -1.
        2   -1    0    0  501    0  0.00000000000E+00  0.00000000000E+00 -0.15994293602E+04  0.15994293602E+04  0.25500000920E-02 0.  1.
    10030    2    1    2    0    0  0.00000000000E+00  0.00000000000E+00  0.20251209613E+03  0.34013708165E+04  0.33953368437E+04 0.  0.
        5    1    3    3  502    0  0.16014564403E+04 -0.98132011363E+02  0.65700617616E+03  0.17337738686E+04  0.46999998093E+01 0.  1.
       -5    1    3    3    0  502 -0.16014564403E+04  0.98132011363E+02 -0.45449408003E+03  0.16675969479E+04  0.46999998093E+01 0. -1.
</event>
<event>
 5   0  0.2592200E-07  0.3412031E+04  0.7818609E-02  0.8134960E-01
        1   -1    0    0  501    0  0.00000000000E+00  0.00000000000E+00  0.28581593018E+04  0.28581593018E+04  0.50400001928E-02 0. -1.
       -1   -1    0    0    0  501  0.00000000000E+00  0.00000000000E+00 -0.10183089743E+04  0.10183089743E+04  0.50400001928E-02 0.  1.
    10030    2    1    2    0    0  0.00000000000E+00  0.00000000000E+00  0.18398503275E+04  0.38764682761E+04  0.34120312232E+04 0.  0.
        4    1    3    3  502    0 -0.14064751415E+04 -0.20688081171E+03  0.19914445595E+04  0.24467989374E+04  0.12699999809E+01 0. -1.
       -4    1    3    3    0  502  0.14064751415E+04  0.20688081171E+03 -0.15159423200E+03  0.14296693387E+04  0.12699999809E+01 0.  1.
</event>
<event>
 5   0  0.2622205E-07  0.3392725E+04  0.7818609E-02  0.8139694E-01
       -1   -1    0    0    0  501  0.00000000000E+00  0.00000000000E+00  0.12774434784E+04  0.12774434784E+04  0.50400001928E-02 0. -1.
        1   -1    0    0  501    0  0.00000000000E+00  0.00000000000E+00 -0.22526596325E+04  0.22526596325E+04  0.50400001928E-02 0.  1.
    10030    2    1    2    0    0  0.00000000000E+00  0.00000000000E+00 -0.97521615409E+03  0.35301031109E+04  0.33927247790E+04 0.  0.
        3    1    3    3  502    0 -0.71730592507E+03  0.12771015780E+04  0.40268418631E+03  0.15191019699E+04  0.10100000352E+00 0.  1.
       -3    1    3    3    0  502  0.71730592507E+03 -0.12771015780E+04 -0.13779003404E+04  0.20110011410E+04  0.10100000352E+00 0. -1.
</event>
<event>
 5   0  0.2553250E-07  0.3219837E+04  0.7818609E-02  0.8183598E-01
       -1   -1    0    0    0  501  0.00000000000E+00  0.00000000000E+00  0.12838462948E+04  0.12838462948E+04  0.50400001928E-02 0.  1.
        1   -1    0    0  501    0  0.00000000000E+00  0.00000000000E+00 -0.20188061410E+04  0.20188061410E+04  0.50400001928E-02 0. -1.
    10030    2    1    2    0    0  0.00000000000E+00  0.00000000000E+00 -0.73495984619E+03  0.33026524358E+04  0.32198365077E+04 0.  0.
        5    1    3    3  502    0  0.12457204964E+03  0.61458722670E+03 -0.18883779385E+04  0.19897811396E+04  0.46999998093E+01 0. -1.
       -5    1    3    3    0  502 -0.12457204964E+03 -0.61458722670E+03  0.11534180923E+04  0.13128712962E+04  0.46999998093E+01 0.  1.
</event>
<event>
 5   0  0.7610412E-07  0.3412469E+04  0.7818609E-02  0.8134853E-01
        2   -1    0    0  501    0  0.00000000000E+00  0.00000000000E+00  0.15909544784E+04  0.15909544784E+04  0.25500000920E-02 0. -1.
       -2   -1    0    0    0  501  0.00000000000E+00  0.00000000000E+00 -0.18298675607E+04  0.18298675607E+04  0.25500000920E-02 0.  1.
    10030    2    1    2    0    0  0.00000000000E+00  0.00000000000E+00 -0.23891308231E+03  0.34208220392E+04  0.34124688955E+04 0.  0.
        4    1    3    3  502    0 -0.13155341007E+04  0.93254286411E+03 -0.67846680244E+03  0.17494527654E+04  0.12699999809E+01 0. -1.
       -4    1    3    3    0  502  0.13155341007E+04 -0.93254286411E+03  0.43955372013E+03  0.16713692738E+04  0.12699999809E+01 0.  1.
</event>
<event>
 5   0  0.7610412E-07  0.3367656E+04  0.7818609E-02  0.8145891E-01
        2   -1    0    0  501    0  0.00000000000E+00  0.00000000000E+00  0.22185241163E+04  0.22185241163E+04  0.25500000920E-02 0. -1.
       -2   -1    0    0    0  501  0.00000000000E+00  0.00000000000E+00 -0.12780012291E+04  0.12780012291E+04  0.25500000920E-02 0.  1.
    10030    2    1    2    0    0  0.00000000000E+00  0.00000000000E+00  0.94052288719E+03  0.34965253453E+04  0.33676558894E+04 0.  0.
        4    1    3    3  502    0 -0.12056764308E+04  0.92907368423E+03 -0.27732048780E+03  0.15471722051E+04  0.12699999809E+01 0.  1.
       -4    1    3    3    0  502  0.12056764308E+04 -0.92907368423E+03  0.12178433750E+04  0.19493531402E+04  0.12699999809E+01 0. -1.
</event>
<event>
 5   0  0.7822003E-07  0.3405035E+04  0.7818609E-02  0.8136672E-01
        2   -1    0    0  501    0  0.00000000000E+00  0.00000000000E+00  0.97215254582E+03  0.97215254582E+03  0.25500000920E-02 0.  1.
       -2   -1    0    0    0  501  0.00000000000E+00  0.00000000000E+00 -0.29815952474E+04  0.29815952474E+04  0.25500000920E-02 0. -1.
    10030    2    1    2    0    0  0.00000000000E+00  0.00000000000E+00 -0.20094427016E+04  0.39537477932E+04  0.34050347489E+04 0.  0.
        5    1    3    3  502    0 -0.50036062001E+03  0.10045338894E+04  0.48186238026E+03  0.12213363700E+04  0.46999998093E+01 0.  1.
       -5    1    3    3    0  502  0.50036062001E+03 -0.10045338894E+04 -0.24913050818E+04  0.27324114233E+04  0.46999998093E+01 0. -1.
</event>
<event>
 5   0  0.7610412E-07  0.3381539E+04  0.7818609E-02  0.8142452E-01
       -2   -1    0    0    0  501  0.00000000000E+00  0.00000000000E+00  0.17971953630E+04  0.17971953630E+04  0.25500000920E-02 0.  1.
        2   -1    0    0  501    0  0.00000000000E+00  0.00000000000E+00 -0.15906463898E+04  0.15906463898E+04  0.25500000920E-02 0. -1.
    10030    2    1    2    0    0  0.00000000000E+00  0.00000000000E+00  0.20654897326E+03  0.33878417528E+04  0.33815394813E+04 0.  0.
        4    1    3    3  502    0 -0.45908951458E+03  0.45990191118E+03  0.16670896596E+04  0.17892631155E+04  0.12699999809E+01 0.  1.
       -4    1    3    3    0  502  0.45908951458E+03 -0.45990191118E+03 -0.14605406864E+04  0.15985786373E+04  0.12699999809E+01 0. -1.
</event>
<event>
 5   0  0.7899402E-07  0.3415032E+04  0.7818609E-02  0.8134227E-01
        2   -1    0    0  501    0  0.00000000000E+00  0.00000000000E+00  0.21509933975E+04  0.21509933975E+04  0.25500000920E-02 0. -1.
       -2   -1    0    0    0  501  0.00000000000E+00  0.00000000000E+00 -0.13554718526E+04  0.13554718526E+04  0.25500000920E-02 0.  1.
    10030    2    1    2    0    0  0.00000000000E+00  0.00000000000E+00  0.79552154491E+03  0.35064652501E+04  0.34150320674E+04 0.  0.
        2    1    3    3  502    0  0.10492628935E+04  0.45494295428E+03  0.16996537151E+04  0.20485967057E+04  0.25500000920E-02 0. -1.
       -2    1    3    3    0  502 -0.10492628935E+04 -0.45494295428E+03 -0.90413217023E+03  0.14578685444E+04  0.25500000920E-02 0.  1.
</event>
<event>
 5   0  0.7822003E-07  0.3395526E+04  0.7818609E-02  0.8139005E-01
        2   -1    0    0  501    0  0.00000000000E+00  0.00000000000E+00  0.18728915779E+04  0.18728915779E+04  0.25500000920E-02 0.  1.
       -2   -1    0    0    0  501  0.00000000000E+00  0.00000000000E+00 -0.15390103293E+04  0.15390103293E+04  0.25500000920E-02 0. -1.
    10030    2    1    2    0    0  0.00000000000E+00  0.00000000000E+00  0.33388124857E+03  0.34119019071E+04  0.33955261648E+04 0.  0.
        5    1    3    3  502    0 -0.89753047476E+03  0.12258109985E+04 -0.59447625534E+03  0.16314403652E+04  0.46999998093E+01 0. -1.
       -5    1    3    3    0  502  0.89753047476E+03 -0.12258109985E+04  0.92835750391E+03  0.17804615419E+04  0.46999998093E+01 0.  1.
</event>
<event>
 5   0  0.7822003E-07  0.3424331E+04  0.7818609E-02  0.8131960E-01
       -2   -1    0    0    0  501  0.00000000000E+00  0.00000000000E+00  0.21750157947E+04  0.21750157947E+04  0.25500000920E-02 0. -1.
        2   -1    0    0  501    0  0.00000000000E+00  0.00000000000E+00 -0.13478113961E+04  0.13478113961E+04  0.25500000920E-02 0.  1.
    10030    2    1    2    0    0  0.00000000000E+00  0.00000000000E+00  0.82720439853E+03  0.35228271908E+04  0.34243312193E+04 0.  0.
        5    1    3    3  502    0 -0.59673341549E+03  0.25396933177E+01  0.20645647642E+04  0.21490804952E+04  0.46999998093E+01 0. -1.
       -5    1    3    3    0  502  0.59673341549E+03 -0.25396933177E+01 -0.12373603657E+04  0.13737466956E+04  0.46999998093E+01 0.  1.
</event>
<event>
 5   0  0.2599367E-07  0.3389725E+04  0.7818609E-02  0.8140433E-01
        1   -1    0    0  501    0  0.00000000000E+00  0.00000000000E+00  0.14958248591E+04  0.14958248591E+04  0.50400001928E-02 0. -1.
       -1   -1    0    0    0  501  0.00000000000E+00  0.00000000000E+00 -0.19203843847E+04  0.19203843848E+04  0.50400001928E-02 0.  1.
    10030    2    1    2    0    0  0.00000000000E+00  0.00000000000E+00 -0.42455952564E+03  0.34162092439E+04  0.33897248866E+04 0.  0.
        2    1    3    3  502    0  0.16780446833E+04  0.21575209319E+03 -0.11061655735E+03  0.16954701259E+04  0.25500000920E-02 0.  1.
       -2    1    3    3    0  502 -0.16780446833E+04 -0.21575209319E+03 -0.31394296829E+03  0.17207391180E+04  0.25500000920E-02 0. -1.
</event>
<event>
 5   0  0.2599367E-07  0.3171748E+04  0.7818609E-02  0.8196318E-01
       -1   -1    0    0    0  501  0.00000000000E+00  0.00000000000E+00  0.12508456645E+04  0.12508456645E+04  0.50400001928E-02 0.  1.
        1   -1    0    0  501    0  0.00000000000E+00  0.00000000000E+00 -0.20106370750E+04  0.20106370750E+04  0.50400001928E-02 0. -1.
    10030    2    1    2    0    0  0.00000000000E+00  0.00000000000E+00 -0.75979141045E+03  0.32614827395E+04  0.31717482045E+04 0.  0.
        2    1    3    3  502    0 -0.13853103904E+04 -0.37162988615E+03 -0.10756496984E+04  0.17928234502E+04  0.25500000920E-02 0. -1.
       -2    1    3    3    0  502  0.13853103904E+04  0.37162988615E+03  0.31585828792E+03  0.14686592893E+04  0.25500000920E-02 0.  1.
</event>
<event>
 5   0  0.2599367E-07  0.3432774E+04  0.7818609E-02  0.8129909E-01
        1   -1    0    0  501    0  0.00000000000E+00  0.00000000000E+00  0.12066557248E+04  0.12066557248E+04  0.50400001928E-02 0. -1.
       -1   -1    0    0    0  501  0.00000000000E+00  0.00000000000E+00 -0.24414459097E+04  0.24414459097E+04  0.50400001928E-02 0.  1.
    10030    2    1    2    0    0  0.00000000000E+00  0.00000000000E+00 -0.12347901850E+04  0.36481016345E+04  0.34327742039E+04 0.  0.
        2    1    3    3  502    0  0.80766351593E+03 -0.89043292089E+03 -0.19193087031E+04  0.22647156641E+04  0.25500000920E-02 0.  1.
       -2    1    3    3    0  502 -0.80766351593E+03  0.89043292089E+03  0.68451851808E+03  0.13833859704E+04  0.25500000920E-02 0. -1.
</event>
<event>
 5   0  0.2553250E-07  0.3406849E+04  0.7818609E-02  0.8136227E-01
        1   -1    0    0  501    0  0.00000000000E+00  0.00000000000E+00  0.12841269145E+04  0.12841269146E+04  0.50400001928E-02 0. -1.
       -1   -1    0    0    0  501  0.00000000000E+00  0.00000000000E+00 -0.22596322089E+04  0.22596322089E+04  0.50400001928E-02 0.  1.
    10030    2    1    2    0    0  0.00000000000E+00  0.00000000000E+00 -0.97550529437E+03  0.35437591235E+04  0.34068487119E+04 0.  0.
        5    1    3    3  502    0 -0.77897453435E+03  0.88529805136E+02  0.10853020368E+04  0.13388582646E+04  0.46999998093E+01 0. -1.
       -5    1    3    3    0  502  0.77897453435E+03 -0.88529805136E+02 -0.20608073311E+04  0.22049008589E+04  0.46999998093E+01 0.  1.
</event>
<event>
 5   0  0.8489228E-07  0.2980705E+04  0.7818609E-02  0.8249262E-01
        2   -1    0    0  501    0  0.00000000000E+00  0.00000000000E+00  0.14074001894E+04  0.14074001894E+04  0.25500000920E-02 0. -1.
       -2   -1    0    0    0  501  0.00000000000E+00  0.00000000000E+00 -0.15781938853E+04  0.15781938853E+04  0.25500000920E-02 0.  1.
    10030    2    1    2    0    0  0.00000000000E+00  0.00000000000E+00 -0.17079369591E+03  0.29855940747E+04  0.29807048650E+04 0.  0.
        3    1    3    3  502    0 -0.14029711070E+04  0.18758793959E+03  0.38188010183E+03  0.14660660232E+04  0.10100000352E+00 0.  1.
       -3    1    3    3    0  502  0.14029711070E+04 -0.18758793959E+03 -0.55267379775E+03  0.15195280514E+04  0.10100000352E+00 0. -1.
</event>
<event>
 5   0  0.2641442E-07  0.3769908E+04  0.7818609E-02  0.8052644E-01
        1   -1    0    0  501    0  0.00000000000E+00  0.00000000000E+00  0.25346464595E+04  0.25346464595E+04  0.50400001928E-02 0. -1.
       -1   -1    0    0    0  501  0.00000000000E+00  0.00000000000E+00 -0.14017934881E+04  0.14017934881E+04  0.50400001928E-02 0.  1.
    10030    2    1    2    0    0  0.00000000000E+00  0.00000000000E+00  0.11328529714E+04  0.39364399477E+04  0.37699076391E+04 0.  0.
        1    1    3    3  502    0  0.37592441464E+03 -0.14367397736E+04  0.17785280414E+04  0.23170460368E+04  0.50400001928E-02 0. -1.
       -1    1    3    3    0  502 -0.37592441464E+03  0.14367397736E+04 -0.64567506999E+03  0.16193939109E+04  0.50400001928E-02 0.  1.
</event>
<event>
 5   0  0.2599367E-07  0.3436561E+04  0.7818609E-02  0.8128991E-01
       -1   -1    0    0    0  501  0.00000000000E+00  0.00000000000E+00  0.14889559567E+04  0.14889559567E+04  0.50400001928E-02 0.  1.
        1   -1    0    0  501    0  0.00000000000E+00  0.00000000000E+00 -0.19829251399E+04  0.19829251399E+04  0.50400001928E-02 0. -1.
    10030    2    1    2    0    0  0.00000000000E+00  0.00000000000E+00 -0.49396918323E+03  0.34718810966E+04  0.34365611875E+04 0.  0.
        2    1    3    3  502    0  0.72956426018E+03  0.65108328073E+03 -0.16744160715E+04  0.19390313635E+04  0.25500000920E-02 0. -1.
       -2    1    3    3    0  502 -0.72956426018E+03 -0.65108328073E+03  0.11804468883E+04  0.15328497331E+04  0.25500000920E-02 0.  1.
</event>
<event>
 5   0  0.2553250E-07  0.3375606E+04  0.7818609E-02  0.8143919E-01
       -1   -1    0    0    0  501  0.00000000000E+00  0.00000000000E+00  0.12664004225E+04  0.12664004225E+04  0.50400001928E-02 0.  1.
        1   -1    0    0  501    0  0.00000000000E+00  0.00000000000E+00 -0.22494300799E+04  0.22494300799E+04  0.50400001928E-02 0. -1.
    10030    2    1    2    0    0  0.00000000000E+00  0.00000000000E+00 -0.98302965748E+03  0.35158305024E+04  0.33756061403E+04 0.  0.
        5    1    3    3  502    0  0.16677426335E+04 -0.12334864199E+03 -0.72919778131E+03  0.18243716379E+04  0.46999998093E+01 0.  1.
       -5    1    3    3    0  502 -0.16677426335E+04  0.12334864199E+03 -0.25383187617E+03  0.16914588645E+04  0.46999998093E+01 0. -1.
</event>
<event>
 5   0  0.7899402E-07  0.3403792E+04  0.7818609E-02  0.8136976E-01
        2   -1    0    0  501    0  0.00000000000E+00  0.00000000000E+00  0.18739406751E+04  0.18739406751E+04  0.25500000920E-02 0. -1.
       -2   -1    0    0    0  501  0.00000000000E+00  0.00000000000E+00 -0.15456466559E+04  0.15456466559E+04  0.25500000920E-02 0.  1.
    10030    2    1    2    0    0  0.00000000000E+00  0.00000000000E+00  0.32829401917E+03  0.34195873310E+04  0.34037920840E+04 0.  0.
        2    1    3    3  502    0  0.31904658019E+03 -0.12235375181E+04  0.13085623328E+04  0.18196620998E+04  0.25500000920E-02 0. -1.
       -2    1    3    3    0  502 -0.31904658019E+03  0.12235375181E+04 -0.98026831361E+03  0.15999252312E+04  0.25500000920E-02 0.  1.
</event>
<event>
 5   0  0.7610412E-07  0.3488798E+04  0.7818609E-02  0.8116450E-01
        2   -1    0    0  501    0  0.00000000000E+00  0.00000000000E+00  0.19245526739E+04  0.19245526739E+04  0.25500000920E-02 0.  1.
       -2   -1    0    0    0  501  0.00000000000E+00  0.00000000000E+00 -0.15811096089E+04  0.15811096089E+04  0.25500000920E-02 0. -1.
    10030    2    1    2    0    0  0.00000000000E+00  0.00000000000E+00  0.34344306492E+03  0.35056622828E+04  0.34887984898E+04 0.  0.
        4    1    3    3  502    0  0.99974175393E+03  0.11189671268E+04  0.10656034864E+04  0.18404030560E+04  0.12699999809E+01 0.  1.
       -4    1    3    3    0  502 -0.99974175393E+03 -0.11189671268E+04 -0.72216042145E+03  0.16652592268E+04  0.12699999809E+01 0. -1.
</event>
<event>
 5   0  0.2622205E-07  0.3403622E+04  0.7818609E-02  0.8137018E-01
       -1   -1    0    0    0  501  0.00000000000E+00  0.00000000000E+00  0.11650773825E+04  0.11650773825E+04  0.50400001928E-02 0. -1.
        1   -1    0    0  501    0  0.00000000000E+00  0.00000000000E+00 -0.24858099753E+04  0.24858099753E+04  0.50400001928E-02 0.  1.
    10030    2    1    2    0    0  0.00000000000E+00  0.00000000000E+00 -0.13207325928E+04  0.36508873578E+04  0.34036221760E+04 0.  0.
        3    1    3    3  502    0 -0.90346665050E+03 -0.10379399353E+04 -0.17344019593E+04  0.22139831672E+04  0.10100000352E+00 0.  1.
       -3    1    3    3    0  502  0.90346665050E+03  0.10379399353E+04  0.41366936649E+03  0.14369041906E+04  0.10100000352E+00 0. -1.
</event>
<event>
 5   0  0.7899402E-07  0.3349379E+04  0.7818609E-02  0.8150443E-01
       -2   -1    0    0    0  501  0.00000000000E+00  0.00000000000E+00  0.15581356454E+04  0.15581356454E+04  0.25500000920E-02 0.  1.
        2   -1    0    0  501    0  0.00000000000E+00  0.00000000000E+00 -0.17999616930E+04  0.17999616930E+04  0.25500000920E-02 0. -1.
    10030    2    1    2    0    0  0.00000000000E+00  0.00000000000E+00 -0.24182604754E+03  0.33580973384E+04  0.33493787330E+04 0.  0.
        2    1    3    3  502    0  0.14352380572E+04 -0.36273070485E+03  0.66413389131E+03  0.16225152297E+04  0.25500000920E-02 0.  1.
       -2    1    3    3    0  502 -0.14352380572E+04  0.36273070485E+03 -0.90595993884E+03  0.17355821087E+04  0.25500000920E-02 0. -1.
</event>
<event>
 5   0  0.2553250E-07  0.3413996E+04  0.7818609E-02  0.8134480E-01
       -1   -1    0    0    0  501  0.00000000000E+00  0.00000000000E+00  0.11482131088E+04  0.11482131088E+04  0.50400001928E-02 0.  1.
        1   -1    0    0  501    0  0.00000000000E+00  0.00000000000E+00 -0.25377188090E+04  0.25377188090E+04  0.50400001928E-02 0. -1.
    10030    2    1    2    0    0  0.00000000000E+00  0.00000000000E+00 -0.13895057002E+04  0.36859319179E+04  0.34139959010E+04 0.  0.
        5    1    3    3  502    0 -0.43597679274E+03 -0.18995734749E+03 -0.24647456775E+04  0.25102097328E+04  0.46999998093E+01 0. -1.
       -5    1    3    3    0  502  0.43597679274E+03  0.18995734749E+03  0.10752399773E+04  0.11757221851E+04  0.46999998093E+01 0.  1.
</event>
<event>
 5   0  0.2592200E-07  0.3429566E+04  0.7818609E-02  0.8130688E-01
       -1   -1    0    0    0  501  0.00000000000E+00  0.00000000000E+00  0.17225492613E+04  0.17225492613E+04  0.50400001928E-02 0.  1.
        1   -1    0    0  501    0  0.00000000000E+00  0.00000000000E+00 -0.17070522291E+04  0.17070522291E+04  0.50400001928E-02 0. -1.
    10030    2    1    2    0    0  0.00000000000E+00  0.00000000000E+00  0.15497032124E+02  0.34296014904E+04  0.34295664777E+04 0.  0.
        4    1    3    3  502    0 -0.58901434123E+03  0.12316065007E+04 -0.10298975993E+04  0.17101120269E+04  0.12699999809E+01 0. -1.
       -4    1    3    3    0  502  0.58901434123E+03 -0.12316065007E+04  0.10453946314E+04  0.17194894635E+04  0.12699999809E+01 0.  1.
</event>
<event>
 5   0  0.2599367E-07  0.3451861E+04  0.7818609E-02  0.8125294E-01
       -1   -1    0    0    0  501  0.00000000000E+00  0.00000000000E+00  0.14798005550E+04  0.14798005550E+04  0.50400001928E-02 0.  1.
        1   -1    0    0  501    0  0.00000000000E+00  0.00000000000E+00 -0.20129983474E+04  0.20129983474E+04  0.50400001928E-02 0. -1.
    10030    2    1    2    0    0  0.00000000000E+00  0.00000000000E+00 -0.53319779242E+03  0.34927989024E+04  0.34518609889E+04 0.  0.
        2    1    3    3  502    0 -0.47610475299E+03 -0.16589582844E+04 -0.27086151771E+03  0.17470501673E+04  0.25500000920E-02 0.  1.
       -2    1    3    3    0  502  0.47610475299E+03  0.16589582844E+04 -0.26233627472E+03  0.17457487351E+04  0.25500000920E-02 0. -1.
</event>
<event>
 5   0  0.2553250E-07  0.3531987E+04  0.7818609E-02  0.8106251E-01
        1   -1    0    0  501    0  0.00000000000E+00  0.00000000000E+00  0.27903067792E+04  0.27903067793E+04  0.50400001928E-02 0. -1.
       -1   -1    0    0    0  501  0.00000000000E+00  0.00000000000E+00 -0.11177023358E+04  0.11177023358E+04  0.50400001928E-02 0.  1.
    10030    2    1    2    0    0  0.00000000000E+00  0.00000000000E+00  0.16726044435E+04  0.39080091151E+04  0.35319866391E+04 0.  0.
        5    1    3    3  502    0 -0.15333049602E+03  0.14809149140E+04  0.18872029982E+04  0.24037837818E+04  0.46999998093E+01 0. -1.
       -5    1    3    3    0  502  0.15333049602E+03 -0.14809149140E+04 -0.21459855471E+03  0.15042253332E+04  0.46999998093E+01 0.  1.
</event>
<event>
 5   0  0.2641442E-07  0.3394747E+04  0.7818609E-02  0.8139197E-01
        1   -1    0    0  501    0  0.00000000000E+00  0.00000000000E+00  0.16016059692E+04  0.16016059692E+04  0.50400001928E-02 0. -1.
       -1   -1    0    0    0  501  0.00000000000E+00  0.00000000000E+00 -0.17988674900E+04  0.17988674900E+04  0.50400001928E-02 0.  1.
    10030    2    1    2    0    0  0.00000000000E+00  0.00000000000E+00 -0.19726152084E+03  0.34004734592E+04  0.33947470656E+04 0.  0.
        1    1    3    3  502    0  0.91437372502E+03 -0.59819024873E+03  0.12024698447E+04  0.16247598623E+04  0.50400001928E-02 0. -1.
       -1    1    3    3    0  502 -0.91437372502E+03  0.59819024873E+03 -0.13997313655E+04  0.17757135969E+04  0.50400001928E-02 0.  1.
</event>
<event>
 5   0  0.8489228E-07  0.3498377E+04  0.7818609E-02  0.8114175E-01
       -2   -1    0    0    0  501  0.00000000000E+00  0.00000000000E+00  0.16381235589E+04  0.16381235589E+04  0.25500000920E-02 0.  1.
        2   -1    0    0  501    0  0.00000000000E+00  0.00000000000E+00 -0.18677841407E+04  0.18677841407E+04  0.25500000920E-02 0. -1.
    10030    2    1    2    0    0  0.00000000000E+00  0.00000000000E+00 -0.22966058182E+03  0.35059076996E+04  0.34983774547E+04 0.  0.
        3    1    3    3  502    0 -0.13492957591E+04  0.91284170116E+03 -0.75321179613E+03  0.17947721407E+04  0.10100000352E+00 0. -1.
       -3    1    3    3    0  502  0.13492957591E+04 -0.91284170116E+03  0.52355121431E+03  0.17111355589E+04  0.10100000352E+00 0.  1.
</event>
<event>
 5   0  0.8489228E-07  0.3399923E+04  0.7818609E-02  0.8137925E-01
       -2   -1    0    0    0  501  0.00000000000E+00  0.00000000000E+00  0.14188484878E+04  0.14188484878E+04  0.25500000920E-02 0.  1.
        2   -1    0    0  501    0  0.00000000000E+00  0.00000000000E+00 -0.20367703432E+04  0.20367703432E+04  0.25500000920E-02 0. -1.
    10030    2    1    2    0    0  0.00000000000E+00  0.00000000000E+00 -0.61792185544E+03  0.34556188310E+04  0.33999226588E+04 0.  0.
        3    1    3    3  502    0 -0.41175492314E+03  0.42201325555E+03 -0.19295179492E+04  0.20175918396E+04  0.10100000352E+00 0. -1.
       -3    1    3    3    0  502  0.41175492314E+03 -0.42201325555E+03  0.13115960938E+04  0.14380269914E+04  0.10100000352E+00 0.  1.
</event>
<event>
 5   0  0.2553250E-07  0.3422906E+04  0.7818609E-02  0.8132307E-01
       -1   -1    0    0    0  501  0.00000000000E+00  0.00000000000E+00  0.17718223563E+04  0.17718223563E+04  0.50400001928E-02 0. -1.
        1   -1    0    0  501    0  0.00000000000E+00  0.00000000000E+00 -0.16531404924E+04  0.16531404924E+04  0.50400001928E-02 0.  1.
    10030    2    1    2    0    0  0.00000000000E+00  0.00000000000E+00  0.11868186390E+03  0.34249628488E+04  0.34229059483E+04 0.  0.
        5    1    3    3  502    0 -0.69314370982E+03  0.30417114244E+03 -0.14765345188E+04  0.16592602453E+04  0.46999998093E+01 0.  1.
       -5    1    3    3    0  502  0.69314370982E+03 -0.30417114244E+03  0.15952163827E+04  0.17657026035E+04  0.46999998093E+01 0. -1.
</event>
<event>
 5   0  0.2622205E-07  0.3401110E+04  0.7818609E-02  0.8137634E-01
       -1   -1    0    0    0  501  0.00000000000E+00  0.00000000000E+00  0.18512257115E+04  0.18512257115E+04  0.50400001928E-02 0.  1.
        1   -1    0    0  501    0  0.00000000000E+00  0.00000000000E+00 -0.15621475109E+04  0.15621475109E+04  0.50400001928E-02 0. -1.
    10030    2    1    2    0    0  0.00000000000E+00  0.00000000000E+00  0.28907820053E+03  0.34133732224E+04  0.34011101937E+04 0.  0.
        3    1    3    3  502    0  0.83042748287E+03  0.45948190671E+03 -0.12716313275E+04  0.15867512944E+04  0.10100000352E+00 0. -1.
       -3    1    3    3    0  502 -0.83042748287E+03 -0.45948190671E+03  0.15607095280E+04  0.18266219280E+04  0.10100000352E+00 0.  1.
</event>
<event>
 5   0  0.2622205E-07  0.3401863E+04  0.7818609E-02  0.8137449E-01
       -1   -1    0    0    0  501  0.00000000000E+00  0.00000000000E+00  0.24176899678E+04  0.24176899678E+04  0.50400001928E-02 0.  1.
        1   -1    0    0  501    0  0.00000000000E+00  0.00000000000E+00 -0.11966664808E+04  0.11966664808E+04  0.50400001928E-02 0. -1.
    10030    2    1    2    0    0  0.00000000000E+00  0.00000000000E+00  0.12210234870E+04  0.36143564486E+04  0.34018633397E+04 0.  0.
        3    1    3    3  502    0  0.80410387512E+03  0.14944137620E+04  0.48792257372E+03  0.17657644187E+04  0.10100000352E+00 0. -1.
       -3    1    3    3    0  502 -0.80410387512E+03 -0.14944137620E+04  0.73310091326E+03  0.18485920300E+04  0.10100000352E+00 0.  1.
</event>
<event>
 5   0  0.7899402E-07  0.3384534E+04  0.7818609E-02  0.8141713E-01
       -2   -1    0    0    0  501  0.00000000000E+00  0.00000000000E+00  0.12968087773E+04  0.12968087773E+04  0.25500000920E-02 0. -1.
        2   -1    0    0  501    0  0.00000000000E+00  0.00000000000E+00 -0.22083185944E+04  0.22083185944E+04  0.25500000920E-02 0.  1.
    10030    2    1    2    0    0  0.00000000000E+00  0.00000000000E+00 -0.91150981714E+03  0.35051273717E+04  0.33845336082E+04 0.  0.
        2    1    3    3  502    0 -0.75851301075E+02  0.16814733646E+04 -0.63709632378E+03  0.17997215956E+04  0.25500000920E-02 0. -1.
       -2    1    3    3    0  502  0.75851301075E+02 -0.16814733646E+04 -0.27441349336E+03  0.17054057761E+04  0.25500000920E-02 0.  1.
</event>
<event>
 5   0  0.7899402E-07  0.3395569E+04  0.7818609E-02  0.8138995E-01
        2   -1    0    0  501    0  0.00000000000E+00  0.00000000000E+00  0.14301388697E+04  0.14301388697E+04  0.25500000920E-02 0.  1.
       -2   -1    0    0    0  501  0.00000000000E+00  0.00000000000E+00 -0.20155187451E+04  0.20155187451E+04  0.25500000920E-02 0. -1.
    10030    2    1    2    0    0  0.00000000000E+00  0.00000000000E+00 -0.58537987547E+03  0.34456576148E+04  0.33955687005E+04 0.  0.
        2    1    3    3  502    0  0.86221339685E+03  0.50006653821E+03  0.11019907846E+04  0.14858876720E+04  0.25500000920E-02 0.  1.
       -2    1    3    3    0  502 -0.86221339685E+03 -0.50006653821E+03 -0.16873706601E+04  0.19597699428E+04  0.25500000920E-02 0. -1.
</event>
<event>
 5   0  0.2592200E-07  0.3402477E+04  0.7818609E-02  0.8137299E-01
        1   -1    0    0  501    0  0.00000000000E+00  0.00000000000E+00  0.23399947580E+04  0.23399947580E+04  0.50400001928E-02 0. -1.
       -1   -1    0    0    0  501  0.00000000000E+00  0.00000000000E+00 -0.12368454700E+04  0.12368454700E+04  0.50400001928E-02 0.  1.
    10030    2    1    2    0    0  0.00000000000E+00  0.00000000000E+00  0.11031492881E+04  0.35768402280E+04  0.34024766957E+04 0.  0.
        4    1    3    3  502    0 -0.64664408571E+03  0.25594275252E+03  0.21837353114E+04  0.22918020834E+04  0.12699999809E+01 0. -1.
       -4    1    3    3    0  502  0.64664408571E+03 -0.25594275252E+03 -0.10805860234E+04  0.12850381446E+04  0.12699999809E+01 0.  1.
</event>
<event>
 5   0  0.7838333E-07  0.3381517E+04  0.7818609E-02  0.8142457E-01
        2   -1    0    0  501    0  0.00000000000E+00  0.00000000000E+00  0.17117057498E+04  0.17117057498E+04  0.25500000920E-02 0.  1.
       -2   -1    0    0    0  501  0.00000000000E+00  0.00000000000E+00 -0.16700680002E+04  0.16700680002E+04  0.25500000920E-02 0. -1.
    10030    2    1    2    0    0  0.00000000000E+00  0.00000000000E+00  0.41637749574E+02  0.33817737500E+04  0.33815174100E+04 0.  0.
        1    1    3    3  502    0  0.10480452547E+04 -0.67651136881E+03 -0.11205820224E+04  0.16768334911E+04  0.50400001928E-02 0. -1.
       -1    1    3    3    0  502 -0.10480452547E+04  0.67651136881E+03  0.11622197719E+04  0.17049402589E+04  0.50400001928E-02 0.  1.
</event>
<event>
 5   0  0.7822003E-07  0.3355376E+04  0.7818609E-02  0.8148946E-01
       -2   -1    0    0    0  501  0.00000000000E+00  0.00000000000E+00  0.12474938151E+04  0.12474938151E+04  0.25500000920E-02 0.  1.
        2   -1    0    0  501    0  0.00000000000E+00  0.00000000000E+00 -0.22562330836E+04  0.22562330836E+04  0.25500000920E-02 0. -1.
    10030    2    1    2    0    0  0.00000000000E+00  0.00000000000E+00 -0.10087392686E+04  0.35037268987E+04  0.33553758759E+04 0.  0.
        5    1    3    3  502    0 -0.56661849483E+03  0.51768982877E+03  0.10534180971E+04  0.13033691168E+04  0.46999998093E+01 0.  1.
       -5    1    3    3    0  502  0.56661849483E+03 -0.51768982877E+03 -0.20621573657E+04  0.22003577819E+04  0.46999998093E+01 0. -1.
</event>
<event>
 5   0  0.7822003E-07  0.3387036E+04  0.7818609E-02  0.8141096E-01
        2   -1    0    0  501    0  0.00000000000E+00  0.00000000000E+00  0.25714060831E+04  0.25714060831E+04  0.25500000920E-02 0.  1.
       -2   -1    0    0    0  501  0.00000000000E+00  0.00000000000E+00 -0.11153440800E+04  0.11153440800E+04  0.25500000920E-02 0. -1.
    10030    2    1    2    0    0  0.00000000000E+00  0.00000000000E+00  0.14560620031E+04  0.36867501631E+04  0.33870356077E+04 0.  0.
        5    1    3    3  502    0  0.13796956068E+04  0.44159872318E+03 -0.22674865911E+03  0.14662900273E+04  0.46999998093E+01 0. -1.
       -5    1    3    3    0  502 -0.13796956068E+04 -0.44159872318E+03  0.16828106622E+04  0.22204601358E+04  0.46999998093E+01 0.  1.
</event>
<event>
 5   0  0.7899402E-07  0.3391875E+04  0.7818609E-02  0.8139903E-01
       -2   -1    0    0    0  501  0.00000000000E+00  0.00000000000E+00  0.22362697679E+04  0.22362697679E+04  0.25500000920E-02 0.  1.
        2   -1    0    0  501    0  0.00000000000E+00  0.00000000000E+00 -0.12861612634E+04  0.12861612634E+04  0.25500000920E-02 0. -1.
    10030    2    1    2    0    0  0.00000000000E+00  0.00000000000E+00  0.95010850452E+03  0.35224310314E+04  0.33918747324E+04 0.  0.
        2    1    3    3  502    0  0.10768360910E+04 -0.85262877726E+03  0.15081578943E+04  0.20398754944E+04  0.25500000920E-02 0.  1.
       -2    1    3    3    0  502 -0.10768360910E+04  0.85262877726E+03 -0.55804938978E+03  0.14825555369E+04  0.25500000920E-02 0. -1.
</event>
<event>
 5   0  0.2553250E-07  0.3397677E+04  0.7818609E-02  0.8138477E-01
        1   -1    0    0  501    0  0.00000000000E+00  0.00000000000E+00  0.27026207980E+04  0.27026207980E+04  0.50400001928E-02 0. -1.
       -1   -1    0    0    0  501  0.00000000000E+00  0.00000000000E+00 -0.10678717680E+04  0.10678717680E+04  0.50400001928E-02 0.  1.
    10030    2    1    2    0    0  0.00000000000E+00  0.00000000000E+00  0.16347490299E+04  0.37704925660E+04  0.33976771182E+04 0.  0.
        5    1    3    3  502    0 -0.69795462143E+03  0.24147874793E+03 -0.88039025288E+03  0.11491569634E+04  0.46999998093E+01 0.  1.
       -5    1    3    3    0  502  0.69795462143E+03 -0.24147874793E+03  0.25151392828E+04  0.26213356025E+04  0.46999998093E+01 0. -1.
</event>
<event>
 5   0  0.8489228E-07  0.3388057E+04  0.7818609E-02  0.8140844E-01
        2   -1    0    0  501    0  0.00000000000E+00  0.00000000000E+00  0.14255411347E+04  0.14255411347E+04  0.25500000920E-02 0.  1.
       -2   -1    0    0    0  501  0.00000000000E+00  0.00000000000E+00 -0.20130825556E+04  0.20130825556E+04  0.25500000920E-02 0. -1.
    10030    2    1    2    0    0  0.00000000000E+00  0.00000000000E+00 -0.58754142095E+03  0.34386236903E+04  0.33880566645E+04 0.  0.
        3    1    3    3  502    0  0.59935490377E+03  0.19087700048E+03 -0.18901648402E+04  0.19920801850E+04  0.10100000352E+00 0. -1.
       -3    1    3    3    0  502 -0.59935490377E+03 -0.19087700048E+03  0.13026234193E+04  0.14465435053E+04  0.10100000352E+00 0.  1.
</event>
<event>
 5   0  0.2622205E-07  0.3405537E+04  0.7818609E-02  0.8136549E-01
       -1   -1    0    0    0  501  0.00000000000E+00  0.00000000000E+00  0.15901711335E+04  0.15901711335E+04  0.50400001928E-02 0.  1.
        1   -1    0    0  501    0  0.00000000000E+00  0.00000000000E+00 -0.18233388618E+04  0.18233388618E+04  0.50400001928E-02 0. -1.
    10030    2    1    2    0    0  0.00000000000E+00  0.00000000000E+00 -0.23316772830E+03  0.34135099952E+04  0.34055371526E+04 0.  0.
        3    1    3    3  502    0 -0.12580896727E+04  0.22910815643E+03  0.10103884664E+04  0.16297745351E+04  0.10100000352E+00 0.  1.
       -3    1    3    3    0  502  0.12580896727E+04 -0.22910815643E+03 -0.12435561947E+04  0.17837354601E+04  0.10100000352E+00 0. -1.
</event>
<event>
 5   0  0.7610412E-07  0.3412256E+04  0.7818609E-02  0.8134905E-01
        2   -1    0    0  501    0  0.00000000000E+00  0.00000000000E+00  0.26928089774E+04  0.26928089774E+04  0.25500000920E-02 0. -1.
       -2   -1    0    0    0  501  0.00000000000E+00  0.00000000000E+00 -0.10809799567E+04  0.10809799567E+04  0.25500000920E-02 0.  1.
    10030    2    1    2    0    0  0.00000000000E+00  0.00000000000E+00  0.16118290207E+04  0.37737889340E+04  0.34122558706E+04 0.  0.
        4    1    3    3  502    0  0.14193873676E+04  0.87091334776E+03  0.12163407247E+04  0.20621922631E+04  0.12699999809E+01 0.  1.
       -4    1    3    3    0  502 -0.14193873676E+04 -0.87091334776E+03  0.39548829603E+03  0.17115966709E+04  0.12699999809E+01 0. -1.
</event>
<event>
 5   0  0.2599367E-07  0.3443617E+04  0.7818609E-02  0.8127283E-01
       -1   -1    0    0    0  501  0.00000000000E+00  0.00000000000E+00  0.24617292864E+04  0.24617292864E+04  0.50400001928E-02 0.  1.
        1   -1    0    0  501    0  0.00000000000E+00  0.00000000000E+00 -0.12042854812E+04  0.12042854812E+04  0.50400001928E-02 0. -1.
    10030    2    1    2    0    0  0.00000000000E+00  0.00000000000E+00  0.12574438053E+04  0.36660147676E+04  0.34436171902E+04 0.  0.
        2    1    3    3  502    0 -0.10409738851E+03  0.57635287204E+03  0.23524273299E+04  0.24242386933E+04  0.25500000920E-02 0.  1.
       -2    1    3    3    0  502  0.10409738851E+03 -0.57635287204E+03 -0.10949835247E+04  0.12417760743E+04  0.25500000920E-02 0. -1.
</event>
<event>
 5   0  0.2641442E-07  0.3401232E+04  0.7818609E-02  0.8137604E-01
       -1   -1    0    0    0  501  0.00000000000E+00  0.00000000000E+00  0.11114568032E+04  0.11114568032E+04  0.50400001928E-02 0.  1.
        1   -1    0    0  501    0  0.00000000000E+00  0.00000000000E+00 -0.26020753725E+04  0.26020753725E+04  0.50400001928E-02 0. -1.
    10030    2    1    2    0    0  0.00000000000E+00  0.00000000000E+00 -0.14906185693E+04  0.37135321757E+04  0.34012317623E+04 0.  0.
        1    1    3    3  502    0 -0.36624323879E+03 -0.64530856749E+03  0.92540231701E+03  0.11861394124E+04  0.50400001928E-02 0.  1.
       -1    1    3    3    0  502  0.36624323879E+03  0.64530856749E+03 -0.24160208863E+04  0.25273927633E+04  0.50400001928E-02 0. -1.
</event>
<event>
 5   0  0.7822003E-07  0.3409964E+04  0.7818609E-02  0.8135465E-01
        2   -1    0    0  501    0  0.00000000000E+00  0.00000000000E+00  0.19237877327E+04  0.19237877327E+04  0.25500000920E-02 0. -1.
       -2   -1    0    0    0  501  0.00000000000E+00  0.00000000000E+00 -0.15110622368E+04  0.15110622368E+04  0.25500000920E-02 0.  1.
    10030    2    1    2    0    0  0.00000000000E+00  0.00000000000E+00  0.41272549597E+03  0.34348499695E+04  0.34099636329E+04 0.  0.
        5    1    3    3  502    0 -0.96181616650E+03 -0.11283654799E+04  0.10543150857E+04  0.18193134376E+04  0.46999998093E+01 0. -1.
       -5    1    3    3    0  502  0.96181616650E+03  0.11283654799E+04 -0.64158958969E+03  0.16155365319E+04  0.46999998093E+01 0.  1.
</event>
<event>
 5   0  0.2553250E-07  0.3421866E+04  0.7818609E-02  0.8132560E-01
        1   -1    0    0  501    0  0.00000000000E+00  0.00000000000E+00  0.31203434611E+04  0.31203434611E+04  0.50400001928E-02 0. -1.
       -1   -1    0    0    0  501  0.00000000000E+00  0.00000000000E+00 -0.93813120404E+03  0.93813120406E+03  0.50400001928E-02 0.  1.
    10030    2    1    2    0    0  0.00000000000E+00  0.00000000000E+00  0.21822122571E+04  0.40584746652E+04  0.34218659052E+04 0.  0.
        5    1    3    3  502    0 -0.93266036235E+03  0.14279413147E+04  0.93023357457E+03  0.19427373325E+04  0.46999998093E+01 0. -1.
       -5    1    3    3    0  502  0.93266036235E+03 -0.14279413147E+04  0.12519786825E+04  0.21157373327E+04  0.46999998093E+01 0.  1.
</event>
<event>
 5   0  0.8489228E-07  0.3415179E+04  0.7818609E-02  0.8134191E-01
       -2   -1    0    0    0  501  0.00000000000E+00  0.00000000000E+00  0.25299235975E+04  0.25299235975E+04  0.25500000920E-02 0.  1.
        2   -1    0    0  501    0  0.00000000000E+00  0.00000000000E+00 -0.11525491826E+04  0.11525491826E+04  0.25500000920E-02 0. -1.
    10030    2    1    2    0    0  0.00000000000E+00  0.00000000000E+00  0.13773744149E+04  0.36824727801E+04  0.34151786919E+04 0.  0.
        3    1    3    3  502    0  0.48262499032E+03 -0.52824046188E+02  0.24539330034E+04  0.25015004410E+04  0.10100000352E+00 0.  1.
       -3    1    3    3    0  502 -0.48262499032E+03  0.52824046188E+02 -0.10765585885E+04  0.11809723391E+04  0.10100000352E+00 0. -1.
</event>
<event>
 5   0  0.7838333E-07  0.3404332E+04  0.7818609E-02  0.8136844E-01
       -2   -1    0    0    0  501  0.00000000000E+00  0.00000000000E+00  0.87458820757E+03  0.87458820757E+03  0.25500000920E-02 0. -1.
        2   -1    0    0  501    0  0.00000000000E+00  0.00000000000E+00 -0.33128381197E+04  0.33128381197E+04  0.25500000920E-02 0.  1.
    10030    2    1    2    0    0  0.00000000000E+00  0.00000000000E+00 -0.24382499121E+04  0.41874263273E+04  0.34043320361E+04 0.  0.
        1    1    3    3  502    0  0.11058400613E+04  0.12211248548E+04 -0.17458028210E+04  0.24003865610E+04  0.50400001928E-02 0. -1.
       -1    1    3    3    0  502 -0.11058400613E+04 -0.12211248548E+04 -0.69244709107E+03  0.17870397663E+04  0.50400001928E-02 0.  1.
</event>
<event>
 5   0  0.2599367E-07  0.3427962E+04  0.7818609E-02  0.8131077E-01
        1   -1    0    0  501    0  0.00000000000E+00  0.00000000000E+00  0.25127472367E+04  0.25127472367E+04  0.50400001928E-02 0. -1.
       -1   -1    0    0    0  501  0.00000000000E+00  0.00000000000E+00 -0.11691312710E+04  0.11691312710E+04  0.50400001928E-02 0.  1.
    10030    2    1    2    0    0  0.00000000000E+00  0.00000000000E+00  0.13436159657E+04  0.36818785076E+04  0.34279622929E+04 0.  0.
        2    1    3    3  502    0  0.56656992295E+03 -0.40944100744E+03  0.23526837219E+04  0.24543357781E+04  0.25500000920E-02 0. -1.
       -2    1    3    3    0  502 -0.56656992295E+03  0.40944100744E+03 -0.10090677562E+04  0.12275427295E+04  0.25500000920E-02 0.  1.
</event>
<event>
 5   0  0.2599367E-07  0.3409588E+04  0.7818609E-02  0.8135557E-01
       -1   -1    0    0    0  501  0.00000000000E+00  0.00000000000E+00  0.18428689955E+04  0.18428689955E+04  0.50400001928E-02 0. -1.
        1   -1    0    0  501    0  0.00000000000E+00  0.00000000000E+00 -0.15770637462E+04  0.15770637462E+04  0.50400001928E-02 0.  1.
    10030    2    1    2    0    0  0.00000000000E+00  0.00000000000E+00  0.26580524932E+03  0.34199327418E+04  0.34095875891E+04 0.  0.
        2    1    3    3  502    0  0.12252628512E+04  0.93788622000E+03  0.85996211877E+03  0.17664751518E+04  0.25500000920E-02 0. -1.
       -2    1    3    3    0  502 -0.12252628512E+04 -0.93788622000E+03 -0.59415686946E+03  0.16534575900E+04  0.25500000920E-02 0.  1.
</event>
<event>
 5   0  0.8489228E-07  0.3413096E+04  0.7818609E-02  0.8134700E-01
       -2   -1    0    0    0  501  0.00000000000E+00  0.00000000000E+00  0.13573451041E+04  0.13573451041E+04  0.25500000920E-02 0.  1.
        2   -1    0    0  501    0  0.00000000000E+00  0.00000000000E+00 -0.21455901405E+04  0.21455901405E+04  0.25500000920E-02 0. -1.
    10030    2    1    2    0    0  0.00000000000E+00  0.00000000000E+00 -0.78824503639E+03  0.35029352447E+04  0.34130961151E+04 0.  0.
        3    1    3    3  502    0  0.91405124071E+03  0.10681846950E+04 -0.13869519849E+04  0.19748782321E+04  0.10100000352E+00 0. -1.
       -3    1    3    3    0  502 -0.91405124071E+03 -0.10681846950E+04  0.59870694847E+03  0.15280570125E+04  0.10100000352E+00 0.  1.
</event>
<event>
 5   0  0.8489228E-07  0.3399839E+04  0.7818609E-02  0.8137946E-01
        2   -1    0    0  501    0  0.00000000000E+00  0.00000000000E+00  0.22856004643E+04  0.22856004643E+04  0.25500000920E-02 0.  1.
       -2   -1    0    0    0  501  0.00000000000E+00  0.00000000000E+00 -0.12643183230E+04  0.12643183230E+04  0.25500000920E-02 0. -1.
    10030    2    1    2    0    0  0.00000000000E+00  0.00000000000E+00  0.10212821413E+04  0.35499187873E+04  0.33998391410E+04 0.  0.
        3    1    3    3  502    0 -0.82769030282E+03  0.11772116024E+03 -0.10348308529E+04  0.13303399615E+04  0.10100000352E+00 0. -1.
       -3    1    3    3    0  502  0.82769030282E+03 -0.11772116024E+03  0.20561129942E+04  0.22195788258E+04  0.10100000352E+00 0.  1.
</event>
<event>
 5   0  0.2592200E-07  0.3406006E+04  0.7818609E-02  0.8136434E-01
        1   -1    0    0  501    0  0.00000000000E+00  0.00000000000E+00  0.17273254840E+04  0.17273254840E+04  0.50400001928E-02 0. -1.
       -1   -1    0    0    0  501  0.00000000000E+00  0.00000000000E+00 -0.16790228399E+04  0.16790228399E+04  0.50400001928E-02 0.  1.
    10030    2    1    2    0    0  0.00000000000E+00  0.00000000000E+00  0.48302644166E+02  0.34063483239E+04  0.34060058365E+04 0.  0.
        4    1    3    3  502    0  0.55058664755E+03  0.13905465881E+04  0.83875876665E+03  0.17147254450E+04  0.12699999809E+01 0. -1.
       -4    1    3    3    0  502 -0.55058664755E+03 -0.13905465881E+04 -0.79045612248E+03  0.16916228789E+04  0.12699999809E+01 0.  1.
</event>
<event>
 5   0  0.2592200E-07  0.3421770E+04  0.7818609E-02  0.8132584E-01
        1   -1    0    0  501    0  0.00000000000E+00  0.00000000000E+00  0.25918151003E+04  0.25918151003E+04  0.50400001928E-02 0.  1.
       -1   -1    0    0    0  501  0.00000000000E+00  0.00000000000E+00 -0.11293734013E+04  0.11293734013E+04  0.50400001928E-02 0. -1.
    10030    2    1    2    0    0  0.00000000000E+00  0.00000000000E+00  0.14624416991E+04  0.37211885016E+04  0.34217697382E+04 0.  0.
        4    1    3    3  502    0 -0.58667170172E+03 -0.13765165003E+04 -0.17091215605E+03  0.15060524358E+04  0.12699999809E+01 0. -1.
       -4    1    3    3    0  502  0.58667170172E+03  0.13765165003E+04  0.16333538551E+04  0.22151360659E+04  0.12699999809E+01 0.  1.
</event>
<event>
 5   0  0.2641442E-07  0.3437664E+04  0.7818609E-02  0.8128724E-01
        1   -1    0    0  501    0  0.00000000000E+00  0.00000000000E+00  0.10990444855E+04  0.10990444855E+04  0.50400001928E-02 0. -1.
       -1   -1    0    0    0  501  0.00000000000E+00  0.00000000000E+00 -0.26881377747E+04  0.26881377747E+04  0.50400001928E-02 0.  1.
    10030    2    1    2    0    0  0.00000000000E+00  0.00000000000E+00 -0.15890932892E+04  0.37871822602E+04  0.34376637401E+04 0.  0.
        1    1    3    3  502    0 -0.12344712447E+04  0.28127740688E+03  0.48612034689E+03  0.13562260967E+04  0.50400001928E-02 0. -1.
       -1    1    3    3    0  502  0.12344712447E+04 -0.28127740688E+03 -0.20752136361E+04  0.24309561635E+04  0.50400001928E-02 0.  1.
</event>
<event>
 5   0  0.2641442E-07  0.3368474E+04  0.7818609E-02  0.8145688E-01
        1   -1    0    0  501    0  0.00000000000E+00  0.00000000000E+00  0.18665396477E+04  0.18665396477E+04  0.50400001928E-02 0.  1.
       -1   -1    0    0    0  501  0.00000000000E+00  0.00000000000E+00 -0.15197392342E+04  0.15197392342E+04  0.50400001928E-02 0. -1.
    10030    2    1    2    0    0  0.00000000000E+00  0.00000000000E+00  0.34680041343E+03  0.33862788819E+04  0.33684735622E+04 0.  0.
        1    1    3    3  502    0 -0.16095912773E+04  0.41182834051E+03  0.45102455252E+03  0.17215719007E+04  0.50400001928E-02 0.  1.
       -1    1    3    3    0  502  0.16095912773E+04 -0.41182834051E+03 -0.10422413908E+03  0.16647069812E+04  0.50400001928E-02 0. -1.
</event>
<event>
 5   0  0.2599367E-07  0.3404624E+04  0.7818609E-02  0.8136772E-01
        1   -1    0    0  501    0  0.00000000000E+00  0.00000000000E+00  0.19618217413E+04  0.19618217413E+04  0.50400001928E-02 0. -1.
       -1   -1    0    0    0  501  0.00000000000E+00  0.00000000000E+00 -0.14771300538E+04  0.14771300538E+04  0.50400001928E-02 0.  1.
    10030    2    1    2    0    0  0.00000000000E+00  0.00000000000E+00  0.48469168750E+03  0.34389517951E+04  0.34046238291E+04 0.  0.
        2    1    3    3  502    0  0.23518249907E+03  0.90082431900E+03  0.16818716766E+04  0.19223651053E+04  0.25500000920E-02 0. -1.
       -2    1    3    3    0  502 -0.23518249907E+03 -0.90082431900E+03 -0.11971799891E+04  0.15165866898E+04  0.25500000920E-02 0.  1.
</event>
<event>
 5   0  0.2553250E-07  0.3412896E+04  0.7818609E-02  0.8134748E-01
       -1   -1    0    0    0  501  0.00000000000E+00  0.00000000000E+00  0.18378678723E+04  0.18378678723E+04  0.50400001928E-02 0. -1.
        1   -1    0    0  501    0  0.00000000000E+00  0.00000000000E+00 -0.15844258324E+04  0.15844258324E+04  0.50400001928E-02 0.  1.
    10030    2    1    2    0    0  0.00000000000E+00  0.00000000000E+00  0.25344203994E+03  0.34222937047E+04  0.34128963263E+04 0.  0.
        5    1    3    3  502    0 -0.39223248528E+03 -0.59649371057E+03 -0.14274796641E+04  0.15960486680E+04  0.46999998093E+01 0.  1.
       -5    1    3    3    0  502  0.39223248528E+03  0.59649371057E+03  0.16809217040E+04  0.18262450367E+04  0.46999998093E+01 0. -1.
</event>
<event>
 5   0  0.2599367E-07  0.3404019E+04  0.7818609E-02  0.8136921E-01
        1   -1    0    0  501    0  0.00000000000E+00  0.00000000000E+00  0.30881972762E+04  0.30881972762E+04  0.50400001928E-02 0. -1.
       -1   -1    0    0    0  501  0.00000000000E+00  0.00000000000E+00 -0.93803452189E+03  0.93803452191E+03  0.50400001928E-02 0.  1.
    10030    2    1    2    0    0  0.00000000000E+00  0.00000000000E+00  0.21501627543E+04  0.40262317981E+04  0.34040185990E+04 0.  0.
        2    1    3    3  502    0  0.10919968160E+04 -0.28399495623E+03  0.25822545397E+04  0.28180043806E+04  0.25500000920E-02 0.  1.
       -2    1    3    3    0  502 -0.10919968160E+04  0.28399495623E+03 -0.43209178537E+03  0.12082274175E+04  0.25500000920E-02 0. -1.
</event>
<event>
 5   0  0.7838333E-07  0.3386445E+04  0.7818609E-02  0.8141241E-01
        2   -1    0    0  501    0  0.00000000000E+00  0.00000000000E+00  0.16293119841E+04  0.16293119841E+04  0.25500000920E-02 0.  1.
       -2   -1    0    0    0  501  0.00000000000E+00  0.00000000000E+00 -0.17596401323E+04  0.17596401323E+04  0.25500000920E-02 0. -1.
    10030    2    1    2    0    0  0.00000000000E+00  0.00000000000E+00 -0.13032814818E+03  0.33889521165E+04  0.33864451895E+04 0.  0.
        1    1    3    3  502    0 -0.28351220350E+03  0.13041178319E+04  0.97767273376E+03  0.16543719242E+04  0.50400001928E-02 0.  1.
       -1    1    3    3    0  502  0.28351220350E+03 -0.13041178319E+04 -0.11080008819E+04  0.17345801923E+04  0.50400001928E-02 0. -1.
</event>
<event>
 5   0  0.7838333E-07  0.3412156E+04  0.7818609E-02  0.8134929E-01
       -2   -1    0    0    0  501  0.00000000000E+00  0.00000000000E+00  0.13551563071E+04  0.13551563071E+04  0.25500000920E-02 0. -1.
        2   -1    0    0  501    0  0.00000000000E+00  0.00000000000E+00 -0.21478714863E+04  0.21478714863E+04  0.25500000920E-02 0.  1.
    10030    2    1    2    0    0  0.00000000000E+00  0.00000000000E+00 -0.79271517927E+03  0.35030277934E+04  0.34121556773E+04 0.  0.
        1    1    3    3  502    0 -0.64344620113E+02  0.16834010836E+04 -0.11950530620E+03  0.16888638064E+04  0.50400001928E-02 0.  1.
       -1    1    3    3    0  502  0.64344620113E+02 -0.16834010836E+04 -0.67320987307E+03  0.18141639870E+04  0.50400001928E-02 0. -1.
</event>
<event>
 5   0  0.7899402E-07  0.3396074E+04  0.7818609E-02  0.8138870E-01
       -2   -1    0    0    0  501  0.00000000000E+00  0.00000000000E+00  0.31433508386E+04  0.31433508386E+04  0.25500000920E-02 0.  1.
        2   -1    0    0  501    0  0.00000000000E+00  0.00000000000E+00 -0.91727916442E+03  0.91727916442E+03  0.25500000920E-02 0. -1.
    10030    2    1    2    0    0  0.00000000000E+00  0.00000000000E+00  0.22260716742E+04  0.40606300030E+04  0.33960743400E+04 0.  0.
        2    1    3    3  502    0  0.97869653870E+03  0.91110740180E+03  0.23644353499E+04  0.27163427869E+04  0.25500000920E-02 0.  1.
       -2    1    3    3    0  502 -0.97869653870E+03 -0.91110740180E+03 -0.13836367570E+03  0.13442872161E+04  0.25500000920E-02 0. -1.
</event>
<event>
 5   0  0.2592200E-07  0.3391354E+04  0.7818609E-02  0.8140032E-01
       -1   -1    0    0    0  501  0.00000000000E+00  0.00000000000E+00  0.18687571337E+04  0.18687571337E+04  0.50400001928E-02 0.  1.
        1   -1    0    0  501    0  0.00000000000E+00  0.00000000000E+00 -0.15386271111E+04  0.15386271111E+04  0.50400001928E-02 0. -1.
    10030    2    1    2    0    0  0.00000000000E+00  0.00000000000E+00  0.33013002261E+03  0.34073842448E+04  0.33913539420E+04 0.  0.
        4    1    3    3  502    0  0.45922680373E+03  0.60408210138E+03  0.16886477856E+04  0.18513069435E+04  0.12699999809E+01 0.  1.
       -4    1    3    3    0  502 -0.45922680373E+03 -0.60408210138E+03 -0.13585177630E+04  0.15560773013E+04  0.12699999809E+01 0. -1.
</event>
<event>
 5   0  0.2592200E-07  0.3392049E+04  0.7818609E-02  0.8139861E-01
        1   -1    0    0  501    0  0.00000000000E+00  0.00000000000E+00  0.17732172515E+04  0.17732172515E+04  0.50400001928E-02 0.  1.
       -1   -1    0    0    0  501  0.00000000000E+00  0.00000000000E+00 -0.16221921116E+04  0.16221921116E+04  0.50400001928E-02 0. -1.
    10030    2    1    2    0    0  0.00000000000E+00  0.00000000000E+00  0.15102513997E+03  0.33954093631E+04  0.33920489605E+04 0.  0.
        4    1    3    3  502    0 -0.11162468583E+04  0.70338177907E+03  0.11422814580E+04  0.17451537233E+04  0.12699999809E+01 0.  1.
       -4    1    3    3    0  502  0.11162468583E+04 -0.70338177907E+03 -0.99125631806E+03  0.16502556398E+04  0.12699999809E+01 0. -1.
</event>
<event>
 5   0  0.2641442E-07  0.3392498E+04  0.7818609E-02  0.8139750E-01
       -1   -1    0    0    0  501  0.00000000000E+00  0.00000000000E+00  0.12902624948E+04  0.12902624948E+04  0.50400001928E-02 0.  1.
        1   -1    0    0  501    0  0.00000000000E+00  0.00000000000E+00 -0.22299806799E+04  0.22299806799E+04  0.50400001928E-02 0. -1.
    10030    2    1    2    0    0  0.00000000000E+00  0.00000000000E+00 -0.93971818503E+03  0.35202431747E+04  0.33924978617E+04 0.  0.
        1    1    3    3  502    0 -0.68073036521E+03 -0.14961709404E+04 -0.35356375211E+02  0.16441324114E+04  0.50400001928E-02 0.  1.
       -1    1    3    3    0  502  0.68073036521E+03  0.14961709404E+04 -0.90436180982E+03  0.18761107633E+04  0.50400001928E-02 0. -1.
</event>
<event>
 5   0  0.2599367E-07  0.3340488E+04  0.7818609E-02  0.8152669E-01
        1   -1    0    0  501    0  0.00000000000E+00  0.00000000000E+00  0.16742028900E+04  0.16742028900E+04  0.50400001928E-02 0. -1.
       -1   -1    0    0    0  501  0.00000000000E+00  0.00000000000E+00 -0.16662944794E+04  0.16662944794E+04  0.50400001928E-02 0.  1.
    10030    2    1    2    0    0  0.00000000000E+00  0.00000000000E+00  0.79084105752E+01  0.33404973694E+04  0.33404880081E+04 0.  0.
        2    1    3    3  502    0 -0.12702318700E+04 -0.92796077983E+03 -0.55739825668E+03  0.16689197192E+04  0.25500000920E-02 0.  1.
       -2    1    3    3    0  502  0.12702318700E+04  0.92796077983E+03  0.56530666725E+03  0.16715776502E+04  0.25500000920E-02 0. -1.
</event>
<event>
 5   0  0.2599367E-07  0.3384313E+04  0.7818609E-02  0.8141767E-01
       -1   -1    0    0    0  501  0.00000000000E+00  0.00000000000E+00  0.14133687285E+04  0.14133687286E+04  0.50400001928E-02 0.  1.
        1   -1    0    0  501    0  0.00000000000E+00  0.00000000000E+00 -0.20259353609E+04  0.20259353609E+04  0.50400001928E-02 0. -1.
    10030    2    1    2    0    0  0.00000000000E+00  0.00000000000E+00 -0.61256663235E+03  0.34393040895E+04  0.33843130382E+04 0.  0.
        2    1    3    3  502    0  0.12182240052E+04  0.86353820463E+03  0.50265694404E+03  0.15755735341E+04  0.25500000920E-02 0. -1.
       -2    1    3    3    0  502 -0.12182240052E+04 -0.86353820463E+03 -0.11152235764E+04  0.18637305554E+04  0.25500000920E-02 0.  1.
</event>
<event>
 5   0  0.8489228E-07  0.3389678E+04  0.7818609E-02  0.8140444E-01
       -2   -1    0    0    0  501  0.00000000000E+00  0.00000000000E+00  0.15688288446E+04  0.15688288446E+04  0.25500000920E-02 0. -1.
        2   -1    0    0  501    0  0.00000000000E+00  0.00000000000E+00 -0.18309699937E+04  0.18309699937E+04  0.25500000920E-02 0.  1.
    10030    2    1    2    0    0  0.00000000000E+00  0.00000000000E+00 -0.26214114906E+03  0.33997988383E+04  0.33896775892E+04 0.  0.
        3    1    3    3  502    0  0.13018140461E+04 -0.43950044742E+03  0.86416139986E+03  0.16231621574E+04  0.10100000352E+00 0. -1.
       -3    1    3    3    0  502 -0.13018140461E+04  0.43950044742E+03 -0.11263025489E+04  0.17766366809E+04  0.10100000352E+00 0.  1.
</event>
<event>
 5   0  0.7838333E-07  0.3408004E+04  0.7818609E-02  0.8135945E-01
       -2   -1    0    0    0  501  0.00000000000E+00  0.00000000000E+00  0.15744552407E+04  0.15744552407E+04  0.25500000920E-02 0. -1.
        2   -1    0    0  501    0  0.00000000000E+00  0.00000000000E+00 -0.18442074290E+04  0.18442074290E+04  0.25500000920E-02 0.  1.
    10030    2    1    2    0    0  0.00000000000E+00  0.00000000000E+00 -0.26975218832E+03  0.34186626697E+04  0.34080035513E+04 0.  0.
        1    1    3    3  502    0 -0.14259918607E+04 -0.81925731702E+03 -0.58235055160E+03  0.17446396486E+04  0.50400001928E-02 0.  1.
       -1    1    3    3    0  502  0.14259918607E+04  0.81925731702E+03  0.31259836328E+03  0.16740230211E+04  0.50400001928E-02 0. -1.
</event>
<event>
 5   0  0.8489228E-07  0.3401313E+04  0.7818609E-02  0.8137584E-01
       -2   -1    0    0    0  501  0.00000000000E+00  0.00000000000E+00  0.15613814393E+04  0.15613814393E+04  0.25500000920E-02 0.  1.
        2   -1    0    0  501    0  0.00000000000E+00  0.00000000000E+00 -0.18523546861E+04  0.18523546861E+04  0.25500000920E-02 0. -1.
    10030    2    1    2    0    0  0.00000000000E+00  0.00000000000E+00 -0.29097324681E+03  0.34137361254E+04  0.34013128206E+04 0.  0.
        3    1    3    3  502    0  0.92516587371E+03 -0.10567198013E+04  0.81699654725E+03  0.16248298375E+04  0.10100000352E+00 0.  1.
       -3    1    3    3    0  502 -0.92516587371E+03  0.10567198013E+04 -0.11079697941E+04  0.17889062879E+04  0.10100000352E+00 0. -1.
</event>
<event>
 5   0  0.2641442E-07  0.3411900E+04  0.7818609E-02  0.8134992E-01
       -1   -1    0    0    0  501  0.00000000000E+00  0.00000000000E+00  0.14947423406E+04  0.14947423406E+04  0.50400001928E-02 0. -1.
        1   -1    0    0  501    0  0.00000000000E+00  0.00000000000E+00 -0.19470008655E+04  0.19470008656E+04  0.50400001928E-02 0.  1.
    10030    2    1    2    0    0  0.00000000000E+00  0.00000000000E+00 -0.45225852497E+03  0.34417432061E+04  0.34118995477E+04 0.  0.
        1    1    3    3  502    0 -0.36609217968E+03  0.13440039970E+04  0.76731716894E+03  0.15903288546E+04  0.50400001928E-02 0. -1.
       -1    1    3    3    0  502  0.36609217968E+03 -0.13440039970E+04 -0.12195756939E+04  0.18514143516E+04  0.50400001928E-02 0.  1.
</event>
<event>
 5   0  0.7899402E-07  0.3386048E+04  0.7818609E-02  0.8141339E-01
        2   -1    0    0  501    0  0.00000000000E+00  0.00000000000E+00  0.23299103781E+04  0.23299103781E+04  0.25500000920E-02 0.  1.
       -2   -1    0    0    0  501  0.00000000000E+00  0.00000000000E+00 -0.12302323014E+04  0.12302323014E+04  0.25500000920E-02 0. -1.
    10030    2    1    2    0    0  0.00000000000E+00  0.00000000000E+00  0.10996780767E+04  0.35601426795E+04  0.33860484382E+04 0.  0.
        2    1    3    3  502    0  0.82643285619E+03 -0.19467790071E+03  0.20898806288E+04  0.22557685594E+04  0.25500000920E-02 0.  1.
       -2    1    3    3    0  502 -0.82643285619E+03  0.19467790071E+03 -0.99020255212E+03  0.13043741200E+04  0.25500000920E-02 0. -1.
</event>
<event>
 5   0  0.7899402E-07  0.3414810E+04  0.7818609E-02  0.8134281E-01
        2   -1    0    0  501    0  0.00000000000E+00  0.00000000000E+00  0.13980537049E+04  0.13980537049E+04  0.25500000920E-02 0.  1.
       -2   -1    0    0    0  501  0.00000000000E+00  0.00000000000E+00 -0.20852077987E+04  0.20852077987E+04  0.25500000920E-02 0. -1.
    10030    2    1    2    0    0  0.00000000000E+00  0.00000000000E+00 -0.68715409382E+03  0.34832615036E+04  0.34148103833E+04 0.  0.
        2    1    3    3  502    0 -0.13246951164E+04 -0.79926217749E+03 -0.10802696768E+04  0.18869604539E+04  0.25500000920E-02 0. -1.
       -2    1    3    3    0  502  0.13246951164E+04  0.79926217749E+03  0.39311558295E+03  0.15963010498E+04  0.25500000920E-02 0.  1.
</event>
<event>
 5   0  0.2641442E-07  0.3389350E+04  0.7818609E-02  0.8140525E-01
       -1   -1    0    0    0  501  0.00000000000E+00  0.00000000000E+00  0.20521998335E+04  0.20521998335E+04  0.50400001928E-02 0. -1.
        1   -1    0    0  501    0  0.00000000000E+00  0.00000000000E+00 -0.13994368627E+04  0.13994368627E+04  0.50400001928E-02 0.  1.
    10030    2    1    2    0    0  0.00000000000E+00  0.00000000000E+00  0.65276297080E+03  0.34516366963E+04  0.33893504373E+04 0.  0.
        1    1    3    3  502    0  0.96558018749E+03 -0.17035154488E+03  0.17340126378E+04  0.19920252447E+04  0.50400001928E-02 0. -1.
       -1    1    3    3    0  502 -0.96558018749E+03  0.17035154488E+03 -0.10812496670E+04  0.14596114516E+04  0.50400001928E-02 0.  1.
</event>
<event>
 5   0  0.2592200E-07  0.3403696E+04  0.7818609E-02  0.8137000E-01
        1   -1    0    0  501    0  0.00000000000E+00  0.00000000000E+00  0.18977482472E+04  0.18977482472E+04  0.50400001928E-02 0.  1.
       -1   -1    0    0    0  501  0.00000000000E+00  0.00000000000E+00 -0.15261701382E+04  0.15261701382E+04  0.50400001928E-02 0. -1.
    10030    2    1    2    0    0  0.00000000000E+00  0.00000000000E+00  0.37157810905E+03  0.34239183854E+04  0.34036960526E+04 0.  0.
        4    1    3    3  502    0  0.16680862365E+04  0.28381052222E+03  0.24288683903E+01  0.16920601695E+04  0.12699999809E+01 0.  1.
       -4    1    3    3    0  502 -0.16680862365E+04 -0.28381052222E+03  0.36914924066E+03  0.17318582159E+04  0.12699999809E+01 0. -1.
</event>
<event>
 5   0  0.2553250E-07  0.3389162E+04  0.7818609E-02  0.8140571E-01
        1   -1    0    0  501    0  0.00000000000E+00  0.00000000000E+00  0.23077242094E+04  0.23077242094E+04  0.50400001928E-02 0.  1.
       -1   -1    0    0    0  501  0.00000000000E+00  0.00000000000E+00 -0.12443449568E+04  0.12443449568E+04  0.50400001928E-02 0. -1.
    10030    2    1    2    0    0  0.00000000000E+00  0.00000000000E+00  0.10633792526E+04  0.35520691662E+04  0.33891621275E+04 0.  0.
        5    1    3    3  502    0  0.52379771871E+03 -0.48233947581E+03  0.21433180732E+04  0.22585061154E+04  0.46999998093E+01 0.  1.
       -5    1    3    3    0  502 -0.52379771871E+03  0.48233947581E+03 -0.10799388207E+04  0.12935630508E+04  0.46999998093E+01 0. -1.
</event>
<event>
 5   0  0.7610412E-07  0.3356920E+04  0.7818609E-02  0.8148561E-01
       -2   -1    0    0    0  501  0.00000000000E+00  0.00000000000E+00  0.14977732878E+04  0.14977732878E+04  0.25500000920E-02 0.  1.
        2   -1    0    0  501    0  0.00000000000E+00  0.00000000000E+00 -0.18809443769E+04  0.18809443769E+04  0.25500000920E-02 0. -1.
    10030    2    1    2    0    0  0.00000000000E+00  0.00000000000E+00 -0.38317108909E+03  0.33787176647E+04  0.33569201621E+04 0.  0.
        4    1    3    3  502    0 -0.78044150802E+03 -0.11656436569E+04  0.73603471707E+03  0.15841599667E+04  0.12699999809E+01 0.  1.
       -4    1    3    3    0  502  0.78044150802E+03  0.11656436569E+04 -0.11192058062E+04  0.17945576981E+04  0.12699999809E+01 0. -1.
</event>
<event>
 5   0  0.2553250E-07  0.3467531E+04  0.7818609E-02  0.8121528E-01
        1   -1    0    0  501    0  0.00000000000E+00  0.00000000000E+00  0.21373571372E+04  0.21373571372E+04  0.50400001928E-02 0.  1.
       -1   -1    0    0    0  501  0.00000000000E+00  0.00000000000E+00 -0.14063833433E+04  0.14063833433E+04  0.50400001928E-02 0. -1.
    10030    2    1    2    0    0  0.00000000000E+00  0.00000000000E+00  0.73097379390E+03  0.35437404806E+04  0.34675313851E+04 0.  0.
        5    1    3    3  502    0  0.10334033991E+04 -0.80210098273E+03  0.15283131129E+04  0.20117285187E+04  0.46999998093E+01 0.  1.
       -5    1    3    3    0  502 -0.10334033991E+04  0.80210098273E+03 -0.79733931902E+03  0.15320119619E+04  0.46999998093E+01 0. -1.
</event>
<event>
 5   0  0.7838333E-07  0.3381982E+04  0.7818609E-02  0.8142343E-01
        2   -1    0    0  501    0  0.00000000000E+00  0.00000000000E+00  0.17682917858E+04  0.17682917858E+04  0.25500000920E-02 0. -1.
       -2   -1    0    0    0  501  0.00000000000E+00  0.00000000000E+00 -0.16170692362E+04  0.16170692362E+04  0.25500000920E-02 0.  1.
    10030    2    1    2    0    0  0.00000000000E+00  0.00000000000E+00  0.15122254960E+03  0.33853610220E+04  0.33819818140E+04 0.  0.
        1    1    3    3  502    0 -0.13015009093E+03 -0.15561870871E+04 -0.57372243535E+03  0.16636750671E+04  0.50400001928E-02 0.  1.
       -1    1    3    3    0  502  0.13015009093E+03  0.15561870871E+04  0.72494498494E+03  0.17216859549E+04  0.50400001928E-02 0. -1.
</event>
<event>
 5   0  0.2553250E-07  0.3376248E+04  0.7818609E-02  0.8143761E-01
        1   -1    0    0  501    0  0.00000000000E+00  0.00000000000E+00  0.13215924199E+04  0.13215924199E+04  0.50400001928E-02 0. -1.
       -1   -1    0    0    0  501  0.00000000000E+00  0.00000000000E+00 -0.21563093368E+04  0.21563093368E+04  0.50400001928E-02 0.  1.
    10030    2    1    2    0    0  0.00000000000E+00  0.00000000000E+00 -0.83471691686E+03  0.34779017567E+04  0.33762476654E+04 0.  0.
        5    1    3    3  502    0 -0.94684016202E+03  0.61084658065E+03 -0.17122259262E+04  0.20497267013E+04  0.46999998093E+01 0.  1.
       -5    1    3    3    0  502  0.94684016202E+03 -0.61084658065E+03  0.87750900938E+03  0.14281750555E+04  0.46999998093E+01 0. -1.
</event>
<event>
 5   0  0.2622205E-07  0.3360170E+04  0.7818609E-02  0.8147752E-01
        1   -1    0    0  501    0  0.00000000000E+00  0.00000000000E+00  0.20402454890E+04  0.20402454890E+04  0.50400001928E-02 0. -1.
       -1   -1    0    0    0  501  0.00000000000E+00  0.00000000000E+00 -0.13835032033E+04  0.13835032033E+04  0.50400001928E-02 0.  1.
    10030    2    1    2    0    0  0.00000000000E+00  0.00000000000E+00  0.65674228569E+03  0.34237486923E+04  0.33601703347E+04 0.  0.
        3    1    3    3  502    0  0.51422913411E+03  0.11574081663E+03 -0.12970743707E+04  0.14000819520E+04  0.10100000352E+00 0.  1.
       -3    1    3    3    0  502 -0.51422913411E+03 -0.11574081663E+03  0.19538166564E+04  0.20236667403E+04  0.10100000352E+00 0. -1.
</event>
<event>
 5   0  0.2622205E-07  0.3400639E+04  0.7818609E-02  0.8137749E-01
        1   -1    0    0  501    0  0.00000000000E+00  0.00000000000E+00  0.14318139086E+04  0.14318139086E+04  0.50400001928E-02 0.  1.
       -1   -1    0    0    0  501  0.00000000000E+00  0.00000000000E+00 -0.20191778897E+04  0.20191778897E+04  0.50400001928E-02 0. -1.
    10030    2    1    2    0    0  0.00000000000E+00  0.00000000000E+00 -0.58736398116E+03  0.34509917983E+04  0.34006393437E+04 0.  0.
        3    1    3    3  502    0 -0.15034095587E+04  0.15579107474E+03 -0.10840437105E+04  0.18600166496E+04  0.10100000352E+00 0. -1.
       -3    1    3    3    0  502  0.15034095587E+04 -0.15579107474E+03  0.49667972931E+03  0.15909751488E+04  0.10100000352E+00 0.  1.
</event>
<event>
 5   0  0.2553250E-07  0.3408190E+04  0.7818609E-02  0.8135899E-01
       -1   -1    0    0    0  501  0.00000000000E+00  0.00000000000E+00  0.13018642118E+04  0.13018642118E+04  0.50400001928E-02 0. -1.
        1   -1    0    0  501    0  0.00000000000E+00  0.00000000000E+00 -0.22306010740E+04  0.22306010740E+04  0.50400001928E-02 0.  1.
    10030    2    1    2    0    0  0.00000000000E+00  0.00000000000E+00 -0.92873686220E+03  0.35324652857E+04  0.34081899647E+04 0.  0.
        5    1    3    3  502    0 -0.29506745654E+03  0.16773969243E+04 -0.52292976402E+03  0.17816292750E+04  0.46999998093E+01 0.  1.
       -5    1    3    3    0  502  0.29506745654E+03 -0.16773969243E+04 -0.40580709818E+03  0.17508360107E+04  0.46999998093E+01 0. -1.
</event>
<event>
 5   0  0.7610412E-07  0.3401509E+04  0.7818609E-02  0.8137536E-01
        2   -1    0    0  501    0  0.00000000000E+00  0.00000000000E+00  0.22691138350E+04  0.22691138350E+04  0.25500000920E-02 0. -1.
       -2   -1    0    0    0  501  0.00000000000E+00  0.00000000000E+00 -0.12747557006E+04  0.12747557006E+04  0.25500000920E-02 0.  1.
    10030    2    1    2    0    0  0.00000000000E+00  0.00000000000E+00  0.99435813442E+03  0.35438695355E+04  0.34015089571E+04 0.  0.
        4    1    3    3  502    0 -0.10869964703E+04  0.81518706165E+03  0.15629652899E+04  0.20709788464E+04  0.12699999809E+01 0. -1.
       -4    1    3    3    0  502  0.10869964703E+04 -0.81518706165E+03 -0.56860715547E+03  0.14728906891E+04  0.12699999809E+01 0.  1.
</event>
<event>
 5   0  0.8489228E-07  0.3394833E+04  0.7818609E-02  0.8139176E-01
       -2   -1    0    0    0  501  0.00000000000E+00  0.00000000000E+00  0.14531859446E+04  0.14531859446E+04  0.25500000920E-02 0. -1.
        2   -1    0    0  501    0  0.00000000000E+00  0.00000000000E+00 -0.19826943610E+04  0.19826943610E+04  0.25500000920E-02 0.  1.
    10030    2    1    2    0    0  0.00000000000E+00  0.00000000000E+00 -0.52950841636E+03  0.34358803057E+04  0.33948334734E+04 0.  0.
        3    1    3    3  502    0 -0.61893876763E+03 -0.56830689636E+03 -0.17574307842E+04  0.19479786698E+04  0.10100000352E+00 0.  1.
       -3    1    3    3    0  502  0.61893876763E+03  0.56830689636E+03  0.12279223678E+04  0.14879016359E+04  0.10100000352E+00 0. -1.
</event>
<event>
 5   0  0.7899402E-07  0.3414337E+04  0.7818609E-02  0.8134397E-01
        2   -1    0    0  501    0  0.00000000000E+00  0.00000000000E+00  0.27497294479E+04  0.27497294479E+04  0.25500000920E-02 0.  1.
       -2   -1    0    0    0  501  0.00000000000E+00  0.00000000000E+00 -0.10598948765E+04  0.10598948765E+04  0.25500000920E-02 0. -1.
    10030    2    1    2    0    0  0.00000000000E+00  0.00000000000E+00  0.16898345715E+04  0.38096243244E+04  0.34143369216E+04 0.  0.
        2    1    3    3  502    0  0.15295440249E+04  0.68174363389E+03  0.12152208298E+04  0.20690676576E+04  0.25500000920E-02 0. -1.
       -2    1    3    3    0  502 -0.15295440249E+04 -0.68174363389E+03  0.47461374167E+03  0.17405566668E+04  0.25500000920E-02 0.  1.
</event>
<event>
 5   0  0.7838333E-07  0.3396458E+04  0.7818609E-02  0.8138776E-01
        2   -1    0    0  501    0  0.00000000000E+00  0.00000000000E+00  0.25204003900E+04  0.25204003900E+04  0.25500000920E-02 0.  1.
       -2   -1    0    0    0  501  0.00000000000E+00  0.00000000000E+00 -0.11442554953E+04  0.11442554953E+04  0.25500000920E-02 0. -1.
    10030    2    1    2    0    0  0.00000000000E+00  0.00000000000E+00  0.13761448947E+04  0.36646558853E+04  0.33964581532E+04 0.  0.
        1    1    3    3  502    0  0.99709612285E+03  0.38158278980E+03  0.21130304736E+04  0.23674255819E+04  0.50400001928E-02 0.  1.
       -1    1    3    3    0  502 -0.99709612285E+03 -0.38158278980E+03 -0.73688557889E+03  0.12972303034E+04  0.50400001928E-02 0. -1.
</event>
<event>
 5   0  0.7822003E-07  0.3403177E+04  0.7818609E-02  0.8137127E-01
       -2   -1    0    0    0  501  0.00000000000E+00  0.00000000000E+00  0.16349390638E+04  0.16349390638E+04  0.25500000920E-02 0.  1.
        2   -1    0    0  501    0  0.00000000000E+00  0.00000000000E+00 -0.17709546372E+04  0.17709546373E+04  0.25500000920E-02 0. -1.
    10030    2    1    2    0    0  0.00000000000E+00  0.00000000000E+00 -0.13601557344E+03  0.34058937011E+04  0.34031767022E+04 0.  0.
        5    1    3    3  502    0 -0.11357013971E+04  0.12040053706E+04  0.32719256406E+03  0.16871643843E+04  0.46999998093E+01 0. -1.
       -5    1    3    3    0  502  0.11357013971E+04 -0.12040053706E+04 -0.46320813751E+03  0.17187293168E+04  0.46999998093E+01 0.  1.
</event>
<event>
 5   0  0.8489228E-07  0.3416462E+04  0.7818609E-02  0.8133878E-01
       -2   -1    0    0    0  501  0.00000000000E+00  0.00000000000E+00  0.22844657458E+04  0.22844657458E+04  0.25500000920E-02 0.  1.
        2   -1    0    0  501    0  0.00000000000E+00  0.00000000000E+00 -0.12773463181E+04  0.12773463181E+04  0.25500000920E-02 0. -1.
    10030    2    1    2    0    0  0.00000000000E+00  0.00000000000E+00  0.10071194277E+04  0.35618120639E+04  0.34164624448E+04 0.  0.
        3    1    3    3  502    0  0.50625187069E+02 -0.11343743724E+04  0.18340539599E+04  0.21571096551E+04  0.10100000352E+00 0.  1.
       -3    1    3    3    0  502 -0.50625187069E+02  0.11343743724E+04 -0.82693453218E+03  0.14047024087E+04  0.10100000352E+00 0. -1.
</event>
<event>
 5   0  0.2641442E-07  0.3383640E+04  0.7818609E-02  0.8141933E-01
        1   -1    0    0  501    0  0.00000000000E+00  0.00000000000E+00  0.20447663054E+04  0.20447663054E+04  0.50400001928E-02 0.  1.
       -1   -1    0    0    0  501  0.00000000000E+00  0.00000000000E+00 -0.13997958058E+04  0.13997958058E+04  0.50400001928E-02 0. -1.
    10030    2    1    2    0    0  0.00000000000E+00  0.00000000000E+00  0.64497049959E+03  0.34445621112E+04  0.33836402280E+04 0.  0.
        1    1    3    3  502    0  0.16379876144E+03  0.56507271039E+03 -0.12923021471E+04  0.14199232520E+04  0.50400001928E-02 0. -1.
       -1    1    3    3    0  502 -0.16379876144E+03 -0.56507271039E+03  0.19372726467E+04  0.20246388591E+04  0.50400001928E-02 0.  1.
</event>
<event>
 5   0  0.2622205E-07  0.3428726E+04  0.7818609E-02  0.8130892E-01
       -1   -1    0    0    0  501  0.00000000000E+00  0.00000000000E+00  0.31251730252E+04  0.31251730252E+04  0.50400001928E-02 0. -1.
        1   -1    0    0  501    0  0.00000000000E+00  0.00000000000E+00 -0.94044071585E+03  0.94044071586E+03  0.50400001928E-02 0.  1.
    10030    2    1    2    0    0  0.00000000000E+00  0.00000000000E+00  0.21847323093E+04  0.40656137410E+04  0.34287256857E+04 0.  0.
        3    1    3    3  502    0 -0.72894418629E+03 -0.96219285076E+03  0.25358028101E+04  0.28084641018E+04  0.10100000352E+00 0. -1.
       -3    1    3    3    0  502  0.72894418629E+03  0.96219285076E+03 -0.35107050082E+03  0.12571496393E+04  0.10100000352E+00 0.  1.
</event>
<event>
 5   0  0.2553250E-07  0.3457427E+04  0.7818609E-02  0.8123954E-01
        1   -1    0    0  501    0  0.00000000000E+00  0.00000000000E+00  0.15765067220E+04  0.15765067220E+04  0.50400001928E-02 0. -1.
       -1   -1    0    0    0  501  0.00000000000E+00  0.00000000000E+00 -0.18956154685E+04  0.18956154685E+04  0.50400001928E-02 0.  1.
    10030    2    1    2    0    0  0.00000000000E+00  0.00000000000E+00 -0.31910874648E+03  0.34721221906E+04  0.34574270946E+04 0.  0.
        5    1    3    3  502    0 -0.16550160092E+04  0.49094656616E+03 -0.67942099093E+02  0.17276413807E+04  0.46999998093E+01 0. -1.
       -5    1    3    3    0  502  0.16550160092E+04 -0.49094656616E+03 -0.25116664738E+03  0.17444808099E+04  0.46999998093E+01 0.  1.
</event>
<event>
 5   0  0.2622205E-07  0.3352831E+04  0.7818609E-02  0.8149581E-01
       -1   -1    0    0    0  501  0.00000000000E+00  0.00000000000E+00  0.10776590675E+04  0.10776590676E+04  0.50400001928E-02 0. -1.
        1   -1    0    0  501    0  0.00000000000E+00  0.00000000000E+00 -0.26078462481E+04  0.26078462481E+04  0.50400001928E-02 0.  1.
    10030    2    1    2    0    0  0.00000000000E+00  0.00000000000E+00 -0.15301871806E+04  0.36855053157E+04  0.33528311357E+04 0.  0.
        3    1    3    3  502    0 -0.12548415289E+04 -0.47295032701E+03  0.34073665408E+03  0.13836223300E+04  0.10100000352E+00 0. -1.
       -3    1    3    3    0  502  0.12548415289E+04  0.47295032701E+03 -0.18709238347E+04  0.23018829857E+04  0.10100000352E+00 0.  1.
</event>
<event>
 5   0  0.7899402E-07  0.3385805E+04  0.7818609E-02  0.8141399E-01
        2   -1    0    0  501    0  0.00000000000E+00  0.00000000000E+00  0.12585218974E+04  0.12585218974E+04  0.25500000920E-02 0.  1.
       -2   -1    0    0    0  501  0.00000000000E+00  0.00000000000E+00 -0.22772096232E+04  0.22772096232E+04  0.25500000920E-02 0. -1.
    10030    2    1    2    0    0  0.00000000000E+00  0.00000000000E+00 -0.10186877258E+04  0.35357315206E+04  0.33858045872E+04 0.  0.
        2    1    3    3  502    0 -0.14632947423E+03  0.16846348675E+04 -0.59360915095E+03  0.17921436259E+04  0.25500000920E-02 0. -1.
       -2    1    3    3    0  502  0.14632947423E+03 -0.16846348675E+04 -0.42507857486E+03  0.17435878947E+04  0.25500000920E-02 0.  1.
</event>
<event>
 5   0  0.8489228E-07  0.3406072E+04  0.7818609E-02  0.8136418E-01
        2   -1    0    0  501    0  0.00000000000E+00  0.00000000000E+00  0.20018939965E+04  0.20018939965E+04  0.25500000920E-02 0. -1.
       -2   -1    0    0    0  501  0.00000000000E+00  0.00000000000E+00 -0.14487934580E+04  0.14487934580E+04  0.25500000920E-02 0.  1.
    10030    2    1    2    0    0  0.00000000000E+00  0.00000000000E+00  0.55310053848E+03  0.34506874544E+04  0.34060715939E+04 0.  0.
        3    1    3    3  502    0 -0.48906462543E+03 -0.84497783484E+03 -0.11371345007E+04  0.14987483552E+04  0.10100000352E+00 0.  1.
       -3    1    3    3    0  502  0.48906462543E+03  0.84497783484E+03  0.16902350392E+04  0.19519390992E+04  0.10100000352E+00 0. -1.
</event>
<event>
 5   0  0.2622205E-07  0.3434788E+04  0.7818609E-02  0.8129421E-01
        1   -1    0    0  501    0  0.00000000000E+00  0.00000000000E+00  0.15838747358E+04  0.15838747358E+04  0.50400001928E-02 0.  1.
       -1   -1    0    0    0  501  0.00000000000E+00  0.00000000000E+00 -0.18621690641E+04  0.18621690641E+04  0.50400001928E-02 0. -1.
    10030    2    1    2    0    0  0.00000000000E+00  0.00000000000E+00 -0.27829432825E+03  0.34460437999E+04  0.34347882232E+04 0.  0.
        3    1    3    3  502    0 -0.18175340874E+03 -0.21667263923E+03 -0.18386465249E+04  0.18602694396E+04  0.10100000352E+00 0. -1.
       -3    1    3    3    0  502  0.18175340874E+03  0.21667263923E+03  0.15603521966E+04  0.15857743604E+04  0.10100000352E+00 0.  1.
</event>
<event>
 5   0  0.2599367E-07  0.3391451E+04  0.7818609E-02  0.8140008E-01
       -1   -1    0    0    0  501  0.00000000000E+00  0.00000000000E+00  0.15290265621E+04  0.15290265621E+04  0.50400001928E-02 0. -1.
        1   -1    0    0  501    0  0.00000000000E+00  0.00000000000E+00 -0.18805982771E+04  0.18805982771E+04  0.50400001928E-02 0.  1.
    10030    2    1    2    0    0  0.00000000000E+00  0.00000000000E+00 -0.35157171496E+03  0.34096248392E+04  0.33914508508E+04 0.  0.
        2    1    3    3  502    0 -0.53287818458E+03  0.44891991849E+03 -0.17300316414E+04  0.18650731173E+04  0.25500000920E-02 0.  1.
       -2    1    3    3    0  502  0.53287818458E+03 -0.44891991849E+03  0.13784599264E+04  0.15445517219E+04  0.25500000920E-02 0. -1.
</event>
<event>
 5   0  0.7899402E-07  0.3392461E+04  0.7818609E-02  0.8139759E-01
       -2   -1    0    0    0  501  0.00000000000E+00  0.00000000000E+00  0.14191500920E+04  0.14191500920E+04  0.25500000920E-02 0. -1.
        2   -1    0    0  501    0  0.00000000000E+00  0.00000000000E+00 -0.20274086941E+04  0.20274086941E+04  0.25500000920E-02 0.  1.
    10030    2    1    2    0    0  0.00000000000E+00  0.00000000000E+00 -0.60825860204E+03  0.34465587861E+04  0.33924606024E+04 0.  0.
        2    1    3    3  502    0 -0.95931379502E+03  0.73428259517E+03 -0.15138070347E+04  0.19367667968E+04  0.25500000920E-02 0.  1.
       -2    1    3    3    0  502  0.95931379502E+03 -0.73428259517E+03  0.90554843268E+03  0.15097919893E+04  0.25500000920E-02 0. -1.
</event>
<event>
 5   0  0.2592200E-07  0.3335430E+04  0.7818609E-02  0.8153938E-01
        1   -1    0    0  501    0  0.00000000000E+00  0.00000000000E+00  0.20066144810E+04  0.20066144810E+04  0.50400001928E-02 0. -1.
       -1   -1    0    0    0  501  0.00000000000E+00  0.00000000000E+00 -0.13860529636E+04  0.13860529636E+04  0.50400001928E-02 0.  1.
    10030    2    1    2    0    0  0.00000000000E+00  0.00000000000E+00  0.62056151742E+03  0.33926674446E+04  0.33354303760E+04 0.  0.
        4    1    3    3  502    0 -0.88558299379E+03 -0.11356568049E+04  0.11657233064E+04  0.18528049162E+04  0.12699999809E+01 0.  1.
       -4    1    3    3    0  502  0.88558299379E+03  0.11356568049E+04 -0.54516178896E+03  0.15398625285E+04  0.12699999809E+01 0. -1.
</event>
<event>
 5   0  0.7838333E-07  0.3315575E+04  0.7818609E-02  0.8158944E-01
       -2   -1    0    0    0  501  0.00000000000E+00  0.00000000000E+00  0.12374332989E+04  0.12374332989E+04  0.25500000920E-02 0.  1.
        2   -1    0    0  501    0  0.00000000000E+00  0.00000000000E+00 -0.22209349715E+04  0.22209349715E+04  0.25500000920E-02 0. -1.
    10030    2    1    2    0    0  0.00000000000E+00  0.00000000000E+00 -0.98350167255E+03  0.34583682704E+04  0.33155746944E+04 0.  0.
        1    1    3    3  502    0 -0.11144696708E+04 -0.28248366968E+03  0.75401384028E+03  0.13749096487E+04  0.50400001928E-02 0.  1.
       -1    1    3    3    0  502  0.11144696708E+04  0.28248366968E+03 -0.17375155128E+04  0.20834586217E+04  0.50400001928E-02 0. -1.
</event>
<event>
 5   0  0.2592200E-07  0.3437309E+04  0.7818609E-02  0.8128810E-01
        1   -1    0    0  501    0  0.00000000000E+00  0.00000000000E+00  0.27366243751E+04  0.27366243751E+04  0.50400001928E-02 0. -1.
       -1   -1    0    0    0  501  0.00000000000E+00  0.00000000000E+00 -0.10793490251E+04  0.10793490251E+04  0.50400001928E-02 0.  1.
    10030    2    1    2    0    0  0.00000000000E+00  0.00000000000E+00  0.16572753500E+04  0.38159734002E+04  0.34373087446E+04 0.  0.
        4    1    3    3  502    0  0.20881893738E+02  0.13884567266E+04 -0.29560358546E+03  0.14197292798E+04  0.12699999809E+01 0.  1.
       -4    1    3    3    0  502 -0.20881893738E+02 -0.13884567266E+04  0.19528789354E+04  0.23962441204E+04  0.12699999809E+01 0. -1.
</event>
<event>
 5   0  0.2622205E-07  0.3356228E+04  0.7818609E-02  0.8148734E-01
       -1   -1    0    0    0  501  0.00000000000E+00  0.00000000000E+00  0.96052400542E+03  0.96052400543E+03  0.50400001928E-02 0. -1.
        1   -1    0    0  501    0  0.00000000000E+00  0.00000000000E+00 -0.29318021534E+04  0.29318021534E+04  0.50400001928E-02 0.  1.
    10030    2    1    2    0    0  0.00000000000E+00  0.00000000000E+00 -0.19712781480E+04  0.38923261588E+04  0.33562278513E+04 0.  0.
        3    1    3    3  502    0 -0.11514718691E+04 -0.10886404359E+04 -0.16261651367E+04  0.22705590779E+04  0.10100000352E+00 0.  1.
       -3    1    3    3    0  502  0.11514718691E+04  0.10886404359E+04 -0.34511301122E+03  0.16217670809E+04  0.10100000352E+00 0. -1.
</event>
<event>
 5   0  0.2599367E-07  0.3371835E+04  0.7818609E-02  0.8144854E-01
        1   -1    0    0  501    0  0.00000000000E+00  0.00000000000E+00  0.18462064198E+04  0.18462064199E+04  0.50400001928E-02 0. -1.
       -1   -1    0    0    0  501  0.00000000000E+00  0.00000000000E+00 -0.15395451913E+04  0.15395451913E+04  0.50400001928E-02 0.  1.
    10030    2    1    2    0    0  0.00000000000E+00  0.00000000000E+00  0.30666122855E+03  0.33857516112E+04  0.33718352367E+04 0.  0.
        2    1    3    3  502    0 -0.87256595832E+02  0.50807159739E+03 -0.14584633777E+04  0.15468890994E+04  0.25500000920E-02 0.  1.
       -2    1    3    3    0  502  0.87256595832E+02 -0.50807159739E+03  0.17651246063E+04  0.18388625118E+04  0.25500000920E-02 0. -1.
</event>
<event>
 5   0  0.7838333E-07  0.3385910E+04  0.7818609E-02  0.8141373E-01
       -2   -1    0    0    0  501  0.00000000000E+00  0.00000000000E+00  0.10513340743E+04  0.10513340743E+04  0.25500000920E-02 0.  1.
        2   -1    0    0  501    0  0.00000000000E+00  0.00000000000E+00 -0.27261513499E+04  0.27261513499E+04  0.25500000920E-02 0. -1.
    10030    2    1    2    0    0  0.00000000000E+00  0.00000000000E+00 -0.16748172755E+04  0.37774854242E+04  0.33859095120E+04 0.  0.
        1    1    3    3  502    0  0.68578750974E+03 -0.27278426494E+03  0.86240211790E+03  0.11351005139E+04  0.50400001928E-02 0.  1.
       -1    1    3    3    0  502 -0.68578750974E+03  0.27278426494E+03 -0.25372193934E+04  0.26423849103E+04  0.50400001928E-02 0. -1.
</event>
<event>
 5   0  0.7822003E-07  0.3397851E+04  0.7818609E-02  0.8138434E-01
       -2   -1    0    0    0  501  0.00000000000E+00  0.00000000000E+00  0.13625827598E+04  0.13625827598E+04  0.25500000920E-02 0. -1.
        2   -1    0    0  501    0  0.00000000000E+00  0.00000000000E+00 -0.21182922241E+04  0.21182922241E+04  0.25500000920E-02 0.  1.
    10030    2    1    2    0    0  0.00000000000E+00  0.00000000000E+00 -0.75570946427E+03  0.34808749839E+04  0.33978513592E+04 0.  0.
        5    1    3    3  502    0 -0.12053199712E+04 -0.95085059915E+03 -0.11232411326E+04  0.19022633432E+04  0.46999998093E+01 0. -1.
       -5    1    3    3    0  502  0.12053199712E+04  0.95085059915E+03  0.36753166835E+03  0.15786116407E+04  0.46999998093E+01 0.  1.
</event>
<event>
 5   0  0.2553250E-07  0.3383017E+04  0.7818609E-02  0.8142087E-01
       -1   -1    0    0    0  501  0.00000000000E+00  0.00000000000E+00  0.18035241772E+04  0.18035241772E+04  0.50400001928E-02 0.  1.
        1   -1    0    0  501    0  0.00000000000E+00  0.00000000000E+00 -0.15864498178E+04  0.15864498178E+04  0.50400001928E-02 0. -1.
    10030    2    1    2    0    0  0.00000000000E+00  0.00000000000E+00  0.21707435940E+03  0.33899739950E+04  0.33830167616E+04 0.  0.
        5    1    3    3  502    0 -0.53194282071E+03 -0.69582002236E+03 -0.13415219919E+04  0.16021335815E+04  0.46999998093E+01 0. -1.
       -5    1    3    3    0  502  0.53194282071E+03  0.69582002236E+03  0.15585963513E+04  0.17878404136E+04  0.46999998093E+01 0.  1.
</event>
<event>
 5   0  0.7610412E-07  0.3427467E+04  0.7818609E-02  0.8131198E-01
        2   -1    0    0  501    0  0.00000000000E+00  0.00000000000E+00  0.17483233932E+04  0.17483233932E+04  0.25500000920E-02 0. -1.
       -2   -1    0    0    0  501  0.00000000000E+00  0.00000000000E+00 -0.16798283154E+04  0.16798283154E+04  0.25500000920E-02 0.  1.
    10030    2    1    2    0    0  0.00000000000E+00  0.00000000000E+00  0.68495077734E+02  0.34281517086E+04  0.34274673684E+04 0.  0.
        4    1    3    3  502    0 -0.12296637993E+04  0.32107283306E+03 -0.11156431323E+04  0.16911008352E+04  0.12699999809E+01 0. -1.
       -4    1    3    3    0  502  0.12296637993E+04 -0.32107283306E+03  0.11841382100E+04  0.17370508734E+04  0.12699999809E+01 0.  1.
</event>
<event>
 5   0  0.2641442E-07  0.3390260E+04  0.7818609E-02  0.8140301E-01
       -1   -1    0    0    0  501  0.00000000000E+00  0.00000000000E+00  0.17973644948E+04  0.17973644948E+04  0.50400001928E-02 0.  1.
        1   -1    0    0  501    0  0.00000000000E+00  0.00000000000E+00 -0.15987101546E+04  0.15987101546E+04  0.50400001928E-02 0. -1.
    10030    2    1    2    0    0  0.00000000000E+00  0.00000000000E+00  0.19865434019E+03  0.33960746495E+04  0.33902595001E+04 0.  0.
        1    1    3    3  502    0  0.24021334843E+03  0.22970978746E+03 -0.15657501337E+04  0.16006381603E+04  0.50400001928E-02 0. -1.
       -1    1    3    3    0  502 -0.24021334843E+03 -0.22970978746E+03  0.17644044738E+04  0.17954364892E+04  0.50400001928E-02 0.  1.
</event>
<event>
 5   0  0.2553250E-07  0.3398306E+04  0.7818609E-02  0.8138322E-01
       -1   -1    0    0    0  501  0.00000000000E+00  0.00000000000E+00  0.15113867621E+04  0.15113867621E+04  0.50400001928E-02 0.  1.
        1   -1    0    0  501    0  0.00000000000E+00  0.00000000000E+00 -0.19102467081E+04  0.19102467081E+04  0.50400001928E-02 0. -1.
    10030    2    1    2    0    0  0.00000000000E+00  0.00000000000E+00 -0.39885994602E+03  0.34216334703E+04  0.33983063941E+04 0.  0.
        5    1    3    3  502    0  0.27574781091E+03 -0.16202725334E+04 -0.63341017448E+03  0.17614058240E+04  0.46999998093E+01 0.  1.
       -5    1    3    3    0  502 -0.27574781091E+03  0.16202725334E+04  0.23455022846E+03  0.16602276463E+04  0.46999998093E+01 0. -1.
</event>
<event>
 5   0  0.2599367E-07  0.3312100E+04  0.7818609E-02  0.8159823E-01
       -1   -1    0    0    0  501  0.00000000000E+00  0.00000000000E+00  0.16236211928E+04  0.16236211928E+04  0.50400001928E-02 0.  1.
        1   -1    0    0  501    0  0.00000000000E+00  0.00000000000E+00 -0.16891270048E+04  0.16891270048E+04  0.50400001928E-02 0. -1.
    10030    2    1    2    0    0  0.00000000000E+00  0.00000000000E+00 -0.65505811969E+02  0.33127481976E+04  0.33121004830E+04 0.  0.
        2    1    3    3  502    0 -0.31563453764E+02 -0.16532655437E+04 -0.12343039942E+03  0.16581671427E+04  0.25500000920E-02 0. -1.
       -2    1    3    3    0  502  0.31563453764E+02  0.16532655437E+04  0.57924587447E+02  0.16545810550E+04  0.25500000920E-02 0.  1.
</event>
<event>
 5   0  0.2599367E-07  0.3404958E+04  0.7818609E-02  0.8136690E-01
       -1   -1    0    0    0  501  0.00000000000E+00  0.00000000000E+00  0.16647359766E+04  0.16647359766E+04  0.50400001928E-02 0.  1.
        1   -1    0    0  501    0  0.00000000000E+00  0.00000000000E+00 -0.17410781303E+04  0.17410781303E+04  0.50400001928E-02 0. -1.
    10030    2    1    2    0    0  0.00000000000E+00  0.00000000000E+00 -0.76342153715E+02  0.34058141069E+04  0.34049583854E+04 0.  0.
        2    1    3    3  502    0 -0.32485236928E+03 -0.15678908821E+04  0.54044169171E+03  0.16899373071E+04  0.25500000920E-02 0.  1.
       -2    1    3    3    0  502  0.32485236928E+03  0.15678908821E+04 -0.61678384542E+03  0.17158767997E+04  0.25500000920E-02 0. -1.
</event>
<event>
 5   0  0.2553250E-07  0.3376082E+04  0.7818609E-02  0.8143802E-01
        1   -1    0    0  501    0  0.00000000000E+00  0.00000000000E+00  0.15291398232E+04  0.15291398232E+04  0.50400001928E-02 0. -1.
       -1   -1    0    0    0  501  0.00000000000E+00  0.00000000000E+00 -0.18634543218E+04  0.18634543218E+04  0.50400001928E-02 0.  1.
    10030    2    1    2    0    0  0.00000000000E+00  0.00000000000E+00 -0.33431449859E+03  0.33925941451E+04  0.33760818783E+04 0.  0.
        5    1    3    3  502    0  0.16608151787E+04  0.80985162544E+02  0.12511657277E+03  0.16674956975E+04  0.46999998093E+01 0. -1.
       -5    1    3    3    0  502 -0.16608151787E+04 -0.80985162544E+02 -0.45943107137E+03  0.17250984476E+04  0.46999998093E+01 0.  1.
</event>
<event>
 5   0  0.2553250E-07  0.3396420E+04  0.7818609E-02  0.8138786E-01
       -1   -1    0    0    0  501  0.00000000000E+00  0.00000000000E+00  0.25361584606E+04  0.25361584606E+04  0.50400001928E-02 0.  1.
        1   -1    0    0  501    0  0.00000000000E+00  0.00000000000E+00 -0.11371203154E+04  0.11371203154E+04  0.50400001928E-02 0. -1.
    10030    2    1    2    0    0  0.00000000000E+00  0.00000000000E+00  0.13990381452E+04  0.36732787760E+04  0.33964200615E+04 0.  0.
        5    1    3    3  502    0  0.13218257065E+04 -0.72070027220E+03  0.15492230734E+04  0.21602653314E+04  0.46999998093E+01 0.  1.
       -5    1    3    3    0  502 -0.13218257065E+04  0.72070027220E+03 -0.15018492825E+03  0.15130134446E+04  0.46999998093E+01 0. -1.
</event>
<event>
 5   0  0.2599367E-07  0.3461314E+04  0.7818609E-02  0.8123020E-01
        1   -1    0    0  501    0  0.00000000000E+00  0.00000000000E+00  0.20778638816E+04  0.20778638816E+04  0.50400001928E-02 0.  1.
       -1   -1    0    0    0  501  0.00000000000E+00  0.00000000000E+00 -0.14414677448E+04  0.14414677448E+04  0.50400001928E-02 0. -1.
    10030    2    1    2    0    0  0.00000000000E+00  0.00000000000E+00  0.63639613674E+03  0.35193316264E+04  0.34613140646E+04 0.  0.
        2    1    3    3  502    0 -0.14080772039E+04 -0.51883656240E+03  0.11947982086E+04  0.19181802705E+04  0.25500000920E-02 0.  1.
       -2    1    3    3    0  502  0.14080772039E+04  0.51883656240E+03 -0.55840207185E+03  0.16011513559E+04  0.25500000920E-02 0. -1.
</event>
<event>
 5   0  0.2599367E-07  0.3473316E+04  0.7818609E-02  0.8120143E-01
       -1   -1    0    0    0  501  0.00000000000E+00  0.00000000000E+00  0.13034339581E+04  0.13034339581E+04  0.50400001928E-02 0.  1.
        1   -1    0    0  501    0  0.00000000000E+00  0.00000000000E+00 -0.23138726206E+04  0.23138726206E+04  0.50400001928E-02 0. -1.
    10030    2    1    2    0    0  0.00000000000E+00  0.00000000000E+00 -0.10104386625E+04  0.36173065787E+04  0.34733155045E+04 0.  0.
        2    1    3    3  502    0 -0.12927024805E+04 -0.30447961688E+03  0.66018506261E+03  0.14831155912E+04  0.25500000920E-02 0.  1.
       -2    1    3    3    0  502  0.12927024805E+04  0.30447961688E+03 -0.16706237251E+04  0.21341909875E+04  0.25500000920E-02 0. -1.
</event>
<event>
 5   0  0.2599367E-07  0.3243237E+04  0.7818609E-02  0.8177491E-01
       -1   -1    0    0    0  501  0.00000000000E+00  0.00000000000E+00  0.10710159450E+04  0.10710159451E+04  0.50400001928E-02 0. -1.
        1   -1    0    0  501    0  0.00000000000E+00  0.00000000000E+00 -0.24552823210E+04  0.24552823210E+04  0.50400001928E-02 0.  1.
    10030    2    1    2    0    0  0.00000000000E+00  0.00000000000E+00 -0.13842663759E+04  0.35262982660E+04  0.32432369728E+04 0.  0.
        2    1    3    3  502    0 -0.15074491047E+04  0.86671788461E+02 -0.13351285924E+04  0.20155602597E+04  0.25500000920E-02 0.  1.
       -2    1    3    3    0  502  0.15074491047E+04 -0.86671788461E+02 -0.49137783480E+02  0.15107380063E+04  0.25500000920E-02 0. -1.
</event>
<event>
 5   0  0.7838333E-07  0.3386120E+04  0.7818609E-02  0.8141321E-01
        2   -1    0    0  501    0  0.00000000000E+00  0.00000000000E+00  0.17243916285E+04  0.17243916285E+04  0.25500000920E-02 0. -1.
       -2   -1    0    0    0  501  0.00000000000E+00  0.00000000000E+00 -0.16622972084E+04  0.16622972084E+04  0.25500000920E-02 0.  1.
    10030    2    1    2    0    0  0.00000000000E+00  0.00000000000E+00  0.62094420118E+02  0.33866888369E+04  0.33861195433E+04 0.  0.
        1    1    3    3  502    0 -0.55244620252E+03 -0.16003500176E+04  0.19451950511E+02  0.16931318212E+04  0.50400001928E-02 0.  1.
       -1    1    3    3    0  502  0.55244620252E+03  0.16003500176E+04  0.42642469606E+02  0.16935570158E+04  0.50400001928E-02 0. -1.
</event>
<event>
 5   0  0.2553250E-07  0.3413454E+04  0.7818609E-02  0.8134612E-01
       -1   -1    0    0    0  501  0.00000000000E+00  0.00000000000E+00  0.13918115404E+04  0.13918115405E+04  0.50400001928E-02 0.  1.
        1   -1    0    0  501    0  0.00000000000E+00  0.00000000000E+00 -0.20928956361E+04  0.20928956361E+04  0.50400001928E-02 0. -1.
    10030    2    1    2    0    0  0.00000000000E+00  0.00000000000E+00 -0.70108409569E+03  0.34847071766E+04  0.34134535587E+04 0.  0.
        5    1    3    3  502    0  0.13176954605E+04 -0.90274372765E+03 -0.96444893038E+03  0.18658647844E+04  0.46999998093E+01 0. -1.
       -5    1    3    3    0  502 -0.13176954605E+04  0.90274372765E+03  0.26336483469E+03  0.16188423922E+04  0.46999998093E+01 0.  1.
</event>
<event>
 5   0  0.2599367E-07  0.3425312E+04  0.7818609E-02  0.8131722E-01
        1   -1    0    0  501    0  0.00000000000E+00  0.00000000000E+00  0.16339493495E+04  0.16339493495E+04  0.50400001928E-02 0.  1.
       -1   -1    0    0    0  501  0.00000000000E+00  0.00000000000E+00 -0.17951544153E+04  0.17951544153E+04  0.50400001928E-02 0. -1.
    10030    2    1    2    0    0  0.00000000000E+00  0.00000000000E+00 -0.16120506584E+03  0.34291037648E+04  0.34253124757E+04 0.  0.
        2    1    3    3  502    0 -0.27566172669E+03 -0.93880470766E+03 -0.14878068735E+04  0.17807057476E+04  0.25500000920E-02 0. -1.
       -2    1    3    3    0  502  0.27566172669E+03  0.93880470766E+03  0.13266018077E+04  0.16483980171E+04  0.25500000920E-02 0.  1.
</event>
<event>
 5   0  0.2641442E-07  0.3380605E+04  0.7818609E-02  0.8142683E-01
       -1   -1    0    0    0  501  0.00000000000E+00  0.00000000000E+00  0.10056831839E+04  0.10056831839E+04  0.50400001928E-02 0. -1.
        1   -1    0    0  501    0  0.00000000000E+00  0.00000000000E+00 -0.28409766119E+04  0.28409766119E+04  0.50400001928E-02 0.  1.
    10030    2    1    2    0    0  0.00000000000E+00  0.00000000000E+00 -0.18352934280E+04  0.38466597958E+04  0.33806049189E+04 0.  0.
        1    1    3    3  502    0 -0.53314372907E+03  0.14515863651E+04 -0.16942128873E+04  0.22938401249E+04  0.50400001928E-02 0.  1.
       -1    1    3    3    0  502  0.53314372907E+03 -0.14515863651E+04 -0.14108054066E+03  0.15528196709E+04  0.50400001928E-02 0. -1.
</event>
<event>
 5   0  0.7822003E-07  0.3413591E+04  0.7818609E-02  0.8134579E-01
        2   -1    0    0  501    0  0.00000000000E+00  0.00000000000E+00  0.17580778757E+04  0.17580778757E+04  0.25500000920E-02 0.  1.
       -2   -1    0    0    0  501  0.00000000000E+00  0.00000000000E+00 -0.16570087132E+04  0.16570087132E+04  0.25500000920E-02 0. -1.
    10030    2    1    2    0    0  0.00000000000E+00  0.00000000000E+00  0.10106916253E+03  0.34150865889E+04  0.34135906951E+04 0.  0.
        5    1    3    3  502    0  0.43367395192E+03 -0.52814229604E+03 -0.15141587499E+04  0.16612363442E+04  0.46999998093E+01 0. -1.
       -5    1    3    3    0  502 -0.43367395192E+03  0.52814229604E+03  0.16152279124E+04  0.17538502446E+04  0.46999998093E+01 0.  1.
</event>
<event>
 5   0  0.7822003E-07  0.3418060E+04  0.7818609E-02  0.8133488E-01
       -2   -1    0    0    0  501  0.00000000000E+00  0.00000000000E+00  0.13257941094E+04  0.13257941094E+04  0.25500000920E-02 0.  1.
        2   -1    0    0  501    0  0.00000000000E+00  0.00000000000E+00 -0.22030443526E+04  0.22030443526E+04  0.25500000920E-02 0. -1.
    10030    2    1    2    0    0  0.00000000000E+00  0.00000000000E+00 -0.87725024321E+03  0.35288384621E+04  0.34180598155E+04 0.  0.
        5    1    3    3  502    0  0.62573896799E+03  0.14888571212E+04  0.13852460329E+03  0.16209429167E+04  0.46999998093E+01 0.  1.
       -5    1    3    3    0  502 -0.62573896799E+03 -0.14888571212E+04 -0.10157748465E+04  0.19078955454E+04  0.46999998093E+01 0. -1.
</event>
<event>
 5   0  0.7610412E-07  0.3353058E+04  0.7818609E-02  0.8149525E-01
       -2   -1    0    0    0  501  0.00000000000E+00  0.00000000000E+00  0.26440338706E+04  0.26440338706E+04  0.25500000920E-02 0.  1.
        2   -1    0    0  501    0  0.00000000000E+00  0.00000000000E+00 -0.10630532493E+04  0.10630532493E+04  0.25500000920E-02 0. -1.
    10030    2    1    2    0    0  0.00000000000E+00  0.00000000000E+00  0.15809806213E+04  0.37070871198E+04  0.33530575881E+04 0.  0.
        4    1    3    3  502    0 -0.60869194500E+03  0.36575756313E+03  0.24695456045E+04  0.25696189571E+04  0.12699999809E+01 0.  1.
       -4    1    3    3    0  502  0.60869194500E+03 -0.36575756313E+03 -0.88856498323E+03  0.11374681627E+04  0.12699999809E+01 0. -1.
</event>
<event>
 5   0  0.2553250E-07  0.3405588E+04  0.7818609E-02  0.8136536E-01
        1   -1    0    0  501    0  0.00000000000E+00  0.00000000000E+00  0.18586772046E+04  0.18586772046E+04  0.50400001928E-02 0.  1.
       -1   -1    0    0    0  501  0.00000000000E+00  0.00000000000E+00 -0.15599841947E+04  0.15599841947E+04  0.50400001928E-02 0. -1.
    10030    2    1    2    0    0  0.00000000000E+00  0.00000000000E+00  0.29869300994E+03  0.34186613993E+04  0.34055877978E+04 0.  0.
        5    1    3    3  502    0  0.27353427029E+03 -0.16083255846E+04  0.63902316796E+03  0.17521144033E+04  0.46999998093E+01 0.  1.
       -5    1    3    3    0  502 -0.27353427029E+03  0.16083255846E+04 -0.34033015801E+03  0.16665469959E+04  0.46999998093E+01 0. -1.
</event>
<event>
 5   0  0.7899402E-07  0.3401884E+04  0.7818609E-02  0.8137444E-01
       -2   -1    0    0    0  501  0.00000000000E+00  0.00000000000E+00  0.14340200880E+04  0.14340200880E+04  0.25500000920E-02 0. -1.
        2   -1    0    0  501    0  0.00000000000E+00  0.00000000000E+00 -0.20175473728E+04  0.20175473728E+04  0.25500000920E-02 0.  1.
    10030    2    1    2    0    0  0.00000000000E+00  0.00000000000E+00 -0.58352728484E+03  0.34515674608E+04  0.34018838670E+04 0.  0.
        2    1    3    3  502    0 -0.42562471987E+03  0.11310911837E+04 -0.15061907431E+04  0.19310966373E+04  0.25500000920E-02 0.  1.
       -2    1    3    3    0  502  0.42562471987E+03 -0.11310911837E+04  0.92266345826E+03  0.15204708235E+04  0.25500000920E-02 0. -1.
</event>
<event>
 5   0  0.2599367E-07  0.3395586E+04  0.7818609E-02  0.8138991E-01
        1   -1    0    0  501    0  0.00000000000E+00  0.00000000000E+00  0.23383347743E+04  0.23383347744E+04  0.50400001928E-02 0. -1.
       -1   -1    0    0    0  501  0.00000000000E+00  0.00000000000E+00 -0.12327150368E+04  0.12327150368E+04  0.50400001928E-02 0.  1.
    10030    2    1    2    0    0  0.00000000000E+00  0.00000000000E+00  0.11056197375E+04  0.35710498112E+04  0.33955856269E+04 0.  0.
        2    1    3    3  502    0 -0.76814601973E+03 -0.30997199861E+03  0.21114071795E+04  0.22680765475E+04  0.25500000920E-02 0. -1.
       -2    1    3    3    0  502  0.76814601973E+03  0.30997199861E+03 -0.10057874419E+04  0.13029732637E+04  0.25500000920E-02 0.  1.
</event>
<event>
 5   0  0.7899402E-07  0.3244478E+04  0.7818609E-02  0.8177169E-01
        2   -1    0    0  501    0  0.00000000000E+00  0.00000000000E+00  0.90561353546E+03  0.90561353546E+03  0.25500000920E-02 0.  1.
       -2   -1    0    0    0  501  0.00000000000E+00  0.00000000000E+00 -0.29059400067E+04  0.29059400067E+04  0.25500000920E-02 0. -1.
    10030    2    1    2    0    0  0.00000000000E+00  0.00000000000E+00 -0.20003264713E+04  0.38115535422E+04  0.32444775255E+04 0.  0.
        2    1    3    3  502    0 -0.82680836497E+02 -0.26037968295E+03  0.87839530596E+03  0.91989782778E+03  0.25500000920E-02 0.  1.
       -2    1    3    3    0  502  0.82680836497E+02  0.26037968295E+03 -0.28787217772E+04  0.28916557144E+04  0.25500000920E-02 0. -1.
</event>
<event>
 5   0  0.2553250E-07  0.3113884E+04  0.7818609E-02  0.8211938E-01
        1   -1    0    0  501    0  0.00000000000E+00  0.00000000000E+00  0.16016334036E+04  0.16016334036E+04  0.50400001928E-02 0. -1.
       -1   -1    0    0    0  501  0.00000000000E+00  0.00000000000E+00 -0.15134973477E+04  0.15134973477E+04  0.50400001928E-02 0.  1.
    10030    2    1    2    0    0  0.00000000000E+00  0.00000000000E+00  0.88136055932E+02  0.31151307513E+04  0.31138836897E+04 0.  0.
        5    1    3    3  502    0  0.54294610884E+03  0.66969204712E+03  0.13410315645E+04  0.15942602241E+04  0.46999998093E+01 0. -1.
       -5    1    3    3    0  502 -0.54294610884E+03 -0.66969204712E+03 -0.12528955086E+04  0.15208705272E+04  0.46999998093E+01 0.  1.
</event>
<event>
 5   0  0.7610412E-07  0.3405525E+04  0.7818609E-02  0.8136552E-01
        2   -1    0    0  501    0  0.00000000000E+00  0.00000000000E+00  0.20476207848E+04  0.20476207848E+04  0.25500000920E-02 0. -1.
       -2   -1    0    0    0  501  0.00000000000E+00  0.00000000000E+00 -0.14159851409E+04  0.14159851409E+04  0.25500000920E-02 0.  1.
    10030    2    1    2    0    0  0.00000000000E+00  0.00000000000E+00  0.63163564383E+03  0.34636059257E+04  0.34055252784E+04 0.  0.
        4    1    3    3  502    0  0.58866230031E+03 -0.82108385467E+03 -0.10782141544E+04  0.14775822738E+04  0.12699999809E+01 0.  1.
       -4    1    3    3    0  502 -0.58866230031E+03  0.82108385467E+03  0.17098497983E+04  0.19860236519E+04  0.12699999809E+01 0. -1.
</event>
<event>
 5   0  0.2641442E-07  0.3406490E+04  0.7818609E-02  0.8136315E-01
        1   -1    0    0  501    0  0.00000000000E+00  0.00000000000E+00  0.26142869842E+04  0.26142869842E+04  0.50400001928E-02 0. -1.
       -1   -1    0    0    0  501  0.00000000000E+00  0.00000000000E+00 -0.11096882415E+04  0.11096882416E+04  0.50400001928E-02 0.  1.
    10030    2    1    2    0    0  0.00000000000E+00  0.00000000000E+00  0.15045987426E+04  0.37239752257E+04  0.34064899979E+04 0.  0.
        1    1    3    3  502    0 -0.11017478182E+04 -0.66086061756E+03 -0.47015964828E+03  0.13680771563E+04  0.50400001928E-02 0.  1.
       -1    1    3    3    0  502  0.11017478182E+04  0.66086061756E+03  0.19747583909E+04  0.23558980694E+04  0.50400001928E-02 0. -1.
</event>
<event>
 5   0  0.2553250E-07  0.3407689E+04  0.7818609E-02  0.8136022E-01
       -1   -1    0    0    0  501  0.00000000000E+00  0.00000000000E+00  0.12271855047E+04  0.12271855047E+04  0.50400001928E-02 0. -1.
        1   -1    0    0  501    0  0.00000000000E+00  0.00000000000E+00 -0.23656459975E+04  0.23656459975E+04  0.50400001928E-02 0.  1.
    10030    2    1    2    0    0  0.00000000000E+00  0.00000000000E+00 -0.11384604928E+04  0.35928315022E+04  0.34076892331E+04 0.  0.
        5    1    3    3  502    0  0.13451618001E+04  0.17637709344E+03  0.51754656778E+03  0.14520487896E+04  0.46999998093E+01 0. -1.
       -5    1    3    3    0  502 -0.13451618001E+04 -0.17637709344E+03 -0.16560070606E+04  0.21407827125E+04  0.46999998093E+01 0.  1.
</event>
<event>
 5   0  0.2641442E-07  0.3447091E+04  0.7818609E-02  0.8126444E-01
        1   -1    0    0  501    0  0.00000000000E+00  0.00000000000E+00  0.22531886513E+04  0.22531886513E+04  0.50400001928E-02 0. -1.
       -1   -1    0    0    0  501  0.00000000000E+00  0.00000000000E+00 -0.13184026603E+04  0.13184026603E+04  0.50400001928E-02 0.  1.
    10030    2    1    2    0    0  0.00000000000E+00  0.00000000000E+00  0.93478599101E+03  0.35715913117E+04  0.34470914767E+04 0.  0.
        1    1    3    3  502    0 -0.12939122292E+04 -0.49186019451E+03  0.15313571868E+04  0.20642650366E+04  0.50400001928E-02 0. -1.
       -1    1    3    3    0  502  0.12939122292E+04  0.49186019451E+03 -0.59657119583E+03  0.15073262750E+04  0.50400001928E-02 0.  1.
</event>
<event>
 5   0  0.7899402E-07  0.3385269E+04  0.7818609E-02  0.8141531E-01
        2   -1    0    0  501    0  0.00000000000E+00  0.00000000000E+00  0.22504240581E+04  0.22504240581E+04  0.25500000920E-02 0. -1.
       -2   -1    0    0    0  501  0.00000000000E+00  0.00000000000E+00 -0.12730985231E+04  0.12730985231E+04  0.25500000920E-02 0.  1.
    10030    2    1    2    0    0  0.00000000000E+00  0.00000000000E+00  0.97732553497E+03  0.35235225812E+04  0.33852689965E+04 0.  0.
        2    1    3    3  502    0 -0.28588286555E+03 -0.13151776848E+04 -0.57970243490E+03  0.14654269919E+04  0.25500000920E-02 0.  1.
       -2    1    3    3    0  502  0.28588286555E+03  0.13151776848E+04  0.15570279699E+04  0.20580955893E+04  0.25500000920E-02 0. -1.
</event>
<event>
 5   0  0.7838333E-07  0.3400547E+04  0.7818609E-02  0.8137772E-01
        2   -1    0    0  501    0  0.00000000000E+00  0.00000000000E+00  0.20107800072E+04  0.20107800072E+04  0.25500000920E-02 0.  1.
       -2   -1    0    0    0  501  0.00000000000E+00  0.00000000000E+00 -0.14377154726E+04  0.14377154726E+04  0.25500000920E-02 0. -1.
    10030    2    1    2    0    0  0.00000000000E+00  0.00000000000E+00  0.57306453467E+03  0.34484954798E+04  0.34005467374E+04 0.  0.
        1    1    3    3  502    0  0.67014706107E+03 -0.15869256295E+03 -0.12899449967E+04  0.14622716941E+04  0.50400001928E-02 0. -1.
       -1    1    3    3    0  502 -0.67014706107E+03  0.15869256295E+03  0.18630095313E+04  0.19862237857E+04  0.50400001928E-02 0.  1.
</event>
<event>
 5   0  0.2553250E-07  0.3397675E+04  0.7818609E-02  0.8138477E-01
       -1   -1    0    0    0  501  0.00000000000E+00  0.00000000000E+00  0.35922754837E+04  0.35922754838E+04  0.50400001928E-02 0.  1.
        1   -1    0    0  501    0  0.00000000000E+00  0.00000000000E+00 -0.80340397067E+03  0.80340397068E+03  0.50400001928E-02 0. -1.
    10030    2    1    2    0    0  0.00000000000E+00  0.00000000000E+00  0.27888715131E+04  0.43956794544E+04  0.33976747269E+04 0.  0.
        5    1    3    3  502    0 -0.41786284034E+02 -0.15003417788E+04  0.24239525694E+04  0.28510243239E+04  0.46999998093E+01 0. -1.
       -5    1    3    3    0  502  0.41786284034E+02  0.15003417788E+04  0.36491894372E+03  0.15446551306E+04  0.46999998093E+01 0.  1.
</event>
<event>
 5   0  0.7822003E-07  0.3399687E+04  0.7818609E-02  0.8137983E-01
       -2   -1    0    0    0  501  0.00000000000E+00  0.00000000000E+00  0.16441900950E+04  0.16441900950E+04  0.25500000920E-02 0.  1.
        2   -1    0    0  501    0  0.00000000000E+00  0.00000000000E+00 -0.17573807252E+04  0.17573807252E+04  0.25500000920E-02 0. -1.
    10030    2    1    2    0    0  0.00000000000E+00  0.00000000000E+00 -0.11319063019E+03  0.34015708203E+04  0.33996870336E+04 0.  0.
        5    1    3    3  502    0  0.89381276993E+03  0.62830421322E+03  0.12463468333E+04  0.16574287227E+04  0.46999998093E+01 0.  1.
       -5    1    3    3    0  502 -0.89381276993E+03 -0.62830421322E+03 -0.13595374635E+04  0.17441420976E+04  0.46999998093E+01 0. -1.
</event>
<event>
 5   0  0.7822003E-07  0.3400741E+04  0.7818609E-02  0.8137724E-01
       -2   -1    0    0    0  501  0.00000000000E+00  0.00000000000E+00  0.14443327612E+04  0.14443327612E+04  0.25500000920E-02 0. -1.
        2   -1    0    0  501    0  0.00000000000E+00  0.00000000000E+00 -0.20017961162E+04  0.20017961163E+04  0.25500000920E-02 0.  1.
    10030    2    1    2    0    0  0.00000000000E+00  0.00000000000E+00 -0.55746335506E+03  0.34461288774E+04  0.34007409263E+04 0.  0.
        5    1    3    3  502    0  0.10951922551E+04 -0.10304468121E+04 -0.10830319507E+04  0.18531721464E+04  0.46999998093E+01 0.  1.
       -5    1    3    3    0  502 -0.10951922551E+04  0.10304468121E+04  0.52556859566E+03  0.15929567310E+04  0.46999998093E+01 0. -1.
</event>
<event>
 5   0  0.7822003E-07  0.3343999E+04  0.7818609E-02  0.8151789E-01
       -2   -1    0    0    0  501  0.00000000000E+00  0.00000000000E+00  0.16108457488E+04  0.16108457488E+04  0.25500000920E-02 0.  1.
        2   -1    0    0  501    0  0.00000000000E+00  0.00000000000E+00 -0.17354744562E+04  0.17354744562E+04  0.25500000920E-02 0. -1.
    10030    2    1    2    0    0  0.00000000000E+00  0.00000000000E+00 -0.12462870746E+03  0.33463202050E+04  0.33439985944E+04 0.  0.
        5    1    3    3  502    0 -0.13569401576E+04  0.89396266424E+03  0.33179116972E+03  0.16584822298E+04  0.46999998093E+01 0.  1.
       -5    1    3    3    0  502  0.13569401576E+04 -0.89396266424E+03 -0.45641987718E+03  0.16878379752E+04  0.46999998093E+01 0. -1.
</event>
<event>
 5   0  0.2641442E-07  0.3403729E+04  0.7818609E-02  0.8136992E-01
       -1   -1    0    0    0  501  0.00000000000E+00  0.00000000000E+00  0.21760160917E+04  0.21760160917E+04  0.50400001928E-02 0. -1.
        1   -1    0    0  501    0  0.00000000000E+00  0.00000000000E+00 -0.13310297068E+04  0.13310297068E+04  0.50400001928E-02 0.  1.
    10030    2    1    2    0    0  0.00000000000E+00  0.00000000000E+00  0.84498638490E+03  0.35070457986E+04  0.34037285795E+04 0.  0.
        1    1    3    3  502    0  0.86286521432E+03  0.12253346553E+04  0.12534216816E+04  0.19537265181E+04  0.50400001928E-02 0. -1.
       -1    1    3    3    0  502 -0.86286521432E+03 -0.12253346553E+04 -0.40843529666E+03  0.15533192805E+04  0.50400001928E-02 0.  1.
</event>
<event>
 5   0  0.7610412E-07  0.3407639E+04  0.7818609E-02  0.8136034E-01
        2   -1    0    0  501    0  0.00000000000E+00  0.00000000000E+00  0.16522579202E+04  0.16522579202E+04  0.25500000920E-02 0.  1.
       -2   -1    0    0    0  501  0.00000000000E+00  0.00000000000E+00 -0.17569904937E+04  0.17569904937E+04  0.25500000920E-02 0. -1.
    10030    2    1    2    0    0  0.00000000000E+00  0.00000000000E+00 -0.10473257351E+03  0.34092484139E+04  0.34076393348E+04 0.  0.
        4    1    3    3  502    0 -0.32678498169E+02 -0.16679539331E+04 -0.39874016355E+03  0.17152648594E+04  0.12699999809E+01 0. -1.
       -4    1    3    3    0  502  0.32678498169E+02  0.16679539331E+04  0.29400759004E+03  0.16939835545E+04  0.12699999809E+01 0.  1.
</event>
<event>
 5   0  0.2641442E-07  0.3425017E+04  0.7818609E-02  0.8131794E-01
       -1   -1    0    0    0  501  0.00000000000E+00  0.00000000000E+00  0.24860919924E+04  0.24860919924E+04  0.50400001928E-02 0. -1.
        1   -1    0    0  501    0  0.00000000000E+00  0.00000000000E+00 -0.11796364752E+04  0.11796364753E+04  0.50400001928E-02 0.  1.
    10030    2    1    2    0    0  0.00000000000E+00  0.00000000000E+00  0.13064555172E+04  0.36657284677E+04  0.34250166686E+04 0.  0.
        1    1    3    3  502    0 -0.33016341337E+03 -0.10833619930E+04  0.20280294660E+04  0.23228397712E+04  0.50400001928E-02 0. -1.
       -1    1    3    3    0  502  0.33016341337E+03  0.10833619930E+04 -0.72157394885E+03  0.13428886965E+04  0.50400001928E-02 0.  1.
</event>
<event>
 5   0  0.2622205E-07  0.3037302E+04  0.7818609E-02  0.8233159E-01
       -1   -1    0    0    0  501  0.00000000000E+00  0.00000000000E+00  0.90687548057E+03  0.90687548058E+03  0.50400001928E-02 0. -1.
        1   -1    0    0  501    0  0.00000000000E+00  0.00000000000E+00 -0.25431280761E+04  0.25431280761E+04  0.50400001928E-02 0.  1.
    10030    2    1    2    0    0  0.00000000000E+00  0.00000000000E+00 -0.16362525956E+04  0.34500035567E+04  0.30373017606E+04 0.  0.
        3    1    3    3  502    0  0.93553225342E+03  0.10636478051E+04 -0.19625709177E+03  0.14300643716E+04  0.10100000352E+00 0. -1.
       -3    1    3    3    0  502 -0.93553225342E+03 -0.10636478051E+04 -0.14399955038E+04  0.20199391852E+04  0.10100000352E+00 0.  1.
</event>
<event>
 5   0  0.2599367E-07  0.3401125E+04  0.7818609E-02  0.8137630E-01
        1   -1    0    0  501    0  0.00000000000E+00  0.00000000000E+00  0.12010578435E+04  0.12010578435E+04  0.50400001928E-02 0.  1.
       -1   -1    0    0    0  501  0.00000000000E+00  0.00000000000E+00 -0.24078052103E+04  0.24078052103E+04  0.50400001928E-02 0. -1.
    10030    2    1    2    0    0  0.00000000000E+00  0.00000000000E+00 -0.12067473667E+04  0.36088630538E+04  0.34011253041E+04 0.  0.
        2    1    3    3  502    0  0.16602087960E+04 -0.32776639736E+03 -0.78152528492E+03  0.18640026364E+04  0.25500000920E-02 0.  1.
       -2    1    3    3    0  502 -0.16602087960E+04  0.32776639736E+03 -0.42522208180E+03  0.17448604174E+04  0.25500000920E-02 0. -1.
</event>
<event>
 5   0  0.7610412E-07  0.3389457E+04  0.7818609E-02  0.8140499E-01
        2   -1    0    0  501    0  0.00000000000E+00  0.00000000000E+00  0.23467135988E+04  0.23467135988E+04  0.25500000920E-02 0. -1.
       -2   -1    0    0    0  501  0.00000000000E+00  0.00000000000E+00 -0.12238841154E+04  0.12238841154E+04  0.25500000920E-02 0.  1.
    10030    2    1    2    0    0  0.00000000000E+00  0.00000000000E+00  0.11228294833E+04  0.35705977142E+04  0.33894574770E+04 0.  0.
        4    1    3    3  502    0 -0.15062689026E+04 -0.76893203077E+03  0.67682033404E+03  0.18215899243E+04  0.12699999809E+01 0. -1.
       -4    1    3    3    0  502  0.15062689026E+04  0.76893203077E+03  0.44600914929E+03  0.17490077899E+04  0.12699999809E+01 0.  1.
</event>
<event>
 5   0  0.2592200E-07  0.3406248E+04  0.7818609E-02  0.8136375E-01
       -1   -1    0    0    0  501  0.00000000000E+00  0.00000000000E+00  0.19607303379E+04  0.19607303379E+04  0.50400001928E-02 0. -1.
        1   -1    0    0  501    0  0.00000000000E+00  0.00000000000E+00 -0.14793625542E+04  0.14793625542E+04  0.50400001928E-02 0.  1.
    10030    2    1    2    0    0  0.00000000000E+00  0.00000000000E+00  0.48136778367E+03  0.34400928921E+04  0.34062478130E+04 0.  0.
        4    1    3    3  502    0  0.11296469663E+03 -0.48999572736E+03  0.18840497890E+04  0.19500005271E+04  0.12699999809E+01 0. -1.
       -4    1    3    3    0  502 -0.11296469663E+03  0.48999572736E+03 -0.14026820053E+04  0.14900923650E+04  0.12699999809E+01 0.  1.
</event>
<event>
 5   0  0.2622205E-07  0.3406325E+04  0.7818609E-02  0.8136356E-01
       -1   -1    0    0    0  501  0.00000000000E+00  0.00000000000E+00  0.18703243638E+04  0.18703243638E+04  0.50400001928E-02 0.  1.
        1   -1    0    0  501    0  0.00000000000E+00  0.00000000000E+00 -0.15509404853E+04  0.15509404853E+04  0.50400001928E-02 0. -1.
    10030    2    1    2    0    0  0.00000000000E+00  0.00000000000E+00  0.31938387845E+03  0.34212648491E+04  0.34063245744E+04 0.  0.
        3    1    3    3  502    0 -0.15425101328E+04 -0.57234272355E+03 -0.28252095403E+03  0.16693507129E+04  0.10100000352E+00 0. -1.
       -3    1    3    3    0  502  0.15425101328E+04  0.57234272355E+03  0.60190483248E+03  0.17519141362E+04  0.10100000352E+00 0.  1.
</event>
<event>
 5   0  0.7838333E-07  0.3410568E+04  0.7818609E-02  0.8135317E-01
       -2   -1    0    0    0  501  0.00000000000E+00  0.00000000000E+00  0.13775199701E+04  0.13775199701E+04  0.25500000920E-02 0. -1.
        2   -1    0    0  501    0  0.00000000000E+00  0.00000000000E+00 -0.21110358296E+04  0.21110358296E+04  0.25500000920E-02 0.  1.
    10030    2    1    2    0    0  0.00000000000E+00  0.00000000000E+00 -0.73351585954E+03  0.34885557997E+04  0.34105682887E+04 0.  0.
        1    1    3    3  502    0 -0.72667945103E+03  0.23854168707E+03 -0.19257583280E+04  0.20720787386E+04  0.50400001928E-02 0.  1.
       -1    1    3    3    0  502  0.72667945103E+03 -0.23854168707E+03  0.11922424685E+04  0.14164770611E+04  0.50400001928E-02 0. -1.
</event>
<event>
 5   0  0.7822003E-07  0.3379051E+04  0.7818609E-02  0.8143067E-01
        2   -1    0    0  501    0  0.00000000000E+00  0.00000000000E+00  0.19164494852E+04  0.19164494852E+04  0.25500000920E-02 0. -1.
       -2   -1    0    0    0  501  0.00000000000E+00  0.00000000000E+00 -0.14894709772E+04  0.14894709772E+04  0.25500000920E-02 0.  1.
    10030    2    1    2    0    0  0.00000000000E+00  0.00000000000E+00  0.42697850798E+03  0.34059204624E+04  0.33790506877E+04 0.  0.
        5    1    3    3  502    0  0.10552148101E+04  0.11592352536E+01 -0.11164703569E+04  0.15362316841E+04  0.46999998093E+01 0.  1.
       -5    1    3    3    0  502 -0.10552148101E+04 -0.11592352536E+01  0.15434488649E+04  0.18696887783E+04  0.46999998093E+01 0. -1.
</event>
<event>
 5   0  0.2592200E-07  0.3479750E+04  0.7818609E-02  0.8118606E-01
       -1   -1    0    0    0  501  0.00000000000E+00  0.00000000000E+00  0.12402812968E+04  0.12402812968E+04  0.50400001928E-02 0. -1.
        1   -1    0    0  501    0  0.00000000000E+00  0.00000000000E+00 -0.24407089190E+04  0.24407089190E+04  0.50400001928E-02 0.  1.
    10030    2    1    2    0    0  0.00000000000E+00  0.00000000000E+00 -0.12004276222E+04  0.36809902158E+04  0.34797503492E+04 0.  0.
        4    1    3    3  502    0  0.26168180222E+03 -0.12739001607E+04 -0.18228517438E+04  0.22392161749E+04  0.12699999809E+01 0.  1.
       -4    1    3    3    0  502 -0.26168180222E+03  0.12739001607E+04  0.62242412161E+03  0.14417740410E+04  0.12699999809E+01 0. -1.
</event>
<event>
 5   0  0.7610412E-07  0.3387232E+04  0.7818609E-02  0.8141047E-01
        2   -1    0    0  501    0  0.00000000000E+00  0.00000000000E+00  0.25262911755E+04  0.25262911755E+04  0.25500000920E-02 0.  1.
       -2   -1    0    0    0  501  0.00000000000E+00  0.00000000000E+00 -0.11353938533E+04  0.11353938533E+04  0.25500000920E-02 0. -1.
    10030    2    1    2    0    0  0.00000000000E+00  0.00000000000E+00  0.13908973222E+04  0.36616850287E+04  0.33872321870E+04 0.  0.
        4    1    3    3  502    0 -0.12038284871E+04 -0.20892143761E+03  0.19632861159E+04  0.23124327405E+04  0.12699999809E+01 0.  1.
       -4    1    3    3    0  502  0.12038284871E+04  0.20892143761E+03 -0.57238879369E+03  0.13492522883E+04  0.12699999809E+01 0. -1.
</event>
<event>
 5   0  0.7899402E-07  0.3380902E+04  0.7818609E-02  0.8142610E-01
        2   -1    0    0  501    0  0.00000000000E+00  0.00000000000E+00  0.20756990697E+04  0.20756990697E+04  0.25500000920E-02 0.  1.
       -2   -1    0    0    0  501  0.00000000000E+00  0.00000000000E+00 -0.13767045761E+04  0.13767045761E+04  0.25500000920E-02 0. -1.
    10030    2    1    2    0    0  0.00000000000E+00  0.00000000000E+00  0.69899449360E+03  0.34524036458E+04  0.33809018962E+04 0.  0.
        2    1    3    3  502    0  0.16594950002E+04 -0.31697522298E+03  0.29148503244E+03  0.17144563196E+04  0.25500000920E-02 0.  1.
       -2    1    3    3    0  502 -0.16594950002E+04  0.31697522298E+03  0.40750946117E+03  0.17379473262E+04  0.25500000920E-02 0. -1.
</event>
<event>
 5   0  0.2641442E-07  0.3372856E+04  0.7818609E-02  0.8144601E-01
       -1   -1    0    0    0  501  0.00000000000E+00  0.00000000000E+00  0.85605529536E+03  0.85605529538E+03  0.50400001928E-02 0.  1.
        1   -1    0    0  501    0  0.00000000000E+00  0.00000000000E+00 -0.33222622959E+04  0.33222622960E+04  0.50400001928E-02 0. -1.
    10030    2    1    2    0    0  0.00000000000E+00  0.00000000000E+00 -0.24662070006E+04  0.41783175913E+04  0.33728564933E+04 0.  0.
        1    1    3    3  502    0  0.10978799360E+04 -0.30818195730E+03  0.30607283674E+03  0.11806765239E+04  0.50400001928E-02 0. -1.
       -1    1    3    3    0  502 -0.10978799360E+04  0.30818195730E+03 -0.27722798373E+04  0.29976410674E+04  0.50400001928E-02 0.  1.
</event>
<event>
 5   0  0.7899402E-07  0.3390823E+04  0.7818609E-02  0.8140162E-01
        2   -1    0    0  501    0  0.00000000000E+00  0.00000000000E+00  0.18758697765E+04  0.18758697765E+04  0.25500000920E-02 0.  1.
       -2   -1    0    0    0  501  0.00000000000E+00  0.00000000000E+00 -0.15323129870E+04  0.15323129870E+04  0.25500000920E-02 0. -1.
    10030    2    1    2    0    0  0.00000000000E+00  0.00000000000E+00  0.34355678952E+03  0.34081827635E+04  0.33908226851E+04 0.  0.
        2    1    3    3  502    0 -0.13831120624E+04  0.31641601097E+02 -0.81324891078E+03  0.16047971707E+04  0.25500000920E-02 0.  1.
       -2    1    3    3    0  502  0.13831120624E+04 -0.31641601097E+02  0.11568057003E+04  0.18033855928E+04  0.25500000920E-02 0. -1.
</event>
<event>
 5   0  0.2599367E-07  0.3396640E+04  0.7818609E-02  0.8138731E-01
       -1   -1    0    0    0  501  0.00000000000E+00  0.00000000000E+00  0.10162690422E+04  0.10162690423E+04  0.50400001928E-02 0.  1.
        1   -1    0    0  501    0  0.00000000000E+00  0.00000000000E+00 -0.28381177435E+04  0.28381177435E+04  0.50400001928E-02 0. -1.
    10030    2    1    2    0    0  0.00000000000E+00  0.00000000000E+00 -0.18218487012E+04  0.38543867857E+04  0.33966402229E+04 0.  0.
        2    1    3    3  502    0  0.57620061167E+02  0.16823714560E+04 -0.65567190931E+03  0.18065435063E+04  0.25500000920E-02 0.  1.
       -2    1    3    3    0  502 -0.57620061167E+02 -0.16823714560E+04 -0.11661767919E+04  0.20478432795E+04  0.25500000920E-02 0. -1.
</event>
<event>
 5   0  0.2592200E-07  0.3381231E+04  0.7818609E-02  0.8142528E-01
        1   -1    0    0  501    0  0.00000000000E+00  0.00000000000E+00  0.14450269674E+04  0.14450269674E+04  0.50400001928E-02 0.  1.
       -1   -1    0    0    0  501  0.00000000000E+00  0.00000000000E+00 -0.19779424592E+04  0.19779424592E+04  0.50400001928E-02 0. -1.
    10030    2    1    2    0    0  0.00000000000E+00  0.00000000000E+00 -0.53291549181E+03  0.34229694265E+04  0.33812306596E+04 0.  0.
        4    1    3    3  502    0 -0.26404426492E+03  0.78185813190E+03  0.12272756909E+04  0.14789282426E+04  0.12699999809E+01 0.  1.
       -4    1    3    3    0  502  0.26404426492E+03 -0.78185813190E+03 -0.17601911827E+04  0.19440411840E+04  0.12699999809E+01 0. -1.
</event>
<event>
 5   0  0.7838333E-07  0.3401349E+04  0.7818609E-02  0.8137575E-01
        2   -1    0    0  501    0  0.00000000000E+00  0.00000000000E+00  0.17423765462E+04  0.17423765462E+04  0.25500000920E-02 0.  1.
       -2   -1    0    0    0  501  0.00000000000E+00  0.00000000000E+00 -0.16599705948E+04  0.16599705948E+04  0.25500000920E-02 0. -1.
    10030    2    1    2    0    0  0.00000000000E+00  0.00000000000E+00  0.82405951458E+02  0.34023471410E+04  0.34013490452E+04 0.  0.
        1    1    3    3  502    0  0.57521788636E+03 -0.10578040595E+04 -0.11601776760E+04  0.16720757414E+04  0.50400001928E-02 0. -1.
       -1    1    3    3    0  502 -0.57521788636E+03  0.10578040595E+04  0.12425836275E+04  0.17302713996E+04  0.50400001928E-02 0.  1.
</event>
<event>
 5   0  0.7899402E-07  0.3455579E+04  0.7818609E-02  0.8124399E-01
       -2   -1    0    0    0  501  0.00000000000E+00  0.00000000000E+00  0.10691743047E+04  0.10691743047E+04  0.25500000920E-02 0. -1.
        2   -1    0    0  501    0  0.00000000000E+00  0.00000000000E+00 -0.27921138921E+04  0.27921138921E+04  0.25500000920E-02 0.  1.
    10030    2    1    2    0    0  0.00000000000E+00  0.00000000000E+00 -0.17229395874E+04  0.38612881968E+04  0.34555789264E+04 0.  0.
        2    1    3    3  502    0 -0.15593135726E+04 -0.61478793915E+02 -0.16901745659E+04  0.23004192060E+04  0.25500000920E-02 0. -1.
       -2    1    3    3    0  502  0.15593135726E+04  0.61478793915E+02 -0.32765021498E+02  0.15608689908E+04  0.25500000920E-02 0.  1.
</event>
<event>
 5   0  0.2641442E-07  0.3446748E+04  0.7818609E-02  0.8126527E-01
        1   -1    0    0  501    0  0.00000000000E+00  0.00000000000E+00  0.12116189170E+04  0.12116189170E+04  0.50400001928E-02 0.  1.
       -1   -1    0    0    0  501  0.00000000000E+00  0.00000000000E+00 -0.24512807101E+04  0.24512807101E+04  0.50400001928E-02 0. -1.
    10030    2    1    2    0    0  0.00000000000E+00  0.00000000000E+00 -0.12396617931E+04  0.36628996271E+04  0.34467480785E+04 0.  0.
        1    1    3    3  502    0  0.61635153889E+03 -0.52272682102E+03 -0.22374183306E+04  0.23789017077E+04  0.50400001928E-02 0. -1.
       -1    1    3    3    0  502 -0.61635153889E+03  0.52272682102E+03  0.99775653746E+03  0.12839979194E+04  0.50400001928E-02 0.  1.
</event>
<event>
 5   0  0.2599367E-07  0.3394860E+04  0.7818609E-02  0.8139169E-01
        1   -1    0    0  501    0  0.00000000000E+00  0.00000000000E+00  0.26746823013E+04  0.26746823013E+04  0.50400001928E-02 0.  1.
       -1   -1    0    0    0  501  0.00000000000E+00  0.00000000000E+00 -0.10772374792E+04  0.10772374792E+04  0.50400001928E-02 0. -1.
    10030    2    1    2    0    0  0.00000000000E+00  0.00000000000E+00  0.15974448221E+04  0.37519197805E+04  0.33948596554E+04 0.  0.
        2    1    3    3  502    0 -0.76643544306E+03  0.10405943390E+04 -0.41747829897E+03  0.13581413759E+04  0.25500000920E-02 0.  1.
       -2    1    3    3    0  502  0.76643544306E+03 -0.10405943390E+04  0.20149231211E+04  0.23937784046E+04  0.25500000920E-02 0. -1.
</event>
<event>
 5   0  0.7838333E-07  0.3410260E+04  0.7818609E-02  0.8135393E-01
        2   -1    0    0  501    0  0.00000000000E+00  0.00000000000E+00  0.24279269031E+04  0.24279269031E+04  0.25500000920E-02 0. -1.
       -2   -1    0    0    0  501  0.00000000000E+00  0.00000000000E+00 -0.11975108069E+04  0.11975108069E+04  0.25500000920E-02 0.  1.
    10030    2    1    2    0    0  0.00000000000E+00  0.00000000000E+00  0.12304160962E+04  0.36254377100E+04  0.34102602275E+04 0.  0.
        1    1    3    3  502    0  0.74193378259E+03 -0.13415222635E+04 -0.17843574684E+03  0.15433687301E+04  0.50400001928E-02 0.  1.
       -1    1    3    3    0  502 -0.74193378259E+03  0.13415222635E+04  0.14088518431E+04  0.20820689799E+04  0.50400001928E-02 0. -1.
</event>
<event>
 5   0  0.2599367E-07  0.3400323E+04  0.7818609E-02  0.8137827E-01
        1   -1    0    0  501    0  0.00000000000E+00  0.00000000000E+00  0.13798435182E+04  0.13798435182E+04  0.50400001928E-02 0.  1.
       -1   -1    0    0    0  501  0.00000000000E+00  0.00000000000E+00 -0.20948385498E+04  0.20948385498E+04  0.50400001928E-02 0. -1.
    10030    2    1    2    0    0  0.00000000000E+00  0.00000000000E+00 -0.71499503160E+03  0.34746820679E+04  0.34003231579E+04 0.  0.
        2    1    3    3  502    0  0.96352314664E+02 -0.11146312360E+04 -0.16656735329E+04  0.20065280659E+04  0.25500000920E-02 0. -1.
       -2    1    3    3    0  502 -0.96352314664E+02  0.11146312360E+04  0.95067850133E+03  0.14681540020E+04  0.25500000920E-02 0.  1.
</event>
<event>
 5   0  0.2622205E-07  0.3393409E+04  0.7818609E-02  0.8139526E-01
        1   -1    0    0  501    0  0.00000000000E+00  0.00000000000E+00  0.12252909236E+04  0.12252909236E+04  0.50400001928E-02 0.  1.
       -1   -1    0    0    0  501  0.00000000000E+00  0.00000000000E+00 -0.23494876096E+04  0.23494876096E+04  0.50400001928E-02 0. -1.
    10030    2    1    2    0    0  0.00000000000E+00  0.00000000000E+00 -0.11241966861E+04  0.35747785332E+04  0.33934088130E+04 0.  0.
        3    1    3    3  502    0  0.15526790837E+04 -0.53747264972E+03 -0.11625638932E+03  0.16471808475E+04  0.10100000352E+00 0.  1.
       -3    1    3    3    0  502 -0.15526790837E+04  0.53747264972E+03 -0.10079402967E+04  0.19275976857E+04  0.10100000352E+00 0. -1.
</event>
<event>
 5   0  0.7610412E-07  0.3408961E+04  0.7818609E-02  0.8135710E-01
       -2   -1    0    0    0  501  0.00000000000E+00  0.00000000000E+00  0.10483489430E+04  0.10483489430E+04  0.25500000920E-02 0.  1.
        2   -1    0    0  501    0  0.00000000000E+00  0.00000000000E+00 -0.27712667934E+04  0.27712667934E+04  0.25500000920E-02 0. -1.
    10030    2    1    2    0    0  0.00000000000E+00  0.00000000000E+00 -0.17229178505E+04  0.38196157364E+04  0.34089614921E+04 0.  0.
        4    1    3    3  502    0 -0.16928541461E+04  0.19816816384E+03 -0.84456928741E+03  0.19021894426E+04  0.12699999809E+01 0.  1.
       -4    1    3    3    0  502  0.16928541461E+04 -0.19816816384E+03 -0.87834856306E+03  0.19174262939E+04  0.12699999809E+01 0. -1.
</event>
<event>
 5   0  0.7610412E-07  0.3398911E+04  0.7818609E-02  0.8138174E-01
       -2   -1    0    0    0  501  0.00000000000E+00  0.00000000000E+00  0.24133023328E+04  0.24133023328E+04  0.25500000920E-02 0. -1.
        2   -1    0    0  501    0  0.00000000000E+00  0.00000000000E+00 -0.11967623001E+04  0.11967623001E+04  0.25500000920E-02 0.  1.
    10030    2    1    2    0    0  0.00000000000E+00  0.00000000000E+00  0.12165400328E+04  0.36100646329E+04  0.33989111495E+04 0.  0.
        4    1    3    3  502    0 -0.20010766938E+03  0.69854244685E+03 -0.10234450552E+04  0.12551677272E+04  0.12699999809E+01 0.  1.
       -4    1    3    3    0  502  0.20010766938E+03 -0.69854244685E+03  0.22399850880E+04  0.23548969057E+04  0.12699999809E+01 0. -1.
</event>
<event>
 5   0  0.7610412E-07  0.3376345E+04  0.7818609E-02  0.8143737E-01
        2   -1    0    0  501    0  0.00000000000E+00  0.00000000000E+00  0.18745643138E+04  0.18745643138E+04  0.25500000920E-02 0.  1.
       -2   -1    0    0    0  501  0.00000000000E+00  0.00000000000E+00 -0.15203139184E+04  0.15203139184E+04  0.25500000920E-02 0. -1.
    10030    2    1    2    0    0  0.00000000000E+00  0.00000000000E+00  0.35425039542E+03  0.33948782322E+04  0.33763448978E+04 0.  0.
        4    1    3    3  502    0  0.19050903714E+03  0.95740955283E+03  0.15620009715E+04  0.18419488030E+04  0.12699999809E+01 0.  1.
       -4    1    3    3    0  502 -0.19050903714E+03 -0.95740955283E+03 -0.12077505761E+04  0.15529294292E+04  0.12699999809E+01 0. -1.
</event>
<event>
 5   0  0.8489228E-07  0.3305467E+04  0.7818609E-02  0.8161506E-01
        2   -1    0    0  501    0  0.00000000000E+00  0.00000000000E+00  0.22706990555E+04  0.22706990555E+04  0.25500000920E-02 0.  1.
       -2   -1    0    0    0  501  0.00000000000E+00  0.00000000000E+00 -0.12029461715E+04  0.12029461715E+04  0.25500000920E-02 0. -1.
    10030    2    1    2    0    0  0.00000000000E+00  0.00000000000E+00  0.10677528840E+04  0.34736452270E+04  0.33054674317E+04 0.  0.
        3    1    3    3  502    0  0.61705270136E+03 -0.98540283210E+03  0.17682701962E+04  0.21162590282E+04  0.10100000352E+00 0.  1.
       -3    1    3    3    0  502 -0.61705270136E+03  0.98540283210E+03 -0.70051731217E+03  0.13573861988E+04  0.10100000352E+00 0. -1.
</event>
<event>
 5   0  0.2641442E-07  0.3402346E+04  0.7818609E-02  0.8137331E-01
       -1   -1    0    0    0  501  0.00000000000E+00  0.00000000000E+00  0.11300377114E+04  0.11300377114E+04  0.50400001928E-02 0. -1.
        1   -1    0    0  501    0  0.00000000000E+00  0.00000000000E+00 -0.25609676641E+04  0.25609676641E+04  0.50400001928E-02 0.  1.
    10030    2    1    2    0    0  0.00000000000E+00  0.00000000000E+00 -0.14309299527E+04  0.36910053755E+04  0.34023462716E+04 0.  0.
        1    1    3    3  502    0  0.13913777928E+04 -0.76382074775E+03 -0.13794690900E+04  0.21029239804E+04  0.50400001928E-02 0.  1.
       -1    1    3    3    0  502 -0.13913777928E+04  0.76382074775E+03 -0.51460862716E+02  0.15880813951E+04  0.50400001928E-02 0. -1.
</event>
<event>
 5   0  0.7899402E-07  0.3414446E+04  0.7818609E-02  0.8134370E-01
        2   -1    0    0  501    0  0.00000000000E+00  0.00000000000E+00  0.19600213485E+04  0.19600213485E+04  0.25500000920E-02 0.  1.
       -2   -1    0    0    0  501  0.00000000000E+00  0.00000000000E+00 -0.14870299153E+04  0.14870299153E+04  0.25500000920E-02 0. -1.
    10030    2    1    2    0    0  0.00000000000E+00  0.00000000000E+00  0.47299143324E+03  0.34470512638E+04  0.34144460047E+04 0.  0.
        2    1    3    3  502    0 -0.47899136874E+03 -0.18157051707E+03 -0.14076164012E+04  0.14979267395E+04  0.25500000920E-02 0. -1.
       -2    1    3    3    0  502  0.47899136874E+03  0.18157051707E+03  0.18806078345E+04  0.19491245242E+04  0.25500000920E-02 0.  1.
</event>
<event>
 5   0  0.7838333E-07  0.3398596E+04  0.7818609E-02  0.8138251E-01
       -2   -1    0    0    0  501  0.00000000000E+00  0.00000000000E+00  0.20220254051E+04  0.20220254051E+04  0.25500000920E-02 0.  1.
        2   -1    0    0  501    0  0.00000000000E+00  0.00000000000E+00 -0.14280801030E+04  0.14280801030E+04  0.25500000920E-02 0. -1.
    10030    2    1    2    0    0  0.00000000000E+00  0.00000000000E+00  0.59394530217E+03  0.34501055081E+04  0.33985963272E+04 0.  0.
        1    1    3    3  502    0  0.96338182476E+03 -0.13748217494E+04  0.29589602204E+02  0.16790220152E+04  0.50400001928E-02 0. -1.
       -1    1    3    3    0  502 -0.96338182476E+03  0.13748217494E+04  0.56435569996E+03  0.17710834929E+04  0.50400001928E-02 0.  1.
</event>
<event>
 5   0  0.2599367E-07  0.3393129E+04  0.7818609E-02  0.8139595E-01
        1   -1    0    0  501    0  0.00000000000E+00  0.00000000000E+00  0.11489002000E+04  0.11489002001E+04  0.50400001928E-02 0.  1.
       -1   -1    0    0    0  501  0.00000000000E+00  0.00000000000E+00 -0.25052927707E+04  0.25052927707E+04  0.50400001928E-02 0. -1.
    10030    2    1    2    0    0  0.00000000000E+00  0.00000000000E+00 -0.13563925707E+04  0.36541929708E+04  0.33931291549E+04 0.  0.
        2    1    3    3  502    0  0.13414046319E+04  0.57130340011E+03 -0.16124539604E+04  0.21738817208E+04  0.25500000920E-02 0. -1.
       -2    1    3    3    0  502 -0.13414046319E+04 -0.57130340011E+03  0.25606138973E+03  0.14803112500E+04  0.25500000920E-02 0.  1.
</event>
<event>
 5   0  0.2599367E-07  0.3286730E+04  0.7818609E-02  0.8166280E-01
        1   -1    0    0  501    0  0.00000000000E+00  0.00000000000E+00  0.26016828654E+04  0.26016828654E+04  0.50400001928E-02 0.  1.
       -1   -1    0    0    0  501  0.00000000000E+00  0.00000000000E+00 -0.10380388344E+04  0.10380388344E+04  0.50400001928E-02 0. -1.
    10030    2    1    2    0    0  0.00000000000E+00  0.00000000000E+00  0.15636440310E+04  0.36397216998E+04  0.32867295898E+04 0.  0.
        2    1    3    3  502    0 -0.15561787110E+04 -0.16974128865E+03  0.13356805719E+04  0.20578014666E+04  0.25500000920E-02 0.  1.
       -2    1    3    3    0  502  0.15561787110E+04  0.16974128865E+03  0.22796345910E+03  0.15819202333E+04  0.25500000920E-02 0. -1.
</event>
<event>
 5   0  0.7610412E-07  0.3423826E+04  0.7818609E-02  0.8132083E-01
        2   -1    0    0  501    0  0.00000000000E+00  0.00000000000E+00  0.27704729027E+04  0.27704729027E+04  0.25500000920E-02 0. -1.
       -2   -1    0    0    0  501  0.00000000000E+00  0.00000000000E+00 -0.10578145782E+04  0.10578145782E+04  0.25500000920E-02 0.  1.
    10030    2    1    2    0    0  0.00000000000E+00  0.00000000000E+00  0.17126583245E+04  0.38282874809E+04  0.34238262953E+04 0.  0.
        4    1    3    3  502    0  0.82928532580E+02 -0.85862615940E+03  0.25097006347E+04  0.26538113934E+04  0.12699999809E+01 0. -1.
       -4    1    3    3    0  502 -0.82928532580E+02  0.85862615940E+03 -0.79704231016E+03  0.11744760875E+04  0.12699999809E+01 0.  1.
</event>
<event>
 5   0  0.7610412E-07  0.3409609E+04  0.7818609E-02  0.8135552E-01
       -2   -1    0    0    0  501  0.00000000000E+00  0.00000000000E+00  0.32587438681E+04  0.32587438681E+04  0.25500000920E-02 0. -1.
        2   -1    0    0  501    0  0.00000000000E+00  0.00000000000E+00 -0.89186470497E+03  0.89186470497E+03  0.25500000920E-02 0.  1.
    10030    2    1    2    0    0  0.00000000000E+00  0.00000000000E+00  0.23668791631E+04  0.41506085730E+04  0.34096091497E+04 0.  0.
        4    1    3    3  502    0 -0.25608123119E+03  0.16843016602E+04  0.12595331789E+04  0.21186965619E+04  0.12699999809E+01 0. -1.
       -4    1    3    3    0  502  0.25608123119E+03 -0.16843016602E+04  0.11073459842E+04  0.20319120112E+04  0.12699999809E+01 0.  1.
</event>
<event>
 5   0  0.7610412E-07  0.3511428E+04  0.7818609E-02  0.8111087E-01
        2   -1    0    0  501    0  0.00000000000E+00  0.00000000000E+00  0.14112999057E+04  0.14112999057E+04  0.25500000920E-02 0.  1.
       -2   -1    0    0    0  501  0.00000000000E+00  0.00000000000E+00 -0.21841796009E+04  0.21841796009E+04  0.25500000920E-02 0. -1.
    10030    2    1    2    0    0  0.00000000000E+00  0.00000000000E+00 -0.77287969522E+03  0.35954795067E+04  0.35114284643E+04 0.  0.
        4    1    3    3  502    0 -0.87141962455E+03  0.31937403679E+02 -0.19467720437E+04  0.21331467748E+04  0.12699999809E+01 0. -1.
       -4    1    3    3    0  502  0.87141962455E+03 -0.31937403679E+02  0.11738923485E+04  0.14623327318E+04  0.12699999809E+01 0.  1.
</event>
<event>
 5   0  0.2622205E-07  0.3379476E+04  0.7818609E-02  0.8142962E-01
       -1   -1    0    0    0  501  0.00000000000E+00  0.00000000000E+00  0.16891824047E+04  0.16891824047E+04  0.50400001928E-02 0. -1.
        1   -1    0    0  501    0  0.00000000000E+00  0.00000000000E+00 -0.16902939981E+04  0.16902939981E+04  0.50400001928E-02 0.  1.
    10030    2    1    2    0    0  0.00000000000E+00  0.00000000000E+00 -0.11115933540E+01  0.33794764028E+04  0.33794762200E+04 0.  0.
        3    1    3    3  502    0 -0.71233525557E+02  0.59839177607E+03 -0.15791843809E+04  0.16902574514E+04  0.10100000352E+00 0.  1.
       -3    1    3    3    0  502  0.71233525557E+02 -0.59839177607E+03  0.15780727876E+04  0.16892189514E+04  0.10100000352E+00 0. -1.
</event>
<event>
 5   0  0.2553250E-07  0.3412565E+04  0.7818609E-02  0.8134829E-01
       -1   -1    0    0    0  501  0.00000000000E+00  0.00000000000E+00  0.17724458383E+04  0.17724458383E+04  0.50400001928E-02 0.  1.
        1   -1    0    0  501    0  0.00000000000E+00  0.00000000000E+00 -0.16425889997E+04  0.16425889997E+04  0.50400001928E-02 0. -1.
    10030    2    1    2    0    0  0.00000000000E+00  0.00000000000E+00  0.12985683857E+03  0.34150348380E+04  0.34125650391E+04 0.  0.
        5    1    3    3  502    0 -0.73228387319E+03 -0.53757545265E+03  0.15103251293E+04  0.17624786877E+04  0.46999998093E+01 0.  1.
       -5    1    3    3    0  502  0.73228387319E+03  0.53757545265E+03 -0.13804682907E+04  0.16525561503E+04  0.46999998093E+01 0. -1.
</event>
<event>
 5   0  0.7899402E-07  0.3296741E+04  0.7818609E-02  0.8163725E-01
       -2   -1    0    0    0  501  0.00000000000E+00  0.00000000000E+00  0.13850829847E+04  0.13850829847E+04  0.25500000920E-02 0.  1.
        2   -1    0    0  501    0  0.00000000000E+00  0.00000000000E+00 -0.19617053197E+04  0.19617053197E+04  0.25500000920E-02 0. -1.
    10030    2    1    2    0    0  0.00000000000E+00  0.00000000000E+00 -0.57662233497E+03  0.33467883044E+04  0.32967406081E+04 0.  0.
        2    1    3    3  502    0  0.81065876040E+03  0.13825380619E+04  0.10295588137E+03  0.16059822639E+04  0.25500000920E-02 0.  1.
       -2    1    3    3    0  502 -0.81065876040E+03 -0.13825380619E+04 -0.67957821634E+03  0.17408060405E+04  0.25500000920E-02 0. -1.
</event>
<event>
 5   0  0.2599367E-07  0.3414760E+04  0.7818609E-02  0.8134293E-01
        1   -1    0    0  501    0  0.00000000000E+00  0.00000000000E+00  0.15692723007E+04  0.15692723007E+04  0.50400001928E-02 0. -1.
       -1   -1    0    0    0  501  0.00000000000E+00  0.00000000000E+00 -0.18576420365E+04  0.18576420365E+04  0.50400001928E-02 0.  1.
    10030    2    1    2    0    0  0.00000000000E+00  0.00000000000E+00 -0.28836973582E+03  0.34269143372E+04  0.34147598407E+04 0.  0.
        2    1    3    3  502    0  0.24546882948E+03 -0.31080452770E+03 -0.18109069400E+04  0.18537093477E+04  0.25500000920E-02 0.  1.
       -2    1    3    3    0  502 -0.24546882948E+03  0.31080452770E+03  0.15225372041E+04  0.15732049894E+04  0.25500000920E-02 0. -1.
</event>
<event>
 5   0  0.2599367E-07  0.3389135E+04  0.7818609E-02  0.8140578E-01
        1   -1    0    0  501    0  0.00000000000E+00  0.00000000000E+00  0.11284362432E+04  0.11284362432E+04  0.50400001928E-02 0. -1.
       -1   -1    0    0    0  501  0.00000000000E+00  0.00000000000E+00 -0.25447244286E+04  0.25447244286E+04  0.50400001928E-02 0.  1.
    10030    2    1    2    0    0  0.00000000000E+00  0.00000000000E+00 -0.14162881854E+04  0.36731606718E+04  0.33891351547E+04 0.  0.
        2    1    3    3  502    0 -0.13715036751E+04  0.94591430527E+03 -0.37271910301E+03  0.17072480000E+04  0.25500000920E-02 0.  1.
       -2    1    3    3    0  502  0.13715036751E+04 -0.94591430527E+03 -0.10435690824E+04  0.19659126718E+04  0.25500000920E-02 0. -1.
</event>
<event>
 5   0  0.2641442E-07  0.3334351E+04  0.7818609E-02  0.8154209E-01
       -1   -1    0    0    0  501  0.00000000000E+00  0.00000000000E+00  0.17756636704E+04  0.17756636704E+04  0.50400001928E-02 0.  1.
        1   -1    0    0  501    0  0.00000000000E+00  0.00000000000E+00 -0.15653151967E+04  0.15653151967E+04  0.50400001928E-02 0. -1.
    10030    2    1    2    0    0  0.00000000000E+00  0.00000000000E+00  0.21034847378E+03  0.33409788671E+04  0.33343505080E+04 0.  0.
        1    1    3    3  502    0 -0.15000172624E+04 -0.26068588144E+03 -0.57548788627E+03  0.16276348558E+04  0.50400001928E-02 0. -1.
       -1    1    3    3    0  502  0.15000172624E+04  0.26068588144E+03  0.78583636005E+03  0.17133440113E+04  0.50400001928E-02 0.  1.
</event>
<event>
 5   0  0.7899402E-07  0.3248839E+04  0.7818609E-02  0.8176037E-01
        2   -1    0    0  501    0  0.00000000000E+00  0.00000000000E+00  0.24526838320E+04  0.24526838320E+04  0.25500000920E-02 0. -1.
       -2   -1    0    0    0  501  0.00000000000E+00  0.00000000000E+00 -0.10758578177E+04  0.10758578177E+04  0.25500000920E-02 0.  1.
    10030    2    1    2    0    0  0.00000000000E+00  0.00000000000E+00  0.13768260143E+04  0.35285416497E+04  0.32488392234E+04 0.  0.
        2    1    3    3  502    0  0.75559099155E+03  0.11878032422E+04  0.15687145507E+04  0.21077617585E+04  0.25500000920E-02 0. -1.
       -2    1    3    3    0  502 -0.75559099155E+03 -0.11878032422E+04 -0.19188853646E+03  0.14207798912E+04  0.25500000920E-02 0.  1.
</event>
<event>
 5   0  0.7610412E-07  0.3405884E+04  0.7818609E-02  0.8136464E-01
       -2   -1    0    0    0  501  0.00000000000E+00  0.00000000000E+00  0.10055366751E+04  0.10055366751E+04  0.25500000920E-02 0. -1.
        2   -1    0    0  501    0  0.00000000000E+00  0.00000000000E+00 -0.28840435683E+04  0.28840435683E+04  0.25500000920E-02 0.  1.
    10030    2    1    2    0    0  0.00000000000E+00  0.00000000000E+00 -0.18785068931E+04  0.38895802434E+04  0.34058840735E+04 0.  0.
        4    1    3    3  502    0 -0.18713157612E+03  0.13563568206E+04 -0.20956207230E+04  0.25032678401E+04  0.12699999809E+01 0.  1.
       -4    1    3    3    0  502  0.18713157612E+03 -0.13563568206E+04  0.21711382993E+03  0.13863124033E+04  0.12699999809E+01 0. -1.
</event>
<event>
 5   0  0.2641442E-07  0.3402257E+04  0.7818609E-02  0.8137353E-01
       -1   -1    0    0    0  501  0.00000000000E+00  0.00000000000E+00  0.12506110434E+04  0.12506110434E+04  0.50400001928E-02 0. -1.
        1   -1    0    0  501    0  0.00000000000E+00  0.00000000000E+00 -0.23139390116E+04  0.23139390117E+04  0.50400001928E-02 0.  1.
    10030    2    1    2    0    0  0.00000000000E+00  0.00000000000E+00 -0.10633279683E+04  0.35645500550E+04  0.34022567109E+04 0.  0.
        1    1    3    3  502    0  0.49613109008E+03 -0.10064015401E+04  0.80793950615E+03  0.13826627803E+04  0.50400001928E-02 0. -1.
       -1    1    3    3    0  502 -0.49613109008E+03  0.10064015401E+04 -0.18712674744E+04  0.21818872747E+04  0.50400001928E-02 0.  1.
</event>
<event>
 5   0  0.7838333E-07  0.3378465E+04  0.7818609E-02  0.8143212E-01
        2   -1    0    0  501    0  0.00000000000E+00  0.00000000000E+00  0.22372434150E+04  0.22372434150E+04  0.25500000920E-02 0. -1.
       -2   -1    0    0    0  501  0.00000000000E+00  0.00000000000E+00 -0.12754565959E+04  0.12754565959E+04  0.25500000920E-02 0.  1.
    10030    2    1    2    0    0  0.00000000000E+00  0.00000000000E+00  0.96178681907E+03  0.35127000109E+04  0.33784652553E+04 0.  0.
        1    1    3    3  502    0  0.53009088328E+02 -0.13056751333E+04  0.15938974406E+04  0.20610935370E+04  0.50400001928E-02 0. -1.
       -1    1    3    3    0  502 -0.53009088328E+02  0.13056751333E+04 -0.63211062153E+03  0.14516064739E+04  0.50400001928E-02 0.  1.
</event>
<event>
 5   0  0.2599367E-07  0.3341614E+04  0.7818609E-02  0.8152387E-01
       -1   -1    0    0    0  501  0.00000000000E+00  0.00000000000E+00  0.14367141703E+04  0.14367141703E+04  0.50400001928E-02 0.  1.
        1   -1    0    0  501    0  0.00000000000E+00  0.00000000000E+00 -0.19430422500E+04  0.19430422500E+04  0.50400001928E-02 0. -1.
    10030    2    1    2    0    0  0.00000000000E+00  0.00000000000E+00 -0.50632807974E+03  0.33797564203E+04  0.33416141812E+04 0.  0.
        2    1    3    3  502    0 -0.11775418395E+04 -0.54202859318E+03 -0.13193293295E+04  0.18496025679E+04  0.25500000920E-02 0.  1.
       -2    1    3    3    0  502  0.11775418395E+04  0.54202859318E+03  0.81300124979E+03  0.15301538523E+04  0.25500000920E-02 0. -1.
</event>
<event>
 5   0  0.2641442E-07  0.3349182E+04  0.7818609E-02  0.8150493E-01
       -1   -1    0    0    0  501  0.00000000000E+00  0.00000000000E+00  0.13463705661E+04  0.13463705661E+04  0.50400001928E-02 0. -1.
        1   -1    0    0  501    0  0.00000000000E+00  0.00000000000E+00 -0.20828251520E+04  0.20828251520E+04  0.50400001928E-02 0.  1.
    10030    2    1    2    0    0  0.00000000000E+00  0.00000000000E+00 -0.73645458595E+03  0.34291957181E+04  0.33491816786E+04 0.  0.
        1    1    3    3  502    0 -0.14886308608E+04  0.32260973538E+03 -0.10806636016E+04  0.18676007874E+04  0.50400001928E-02 0.  1.
       -1    1    3    3    0  502  0.14886308608E+04 -0.32260973538E+03  0.34420901567E+03  0.15615949307E+04  0.50400001928E-02 0. -1.
</event>
<event>
 5   0  0.2622205E-07  0.3409470E+04  0.7818609E-02  0.8135586E-01
        1   -1    0    0  501    0  0.00000000000E+00  0.00000000000E+00  0.14796138184E+04  0.14796138184E+04  0.50400001928E-02 0.  1.
       -1   -1    0    0    0  501  0.00000000000E+00  0.00000000000E+00 -0.19641076611E+04  0.19641076611E+04  0.50400001928E-02 0. -1.
    10030    2    1    2    0    0  0.00000000000E+00  0.00000000000E+00 -0.48449384264E+03  0.34437214795E+04  0.34094696574E+04 0.  0.
        3    1    3    3  502    0  0.12045220827E+04  0.49318198369E+03  0.86973029108E+03  0.15654177418E+04  0.10100000352E+00 0.  1.
       -3    1    3    3    0  502 -0.12045220827E+04 -0.49318198369E+03 -0.13542241337E+04  0.18783037378E+04  0.10100000352E+00 0. -1.
</event>
<event>
 5   0  0.2641442E-07  0.3153548E+04  0.7818609E-02  0.8201194E-01
        1   -1    0    0  501    0  0.00000000000E+00  0.00000000000E+00  0.18766850372E+04  0.18766850372E+04  0.50400001928E-02 0. -1.
       -1   -1    0    0    0  501  0.00000000000E+00  0.00000000000E+00 -0.13247911436E+04  0.13247911437E+04  0.50400001928E-02 0.  1.
    10030    2    1    2    0    0  0.00000000000E+00  0.00000000000E+00  0.55189389358E+03  0.32014761809E+04  0.31535476637E+04 0.  0.
        1    1    3    3  502    0  0.16526460193E+03  0.15671864193E+04  0.32995373185E+03  0.16100481753E+04  0.50400001928E-02 0. -1.
       -1    1    3    3    0  502 -0.16526460193E+03 -0.15671864193E+04  0.22194016173E+03  0.15914280056E+04  0.50400001928E-02 0.  1.
</event>
<event>
 5   0  0.2641442E-07  0.3416376E+04  0.7818609E-02  0.8133899E-01
       -1   -1    0    0    0  501  0.00000000000E+00  0.00000000000E+00  0.17259643709E+04  0.17259643709E+04  0.50400001928E-02 0.  1.
        1   -1    0    0  501    0  0.00000000000E+00  0.00000000000E+00 -0.16905944679E+04  0.16905944679E+04  0.50400001928E-02 0. -1.
    10030    2    1    2    0    0  0.00000000000E+00  0.00000000000E+00  0.35369902983E+02  0.34165588388E+04  0.34163757506E+04 0.  0.
        1    1    3    3  502    0  0.10866570064E+04 -0.90990545457E+03 -0.93586204771E+03  0.16984078304E+04  0.50400001928E-02 0. -1.
       -1    1    3    3    0  502 -0.10866570064E+04  0.90990545457E+03  0.97123195069E+03  0.17181510085E+04  0.50400001928E-02 0.  1.
</event>
<event>
 5   0  0.2599367E-07  0.3424057E+04  0.7818609E-02  0.8132027E-01
        1   -1    0    0  501    0  0.00000000000E+00  0.00000000000E+00  0.22497390168E+04  0.22497390168E+04  0.50400001928E-02 0. -1.
       -1   -1    0    0    0  501  0.00000000000E+00  0.00000000000E+00 -0.13028363907E+04  0.13028363907E+04  0.50400001928E-02 0.  1.
    10030    2    1    2    0    0  0.00000000000E+00  0.00000000000E+00  0.94690262613E+03  0.35525754075E+04  0.34240571611E+04 0.  0.
        2    1    3    3  502    0  0.41535205228E+03 -0.77544060136E+03 -0.10504230273E+04  0.13701145901E+04  0.25500000920E-02 0.  1.
       -2    1    3    3    0  502 -0.41535205228E+03  0.77544060136E+03  0.19973256535E+04  0.21824608174E+04  0.25500000920E-02 0. -1.
</event>
<event>
 5   0  0.2641442E-07  0.3399716E+04  0.7818609E-02  0.8137976E-01
       -1   -1    0    0    0  501  0.00000000000E+00  0.00000000000E+00  0.24683049791E+04  0.24683049791E+04  0.50400001928E-02 0.  1.
        1   -1    0    0  501    0  0.00000000000E+00  0.00000000000E+00 -0.11706486367E+04  0.11706486367E+04  0.50400001928E-02 0. -1.
    10030    2    1    2    0    0  0.00000000000E+00  0.00000000000E+00  0.12976563423E+04  0.36389536158E+04  0.33997163757E+04 0.  0.
        1    1    3    3  502    0 -0.15326919464E+04 -0.66015265643E+03  0.99495954932E+03  0.19429077789E+04  0.50400001928E-02 0.  1.
       -1    1    3    3    0  502  0.15326919464E+04  0.66015265643E+03  0.30269679302E+03  0.16960458369E+04  0.50400001928E-02 0. -1.
</event>
<event>
 5   0  0.7899402E-07  0.3393456E+04  0.7818609E-02  0.8139514E-01
        2   -1    0    0  501    0  0.00000000000E+00  0.00000000000E+00  0.15766933946E+04  0.15766933946E+04  0.25500000920E-02 0. -1.
       -2   -1    0    0    0  501  0.00000000000E+00  0.00000000000E+00 -0.18259010954E+04  0.18259010954E+04  0.25500000920E-02 0.  1.
    10030    2    1    2    0    0  0.00000000000E+00  0.00000000000E+00 -0.24920770080E+03  0.34025944900E+04  0.33934561712E+04 0.  0.
        2    1    3    3  502    0  0.33634701297E+03 -0.13048991654E+03 -0.17869977373E+04  0.18230517943E+04  0.25500000920E-02 0.  1.
       -2    1    3    3    0  502 -0.33634701297E+03  0.13048991654E+03  0.15377900365E+04  0.15795426958E+04  0.25500000920E-02 0. -1.
</event>
<event>
 5   0  0.2599367E-07  0.3394761E+04  0.7818609E-02  0.8139193E-01
        1   -1    0    0  501    0  0.00000000000E+00  0.00000000000E+00  0.21731492599E+04  0.21731492599E+04  0.50400001928E-02 0. -1.
       -1   -1    0    0    0  501  0.00000000000E+00  0.00000000000E+00 -0.13257722791E+04  0.13257722791E+04  0.50400001928E-02 0.  1.
    10030    2    1    2    0    0  0.00000000000E+00  0.00000000000E+00  0.84737698086E+03  0.34989215390E+04  0.33947612859E+04 0.  0.
        2    1    3    3  502    0  0.54345336992E+03 -0.42437913079E+03  0.20222974850E+04  0.21366156251E+04  0.25500000920E-02 0. -1.
       -2    1    3    3    0  502 -0.54345336992E+03  0.42437913079E+03 -0.11749205041E+04  0.13623059138E+04  0.25500000920E-02 0.  1.
</event>
<event>
 5   0  0.2553250E-07  0.3343388E+04  0.7818609E-02  0.8151942E-01
       -1   -1    0    0    0  501  0.00000000000E+00  0.00000000000E+00  0.14903658283E+04  0.14903658283E+04  0.50400001928E-02 0.  1.
        1   -1    0    0  501    0  0.00000000000E+00  0.00000000000E+00 -0.18750839758E+04  0.18750839758E+04  0.50400001928E-02 0. -1.
    10030    2    1    2    0    0  0.00000000000E+00  0.00000000000E+00 -0.38471814747E+03  0.33654498041E+04  0.33433881514E+04 0.  0.
        5    1    3    3  502    0 -0.15378267539E+04 -0.60819535828E+02  0.46457962846E+03  0.16076275881E+04  0.46999998093E+01 0.  1.
       -5    1    3    3    0  502  0.15378267539E+04  0.60819535828E+02 -0.84929777593E+03  0.17578222160E+04  0.46999998093E+01 0. -1.
</event>
<event>
 5   0  0.7838333E-07  0.3405551E+04  0.7818609E-02  0.8136545E-01
       -2   -1    0    0    0  501  0.00000000000E+00  0.00000000000E+00  0.14372679313E+04  0.14372679313E+04  0.25500000920E-02 0. -1.
        2   -1    0    0  501    0  0.00000000000E+00  0.00000000000E+00 -0.20173306590E+04  0.20173306590E+04  0.25500000920E-02 0.  1.
    10030    2    1    2    0    0  0.00000000000E+00  0.00000000000E+00 -0.58006272772E+03  0.34545985904E+04  0.34055511525E+04 0.  0.
        1    1    3    3  502    0  0.10628742768E+04  0.13191297859E+04 -0.11539047488E+03  0.16979752890E+04  0.50400001928E-02 0. -1.
       -1    1    3    3    0  502 -0.10628742768E+04 -0.13191297859E+04 -0.46467225284E+03  0.17566233014E+04  0.50400001928E-02 0.  1.
</event>
<event>
 5   0  0.7838333E-07  0.3368611E+04  0.7818609E-02  0.8145654E-01
       -2   -1    0    0    0  501  0.00000000000E+00  0.00000000000E+00  0.21619395744E+04  0.21619395744E+04  0.25500000920E-02 0.  1.
        2   -1    0    0  501    0  0.00000000000E+00  0.00000000000E+00 -0.13121941744E+04  0.13121941744E+04  0.25500000920E-02 0. -1.
    10030    2    1    2    0    0  0.00000000000E+00  0.00000000000E+00  0.84974540002E+03  0.34741337489E+04  0.33686107018E+04 0.  0.
        1    1    3    3  502    0 -0.38084766227E+02  0.16828192067E+04  0.36339339469E+03  0.17220295268E+04  0.50400001928E-02 0. -1.
       -1    1    3    3    0  502  0.38084766227E+02 -0.16828192067E+04  0.48635200534E+03  0.17521042221E+04  0.50400001928E-02 0.  1.
</event>
<event>
 5   0  0.7899402E-07  0.3398987E+04  0.7818609E-02  0.8138155E-01
       -2   -1    0    0    0  501  0.00000000000E+00  0.00000000000E+00  0.16224322731E+04  0.16224322731E+04  0.25500000920E-02 0.  1.
        2   -1    0    0  501    0  0.00000000000E+00  0.00000000000E+00 -0.17802152575E+04  0.17802152575E+04  0.25500000920E-02 0. -1.
    10030    2    1    2    0    0  0.00000000000E+00  0.00000000000E+00 -0.15778298433E+03  0.34026475306E+04  0.33989873120E+04 0.  0.
        2    1    3    3  502    0  0.78162445358E+03 -0.15051978739E+04 -0.18727284961E+03  0.17063494795E+04  0.25500000920E-02 0.  1.
       -2    1    3    3    0  502 -0.78162445358E+03  0.15051978739E+04  0.29489865282E+02  0.16962980511E+04  0.25500000920E-02 0. -1.
</event>
<event>
 5   0  0.7822003E-07  0.3376888E+04  0.7818609E-02  0.8143602E-01
        2   -1    0    0  501    0  0.00000000000E+00  0.00000000000E+00  0.21979972236E+04  0.21979972236E+04  0.25500000920E-02 0. -1.
       -2   -1    0    0    0  501  0.00000000000E+00  0.00000000000E+00 -0.12970187615E+04  0.12970187615E+04  0.25500000920E-02 0.  1.
    10030    2    1    2    0    0  0.00000000000E+00  0.00000000000E+00  0.90097846207E+03  0.34950159852E+04  0.33768882936E+04 0.  0.
        5    1    3    3  502    0  0.12355196914E+04 -0.10418174772E+04  0.95639180539E+03  0.18779243699E+04  0.46999998093E+01 0. -1.
       -5    1    3    3    0  502 -0.12355196914E+04  0.10418174772E+04 -0.55413343311E+02  0.16170916153E+04  0.46999998093E+01 0.  1.
</event>
<event>
 5   0  0.2592200E-07  0.3431958E+04  0.7818609E-02  0.8130107E-01
        1   -1    0    0  501    0  0.00000000000E+00  0.00000000000E+00  0.29129700724E+04  0.29129700725E+04  0.50400001928E-02 0.  1.
       -1   -1    0    0    0  501  0.00000000000E+00  0.00000000000E+00 -0.10108529878E+04  0.10108529878E+04  0.50400001928E-02 0. -1.
    10030    2    1    2    0    0  0.00000000000E+00  0.00000000000E+00  0.19021170846E+04  0.39238230603E+04  0.34319583337E+04 0.  0.
        4    1    3    3  502    0 -0.14212859345E+04  0.93577166289E+03  0.69833441932E+03  0.18394006868E+04  0.12699999809E+01 0.  1.
       -4    1    3    3    0  502  0.14212859345E+04 -0.93577166289E+03  0.12037826653E+04  0.20844223734E+04  0.12699999809E+01 0. -1.
</event>
<event>
 5   0  0.7838333E-07  0.3222062E+04  0.7818609E-02  0.8183015E-01
       -2   -1    0    0    0  501  0.00000000000E+00  0.00000000000E+00  0.16919160270E+04  0.16919160270E+04  0.25500000920E-02 0.  1.
        2   -1    0    0  501    0  0.00000000000E+00  0.00000000000E+00 -0.15340130368E+04  0.15340130368E+04  0.25500000920E-02 0. -1.
    10030    2    1    2    0    0  0.00000000000E+00  0.00000000000E+00  0.15790299015E+03  0.32259290638E+04  0.32220622232E+04 0.  0.
        1    1    3    3  502    0  0.20363860966E+03 -0.59579864076E+02 -0.15199631425E+04  0.15347007520E+04  0.50400001928E-02 0. -1.
       -1    1    3    3    0  502 -0.20363860966E+03  0.59579864076E+02  0.16778661326E+04  0.16912283118E+04  0.50400001928E-02 0.  1.
</event>
<event>
 5   0  0.2641442E-07  0.3232899E+04  0.7818609E-02  0.8180182E-01
        1   -1    0    0  501    0  0.00000000000E+00  0.00000000000E+00  0.21518861944E+04  0.21518861944E+04  0.50400001928E-02 0. -1.
       -1   -1    0    0    0  501  0.00000000000E+00  0.00000000000E+00 -0.12142411413E+04  0.12142411413E+04  0.50400001928E-02 0.  1.
    10030    2    1    2    0    0  0.00000000000E+00  0.00000000000E+00  0.93764505313E+03  0.33661273357E+04  0.32328988531E+04 0.  0.
        1    1    3    3  502    0  0.68306686552E+02 -0.40091045281E+03 -0.11601021183E+04  0.12293217315E+04  0.50400001928E-02 0.  1.
       -1    1    3    3    0  502 -0.68306686552E+02  0.40091045281E+03  0.20977471715E+04  0.21368056042E+04  0.50400001928E-02 0. -1.
</event>
<event>
 5   0  0.2599367E-07  0.3383284E+04  0.7818609E-02  0.8142021E-01
       -1   -1    0    0    0  501  0.00000000000E+00  0.00000000000E+00  0.14252047970E+04  0.14252047970E+04  0.50400001928E-02 0. -1.
        1   -1    0    0  501    0  0.00000000000E+00  0.00000000000E+00 -0.20078891052E+04  0.20078891053E+04  0.50400001928E-02 0.  1.
    10030    2    1    2    0    0  0.00000000000E+00  0.00000000000E+00 -0.58268430828E+03  0.34330939022E+04  0.33832843124E+04 0.  0.
        2    1    3    3  502    0  0.84598098851E+03  0.80038352422E+03  0.95365034173E+03  0.15052397128E+04  0.25500000920E-02 0. -1.
       -2    1    3    3    0  502 -0.84598098851E+03 -0.80038352422E+03 -0.15363346500E+04  0.19278541894E+04  0.25500000920E-02 0.  1.
</event>
<event>
 5   0  0.2641442E-07  0.3411662E+04  0.7818609E-02  0.8135050E-01
        1   -1    0    0  501    0  0.00000000000E+00  0.00000000000E+00  0.10041793696E+04  0.10041793696E+04  0.50400001928E-02 0. -1.
       -1   -1    0    0    0  501  0.00000000000E+00  0.00000000000E+00 -0.28977489247E+04  0.28977489247E+04  0.50400001928E-02 0.  1.
    10030    2    1    2    0    0  0.00000000000E+00  0.00000000000E+00 -0.18935695551E+04  0.39019282943E+04  0.34116621688E+04 0.  0.
        1    1    3    3  502    0 -0.34982208003E+03 -0.30079754237E+02 -0.28559740095E+04  0.28774759464E+04  0.50400001928E-02 0.  1.
       -1    1    3    3    0  502  0.34982208003E+03  0.30079754237E+02  0.96240445436E+03  0.10244523479E+04  0.50400001928E-02 0. -1.
</event>
<event>
 5   0  0.2553250E-07  0.3413282E+04  0.7818609E-02  0.8134654E-01
        1   -1    0    0  501    0  0.00000000000E+00  0.00000000000E+00  0.16637831126E+04  0.16637831126E+04  0.50400001928E-02 0. -1.
       -1   -1    0    0    0  501  0.00000000000E+00  0.00000000000E+00 -0.17506029365E+04  0.17506029365E+04  0.50400001928E-02 0.  1.
    10030    2    1    2    0    0  0.00000000000E+00  0.00000000000E+00 -0.86819823911E+02  0.34143860491E+04  0.34132820584E+04 0.  0.
        5    1    3    3  502    0 -0.13544176804E+04 -0.10299389871E+04 -0.17528556252E+03  0.17105463128E+04  0.46999998093E+01 0. -1.
       -5    1    3    3    0  502  0.13544176804E+04  0.10299389871E+04  0.88465738609E+02  0.17038397363E+04  0.46999998093E+01 0.  1.
</event>
<event>
 5   0  0.2599367E-07  0.3422327E+04  0.7818609E-02  0.8132448E-01
        1   -1    0    0  501    0  0.00000000000E+00  0.00000000000E+00  0.11236074972E+04  0.11236074972E+04  0.50400001928E-02 0.  1.
       -1   -1    0    0    0  501  0.00000000000E+00  0.00000000000E+00 -0.26059639766E+04  0.26059639766E+04  0.50400001928E-02 0. -1.
    10030    2    1    2    0    0  0.00000000000E+00  0.00000000000E+00 -0.14823564793E+04  0.37295714738E+04  0.34223270806E+04 0.  0.
        2    1    3    3  502    0 -0.15183306498E+04  0.16993835486E+03  0.98638352119E+02  0.15309920089E+04  0.25500000920E-02 0.  1.
       -2    1    3    3    0  502  0.15183306498E+04 -0.16993835486E+03 -0.15809948315E+04  0.21985794650E+04  0.25500000920E-02 0. -1.
</event>
<event>
 5   0  0.7838333E-07  0.3393472E+04  0.7818609E-02  0.8139510E-01
       -2   -1    0    0    0  501  0.00000000000E+00  0.00000000000E+00  0.13396982344E+04  0.13396982344E+04  0.25500000920E-02 0.  1.
        2   -1    0    0  501    0  0.00000000000E+00  0.00000000000E+00 -0.21489266198E+04  0.21489266198E+04  0.25500000920E-02 0. -1.
    10030    2    1    2    0    0  0.00000000000E+00  0.00000000000E+00 -0.80922838536E+03  0.34886248542E+04  0.33934720852E+04 0.  0.
        1    1    3    3  502    0  0.12978496601E+04  0.10470366651E+04 -0.82436118456E+02  0.16695793578E+04  0.50400001928E-02 0.  1.
       -1    1    3    3    0  502 -0.12978496601E+04 -0.10470366651E+04 -0.72679226691E+03  0.18190454963E+04  0.50400001928E-02 0. -1.
</event>
<event>
 5   0  0.8489228E-07  0.3393929E+04  0.7818609E-02  0.8139398E-01
        2   -1    0    0  501    0  0.00000000000E+00  0.00000000000E+00  0.10893408043E+04  0.10893408043E+04  0.25500000920E-02 0. -1.
       -2   -1    0    0    0  501  0.00000000000E+00  0.00000000000E+00 -0.26435140466E+04  0.26435140466E+04  0.25500000920E-02 0.  1.
    10030    2    1    2    0    0  0.00000000000E+00  0.00000000000E+00 -0.15541732423E+04  0.37328548509E+04  0.33939285306E+04 0.  0.
        3    1    3    3  502    0 -0.13077309986E+03 -0.16664829491E+04 -0.45563180756E+03  0.17325897892E+04  0.10100000352E+00 0.  1.
       -3    1    3    3    0  502  0.13077309986E+03  0.16664829491E+04 -0.10985414348E+04  0.20002650618E+04  0.10100000352E+00 0. -1.
</event>
<event>
 5   0  0.2641442E-07  0.3409124E+04  0.7818609E-02  0.8135670E-01
        1   -1    0    0  501    0  0.00000000000E+00  0.00000000000E+00  0.25516682008E+04  0.25516682008E+04  0.50400001928E-02 0.  1.
       -1   -1    0    0    0  501  0.00000000000E+00  0.00000000000E+00 -0.11386795680E+04  0.11386795680E+04  0.50400001928E-02 0. -1.
    10030    2    1    2    0    0  0.00000000000E+00  0.00000000000E+00  0.14129886327E+04  0.36903477688E+04  0.34091244886E+04 0.  0.
        1    1    3    3  502    0  0.11221283841E+03  0.16472587540E+04  0.11650917748E+04  0.20207651935E+04  0.50400001928E-02 0.  1.
       -1    1    3    3    0  502 -0.11221283841E+03 -0.16472587540E+04  0.24789685798E+03  0.16695825753E+04  0.50400001928E-02 0. -1.
</event>
<event>
 5   0  0.2599367E-07  0.3383562E+04  0.7818609E-02  0.8141953E-01
        1   -1    0    0  501    0  0.00000000000E+00  0.00000000000E+00  0.97968463898E+03  0.97968463899E+03  0.50400001928E-02 0. -1.
       -1   -1    0    0    0  501  0.00000000000E+00  0.00000000000E+00 -0.29214738464E+04  0.29214738464E+04  0.50400001928E-02 0.  1.
    10030    2    1    2    0    0  0.00000000000E+00  0.00000000000E+00 -0.19417892075E+04  0.39011584854E+04  0.33835620583E+04 0.  0.
        2    1    3    3  502    0 -0.14855413165E+04  0.72817422947E+03 -0.56317146650E+03  0.17476363501E+04  0.25500000920E-02 0.  1.
       -2    1    3    3    0  502  0.14855413165E+04 -0.72817422947E+03 -0.13786177409E+04  0.21535221353E+04  0.25500000920E-02 0. -1.
</event>
<event>
 5   0  0.2641442E-07  0.3228338E+04  0.7818609E-02  0.8181373E-01
        1   -1    0    0  501    0  0.00000000000E+00  0.00000000000E+00  0.15113416403E+04  0.15113416403E+04  0.50400001928E-02 0.  1.
       -1   -1    0    0    0  501  0.00000000000E+00  0.00000000000E+00 -0.17239920895E+04  0.17239920896E+04  0.50400001928E-02 0. -1.
    10030    2    1    2    0    0  0.00000000000E+00  0.00000000000E+00 -0.21265044922E+03  0.32353337299E+04  0.32283376729E+04 0.  0.
        1    1    3    3  502    0 -0.11769773091E+04  0.51578535771E+03  0.87263911413E+03  0.15533219708E+04  0.50400001928E-02 0.  1.
       -1    1    3    3    0  502  0.11769773091E+04 -0.51578535771E+03 -0.10852895633E+04  0.16820117591E+04  0.50400001928E-02 0. -1.
</event>
<event>
 5   0  0.2599367E-07  0.3400887E+04  0.7818609E-02  0.8137689E-01
        1   -1    0    0  501    0  0.00000000000E+00  0.00000000000E+00  0.22146027103E+04  0.22146027103E+04  0.50400001928E-02 0.  1.
       -1   -1    0    0    0  501  0.00000000000E+00  0.00000000000E+00 -0.13056552837E+04  0.13056552837E+04  0.50400001928E-02 0. -1.
    10030    2    1    2    0    0  0.00000000000E+00  0.00000000000E+00  0.90894742661E+03  0.35202579941E+04  0.34008867844E+04 0.  0.
        2    1    3    3  502    0 -0.71068465853E+03 -0.18883007461E+03 -0.11325673019E+04  0.13503474273E+04  0.25500000920E-02 0. -1.
       -2    1    3    3    0  502  0.71068465853E+03  0.18883007461E+03  0.20415147286E+04  0.21699105668E+04  0.25500000920E-02 0.  1.
</event>
<event>
 5   0  0.2622205E-07  0.3276315E+04  0.7818609E-02  0.8168948E-01
        1   -1    0    0  501    0  0.00000000000E+00  0.00000000000E+00  0.93976626492E+03  0.93976626493E+03  0.50400001928E-02 0.  1.
       -1   -1    0    0    0  501  0.00000000000E+00  0.00000000000E+00 -0.28555617891E+04  0.28555617891E+04  0.50400001928E-02 0. -1.
    10030    2    1    2    0    0  0.00000000000E+00  0.00000000000E+00 -0.19157955242E+04  0.37953280540E+04  0.32763153919E+04 0.  0.
        3    1    3    3  502    0  0.45219528902E+03  0.29282604645E+03  0.83421436572E+03  0.99304646974E+03  0.10100000352E+00 0.  1.
       -3    1    3    3    0  502 -0.45219528902E+03 -0.29282604645E+03 -0.27500098899E+04  0.28022815843E+04  0.10100000352E+00 0. -1.
</event>
<event>
 5   0  0.7838333E-07  0.3382740E+04  0.7818609E-02  0.8142155E-01
       -2   -1    0    0    0  501  0.00000000000E+00  0.00000000000E+00  0.24136507314E+04  0.24136507314E+04  0.25500000920E-02 0. -1.
        2   -1    0    0  501    0  0.00000000000E+00  0.00000000000E+00 -0.11852306192E+04  0.11852306192E+04  0.25500000920E-02 0.  1.
    10030    2    1    2    0    0  0.00000000000E+00  0.00000000000E+00  0.12284201123E+04  0.35988813506E+04  0.33827401620E+04 0.  0.
        1    1    3    3  502    0 -0.58044685809E+03  0.42658506958E+02  0.23037596811E+04  0.23761411936E+04  0.50400001928E-02 0. -1.
       -1    1    3    3    0  502  0.58044685809E+03 -0.42658506958E+02 -0.10753395689E+04  0.12227401571E+04  0.50400001928E-02 0.  1.
</event>
<event>
 5   0  0.2553250E-07  0.3402902E+04  0.7818609E-02  0.8137194E-01
        1   -1    0    0  501    0  0.00000000000E+00  0.00000000000E+00  0.12132609696E+04  0.12132609696E+04  0.50400001928E-02 0. -1.
       -1   -1    0    0    0  501  0.00000000000E+00  0.00000000000E+00 -0.23860785808E+04  0.23860785808E+04  0.50400001928E-02 0.  1.
    10030    2    1    2    0    0  0.00000000000E+00  0.00000000000E+00 -0.11728176112E+04  0.35993395505E+04  0.34029022981E+04 0.  0.
        5    1    3    3  502    0  0.21635241490E+03  0.10460398795E+04  0.81439241313E+03  0.13432292766E+04  0.46999998093E+01 0. -1.
       -5    1    3    3    0  502 -0.21635241490E+03 -0.10460398795E+04 -0.19872100243E+04  0.22561102739E+04  0.46999998093E+01 0.  1.
</event>
<event>
 5   0  0.7899402E-07  0.3399685E+04  0.7818609E-02  0.8137984E-01
       -2   -1    0    0    0  501  0.00000000000E+00  0.00000000000E+00  0.17972244129E+04  0.17972244129E+04  0.25500000920E-02 0. -1.
        2   -1    0    0  501    0  0.00000000000E+00  0.00000000000E+00 -0.16077373865E+04  0.16077373865E+04  0.25500000920E-02 0.  1.
    10030    2    1    2    0    0  0.00000000000E+00  0.00000000000E+00  0.18948702640E+03  0.34049617995E+04  0.33996852093E+04 0.  0.
        2    1    3    3  502    0 -0.14823970164E+04 -0.54103193299E+03  0.72758528496E+03  0.17376987120E+04  0.25500000920E-02 0. -1.
       -2    1    3    3    0  502  0.14823970164E+04  0.54103193299E+03 -0.53809825856E+03  0.16672630874E+04  0.25500000920E-02 0.  1.
</event>
<event>
 5   0  0.2599367E-07  0.3361743E+04  0.7818609E-02  0.8147360E-01
        1   -1    0    0  501    0  0.00000000000E+00  0.00000000000E+00  0.14071859108E+04  0.14071859109E+04  0.50400001928E-02 0.  1.
       -1   -1    0    0    0  501  0.00000000000E+00  0.00000000000E+00 -0.20077863331E+04  0.20077863331E+04  0.50400001928E-02 0. -1.
    10030    2    1    2    0    0  0.00000000000E+00  0.00000000000E+00 -0.60060042224E+03  0.34149722439E+04  0.33617427861E+04 0.  0.
        2    1    3    3  502    0 -0.28704317412E+03  0.15865533572E+04 -0.78299054907E+03  0.17923781797E+04  0.25500000920E-02 0. -1.
       -2    1    3    3    0  502  0.28704317412E+03 -0.15865533572E+04  0.18239012683E+03  0.16225940643E+04  0.25500000920E-02 0.  1.
</event>
<event>
 5   0  0.8489228E-07  0.3385794E+04  0.7818609E-02  0.8141402E-01
       -2   -1    0    0    0  501  0.00000000000E+00  0.00000000000E+00  0.14602858416E+04  0.14602858417E+04  0.25500000920E-02 0.  1.
        2   -1    0    0  501    0  0.00000000000E+00  0.00000000000E+00 -0.19625616413E+04  0.19625616413E+04  0.25500000920E-02 0. -1.
    10030    2    1    2    0    0  0.00000000000E+00  0.00000000000E+00 -0.50227579962E+03  0.34228474829E+04  0.33857944286E+04 0.  0.
        3    1    3    3  502    0 -0.15187981578E+04  0.74770143529E+03 -0.26102695362E+03  0.17128748819E+04  0.10100000352E+00 0. -1.
       -3    1    3    3    0  502  0.15187981578E+04 -0.74770143529E+03 -0.24124884601E+03  0.17099726010E+04  0.10100000352E+00 0.  1.
</event>
<event>
 5   0  0.2641442E-07  0.3390958E+04  0.7818609E-02  0.8140129E-01
       -1   -1    0    0    0  501  0.00000000000E+00  0.00000000000E+00  0.10665235084E+04  0.10665235085E+04  0.50400001928E-02 0. -1.
        1   -1    0    0  501    0  0.00000000000E+00  0.00000000000E+00 -0.26953445454E+04  0.26953445454E+04  0.50400001928E-02 0.  1.
    10030    2    1    2    0    0  0.00000000000E+00  0.00000000000E+00 -0.16288210370E+04  0.37618680539E+04  0.33909575763E+04 0.  0.
        1    1    3    3  502    0 -0.10465145116E+04  0.22211946926E+03 -0.22736250464E+04  0.25127476064E+04  0.50400001928E-02 0.  1.
       -1    1    3    3    0  502  0.10465145116E+04 -0.22211946926E+03  0.64480400945E+03  0.12491204475E+04  0.50400001928E-02 0. -1.
</event>
<event>
 5   0  0.8489228E-07  0.3391450E+04  0.7818609E-02  0.8140008E-01
        2   -1    0    0  501    0  0.00000000000E+00  0.00000000000E+00  0.22991661079E+04  0.22991661079E+04  0.25500000920E-02 0. -1.
       -2   -1    0    0    0  501  0.00000000000E+00  0.00000000000E+00 -0.12506633858E+04  0.12506633858E+04  0.25500000920E-02 0.  1.
    10030    2    1    2    0    0  0.00000000000E+00  0.00000000000E+00  0.10485027221E+04  0.35498294937E+04  0.33914497602E+04 0.  0.
        3    1    3    3  502    0 -0.59242406729E+03  0.54106320041E+03  0.20879265686E+04  0.22367729050E+04  0.10100000352E+00 0. -1.
       -3    1    3    3    0  502  0.59242406729E+03 -0.54106320041E+03 -0.10394238465E+04  0.13130565887E+04  0.10100000352E+00 0.  1.
</event>
<event>
 5   0  0.2622205E-07  0.3402949E+04  0.7818609E-02  0.8137183E-01
       -1   -1    0    0    0  501  0.00000000000E+00  0.00000000000E+00  0.16597464174E+04  0.16597464175E+04  0.50400001928E-02 0.  1.
        1   -1    0    0  501    0  0.00000000000E+00  0.00000000000E+00 -0.17442517706E+04  0.17442517706E+04  0.50400001928E-02 0. -1.
    10030    2    1    2    0    0  0.00000000000E+00  0.00000000000E+00 -0.84505353172E+02  0.34039981881E+04  0.34029490901E+04 0.  0.
        3    1    3    3  502    0  0.56378883074E+03  0.15043621548E+04 -0.60282911862E+03  0.17159155851E+04  0.10100000352E+00 0. -1.
       -3    1    3    3    0  502 -0.56378883074E+03 -0.15043621548E+04  0.51832376545E+03  0.16880826030E+04  0.10100000352E+00 0.  1.
</event>
<event>
 5   0  0.2553250E-07  0.3384389E+04  0.7818609E-02  0.8141748E-01
       -1   -1    0    0    0  501  0.00000000000E+00  0.00000000000E+00  0.17569163372E+04  0.17569163372E+04  0.50400001928E-02 0.  1.
        1   -1    0    0  501    0  0.00000000000E+00  0.00000000000E+00 -0.16298568073E+04  0.16298568073E+04  0.50400001928E-02 0. -1.
    10030    2    1    2    0    0  0.00000000000E+00  0.00000000000E+00  0.12705952989E+03  0.33867731445E+04  0.33843888973E+04 0.  0.
        5    1    3    3  502    0 -0.48501888500E+03 -0.99847779099E+03  0.13416526076E+04  0.17413371377E+04  0.46999998093E+01 0.  1.
       -5    1    3    3    0  502  0.48501888500E+03  0.99847779099E+03 -0.12145930777E+04  0.16454360067E+04  0.46999998093E+01 0. -1.
</event>
<event>
 5   0  0.2622205E-07  0.3391339E+04  0.7818609E-02  0.8140035E-01
       -1   -1    0    0    0  501  0.00000000000E+00  0.00000000000E+00  0.20497885835E+04  0.20497885835E+04  0.50400001928E-02 0. -1.
        1   -1    0    0  501    0  0.00000000000E+00  0.00000000000E+00 -0.14027276247E+04  0.14027276247E+04  0.50400001928E-02 0.  1.
    10030    2    1    2    0    0  0.00000000000E+00  0.00000000000E+00  0.64706095879E+03  0.34525162082E+04  0.33913390105E+04 0.  0.
        3    1    3    3  502    0 -0.13022623388E+04  0.10776177392E+04  0.46067464880E+03  0.17519612819E+04  0.10100000352E+00 0. -1.
       -3    1    3    3    0  502  0.13022623388E+04 -0.10776177392E+04  0.18638630999E+03  0.17005549264E+04  0.10100000352E+00 0.  1.
</event>
<event>
 5   0  0.7822003E-07  0.3405969E+04  0.7818609E-02  0.8136443E-01
        2   -1    0    0  501    0  0.00000000000E+00  0.00000000000E+00  0.17586157555E+04  0.17586157555E+04  0.25500000920E-02 0.  1.
       -2   -1    0    0    0  501  0.00000000000E+00  0.00000000000E+00 -0.16491134466E+04  0.16491134466E+04  0.25500000920E-02 0. -1.
    10030    2    1    2    0    0  0.00000000000E+00  0.00000000000E+00  0.10950230893E+03  0.34077292021E+04  0.34059694008E+04 0.  0.
        5    1    3    3  502    0 -0.16458878607E+04  0.43290771398E+03 -0.67530472778E+01  0.17018882550E+04  0.46999998093E+01 0.  1.
       -5    1    3    3    0  502  0.16458878607E+04 -0.43290771398E+03  0.11625535621E+03  0.17058409471E+04  0.46999998093E+01 0. -1.
</event>
<event>
 5   0  0.7838333E-07  0.3403522E+04  0.7818609E-02  0.8137043E-01
       -2   -1    0    0    0  501  0.00000000000E+00  0.00000000000E+00  0.11786849436E+04  0.11786849436E+04  0.25500000920E-02 0. -1.
        2   -1    0    0  501    0  0.00000000000E+00  0.00000000000E+00 -0.24569667858E+04  0.24569667858E+04  0.25500000920E-02 0.  1.
    10030    2    1    2    0    0  0.00000000000E+00  0.00000000000E+00 -0.12782818422E+04  0.36356517294E+04  0.34035215630E+04 0.  0.
        1    1    3    3  502    0 -0.20584247435E+03 -0.38529266993E+02  0.11648682473E+04  0.11835428435E+04  0.50400001928E-02 0. -1.
       -1    1    3    3    0  502  0.20584247435E+03  0.38529266993E+02 -0.24431500895E+04  0.24521088860E+04  0.50400001928E-02 0.  1.
</event>
<event>
 5   0  0.7838333E-07  0.3420566E+04  0.7818609E-02  0.8132877E-01
        2   -1    0    0  501    0  0.00000000000E+00  0.00000000000E+00  0.26846814471E+04  0.26846814471E+04  0.25500000920E-02 0.  1.
       -2   -1    0    0    0  501  0.00000000000E+00  0.00000000000E+00 -0.10895399601E+04  0.10895399601E+04  0.25500000920E-02 0. -1.
    10030    2    1    2    0    0  0.00000000000E+00  0.00000000000E+00  0.15951414870E+04  0.37742214072E+04  0.34205658695E+04 0.  0.
        1    1    3    3  502    0 -0.10118866146E+04  0.13394518439E+04  0.11585363746E+04  0.20396696533E+04  0.50400001928E-02 0. -1.
       -1    1    3    3    0  502  0.10118866146E+04 -0.13394518439E+04  0.43660511240E+03  0.17345517540E+04  0.50400001928E-02 0.  1.
</event>
<event>
 5   0  0.2599367E-07  0.3402165E+04  0.7818609E-02  0.8137375E-01
       -1   -1    0    0    0  501  0.00000000000E+00  0.00000000000E+00  0.15077961392E+04  0.15077961392E+04  0.50400001928E-02 0. -1.
        1   -1    0    0  501    0  0.00000000000E+00  0.00000000000E+00 -0.19191467360E+04  0.19191467360E+04  0.50400001928E-02 0.  1.
    10030    2    1    2    0    0  0.00000000000E+00  0.00000000000E+00 -0.41135059675E+03  0.34269428752E+04  0.34021652160E+04 0.  0.
        2    1    3    3  502    0 -0.91937442785E+03  0.99839885384E+03 -0.12386351693E+04  0.18374620248E+04  0.25500000920E-02 0.  1.
       -2    1    3    3    0  502  0.91937442785E+03 -0.99839885384E+03  0.82728457256E+03  0.15894808504E+04  0.25500000920E-02 0. -1.
</event>
<event>
 5   0  0.2553250E-07  0.3272247E+04  0.7818609E-02  0.8169993E-01
        4   -1    0    0  501    0  0.00000000000E+00  0.00000000000E+00  0.12224934641E+04  0.12224941238E+04  0.12699999809E+01 0.  1.
       -4   -1    0    0    0  501  0.00000000000E+00  0.00000000000E+00 -0.21897041764E+04  0.21897045447E+04  0.12699999809E+01 0. -1.
    10030    2    1    2    0    0  0.00000000000E+00  0.00000000000E+00 -0.96721071227E+03  0.34121986685E+04  0.32722474221E+04 0.  0.
        1    1    3    3  502    0 -0.76515394977E+03 -0.12458612868E+04  0.28215214391E+03  0.14890402093E+04  0.50400001928E-02 0.  1.
       -1    1    3    3    0  502  0.76515394977E+03  0.12458612868E+04 -0.12493628562E+04  0.19231584592E+04  0.50400001928E-02 0. -1.
</event>
<event>
 5   0  0.7899402E-07  0.3383381E+04  0.7818609E-02  0.8141997E-01
       -2   -1    0    0    0  501  0.00000000000E+00  0.00000000000E+00  0.19842754201E+04  0.19842754201E+04  0.25500000920E-02 0. -1.
        2   -1    0    0  501    0  0.00000000000E+00  0.00000000000E+00 -0.14422474372E+04  0.14422474372E+04  0.25500000920E-02 0.  1.
    10030    2    1    2    0    0  0.00000000000E+00  0.00000000000E+00  0.54202798296E+03  0.34265228573E+04  0.33833806403E+04 0.  0.
        2    1    3    3  502    0  0.12746459863E+04 -0.11496160163E+03 -0.84938255800E+03  0.15360303676E+04  0.25500000920E-02 0.  1.
       -2    1    3    3    0  502 -0.12746459863E+04  0.11496160163E+03  0.13914105410E+04  0.18904924897E+04  0.25500000920E-02 0. -1.
</event>
<event>
 5   0  0.2553250E-07  0.3364272E+04  0.7818609E-02  0.8146731E-01
       -1   -1    0    0    0  501  0.00000000000E+00  0.00000000000E+00  0.11457467126E+04  0.11457467126E+04  0.50400001928E-02 0.  1.
        1   -1    0    0  501    0  0.00000000000E+00  0.00000000000E+00 -0.24696392684E+04  0.24696392684E+04  0.50400001928E-02 0. -1.
    10030    2    1    2    0    0  0.00000000000E+00  0.00000000000E+00 -0.13238925558E+04  0.36153859810E+04  0.33642717329E+04 0.  0.
        5    1    3    3  502    0 -0.12330914692E+04 -0.11342235874E+04 -0.82343334291E+03  0.18668267937E+04  0.46999998093E+01 0. -1.
       -5    1    3    3    0  502  0.12330914692E+04  0.11342235874E+04 -0.50045921293E+03  0.17485591873E+04  0.46999998093E+01 0.  1.
</event>
<event>
 5   0  0.2592200E-07  0.3435931E+04  0.7818609E-02  0.8129144E-01
        1   -1    0    0  501    0  0.00000000000E+00  0.00000000000E+00  0.12565988029E+04  0.12565988029E+04  0.50400001928E-02 0. -1.
       -1   -1    0    0    0  501  0.00000000000E+00  0.00000000000E+00 -0.23487251209E+04  0.23487251209E+04  0.50400001928E-02 0.  1.
    10030    2    1    2    0    0  0.00000000000E+00  0.00000000000E+00 -0.10921263180E+04  0.36053239238E+04  0.34359308348E+04 0.  0.
        4    1    3    3  502    0  0.16553791438E+04 -0.39857952531E+03 -0.30619339954E+03  0.17300005083E+04  0.12699999809E+01 0. -1.
       -4    1    3    3    0  502 -0.16553791438E+04  0.39857952531E+03 -0.78593291844E+03  0.18753234156E+04  0.12699999809E+01 0.  1.
</event>
<event>
 5   0  0.2622205E-07  0.3398601E+04  0.7818609E-02  0.8138250E-01
       -1   -1    0    0    0  501  0.00000000000E+00  0.00000000000E+00  0.13950803489E+04  0.13950803489E+04  0.50400001928E-02 0. -1.
        1   -1    0    0  501    0  0.00000000000E+00  0.00000000000E+00 -0.20698602961E+04  0.20698602961E+04  0.50400001928E-02 0.  1.
    10030    2    1    2    0    0  0.00000000000E+00  0.00000000000E+00 -0.67477994727E+03  0.34649406450E+04  0.33986005497E+04 0.  0.
        3    1    3    3  502    0  0.15481567276E+04 -0.42908521899E+03  0.22724182540E+03  0.16225110895E+04  0.10100000352E+00 0. -1.
       -3    1    3    3    0  502 -0.15481567276E+04  0.42908521899E+03 -0.90202177268E+03  0.18424295555E+04  0.10100000352E+00 0.  1.
</event>
<event>
 5   0  0.2553250E-07  0.3533472E+04  0.7818609E-02  0.8105903E-01
       -1   -1    0    0    0  501  0.00000000000E+00  0.00000000000E+00  0.25889863373E+04  0.25889863373E+04  0.50400001928E-02 0.  1.
        1   -1    0    0  501    0  0.00000000000E+00  0.00000000000E+00 -0.12056283621E+04  0.12056283621E+04  0.50400001928E-02 0. -1.
    10030    2    1    2    0    0  0.00000000000E+00  0.00000000000E+00  0.13833579752E+04  0.37946146995E+04  0.35334715833E+04 0.  0.
        5    1    3    3  502    0 -0.11345836981E+04  0.85187604501E+03  0.18222726930E+04  0.23094745769E+04  0.46999998093E+01 0.  1.
       -5    1    3    3    0  502  0.11345836981E+04 -0.85187604501E+03 -0.43891471773E+03  0.14851401225E+04  0.46999998093E+01 0. -1.
</event>
<event>
 5   0  0.7899402E-07  0.3429486E+04  0.7818609E-02  0.8130707E-01
       -2   -1    0    0    0  501  0.00000000000E+00  0.00000000000E+00  0.17635569430E+04  0.17635569430E+04  0.25500000920E-02 0.  1.
        2   -1    0    0  501    0  0.00000000000E+00  0.00000000000E+00 -0.16672801783E+04  0.16672801783E+04  0.25500000920E-02 0. -1.
    10030    2    1    2    0    0  0.00000000000E+00  0.00000000000E+00  0.96276764777E+02  0.34308371213E+04  0.34294859873E+04 0.  0.
        2    1    3    3  502    0  0.40387888151E+03 -0.88737777398E+03  0.14592918939E+04  0.17550186028E+04  0.25500000920E-02 0.  1.
       -2    1    3    3    0  502 -0.40387888151E+03  0.88737777398E+03 -0.13630151291E+04  0.16758185185E+04  0.25500000920E-02 0. -1.
</event>
<event>
 5   0  0.7899402E-07  0.3399266E+04  0.7818609E-02  0.8138087E-01
       -2   -1    0    0    0  501  0.00000000000E+00  0.00000000000E+00  0.15025875943E+04  0.15025875943E+04  0.25500000920E-02 0. -1.
        2   -1    0    0  501    0  0.00000000000E+00  0.00000000000E+00 -0.19225180327E+04  0.19225180327E+04  0.25500000920E-02 0.  1.
    10030    2    1    2    0    0  0.00000000000E+00  0.00000000000E+00 -0.41993043842E+03  0.34251056270E+04  0.33992656535E+04 0.  0.
        2    1    3    3  502    0  0.43525784280E+03  0.67434268829E+03  0.12996104527E+04  0.15274733320E+04  0.25500000920E-02 0. -1.
       -2    1    3    3    0  502 -0.43525784280E+03 -0.67434268829E+03 -0.17195408912E+04  0.18976322951E+04  0.25500000920E-02 0.  1.
</event>
<event>
 5   0  0.2592200E-07  0.3404235E+04  0.7818609E-02  0.8136868E-01
       -1   -1    0    0    0  501  0.00000000000E+00  0.00000000000E+00  0.16176866032E+04  0.16176866032E+04  0.50400001928E-02 0. -1.
        1   -1    0    0  501    0  0.00000000000E+00  0.00000000000E+00 -0.17909548736E+04  0.17909548736E+04  0.50400001928E-02 0.  1.
    10030    2    1    2    0    0  0.00000000000E+00  0.00000000000E+00 -0.17326827048E+03  0.34086414768E+04  0.34042348368E+04 0.  0.
        4    1    3    3  502    0 -0.16141454204E+04 -0.38790052816E+03  0.28971119521E+03  0.16851903297E+04  0.12699999809E+01 0. -1.
       -4    1    3    3    0  502  0.16141454204E+04  0.38790052816E+03 -0.46297946568E+03  0.17234511471E+04  0.12699999809E+01 0.  1.
</event>
<event>
 5   0  0.2641442E-07  0.3421449E+04  0.7818609E-02  0.8132662E-01
       -1   -1    0    0    0  501  0.00000000000E+00  0.00000000000E+00  0.17939579349E+04  0.17939579349E+04  0.50400001928E-02 0. -1.
        1   -1    0    0  501    0  0.00000000000E+00  0.00000000000E+00 -0.16313523809E+04  0.16313523809E+04  0.50400001928E-02 0.  1.
    10030    2    1    2    0    0  0.00000000000E+00  0.00000000000E+00  0.16260555401E+03  0.34253103159E+04  0.34214485520E+04 0.  0.
        1    1    3    3  502    0  0.22766909909E+03  0.14344821661E+03 -0.16100320596E+04  0.16323644944E+04  0.50400001928E-02 0.  1.
       -1    1    3    3    0  502 -0.22766909909E+03 -0.14344821661E+03  0.17726376136E+04  0.17929458215E+04  0.50400001928E-02 0. -1.
</event>
<event>
 5   0  0.2641442E-07  0.3313402E+04  0.7818609E-02  0.8159494E-01
       -1   -1    0    0    0  501  0.00000000000E+00  0.00000000000E+00  0.14684833259E+04  0.14684833259E+04  0.50400001928E-02 0. -1.
        1   -1    0    0  501    0  0.00000000000E+00  0.00000000000E+00 -0.18690431097E+04  0.18690431097E+04  0.50400001928E-02 0.  1.
    10030    2    1    2    0    0  0.00000000000E+00  0.00000000000E+00 -0.40055978382E+03  0.33375264356E+04  0.33134022647E+04 0.  0.
        1    1    3    3  502    0 -0.64803192218E+03  0.53902871765E+03  0.12363445287E+04  0.14963439191E+04  0.50400001928E-02 0. -1.
       -1    1    3    3    0  502  0.64803192218E+03 -0.53902871765E+03 -0.16369043125E+04  0.18411825165E+04  0.50400001928E-02 0.  1.
</event>
<event>
 5   0  0.2553250E-07  0.3382554E+04  0.7818609E-02  0.8142201E-01
       -1   -1    0    0    0  501  0.00000000000E+00  0.00000000000E+00  0.10073550259E+04  0.10073550259E+04  0.50400001928E-02 0. -1.
        1   -1    0    0  501    0  0.00000000000E+00  0.00000000000E+00 -0.28395336794E+04  0.28395336795E+04  0.50400001928E-02 0.  1.
    10030    2    1    2    0    0  0.00000000000E+00  0.00000000000E+00 -0.18321786535E+04  0.38468887054E+04  0.33825543740E+04 0.  0.
        5    1    3    3  502    0 -0.81114470973E+03  0.60130574045E+03 -0.24591274038E+04  0.26583555089E+04  0.46999998093E+01 0.  1.
       -5    1    3    3    0  502  0.81114470973E+03 -0.60130574045E+03  0.62694875028E+03  0.11885331965E+04  0.46999998093E+01 0. -1.
</event>
<event>
 5   0  0.7610412E-07  0.3400638E+04  0.7818609E-02  0.8137750E-01
        2   -1    0    0  501    0  0.00000000000E+00  0.00000000000E+00  0.18678133626E+04  0.18678133626E+04  0.25500000920E-02 0.  1.
       -2   -1    0    0    0  501  0.00000000000E+00  0.00000000000E+00 -0.15478445551E+04  0.15478445551E+04  0.25500000920E-02 0. -1.
    10030    2    1    2    0    0  0.00000000000E+00  0.00000000000E+00  0.31996880744E+03  0.34156579177E+04  0.34006380244E+04 0.  0.
        4    1    3    3  502    0  0.29247463100E+03  0.53920882794E+03 -0.14328304791E+04  0.15586187362E+04  0.12699999809E+01 0. -1.
       -4    1    3    3    0  502 -0.29247463100E+03 -0.53920882794E+03  0.17527992866E+04  0.18570391816E+04  0.12699999809E+01 0.  1.
</event>
<event>
 5   0  0.8489228E-07  0.3409034E+04  0.7818609E-02  0.8135693E-01
       -2   -1    0    0    0  501  0.00000000000E+00  0.00000000000E+00  0.11545208356E+04  0.11545208356E+04  0.25500000920E-02 0.  1.
        2   -1    0    0  501    0  0.00000000000E+00  0.00000000000E+00 -0.25165231465E+04  0.25165231465E+04  0.25500000920E-02 0. -1.
    10030    2    1    2    0    0  0.00000000000E+00  0.00000000000E+00 -0.13620023110E+04  0.36710439821E+04  0.34090341189E+04 0.  0.
        3    1    3    3  502    0 -0.71282207334E+03 -0.30000735223E+03  0.95470912706E+03  0.12286534284E+04  0.10100000352E+00 0.  1.
       -3    1    3    3    0  502  0.71282207334E+03  0.30000735223E+03 -0.23167114380E+04  0.24423905537E+04  0.10100000352E+00 0. -1.
</event>
<event>
 5   0  0.7838333E-07  0.3360893E+04  0.7818609E-02  0.8147572E-01
        2   -1    0    0  501    0  0.00000000000E+00  0.00000000000E+00  0.15093595305E+04  0.15093595305E+04  0.25500000920E-02 0.  1.
       -2   -1    0    0    0  501  0.00000000000E+00  0.00000000000E+00 -0.18709261994E+04  0.18709261994E+04  0.25500000920E-02 0. -1.
    10030    2    1    2    0    0  0.00000000000E+00  0.00000000000E+00 -0.36156666892E+03  0.33802857300E+04  0.33608929112E+04 0.  0.
        1    1    3    3  502    0 -0.16279540303E+04  0.41574373379E+03 -0.15192784037E+03  0.16870563848E+04  0.50400001928E-02 0.  1.
       -1    1    3    3    0  502  0.16279540303E+04 -0.41574373379E+03 -0.20963882855E+03  0.16932293452E+04  0.50400001928E-02 0. -1.
</event>
<event>
 5   0  0.8489228E-07  0.3207290E+04  0.7818609E-02  0.8186895E-01
        2   -1    0    0  501    0  0.00000000000E+00  0.00000000000E+00  0.21149391100E+04  0.21149391100E+04  0.25500000920E-02 0.  1.
       -2   -1    0    0    0  501  0.00000000000E+00  0.00000000000E+00 -0.12159580489E+04  0.12159580489E+04  0.25500000920E-02 0. -1.
    10030    2    1    2    0    0  0.00000000000E+00  0.00000000000E+00  0.89898106118E+03  0.33308971589E+04  0.32072899674E+04 0.  0.
        3    1    3    3  502    0  0.69434504698E+03 -0.49571091729E+03  0.18597004795E+04  0.20460523555E+04  0.10100000352E+00 0.  1.
       -3    1    3    3    0  502 -0.69434504698E+03  0.49571091729E+03 -0.96071941834E+03  0.12848448034E+04  0.10100000352E+00 0. -1.
</event>
<event>
 5   0  0.7822003E-07  0.3398498E+04  0.7818609E-02  0.8138275E-01
       -2   -1    0    0    0  501  0.00000000000E+00  0.00000000000E+00  0.12525935347E+04  0.12525935347E+04  0.25500000920E-02 0. -1.
        2   -1    0    0  501    0  0.00000000000E+00  0.00000000000E+00 -0.23051748711E+04  0.23051748711E+04  0.25500000920E-02 0.  1.
    10030    2    1    2    0    0  0.00000000000E+00  0.00000000000E+00 -0.10525813364E+04  0.35577684058E+04  0.33984979858E+04 0.  0.
        5    1    3    3  502    0  0.11407181004E+04 -0.11583807839E+04 -0.88160766318E+01  0.16257870827E+04  0.46999998093E+01 0. -1.
       -5    1    3    3    0  502 -0.11407181004E+04  0.11583807839E+04 -0.10437652598E+04  0.19319813231E+04  0.46999998093E+01 0.  1.
</event>
<event>
 5   0  0.2553250E-07  0.3330889E+04  0.7818609E-02  0.8155080E-01
        4   -1    0    0  501    0  0.00000000000E+00  0.00000000000E+00  0.21318972570E+04  0.21318976353E+04  0.12699999809E+01 0. -1.
       -4   -1    0    0    0  501  0.00000000000E+00  0.00000000000E+00 -0.13010496519E+04  0.13010502717E+04  0.12699999809E+01 0.  1.
    10030    2    1    2    0    0  0.00000000000E+00  0.00000000000E+00  0.83084760508E+03  0.34329479070E+04  0.33308893091E+04 0.  0.
        2    1    3    3  502    0  0.97774386891E+03 -0.13410642725E+04  0.55849149454E+03  0.17510994277E+04  0.25500000920E-02 0. -1.
       -2    1    3    3    0  502 -0.97774386891E+03  0.13410642725E+04  0.27235611054E+03  0.16818484793E+04  0.25500000920E-02 0.  1.
</event>
<event>
 5   0  0.2622205E-07  0.3363912E+04  0.7818609E-02  0.8146821E-01
        1   -1    0    0  501    0  0.00000000000E+00  0.00000000000E+00  0.21104499085E+04  0.21104499085E+04  0.50400001928E-02 0.  1.
       -1   -1    0    0    0  501  0.00000000000E+00  0.00000000000E+00 -0.13404613506E+04  0.13404613507E+04  0.50400001928E-02 0. -1.
    10030    2    1    2    0    0  0.00000000000E+00  0.00000000000E+00  0.76998855786E+03  0.34509112592E+04  0.33639123263E+04 0.  0.
        3    1    3    3  502    0  0.23610724462E+01  0.16807295110E+04  0.45083563641E+03  0.17401465585E+04  0.10100000352E+00 0. -1.
       -3    1    3    3    0  502 -0.23610724462E+01 -0.16807295110E+04  0.31915292145E+03  0.17107647007E+04  0.10100000352E+00 0.  1.
</event>
<event>
 5   0  0.7610412E-07  0.3396716E+04  0.7818609E-02  0.8138713E-01
        2   -1    0    0  501    0  0.00000000000E+00  0.00000000000E+00  0.85233822691E+03  0.85233822691E+03  0.25500000920E-02 0.  1.
       -2   -1    0    0    0  501  0.00000000000E+00  0.00000000000E+00 -0.33841256470E+04  0.33841256470E+04  0.25500000920E-02 0. -1.
    10030    2    1    2    0    0  0.00000000000E+00  0.00000000000E+00 -0.25317874201E+04  0.42364638739E+04  0.33967158572E+04 0.  0.
        4    1    3    3  502    0 -0.14625196394E+03  0.12855052607E+04 -0.26381256250E+04  0.29383025438E+04  0.12699999809E+01 0. -1.
       -4    1    3    3    0  502  0.14625196394E+03 -0.12855052607E+04  0.10633820498E+03  0.12981613301E+04  0.12699999809E+01 0.  1.
</event>
<event>
 5   0  0.2622205E-07  0.3366116E+04  0.7818609E-02  0.8146273E-01
        1   -1    0    0  501    0  0.00000000000E+00  0.00000000000E+00  0.19035904371E+04  0.19035904371E+04  0.50400001928E-02 0.  1.
       -1   -1    0    0    0  501  0.00000000000E+00  0.00000000000E+00 -0.14880746773E+04  0.14880746773E+04  0.50400001928E-02 0. -1.
    10030    2    1    2    0    0  0.00000000000E+00  0.00000000000E+00  0.41551575982E+03  0.33916651144E+04  0.33661162935E+04 0.  0.
        3    1    3    3  502    0  0.48674342424E+03  0.78569258735E+03 -0.12094928379E+04  0.15222039739E+04  0.10100000352E+00 0. -1.
       -3    1    3    3    0  502 -0.48674342424E+03 -0.78569258735E+03  0.16250085978E+04  0.18694611405E+04  0.10100000352E+00 0.  1.
</event>
<event>
 5   0  0.2599367E-07  0.3397046E+04  0.7818609E-02  0.8138632E-01
       -1   -1    0    0    0  501  0.00000000000E+00  0.00000000000E+00  0.16753146355E+04  0.16753146355E+04  0.50400001928E-02 0. -1.
        1   -1    0    0  501    0  0.00000000000E+00  0.00000000000E+00 -0.17220529943E+04  0.17220529943E+04  0.50400001928E-02 0.  1.
    10030    2    1    2    0    0  0.00000000000E+00  0.00000000000E+00 -0.46738358801E+02  0.33973676298E+04  0.33970461195E+04 0.  0.
        2    1    3    3  502    0  0.40326114735E+03 -0.14843245578E+04  0.69721385589E+03  0.16887705903E+04  0.25500000920E-02 0. -1.
       -2    1    3    3    0  502 -0.40326114735E+03  0.14843245578E+04 -0.74395221469E+03  0.17085970395E+04  0.25500000920E-02 0.  1.
</event>
<event>
 5   0  0.2592200E-07  0.3469839E+04  0.7818609E-02  0.8120975E-01
       -1   -1    0    0    0  501  0.00000000000E+00  0.00000000000E+00  0.14109158282E+04  0.14109158282E+04  0.50400001928E-02 0.  1.
        1   -1    0    0  501    0  0.00000000000E+00  0.00000000000E+00 -0.21333275323E+04  0.21333275323E+04  0.50400001928E-02 0. -1.
    10030    2    1    2    0    0  0.00000000000E+00  0.00000000000E+00 -0.72241170404E+03  0.35442433605E+04  0.34698389485E+04 0.  0.
        4    1    3    3  502    0  0.29277832597E+03  0.14704368513E+04 -0.12528738558E+04  0.19538674964E+04  0.12699999809E+01 0. -1.
       -4    1    3    3    0  502 -0.29277832597E+03 -0.14704368513E+04  0.53046215181E+03  0.15903758641E+04  0.12699999809E+01 0.  1.
</event>
<event>
 5   0  0.7610412E-07  0.3380832E+04  0.7818609E-02  0.8142627E-01
        2   -1    0    0  501    0  0.00000000000E+00  0.00000000000E+00  0.29996721300E+04  0.29996721300E+04  0.25500000920E-02 0. -1.
       -2   -1    0    0    0  501  0.00000000000E+00  0.00000000000E+00 -0.95260606869E+03  0.95260606869E+03  0.25500000920E-02 0.  1.
    10030    2    1    2    0    0  0.00000000000E+00  0.00000000000E+00  0.20470660613E+04  0.39522781987E+04  0.33808317764E+04 0.  0.
        4    1    3    3  502    0 -0.11248966920E+04 -0.12568724263E+04  0.89344304314E+03  0.19087595312E+04  0.12699999809E+01 0. -1.
       -4    1    3    3    0  502  0.11248966920E+04  0.12568724263E+04  0.11536230182E+04  0.20435186675E+04  0.12699999809E+01 0.  1.
</event>
<event>
 5   0  0.2553250E-07  0.3415393E+04  0.7818609E-02  0.8134139E-01
       -1   -1    0    0    0  501  0.00000000000E+00  0.00000000000E+00  0.12381824276E+04  0.12381824276E+04  0.50400001928E-02 0. -1.
        1   -1    0    0  501    0  0.00000000000E+00  0.00000000000E+00 -0.23552479812E+04  0.23552479812E+04  0.50400001928E-02 0.  1.
    10030    2    1    2    0    0  0.00000000000E+00  0.00000000000E+00 -0.11170655536E+04  0.35934304089E+04  0.34153926059E+04 0.  0.
        5    1    3    3  502    0  0.14164136262E+04 -0.74351516099E+03  0.70251047004E+02  0.16012494042E+04  0.46999998093E+01 0. -1.
       -5    1    3    3    0  502 -0.14164136262E+04  0.74351516099E+03 -0.11873166006E+04  0.19921810046E+04  0.46999998093E+01 0.  1.
</event>
<event>
 5   0  0.2553250E-07  0.3395091E+04  0.7818609E-02  0.8139112E-01
       -1   -1    0    0    0  501  0.00000000000E+00  0.00000000000E+00  0.14752058732E+04  0.14752058732E+04  0.50400001928E-02 0. -1.
        1   -1    0    0  501    0  0.00000000000E+00  0.00000000000E+00 -0.19533960292E+04  0.19533960292E+04  0.50400001928E-02 0.  1.
    10030    2    1    2    0    0  0.00000000000E+00  0.00000000000E+00 -0.47819015605E+03  0.34286019024E+04  0.33950913361E+04 0.  0.
        5    1    3    3  502    0 -0.25133941322E+03  0.11221292498E+04 -0.15001370880E+04  0.18901796017E+04  0.46999998093E+01 0.  1.
       -5    1    3    3    0  502  0.25133941322E+03 -0.11221292498E+04  0.10219469319E+04  0.15384223008E+04  0.46999998093E+01 0. -1.
</event>
<event>
 5   0  0.2553250E-07  0.3409726E+04  0.7818609E-02  0.8135523E-01
        1   -1    0    0  501    0  0.00000000000E+00  0.00000000000E+00  0.19233993312E+04  0.19233993312E+04  0.50400001928E-02 0. -1.
       -1   -1    0    0    0  501  0.00000000000E+00  0.00000000000E+00 -0.15111566692E+04  0.15111566692E+04  0.50400001928E-02 0.  1.
    10030    2    1    2    0    0  0.00000000000E+00  0.00000000000E+00  0.41224266195E+03  0.34345560004E+04  0.34097259285E+04 0.  0.
        5    1    3    3  502    0 -0.13242348706E+03 -0.78737496990E+03  0.17234240492E+04  0.18993967112E+04  0.46999998093E+01 0. -1.
       -5    1    3    3    0  502  0.13242348706E+03  0.78737496990E+03 -0.13111813872E+04  0.15351592892E+04  0.46999998093E+01 0.  1.
</event>
<event>
 5   0  0.7822003E-07  0.3405134E+04  0.7818609E-02  0.8136647E-01
        2   -1    0    0  501    0  0.00000000000E+00  0.00000000000E+00  0.22911065290E+04  0.22911065290E+04  0.25500000920E-02 0. -1.
       -2   -1    0    0    0  501  0.00000000000E+00  0.00000000000E+00 -0.12652114837E+04  0.12652114837E+04  0.25500000920E-02 0.  1.
    10030    2    1    2    0    0  0.00000000000E+00  0.00000000000E+00  0.10258950454E+04  0.35563180127E+04  0.34051339420E+04 0.  0.
        5    1    3    3  502    0  0.58861680564E+03  0.10071436177E+04  0.18081302079E+04  0.21517818080E+04  0.46999998093E+01 0. -1.
       -5    1    3    3    0  502 -0.58861680564E+03 -0.10071436177E+04 -0.78223516253E+03  0.14045362046E+04  0.46999998093E+01 0.  1.
</event>
<event>
 5   0  0.7838333E-07  0.3397266E+04  0.7818609E-02  0.8138578E-01
        2   -1    0    0  501    0  0.00000000000E+00  0.00000000000E+00  0.92391792507E+03  0.92391792507E+03  0.25500000920E-02 0. -1.
       -2   -1    0    0    0  501  0.00000000000E+00  0.00000000000E+00 -0.31229554654E+04  0.31229554654E+04  0.25500000920E-02 0.  1.
    10030    2    1    2    0    0  0.00000000000E+00  0.00000000000E+00 -0.21990375403E+04  0.40468733904E+04  0.33972662737E+04 0.  0.
        1    1    3    3  502    0  0.35750020043E+03 -0.44309580020E+03 -0.30059141841E+04  0.30593562008E+04  0.50400001928E-02 0.  1.
       -1    1    3    3    0  502 -0.35750020043E+03  0.44309580020E+03  0.80687664379E+03  0.98751718961E+03  0.50400001928E-02 0. -1.
</event>
<event>
 5   0  0.2599367E-07  0.3420854E+04  0.7818609E-02  0.8132807E-01
       -1   -1    0    0    0  501  0.00000000000E+00  0.00000000000E+00  0.13662119321E+04  0.13662119321E+04  0.50400001928E-02 0.  1.
        1   -1    0    0  501    0  0.00000000000E+00  0.00000000000E+00 -0.21413663508E+04  0.21413663508E+04  0.50400001928E-02 0. -1.
    10030    2    1    2    0    0  0.00000000000E+00  0.00000000000E+00 -0.77515441873E+03  0.35075782829E+04  0.34208538463E+04 0.  0.
        2    1    3    3  502    0  0.76819143183E+03  0.13463652411E+04 -0.11289162838E+04  0.19176207691E+04  0.25500000920E-02 0. -1.
       -2    1    3    3    0  502 -0.76819143183E+03 -0.13463652411E+04  0.35376186506E+03  0.15899575138E+04  0.25500000920E-02 0.  1.
</event>
<event>
 5   0  0.7822003E-07  0.3395485E+04  0.7818609E-02  0.8139015E-01
       -2   -1    0    0    0  501  0.00000000000E+00  0.00000000000E+00  0.83812024553E+03  0.83812024553E+03  0.25500000920E-02 0. -1.
        2   -1    0    0  501    0  0.00000000000E+00  0.00000000000E+00 -0.34390408686E+04  0.34390408686E+04  0.25500000920E-02 0.  1.
    10030    2    1    2    0    0  0.00000000000E+00  0.00000000000E+00 -0.26009206231E+04  0.42771611141E+04  0.33954851065E+04 0.  0.
        5    1    3    3  502    0 -0.30786958194E+03  0.54145983387E+03 -0.32899058883E+04  0.33483526210E+04  0.46999998093E+01 0.  1.
       -5    1    3    3    0  502  0.30786958194E+03 -0.54145983387E+03  0.68898526520E+03  0.92880849309E+03  0.46999998093E+01 0. -1.
</event>
<event>
 5   0  0.7838333E-07  0.3388593E+04  0.7818609E-02  0.8140712E-01
       -2   -1    0    0    0  501  0.00000000000E+00  0.00000000000E+00  0.12548637240E+04  0.12548637240E+04  0.25500000920E-02 0.  1.
        2   -1    0    0  501    0  0.00000000000E+00  0.00000000000E+00 -0.22876120704E+04  0.22876120704E+04  0.25500000920E-02 0. -1.
    10030    2    1    2    0    0  0.00000000000E+00  0.00000000000E+00 -0.10327483465E+04  0.35424757944E+04  0.33885934555E+04 0.  0.
        1    1    3    3  502    0  0.43105004207E+03  0.53938120396E+03 -0.21338615346E+04  0.22427887263E+04  0.50400001928E-02 0. -1.
       -1    1    3    3    0  502 -0.43105004207E+03 -0.53938120396E+03  0.11011131881E+04  0.12996870681E+04  0.50400001928E-02 0.  1.
</event>
<event>
 5   0  0.7838333E-07  0.3413319E+04  0.7818609E-02  0.8134645E-01
        2   -1    0    0  501    0  0.00000000000E+00  0.00000000000E+00  0.19085297977E+04  0.19085297977E+04  0.25500000920E-02 0.  1.
       -2   -1    0    0    0  501  0.00000000000E+00  0.00000000000E+00 -0.15261411260E+04  0.15261411260E+04  0.25500000920E-02 0. -1.
    10030    2    1    2    0    0  0.00000000000E+00  0.00000000000E+00  0.38238867165E+03  0.34346709237E+04  0.34133185111E+04 0.  0.
        1    1    3    3  502    0 -0.14090543673E+03  0.18598228136E+03 -0.15100152481E+04  0.15279364517E+04  0.50400001928E-02 0. -1.
       -1    1    3    3    0  502  0.14090543673E+03 -0.18598228136E+03  0.18924039197E+04  0.19067344720E+04  0.50400001928E-02 0.  1.
</event>
<event>
 5   0  0.8489228E-07  0.3395936E+04  0.7818609E-02  0.8138904E-01
       -2   -1    0    0    0  501  0.00000000000E+00  0.00000000000E+00  0.19252024631E+04  0.19252024631E+04  0.25500000920E-02 0.  1.
        2   -1    0    0  501    0  0.00000000000E+00  0.00000000000E+00 -0.14975547589E+04  0.14975547589E+04  0.25500000920E-02 0. -1.
    10030    2    1    2    0    0  0.00000000000E+00  0.00000000000E+00  0.42764770416E+03  0.34227572220E+04  0.33959364603E+04 0.  0.
        3    1    3    3  502    0 -0.11445942299E+04  0.12512446556E+04  0.12719761663E+03  0.17005553161E+04  0.10100000352E+00 0.  1.
       -3    1    3    3    0  502  0.11445942299E+04 -0.12512446556E+04  0.30045008754E+03  0.17222019059E+04  0.10100000352E+00 0. -1.
</event>
<event>
 5   0  0.2592200E-07  0.3346884E+04  0.7818609E-02  0.8151067E-01
        1   -1    0    0  501    0  0.00000000000E+00  0.00000000000E+00  0.19897010786E+04  0.19897010786E+04  0.50400001928E-02 0.  1.
       -1   -1    0    0    0  501  0.00000000000E+00  0.00000000000E+00 -0.14074516117E+04  0.14074516118E+04  0.50400001928E-02 0. -1.
    10030    2    1    2    0    0  0.00000000000E+00  0.00000000000E+00  0.58224946688E+03  0.33971526904E+04  0.33468839179E+04 0.  0.
        4    1    3    3  502    0  0.12847769231E+03  0.11797596220E+04 -0.90645517542E+03  0.14933190821E+04  0.12699999809E+01 0. -1.
       -4    1    3    3    0  502 -0.12847769231E+03 -0.11797596220E+04  0.14887046423E+04  0.19038336083E+04  0.12699999809E+01 0.  1.
</event>
<event>
 5   0  0.2592200E-07  0.3396971E+04  0.7818609E-02  0.8138650E-01
       -1   -1    0    0    0  501  0.00000000000E+00  0.00000000000E+00  0.19001544568E+04  0.19001544568E+04  0.50400001928E-02 0. -1.
        1   -1    0    0  501    0  0.00000000000E+00  0.00000000000E+00 -0.15182201933E+04  0.15182201933E+04  0.50400001928E-02 0.  1.
    10030    2    1    2    0    0  0.00000000000E+00  0.00000000000E+00  0.38193426346E+03  0.34183746501E+04  0.33969709252E+04 0.  0.
        4    1    3    3  502    0 -0.45888149413E+02  0.44686707995E+03  0.18392913704E+04  0.18933542372E+04  0.12699999809E+01 0. -1.
       -4    1    3    3    0  502  0.45888149413E+02 -0.44686707995E+03 -0.14573571070E+04  0.15250204128E+04  0.12699999809E+01 0.  1.
</event>
<event>
 5   0  0.2641442E-07  0.3411057E+04  0.7818609E-02  0.8135198E-01
       -1   -1    0    0    0  501  0.00000000000E+00  0.00000000000E+00  0.20020422878E+04  0.20020422878E+04  0.50400001928E-02 0.  1.
        1   -1    0    0  501    0  0.00000000000E+00  0.00000000000E+00 -0.14529298534E+04  0.14529298534E+04  0.50400001928E-02 0. -1.
    10030    2    1    2    0    0  0.00000000000E+00  0.00000000000E+00  0.54911243443E+03  0.34549721412E+04  0.34110567322E+04 0.  0.
        1    1    3    3  502    0  0.10379399973E+04 -0.12138626626E+04 -0.33151605766E+03  0.16311605986E+04  0.50400001928E-02 0.  1.
       -1    1    3    3    0  502 -0.10379399973E+04  0.12138626626E+04  0.88062849209E+03  0.18238115426E+04  0.50400001928E-02 0. -1.
</event>
<event>
 5   0  0.7822003E-07  0.3472050E+04  0.7818609E-02  0.8120446E-01
        2   -1    0    0  501    0  0.00000000000E+00  0.00000000000E+00  0.23609017222E+04  0.23609017222E+04  0.25500000920E-02 0.  1.
       -2   -1    0    0    0  501  0.00000000000E+00  0.00000000000E+00 -0.12765385296E+04  0.12765385296E+04  0.25500000920E-02 0. -1.
    10030    2    1    2    0    0  0.00000000000E+00  0.00000000000E+00  0.10843631926E+04  0.36374402518E+04  0.34720495463E+04 0.  0.
        5    1    3    3  502    0 -0.13347890844E+04 -0.10118724564E+04  0.10202202274E+04  0.19612289949E+04  0.46999998093E+01 0.  1.
       -5    1    3    3    0  502  0.13347890844E+04  0.10118724564E+04  0.64142965194E+02  0.16762112569E+04  0.46999998093E+01 0. -1.
</event>
<event>
 5   0  0.2641442E-07  0.3376729E+04  0.7818609E-02  0.8143641E-01
       -1   -1    0    0    0  501  0.00000000000E+00  0.00000000000E+00  0.16504855075E+04  0.16504855075E+04  0.50400001928E-02 0.  1.
        1   -1    0    0  501    0  0.00000000000E+00  0.00000000000E+00 -0.17271129896E+04  0.17271129896E+04  0.50400001928E-02 0. -1.
    10030    2    1    2    0    0  0.00000000000E+00  0.00000000000E+00 -0.76627482039E+02  0.33775984971E+04  0.33767291624E+04 0.  0.
        1    1    3    3  502    0 -0.15032061091E+04  0.14255399271E+03 -0.79390527278E+03  0.17059413324E+04  0.50400001928E-02 0.  1.
       -1    1    3    3    0  502  0.15032061091E+04 -0.14255399271E+03  0.71727779074E+03  0.16716571647E+04  0.50400001928E-02 0. -1.
</event>
<event>
 5   0  0.7822003E-07  0.3373682E+04  0.7818609E-02  0.8144396E-01
        2   -1    0    0  501    0  0.00000000000E+00  0.00000000000E+00  0.20377768735E+04  0.20377768735E+04  0.25500000920E-02 0.  1.
       -2   -1    0    0    0  501  0.00000000000E+00  0.00000000000E+00 -0.13963417968E+04  0.13963417968E+04  0.25500000920E-02 0. -1.
    10030    2    1    2    0    0  0.00000000000E+00  0.00000000000E+00  0.64143507673E+03  0.34341186703E+04  0.33736822737E+04 0.  0.
        5    1    3    3  502    0  0.41296315152E+03 -0.79247407828E+03  0.17770310942E+04  0.19890739879E+04  0.46999998093E+01 0.  1.
       -5    1    3    3    0  502 -0.41296315152E+03  0.79247407828E+03 -0.11355960175E+04  0.14450446824E+04  0.46999998093E+01 0. -1.
</event>
<event>
 5   0  0.7838333E-07  0.3397639E+04  0.7818609E-02  0.8138486E-01
        2   -1    0    0  501    0  0.00000000000E+00  0.00000000000E+00  0.19916831025E+04  0.19916831025E+04  0.25500000920E-02 0.  1.
       -2   -1    0    0    0  501  0.00000000000E+00  0.00000000000E+00 -0.14490198089E+04  0.14490198089E+04  0.25500000920E-02 0. -1.
    10030    2    1    2    0    0  0.00000000000E+00  0.00000000000E+00  0.54266329356E+03  0.34407029114E+04  0.33976393385E+04 0.  0.
        1    1    3    3  502    0 -0.46226535022E+03  0.48530856784E+03 -0.13094707252E+04  0.14710293132E+04  0.50400001928E-02 0. -1.
       -1    1    3    3    0  502  0.46226535022E+03 -0.48530856784E+03  0.18521340188E+04  0.19696735982E+04  0.50400001928E-02 0.  1.
</event>
<event>
 5   0  0.7610412E-07  0.3374437E+04  0.7818609E-02  0.8144209E-01
       -2   -1    0    0    0  501  0.00000000000E+00  0.00000000000E+00  0.13823357380E+04  0.13823357380E+04  0.25500000920E-02 0.  1.
        2   -1    0    0  501    0  0.00000000000E+00  0.00000000000E+00 -0.20593450097E+04  0.20593450097E+04  0.25500000920E-02 0. -1.
    10030    2    1    2    0    0  0.00000000000E+00  0.00000000000E+00 -0.67700927173E+03  0.34416807477E+04  0.33744369627E+04 0.  0.
        4    1    3    3  502    0  0.14311397159E+04  0.63423198170E+03  0.30355850094E+03  0.15945408334E+04  0.12699999809E+01 0.  1.
       -4    1    3    3    0  502 -0.14311397159E+04 -0.63423198170E+03 -0.98056777267E+03  0.18471399143E+04  0.12699999809E+01 0. -1.
</event>
<event>
 5   0  0.7822003E-07  0.3405015E+04  0.7818609E-02  0.8136677E-01
       -2   -1    0    0    0  501  0.00000000000E+00  0.00000000000E+00  0.27664370543E+04  0.27664370543E+04  0.25500000920E-02 0.  1.
        2   -1    0    0  501    0  0.00000000000E+00  0.00000000000E+00 -0.10477491987E+04  0.10477491987E+04  0.25500000920E-02 0. -1.
    10030    2    1    2    0    0  0.00000000000E+00  0.00000000000E+00  0.17186878556E+04  0.38141862530E+04  0.34050152463E+04 0.  0.
        5    1    3    3  502    0 -0.32321124316E+03  0.37266997504E+03 -0.96593114590E+03  0.10846167464E+04  0.46999998093E+01 0. -1.
       -5    1    3    3    0  502  0.32321124316E+03 -0.37266997504E+03  0.26846190015E+04  0.27295695066E+04  0.46999998093E+01 0.  1.
</event>
<event>
 5   0  0.2592200E-07  0.3401646E+04  0.7818609E-02  0.8137502E-01
        1   -1    0    0  501    0  0.00000000000E+00  0.00000000000E+00  0.18068118652E+04  0.18068118652E+04  0.50400001928E-02 0.  1.
       -1   -1    0    0    0  501  0.00000000000E+00  0.00000000000E+00 -0.16010516678E+04  0.16010516678E+04  0.50400001928E-02 0. -1.
    10030    2    1    2    0    0  0.00000000000E+00  0.00000000000E+00  0.20576019737E+03  0.34078635330E+04  0.34016461604E+04 0.  0.
        4    1    3    3  502    0  0.71744514128E+03  0.41718381188E+03 -0.13844301842E+04  0.16141308533E+04  0.12699999809E+01 0. -1.
       -4    1    3    3    0  502 -0.71744514128E+03 -0.41718381188E+03  0.15901903816E+04  0.17937326797E+04  0.12699999809E+01 0.  1.
</event>
<event>
 5   0  0.7838333E-07  0.3404238E+04  0.7818609E-02  0.8136867E-01
       -2   -1    0    0    0  501  0.00000000000E+00  0.00000000000E+00  0.16452869783E+04  0.16452869783E+04  0.25500000920E-02 0. -1.
        2   -1    0    0  501    0  0.00000000000E+00  0.00000000000E+00 -0.17609144926E+04  0.17609144926E+04  0.25500000920E-02 0.  1.
    10030    2    1    2    0    0  0.00000000000E+00  0.00000000000E+00 -0.11562751422E+03  0.34062014709E+04  0.34042383492E+04 0.  0.
        1    1    3    3  502    0  0.59285483890E+02 -0.28652202592E+03 -0.17355633539E+04  0.17600539184E+04  0.50400001928E-02 0.  1.
       -1    1    3    3    0  502 -0.59285483890E+02  0.28652202592E+03  0.16199358397E+04  0.16461475526E+04  0.50400001928E-02 0. -1.
</event>
<event>
 5   0  0.2592200E-07  0.3456836E+04  0.7818609E-02  0.8124096E-01
       -1   -1    0    0    0  501  0.00000000000E+00  0.00000000000E+00  0.16026980836E+04  0.16026980836E+04  0.50400001928E-02 0. -1.
        1   -1    0    0  501    0  0.00000000000E+00  0.00000000000E+00 -0.18640000139E+04  0.18640000139E+04  0.50400001928E-02 0.  1.
    10030    2    1    2    0    0  0.00000000000E+00  0.00000000000E+00 -0.26130193033E+03  0.34666980975E+04  0.34568362704E+04 0.  0.
        4    1    3    3  502    0 -0.23189428237E+03  0.34730225993E+03 -0.18126459198E+04  0.18601292056E+04  0.12699999809E+01 0.  1.
       -4    1    3    3    0  502  0.23189428237E+03 -0.34730225993E+03  0.15513439895E+04  0.16065688919E+04  0.12699999809E+01 0. -1.
</event>
<event>
 5   0  0.2599367E-07  0.3400858E+04  0.7818609E-02  0.8137696E-01
       -1   -1    0    0    0  501  0.00000000000E+00  0.00000000000E+00  0.12297173483E+04  0.12297173483E+04  0.50400001928E-02 0. -1.
        1   -1    0    0  501    0  0.00000000000E+00  0.00000000000E+00 -0.23513202267E+04  0.23513202267E+04  0.50400001928E-02 0.  1.
    10030    2    1    2    0    0  0.00000000000E+00  0.00000000000E+00 -0.11216028784E+04  0.35810375750E+04  0.34008582883E+04 0.  0.
        2    1    3    3  502    0  0.54674708558E+03  0.13030285092E+04 -0.15567694115E+04  0.21024620501E+04  0.25500000920E-02 0.  1.
       -2    1    3    3    0  502 -0.54674708558E+03 -0.13030285092E+04  0.43516653314E+03  0.14785755250E+04  0.25500000920E-02 0. -1.
</event>
<event>
 5   0  0.2599367E-07  0.3374581E+04  0.7818609E-02  0.8144173E-01
        1   -1    0    0  501    0  0.00000000000E+00  0.00000000000E+00  0.25693858293E+04  0.25693858293E+04  0.50400001928E-02 0.  1.
       -1   -1    0    0    0  501  0.00000000000E+00  0.00000000000E+00 -0.11080271156E+04  0.11080271156E+04  0.50400001928E-02 0. -1.
    10030    2    1    2    0    0  0.00000000000E+00  0.00000000000E+00  0.14613587138E+04  0.36774129449E+04  0.33745809632E+04 0.  0.
        2    1    3    3  502    0  0.15752621088E+04 -0.41928134470E+03  0.25604621664E+03  0.16500930951E+04  0.25500000920E-02 0. -1.
       -2    1    3    3    0  502 -0.15752621088E+04  0.41928134470E+03  0.12053124971E+04  0.20273198498E+04  0.25500000920E-02 0.  1.
</event>
<event>
 5   0  0.2641442E-07  0.3365082E+04  0.7818609E-02  0.8146530E-01
       -1   -1    0    0    0  501  0.00000000000E+00  0.00000000000E+00  0.17561799665E+04  0.17561799665E+04  0.50400001928E-02 0. -1.
        1   -1    0    0  501    0  0.00000000000E+00  0.00000000000E+00 -0.16119899034E+04  0.16119899034E+04  0.50400001928E-02 0.  1.
    10030    2    1    2    0    0  0.00000000000E+00  0.00000000000E+00  0.14419006305E+03  0.33681698699E+04  0.33650820939E+04 0.  0.
        1    1    3    3  502    0 -0.67922595825E+03  0.26677277299E+03  0.15895431327E+04  0.17490463074E+04  0.50400001928E-02 0. -1.
       -1    1    3    3    0  502  0.67922595825E+03 -0.26677277299E+03 -0.14453530696E+04  0.16191235625E+04  0.50400001928E-02 0.  1.
</event>
<event>
 5   0  0.2592200E-07  0.3309708E+04  0.7818609E-02  0.8160430E-01
        1   -1    0    0  501    0  0.00000000000E+00  0.00000000000E+00  0.14215532858E+04  0.14215532859E+04  0.50400001928E-02 0. -1.
       -1   -1    0    0    0  501  0.00000000000E+00  0.00000000000E+00 -0.19264430182E+04  0.19264430182E+04  0.50400001928E-02 0.  1.
    10030    2    1    2    0    0  0.00000000000E+00  0.00000000000E+00 -0.50488973231E+03  0.33479963040E+04  0.33097077832E+04 0.  0.
        4    1    3    3  502    0 -0.80772734395E+03 -0.14243107401E+04 -0.49491606049E+03  0.17105636692E+04  0.12699999809E+01 0.  1.
       -4    1    3    3    0  502  0.80772734395E+03  0.14243107401E+04 -0.99736718174E+01  0.16374326348E+04  0.12699999809E+01 0. -1.
</event>
<event>
 5   0  0.7610412E-07  0.3417922E+04  0.7818609E-02  0.8133522E-01
        2   -1    0    0  501    0  0.00000000000E+00  0.00000000000E+00  0.17673923988E+04  0.17673923988E+04  0.25500000920E-02 0. -1.
       -2   -1    0    0    0  501  0.00000000000E+00  0.00000000000E+00 -0.16524618471E+04  0.16524618471E+04  0.25500000920E-02 0.  1.
    10030    2    1    2    0    0  0.00000000000E+00  0.00000000000E+00  0.11493055164E+03  0.34198542459E+04  0.34179224730E+04 0.  0.
        4    1    3    3  502    0  0.58257259109E+03 -0.35494135059E+03 -0.15103193928E+04  0.16572388082E+04  0.12699999809E+01 0.  1.
       -4    1    3    3    0  502 -0.58257259109E+03  0.35494135059E+03  0.16252499445E+04  0.17626154377E+04  0.12699999809E+01 0. -1.
</event>
<event>
 5   0  0.7610412E-07  0.3341992E+04  0.7818609E-02  0.8152292E-01
        2   -1    0    0  501    0  0.00000000000E+00  0.00000000000E+00  0.22826251278E+04  0.22826251278E+04  0.25500000920E-02 0.  1.
       -2   -1    0    0    0  501  0.00000000000E+00  0.00000000000E+00 -0.12232525019E+04  0.12232525019E+04  0.25500000920E-02 0. -1.
    10030    2    1    2    0    0  0.00000000000E+00  0.00000000000E+00  0.10593726259E+04  0.35058776296E+04  0.33419915609E+04 0.  0.
        4    1    3    3  502    0  0.11618781428E+04  0.11716953530E+04  0.80603272158E+03  0.18364425339E+04  0.12699999809E+01 0. -1.
       -4    1    3    3    0  502 -0.11618781428E+04 -0.11716953530E+04  0.25333990434E+03  0.16694350958E+04  0.12699999809E+01 0.  1.
</event>
<event>
 5   0  0.2553250E-07  0.3357649E+04  0.7818609E-02  0.8148380E-01
        1   -1    0    0  501    0  0.00000000000E+00  0.00000000000E+00  0.15741588409E+04  0.15741588409E+04  0.50400001928E-02 0. -1.
       -1   -1    0    0    0  501  0.00000000000E+00  0.00000000000E+00 -0.17904490057E+04  0.17904490057E+04  0.50400001928E-02 0.  1.
    10030    2    1    2    0    0  0.00000000000E+00  0.00000000000E+00 -0.21629016484E+03  0.33646078466E+04  0.33576486603E+04 0.  0.
        5    1    3    3  502    0  0.56406894760E+03 -0.69864264557E+03 -0.15295891683E+04  0.17736799141E+04  0.46999998093E+01 0.  1.
       -5    1    3    3    0  502 -0.56406894760E+03  0.69864264557E+03  0.13132990035E+04  0.15909279325E+04  0.46999998093E+01 0. -1.
</event>
<event>
 5   0  0.7899402E-07  0.3397971E+04  0.7818609E-02  0.8138405E-01
       -2   -1    0    0    0  501  0.00000000000E+00  0.00000000000E+00  0.14236771986E+04  0.14236771986E+04  0.25500000920E-02 0. -1.
        2   -1    0    0  501    0  0.00000000000E+00  0.00000000000E+00 -0.20275322101E+04  0.20275322101E+04  0.25500000920E-02 0.  1.
    10030    2    1    2    0    0  0.00000000000E+00  0.00000000000E+00 -0.60385501154E+03  0.34512094087E+04  0.33979707927E+04 0.  0.
        2    1    3    3  502    0 -0.12277319785E+04 -0.75479594152E+03 -0.12157512068E+04  0.18854956168E+04  0.25500000920E-02 0.  1.
       -2    1    3    3    0  502  0.12277319785E+04  0.75479594152E+03  0.61189619523E+03  0.15657137919E+04  0.25500000920E-02 0. -1.
</event>
<event>
 5   0  0.2553250E-07  0.3468023E+04  0.7818609E-02  0.8121410E-01
       -1   -1    0    0    0  501  0.00000000000E+00  0.00000000000E+00  0.13942246270E+04  0.13942246270E+04  0.50400001928E-02 0.  1.
        1   -1    0    0  501    0  0.00000000000E+00  0.00000000000E+00 -0.21566085344E+04  0.21566085344E+04  0.50400001928E-02 0. -1.
    10030    2    1    2    0    0  0.00000000000E+00  0.00000000000E+00 -0.76238390734E+03  0.35508331614E+04  0.34680234887E+04 0.  0.
        5    1    3    3  502    0  0.34512509709E+03 -0.16401933532E+04 -0.83613160221E+03  0.18730946892E+04  0.46999998093E+01 0. -1.
       -5    1    3    3    0  502 -0.34512509709E+03  0.16401933532E+04  0.73747694871E+02  0.16777384722E+04  0.46999998093E+01 0.  1.
</event>
<event>
 5   0  0.7838333E-07  0.3398062E+04  0.7818609E-02  0.8138382E-01
       -2   -1    0    0    0  501  0.00000000000E+00  0.00000000000E+00  0.93138814657E+03  0.93138814658E+03  0.25500000920E-02 0. -1.
        2   -1    0    0  501    0  0.00000000000E+00  0.00000000000E+00 -0.30993584447E+04  0.30993584447E+04  0.25500000920E-02 0.  1.
    10030    2    1    2    0    0  0.00000000000E+00  0.00000000000E+00 -0.21679702981E+04  0.40307465912E+04  0.33980616341E+04 0.  0.
        1    1    3    3  502    0 -0.80107029551E+03 -0.14000268247E+03 -0.28535131575E+04  0.29671285293E+04  0.50400001928E-02 0.  1.
       -1    1    3    3    0  502  0.80107029551E+03  0.14000268247E+03  0.68554285944E+03  0.10636180619E+04  0.50400001928E-02 0. -1.
</event>
<event>
 5   0  0.7610412E-07  0.3408069E+04  0.7818609E-02  0.8135929E-01
       -2   -1    0    0    0  501  0.00000000000E+00  0.00000000000E+00  0.21221402110E+04  0.21221402110E+04  0.25500000920E-02 0. -1.
        2   -1    0    0  501    0  0.00000000000E+00  0.00000000000E+00 -0.13683040171E+04  0.13683040171E+04  0.25500000920E-02 0.  1.
    10030    2    1    2    0    0  0.00000000000E+00  0.00000000000E+00  0.75383619387E+03  0.34904442282E+04  0.34080686470E+04 0.  0.
        4    1    3    3  502    0  0.69400212192E+03  0.15550279445E+04  0.31230185392E+03  0.17312668524E+04  0.12699999809E+01 0.  1.
       -4    1    3    3    0  502 -0.69400212192E+03 -0.15550279445E+04  0.44153433995E+03  0.17591773758E+04  0.12699999809E+01 0. -1.
</event>
<event>
 5   0  0.2553250E-07  0.3399688E+04  0.7818609E-02  0.8137983E-01
        1   -1    0    0  501    0  0.00000000000E+00  0.00000000000E+00  0.13097221795E+04  0.13097221795E+04  0.50400001928E-02 0.  1.
       -1   -1    0    0    0  501  0.00000000000E+00  0.00000000000E+00 -0.22061702753E+04  0.22061702753E+04  0.50400001928E-02 0. -1.
    10030    2    1    2    0    0  0.00000000000E+00  0.00000000000E+00 -0.89644809581E+03  0.35158924547E+04  0.33996883041E+04 0.  0.
        5    1    3    3  502    0 -0.90533586469E+03  0.11517872669E+04  0.44333406731E+03  0.15306254020E+04  0.46999998093E+01 0.  1.
       -5    1    3    3    0  502  0.90533586469E+03 -0.11517872669E+04 -0.13397821631E+04  0.19852670527E+04  0.46999998093E+01 0. -1.
</event>
<event>
 5   0  0.7610412E-07  0.3411378E+04  0.7818609E-02  0.8135119E-01
       -2   -1    0    0    0  501  0.00000000000E+00  0.00000000000E+00  0.36600728125E+04  0.36600728125E+04  0.25500000920E-02 0. -1.
        2   -1    0    0  501    0  0.00000000000E+00  0.00000000000E+00 -0.79489525713E+03  0.79489525714E+03  0.25500000920E-02 0.  1.
    10030    2    1    2    0    0  0.00000000000E+00  0.00000000000E+00  0.28651775554E+04  0.44549680697E+04  0.34113777390E+04 0.  0.
        4    1    3    3  502    0  0.10436032076E+04  0.60344958798E+03 -0.14325242063E+03  0.12139942047E+04  0.12699999809E+01 0.  1.
       -4    1    3    3    0  502 -0.10436032076E+04 -0.60344958798E+03  0.30084299760E+04  0.32409738650E+04  0.12699999809E+01 0. -1.
</event>
<event>
 5   0  0.7822003E-07  0.3403963E+04  0.7818609E-02  0.8136934E-01
        2   -1    0    0  501    0  0.00000000000E+00  0.00000000000E+00  0.16161273678E+04  0.16161273678E+04  0.25500000920E-02 0.  1.
       -2   -1    0    0    0  501  0.00000000000E+00  0.00000000000E+00 -0.17923964212E+04  0.17923964212E+04  0.25500000920E-02 0. -1.
    10030    2    1    2    0    0  0.00000000000E+00  0.00000000000E+00 -0.17626905338E+03  0.34085237890E+04  0.34039629318E+04 0.  0.
        5    1    3    3  502    0 -0.12837544898E+04 -0.31657715214E+02  0.10303630097E+04  0.16464196983E+04  0.46999998093E+01 0.  1.
       -5    1    3    3    0  502  0.12837544898E+04  0.31657715214E+02 -0.12066320631E+04  0.17621040908E+04  0.46999998093E+01 0. -1.
</event>
<event>
 5   0  0.7838333E-07  0.3404830E+04  0.7818609E-02  0.8136722E-01
       -2   -1    0    0    0  501  0.00000000000E+00  0.00000000000E+00  0.15862146677E+04  0.15862146677E+04  0.25500000920E-02 0.  1.
        2   -1    0    0  501    0  0.00000000000E+00  0.00000000000E+00 -0.18271275472E+04  0.18271275472E+04  0.25500000920E-02 0. -1.
    10030    2    1    2    0    0  0.00000000000E+00  0.00000000000E+00 -0.24091287945E+03  0.34133422149E+04  0.34048298137E+04 0.  0.
        1    1    3    3  502    0 -0.72605736112E+03  0.14336524099E+04 -0.68373125251E+03  0.17464269094E+04  0.50400001928E-02 0. -1.
       -1    1    3    3    0  502  0.72605736112E+03 -0.14336524099E+04  0.44281837306E+03  0.16669153055E+04  0.50400001928E-02 0.  1.
</event>
<event>
 5   0  0.2592200E-07  0.3390195E+04  0.7818609E-02  0.8140317E-01
       -1   -1    0    0    0  501  0.00000000000E+00  0.00000000000E+00  0.20925624076E+04  0.20925624076E+04  0.50400001928E-02 0.  1.
        1   -1    0    0  501    0  0.00000000000E+00  0.00000000000E+00 -0.13731281610E+04  0.13731281610E+04  0.50400001928E-02 0. -1.
    10030    2    1    2    0    0  0.00000000000E+00  0.00000000000E+00  0.71943424663E+03  0.34656905686E+04  0.33901954932E+04 0.  0.
        4    1    3    3  502    0 -0.68208327381E+03 -0.54715187096E+03  0.18442053780E+04  0.20410065780E+04  0.12699999809E+01 0.  1.
       -4    1    3    3    0  502  0.68208327381E+03  0.54715187096E+03 -0.11247711313E+04  0.14246839906E+04  0.12699999809E+01 0. -1.
</event>
<event>
 5   0  0.7838333E-07  0.3394278E+04  0.7818609E-02  0.8139312E-01
       -2   -1    0    0    0  501  0.00000000000E+00  0.00000000000E+00  0.20952389137E+04  0.20952389137E+04  0.25500000920E-02 0.  1.
        2   -1    0    0  501    0  0.00000000000E+00  0.00000000000E+00 -0.13746789739E+04  0.13746789739E+04  0.25500000920E-02 0. -1.
    10030    2    1    2    0    0  0.00000000000E+00  0.00000000000E+00  0.72055993981E+03  0.34699178877E+04  0.33942780558E+04 0.  0.
        1    1    3    3  502    0  0.82480759202E+03  0.11078848159E+04  0.13684435379E+04  0.19443132581E+04  0.50400001928E-02 0.  1.
       -1    1    3    3    0  502 -0.82480759202E+03 -0.11078848159E+04 -0.64788359805E+03  0.15256046296E+04  0.50400001928E-02 0. -1.
</event>
<event>
 5   0  0.2599367E-07  0.3557838E+04  0.7818609E-02  0.8100218E-01
        1   -1    0    0  501    0  0.00000000000E+00  0.00000000000E+00  0.11415444838E+04  0.11415444838E+04  0.50400001928E-02 0. -1.
       -1   -1    0    0    0  501  0.00000000000E+00  0.00000000000E+00 -0.27721673160E+04  0.27721673160E+04  0.50400001928E-02 0.  1.
    10030    2    1    2    0    0  0.00000000000E+00  0.00000000000E+00 -0.16306228321E+04  0.39137117998E+04  0.35578377185E+04 0.  0.
        2    1    3    3  502    0 -0.89192511368E+03 -0.12650019564E+04 -0.17798222721E+04  0.23587131403E+04  0.25500000920E-02 0. -1.
       -2    1    3    3    0  502  0.89192511368E+03  0.12650019564E+04  0.14919944001E+03  0.15549986595E+04  0.25500000920E-02 0.  1.
</event>
<event>
 5   0  0.8489228E-07  0.3395153E+04  0.7818609E-02  0.8139097E-01
       -2   -1    0    0    0  501  0.00000000000E+00  0.00000000000E+00  0.13416392271E+04  0.13416392271E+04  0.25500000920E-02 0.  1.
        2   -1    0    0  501    0  0.00000000000E+00  0.00000000000E+00 -0.21479440938E+04  0.21479440938E+04  0.25500000920E-02 0. -1.
    10030    2    1    2    0    0  0.00000000000E+00  0.00000000000E+00 -0.80630486666E+03  0.34895833209E+04  0.33951530474E+04 0.  0.
        3    1    3    3  502    0 -0.70496887588E+03  0.10306044598E+04  0.77889509704E+03  0.14716671671E+04  0.10100000352E+00 0.  1.
       -3    1    3    3    0  502  0.70496887588E+03 -0.10306044598E+04 -0.15851999637E+04  0.20179161537E+04  0.10100000352E+00 0. -1.
</event>
<event>
 5   0  0.2592200E-07  0.3359266E+04  0.7818609E-02  0.8147977E-01
       -1   -1    0    0    0  501  0.00000000000E+00  0.00000000000E+00  0.28366130079E+04  0.28366130079E+04  0.50400001928E-02 0.  1.
        1   -1    0    0  501    0  0.00000000000E+00  0.00000000000E+00 -0.99455466423E+03  0.99455466424E+03  0.50400001928E-02 0. -1.
    10030    2    1    2    0    0  0.00000000000E+00  0.00000000000E+00  0.18420583437E+04  0.38311676722E+04  0.33592658113E+04 0.  0.
        4    1    3    3  502    0 -0.22477751978E+03 -0.14496452416E+04 -0.11912816272E+02  0.14670173100E+04  0.12699999809E+01 0. -1.
       -4    1    3    3    0  502  0.22477751978E+03  0.14496452416E+04  0.18539711599E+04  0.23641503621E+04  0.12699999809E+01 0.  1.
</event>
<event>
 5   0  0.2641442E-07  0.3389233E+04  0.7818609E-02  0.8140554E-01
        1   -1    0    0  501    0  0.00000000000E+00  0.00000000000E+00  0.15579835104E+04  0.15579835104E+04  0.50400001928E-02 0.  1.
       -1   -1    0    0    0  501  0.00000000000E+00  0.00000000000E+00 -0.18432325036E+04  0.18432325036E+04  0.50400001928E-02 0. -1.
    10030    2    1    2    0    0  0.00000000000E+00  0.00000000000E+00 -0.28524899315E+03  0.34012160140E+04  0.33892334511E+04 0.  0.
        1    1    3    3  502    0 -0.45131689728E+03 -0.67542074246E+03 -0.16351100877E+04  0.18257779493E+04  0.50400001928E-02 0. -1.
       -1    1    3    3    0  502  0.45131689728E+03  0.67542074246E+03  0.13498610946E+04  0.15754380647E+04  0.50400001928E-02 0.  1.
</event>
<event>
 5   0  0.7838333E-07  0.3383729E+04  0.7818609E-02  0.8141911E-01
       -2   -1    0    0    0  501  0.00000000000E+00  0.00000000000E+00  0.22940943651E+04  0.22940943651E+04  0.25500000920E-02 0. -1.
        2   -1    0    0  501    0  0.00000000000E+00  0.00000000000E+00 -0.12477278098E+04  0.12477278098E+04  0.25500000920E-02 0.  1.
    10030    2    1    2    0    0  0.00000000000E+00  0.00000000000E+00  0.10463665553E+04  0.35418221750E+04  0.33837289122E+04 0.  0.
        1    1    3    3  502    0 -0.36803717312E+03  0.40396619007E+03 -0.11528024755E+04  0.12757717630E+04  0.50400001928E-02 0.  1.
       -1    1    3    3    0  502  0.36803717312E+03 -0.40396619007E+03  0.21991690308E+04  0.22660504120E+04  0.50400001928E-02 0. -1.
</event>
<event>
 5   0  0.7610412E-07  0.3430709E+04  0.7818609E-02  0.8130410E-01
       -2   -1    0    0    0  501  0.00000000000E+00  0.00000000000E+00  0.17586838331E+04  0.17586838331E+04  0.25500000920E-02 0.  1.
        2   -1    0    0  501    0  0.00000000000E+00  0.00000000000E+00 -0.16730929323E+04  0.16730929323E+04  0.25500000920E-02 0. -1.
    10030    2    1    2    0    0  0.00000000000E+00  0.00000000000E+00  0.85590900766E+02  0.34317767654E+04  0.34307092511E+04 0.  0.
        4    1    3    3  502    0 -0.10556882689E+04  0.10081421654E+04 -0.85837972654E+03  0.16934124466E+04  0.12699999809E+01 0. -1.
       -4    1    3    3    0  502  0.10556882689E+04 -0.10081421654E+04  0.94397062730E+03  0.17383643188E+04  0.12699999809E+01 0.  1.
</event>
<event>
 5   0  0.2553250E-07  0.3402830E+04  0.7818609E-02  0.8137212E-01
       -1   -1    0    0    0  501  0.00000000000E+00  0.00000000000E+00  0.11050186303E+04  0.11050186303E+04  0.50400001928E-02 0.  1.
        1   -1    0    0  501    0  0.00000000000E+00  0.00000000000E+00 -0.26196956741E+04  0.26196956741E+04  0.50400001928E-02 0. -1.
    10030    2    1    2    0    0  0.00000000000E+00  0.00000000000E+00 -0.15146770438E+04  0.37247143044E+04  0.34028297198E+04 0.  0.
        5    1    3    3  502    0 -0.15998467461E+04 -0.56127091955E+03 -0.91312409208E+03  0.19257082733E+04  0.46999998093E+01 0.  1.
       -5    1    3    3    0  502  0.15998467461E+04  0.56127091955E+03 -0.60155295174E+03  0.17990060311E+04  0.46999998093E+01 0. -1.
</event>
<event>
 5   0  0.7838333E-07  0.3382193E+04  0.7818609E-02  0.8142291E-01
        2   -1    0    0  501    0  0.00000000000E+00  0.00000000000E+00  0.20864202551E+04  0.20864202551E+04  0.25500000920E-02 0.  1.
       -2   -1    0    0    0  501  0.00000000000E+00  0.00000000000E+00 -0.13706767287E+04  0.13706767287E+04  0.25500000920E-02 0. -1.
    10030    2    1    2    0    0  0.00000000000E+00  0.00000000000E+00  0.71574352643E+03  0.34570969838E+04  0.33821931879E+04 0.  0.
        1    1    3    3  502    0 -0.79969243050E+03 -0.38004604224E+03  0.18305663006E+04  0.20334492762E+04  0.50400001928E-02 0.  1.
       -1    1    3    3    0  502  0.79969243050E+03  0.38004604224E+03 -0.11148227742E+04  0.14236477077E+04  0.50400001928E-02 0. -1.
</event>
<event>
 5   0  0.8489228E-07  0.3381610E+04  0.7818609E-02  0.8142435E-01
       -2   -1    0    0    0  501  0.00000000000E+00  0.00000000000E+00  0.21183281689E+04  0.21183281689E+04  0.25500000920E-02 0. -1.
        2   -1    0    0  501    0  0.00000000000E+00  0.00000000000E+00 -0.13495648236E+04  0.13495648236E+04  0.25500000920E-02 0.  1.
    10030    2    1    2    0    0  0.00000000000E+00  0.00000000000E+00  0.76876334528E+03  0.34678929925E+04  0.33816097833E+04 0.  0.
        3    1    3    3  502    0  0.15699004376E+04 -0.59460000062E+03  0.59123254874E+03  0.17798012478E+04  0.10100000352E+00 0. -1.
       -3    1    3    3    0  502 -0.15699004376E+04  0.59460000062E+03  0.17753079654E+03  0.16880917447E+04  0.10100000352E+00 0.  1.
</event>
<event>
 5   0  0.2641442E-07  0.3412903E+04  0.7818609E-02  0.8134747E-01
        1   -1    0    0  501    0  0.00000000000E+00  0.00000000000E+00  0.24348028661E+04  0.24348028661E+04  0.50400001928E-02 0.  1.
       -1   -1    0    0    0  501  0.00000000000E+00  0.00000000000E+00 -0.11959801737E+04  0.11959801738E+04  0.50400001928E-02 0. -1.
    10030    2    1    2    0    0  0.00000000000E+00  0.00000000000E+00  0.12388226923E+04  0.36307830398E+04  0.34129025505E+04 0.  0.
        1    1    3    3  502    0  0.58772455062E+03 -0.11508769947E+04  0.18050267772E+04  0.22199233480E+04  0.50400001928E-02 0.  1.
       -1    1    3    3    0  502 -0.58772455062E+03  0.11508769947E+04 -0.56620408488E+03  0.14108596919E+04  0.50400001928E-02 0. -1.
</event>
<event>
 5   0  0.2641442E-07  0.3400634E+04  0.7818609E-02  0.8137751E-01
       -1   -1    0    0    0  501  0.00000000000E+00  0.00000000000E+00  0.17759166240E+04  0.17759166240E+04  0.50400001928E-02 0.  1.
        1   -1    0    0  501    0  0.00000000000E+00  0.00000000000E+00 -0.16279356401E+04  0.16279356401E+04  0.50400001928E-02 0. -1.
    10030    2    1    2    0    0  0.00000000000E+00  0.00000000000E+00  0.14798098387E+03  0.34038522641E+04  0.34006340386E+04 0.  0.
        1    1    3    3  502    0  0.45002202234E+03 -0.27432580524E+03 -0.15441108932E+04  0.16315798842E+04  0.50400001928E-02 0. -1.
       -1    1    3    3    0  502 -0.45002202234E+03  0.27432580524E+03  0.16920918771E+04  0.17722723799E+04  0.50400001928E-02 0.  1.
</event>
<event>
 5   0  0.2622205E-07  0.3006260E+04  0.7818609E-02  0.8241946E-01
        1   -1    0    0  501    0  0.00000000000E+00  0.00000000000E+00  0.15357568272E+04  0.15357568272E+04  0.50400001928E-02 0.  1.
       -1   -1    0    0    0  501  0.00000000000E+00  0.00000000000E+00 -0.14711961891E+04  0.14711961891E+04  0.50400001928E-02 0. -1.
    10030    2    1    2    0    0  0.00000000000E+00  0.00000000000E+00  0.64560638142E+02  0.30069530163E+04  0.30062598634E+04 0.  0.
        3    1    3    3  502    0 -0.94906142997E+03  0.85785223680E+03  0.82162101932E+03  0.15204240092E+04  0.10100000352E+00 0.  1.
       -3    1    3    3    0  502  0.94906142997E+03 -0.85785223680E+03 -0.75706038118E+03  0.14865290071E+04  0.10100000352E+00 0. -1.
</event>
<event>
 5   0  0.2553250E-07  0.3377626E+04  0.7818609E-02  0.8143420E-01
       -1   -1    0    0    0  501  0.00000000000E+00  0.00000000000E+00  0.22792833714E+04  0.22792833714E+04  0.50400001928E-02 0. -1.
        1   -1    0    0  501    0  0.00000000000E+00  0.00000000000E+00 -0.12513094143E+04  0.12513094143E+04  0.50400001928E-02 0.  1.
    10030    2    1    2    0    0  0.00000000000E+00  0.00000000000E+00  0.10279739570E+04  0.35305927857E+04  0.33776256397E+04 0.  0.
        5    1    3    3  502    0  0.28352919224E+03  0.66367217433E+03 -0.10819931368E+04  0.13006078563E+04  0.46999998093E+01 0.  1.
       -5    1    3    3    0  502 -0.28352919224E+03 -0.66367217433E+03  0.21099670939E+04  0.22299849293E+04  0.46999998093E+01 0. -1.
</event>
<event>
 5   0  0.2622205E-07  0.3413811E+04  0.7818609E-02  0.8134525E-01
        1   -1    0    0  501    0  0.00000000000E+00  0.00000000000E+00  0.11075953082E+04  0.11075953082E+04  0.50400001928E-02 0.  1.
       -1   -1    0    0    0  501  0.00000000000E+00  0.00000000000E+00 -0.26304977600E+04  0.26304977600E+04  0.50400001928E-02 0. -1.
    10030    2    1    2    0    0  0.00000000000E+00  0.00000000000E+00 -0.15229024519E+04  0.37380930682E+04  0.34138113464E+04 0.  0.
        3    1    3    3  502    0  0.12709607574E+03 -0.62198108678E+03 -0.24964206952E+04  0.25758746442E+04  0.10100000352E+00 0. -1.
       -3    1    3    3    0  502 -0.12709607574E+03  0.62198108678E+03  0.97351824337E+03  0.11622184240E+04  0.10100000352E+00 0.  1.
</event>
<event>
 5   0  0.7610412E-07  0.3404565E+04  0.7818609E-02  0.8136787E-01
       -2   -1    0    0    0  501  0.00000000000E+00  0.00000000000E+00  0.15838690934E+04  0.15838690934E+04  0.25500000920E-02 0.  1.
        2   -1    0    0  501    0  0.00000000000E+00  0.00000000000E+00 -0.18295492549E+04  0.18295492549E+04  0.25500000920E-02 0. -1.
    10030    2    1    2    0    0  0.00000000000E+00  0.00000000000E+00 -0.24568016153E+03  0.34134183483E+04  0.34045654757E+04 0.  0.
        4    1    3    3  502    0 -0.70987886835E+03 -0.70051714334E+03  0.12602805955E+04  0.16071593163E+04  0.12699999809E+01 0.  1.
       -4    1    3    3    0  502  0.70987886835E+03  0.70051714334E+03 -0.15059607570E+04  0.18062590319E+04  0.12699999809E+01 0. -1.
</event>
<event>
 5   0  0.7838333E-07  0.3365621E+04  0.7818609E-02  0.8146396E-01
       -2   -1    0    0    0  501  0.00000000000E+00  0.00000000000E+00  0.96790871291E+03  0.96790871292E+03  0.25500000920E-02 0.  1.
        2   -1    0    0  501    0  0.00000000000E+00  0.00000000000E+00 -0.29257411799E+04  0.29257411799E+04  0.25500000920E-02 0. -1.
    10030    2    1    2    0    0  0.00000000000E+00  0.00000000000E+00 -0.19578324670E+04  0.38936498928E+04  0.33656205251E+04 0.  0.
        1    1    3    3  502    0 -0.35324274706E+03  0.95467424042E+03  0.57134417471E+03  0.11673120875E+04  0.50400001928E-02 0.  1.
       -1    1    3    3    0  502  0.35324274706E+03 -0.95467424042E+03 -0.25291766417E+04  0.27263378053E+04  0.50400001928E-02 0. -1.
</event>
<event>
 5   0  0.2599367E-07  0.3405696E+04  0.7818609E-02  0.8136510E-01
        1   -1    0    0  501    0  0.00000000000E+00  0.00000000000E+00  0.16888205353E+04  0.16888205353E+04  0.50400001928E-02 0. -1.
       -1   -1    0    0    0  501  0.00000000000E+00  0.00000000000E+00 -0.17169916880E+04  0.17169916881E+04  0.50400001928E-02 0.  1.
    10030    2    1    2    0    0  0.00000000000E+00  0.00000000000E+00 -0.28171152785E+02  0.34058122233E+04  0.34056957126E+04 0.  0.
        2    1    3    3  502    0 -0.94886820259E+02 -0.15831029652E+04  0.60599395158E+03  0.16977771280E+04  0.25500000920E-02 0. -1.
       -2    1    3    3    0  502  0.94886820259E+02  0.15831029652E+04 -0.63416510436E+03  0.17080350953E+04  0.25500000920E-02 0.  1.
</event>
<event>
 5   0  0.7822003E-07  0.3358255E+04  0.7818609E-02  0.8148229E-01
       -2   -1    0    0    0  501  0.00000000000E+00  0.00000000000E+00  0.17221295160E+04  0.17221295161E+04  0.25500000920E-02 0.  1.
        2   -1    0    0  501    0  0.00000000000E+00  0.00000000000E+00 -0.16371988382E+04  0.16371988383E+04  0.25500000920E-02 0. -1.
    10030    2    1    2    0    0  0.00000000000E+00  0.00000000000E+00  0.84930677799E+02  0.33593283543E+04  0.33582545722E+04 0.  0.
        5    1    3    3  502    0  0.15330711395E+04  0.60759418399E+03 -0.27381377944E+03  0.16716679955E+04  0.46999998093E+01 0. -1.
       -5    1    3    3    0  502 -0.15330711395E+04 -0.60759418399E+03  0.35874445724E+03  0.16876603588E+04  0.46999998093E+01 0.  1.
</event>
<event>
 5   0  0.2599367E-07  0.3394067E+04  0.7818609E-02  0.8139364E-01
        1   -1    0    0  501    0  0.00000000000E+00  0.00000000000E+00  0.99054321080E+03  0.99054321081E+03  0.50400001928E-02 0.  1.
       -1   -1    0    0    0  501  0.00000000000E+00  0.00000000000E+00 -0.29074175182E+04  0.29074175182E+04  0.50400001928E-02 0. -1.
    10030    2    1    2    0    0  0.00000000000E+00  0.00000000000E+00 -0.19168743074E+04  0.38979607291E+04  0.33940669903E+04 0.  0.
        2    1    3    3  502    0 -0.76908962692E+03 -0.14537500107E+04 -0.14389214200E+04  0.21852649270E+04  0.25500000920E-02 0.  1.
       -2    1    3    3    0  502  0.76908962692E+03  0.14537500107E+04 -0.47795288742E+03  0.17126958021E+04  0.25500000920E-02 0. -1.
</event>
<event>
 5   0  0.7899402E-07  0.3342886E+04  0.7818609E-02  0.8152068E-01
        2   -1    0    0  501    0  0.00000000000E+00  0.00000000000E+00  0.13737847728E+04  0.13737847728E+04  0.25500000920E-02 0. -1.
       -2   -1    0    0    0  501  0.00000000000E+00  0.00000000000E+00 -0.20335947934E+04  0.20335947934E+04  0.25500000920E-02 0.  1.
    10030    2    1    2    0    0  0.00000000000E+00  0.00000000000E+00 -0.65981002065E+03  0.34073795662E+04  0.33428859156E+04 0.  0.
        2    1    3    3  502    0 -0.61076097383E+03  0.62542374245E+03 -0.17820083512E+04  0.19848772225E+04  0.25500000920E-02 0.  1.
       -2    1    3    3    0  502  0.61076097383E+03 -0.62542374245E+03  0.11221983305E+04  0.14225023437E+04  0.25500000920E-02 0. -1.
</event>
<event>
 5   0  0.8489228E-07  0.3392611E+04  0.7818609E-02  0.8139722E-01
        2   -1    0    0  501    0  0.00000000000E+00  0.00000000000E+00  0.26550474327E+04  0.26550474327E+04  0.25500000920E-02 0.  1.
       -2   -1    0    0    0  501  0.00000000000E+00  0.00000000000E+00 -0.10837668803E+04  0.10837668803E+04  0.25500000920E-02 0. -1.
    10030    2    1    2    0    0  0.00000000000E+00  0.00000000000E+00  0.15712805524E+04  0.37388143130E+04  0.33926110730E+04 0.  0.
        3    1    3    3  502    0  0.15055964515E+04 -0.70195497119E+03  0.11640307198E+04  0.20284301770E+04  0.10100000352E+00 0.  1.
       -3    1    3    3    0  502 -0.15055964515E+04  0.70195497119E+03  0.40724983263E+03  0.17103841360E+04  0.10100000352E+00 0. -1.
</event>
<event>
 5   0  0.7838333E-07  0.3381701E+04  0.7818609E-02  0.8142412E-01
       -2   -1    0    0    0  501  0.00000000000E+00  0.00000000000E+00  0.18273649919E+04  0.18273649919E+04  0.25500000920E-02 0.  1.
        2   -1    0    0  501    0  0.00000000000E+00  0.00000000000E+00 -0.15645342934E+04  0.15645342934E+04  0.25500000920E-02 0. -1.
    10030    2    1    2    0    0  0.00000000000E+00  0.00000000000E+00  0.26283069844E+03  0.33918992853E+04  0.33817008717E+04 0.  0.
        1    1    3    3  502    0  0.16863857423E+03  0.93051261142E+03 -0.12744830880E+04  0.15870097134E+04  0.50400001928E-02 0. -1.
       -1    1    3    3    0  502 -0.16863857423E+03 -0.93051261142E+03  0.15373137865E+04  0.18048895719E+04  0.50400001928E-02 0.  1.
</event>
<event>
 5   0  0.7610412E-07  0.3407347E+04  0.7818609E-02  0.8136105E-01
       -2   -1    0    0    0  501  0.00000000000E+00  0.00000000000E+00  0.10654476893E+04  0.10654476893E+04  0.25500000920E-02 0.  1.
        2   -1    0    0  501    0  0.00000000000E+00  0.00000000000E+00 -0.27242107600E+04  0.27242107600E+04  0.25500000920E-02 0. -1.
    10030    2    1    2    0    0  0.00000000000E+00  0.00000000000E+00 -0.16587630706E+04  0.37896584493E+04  0.34073473902E+04 0.  0.
        4    1    3    3  502    0  0.59759938916E+03  0.15952675069E+04 -0.85422619911E+03  0.19057039278E+04  0.12699999809E+01 0. -1.
       -4    1    3    3    0  502 -0.59759938916E+03 -0.15952675069E+04 -0.80453687153E+03  0.18839545215E+04  0.12699999809E+01 0.  1.
</event>
<event>
 5   0  0.2553250E-07  0.3408742E+04  0.7818609E-02  0.8135764E-01
       -1   -1    0    0    0  501  0.00000000000E+00  0.00000000000E+00  0.98613121721E+03  0.98613121722E+03  0.50400001928E-02 0.  1.
        1   -1    0    0  501    0  0.00000000000E+00  0.00000000000E+00 -0.29457348422E+04  0.29457348422E+04  0.50400001928E-02 0. -1.
    10030    2    1    2    0    0  0.00000000000E+00  0.00000000000E+00 -0.19596036250E+04  0.39318660594E+04  0.34087423402E+04 0.  0.
        5    1    3    3  502    0 -0.45951105299E+03  0.21697994510E+03 -0.28563123833E+04  0.29011675624E+04  0.46999998093E+01 0. -1.
       -5    1    3    3    0  502  0.45951105299E+03 -0.21697994510E+03  0.89670875833E+03  0.10306984970E+04  0.46999998093E+01 0.  1.
</event>
<event>
 5   0  0.2592200E-07  0.3399028E+04  0.7818609E-02  0.8138145E-01
       -1   -1    0    0    0  501  0.00000000000E+00  0.00000000000E+00  0.21253598500E+04  0.21253598500E+04  0.50400001928E-02 0.  1.
        1   -1    0    0  501    0  0.00000000000E+00  0.00000000000E+00 -0.13589921297E+04  0.13589921297E+04  0.50400001928E-02 0. -1.
    10030    2    1    2    0    0  0.00000000000E+00  0.00000000000E+00  0.76636772028E+03  0.34843519797E+04  0.33990276898E+04 0.  0.
        4    1    3    3  502    0 -0.14970157726E+04  0.52474763332E+03 -0.24198533255E+03  0.16046728066E+04  0.12699999809E+01 0. -1.
       -4    1    3    3    0  502  0.14970157726E+04 -0.52474763332E+03  0.10083530528E+04  0.18796791732E+04  0.12699999809E+01 0.  1.
</event>
<event>
 5   0  0.2553250E-07  0.3400886E+04  0.7818609E-02  0.8137689E-01
       -1   -1    0    0    0  501  0.00000000000E+00  0.00000000000E+00  0.19212493756E+04  0.19212493756E+04  0.50400001928E-02 0.  1.
        1   -1    0    0  501    0  0.00000000000E+00  0.00000000000E+00 -0.15050139145E+04  0.15050139145E+04  0.50400001928E-02 0. -1.
    10030    2    1    2    0    0  0.00000000000E+00  0.00000000000E+00  0.41623546103E+03  0.34262632901E+04  0.34008863807E+04 0.  0.
        5    1    3    3  502    0 -0.95402733727E+03  0.13026233870E+04  0.74547289793E+03  0.17784115891E+04  0.46999998093E+01 0.  1.
       -5    1    3    3    0  502  0.95402733727E+03 -0.13026233870E+04 -0.32923743690E+03  0.16478517010E+04  0.46999998093E+01 0. -1.
</event>
<event>
 5   0  0.8489228E-07  0.3542857E+04  0.7818609E-02  0.8103708E-01
        2   -1    0    0  501    0  0.00000000000E+00  0.00000000000E+00  0.18266774004E+04  0.18266774004E+04  0.25500000920E-02 0. -1.
       -2   -1    0    0    0  501  0.00000000000E+00  0.00000000000E+00 -0.17178508355E+04  0.17178508355E+04  0.25500000920E-02 0.  1.
    10030    2    1    2    0    0  0.00000000000E+00  0.00000000000E+00  0.10882656486E+03  0.35445282360E+04  0.35428572077E+04 0.  0.
        3    1    3    3  502    0  0.88843258770E+03  0.74655532990E+03  0.13934398462E+04  0.18133758405E+04  0.10100000352E+00 0. -1.
       -3    1    3    3    0  502 -0.88843258770E+03 -0.74655532990E+03 -0.12846132814E+04  0.17311523955E+04  0.10100000352E+00 0.  1.
</event>
<event>
 5   0  0.7899402E-07  0.3408261E+04  0.7818609E-02  0.8135882E-01
       -2   -1    0    0    0  501  0.00000000000E+00  0.00000000000E+00  0.24982252039E+04  0.24982252039E+04  0.25500000920E-02 0.  1.
        2   -1    0    0  501    0  0.00000000000E+00  0.00000000000E+00 -0.11624493562E+04  0.11624493562E+04  0.25500000920E-02 0. -1.
    10030    2    1    2    0    0  0.00000000000E+00  0.00000000000E+00  0.13357758477E+04  0.36606745601E+04  0.34082607177E+04 0.  0.
        2    1    3    3  502    0 -0.14780060806E+04 -0.42304274932E+03  0.14575905393E+04  0.21184988370E+04  0.25500000920E-02 0. -1.
       -2    1    3    3    0  502  0.14780060806E+04  0.42304274932E+03 -0.12181469156E+03  0.15421757232E+04  0.25500000920E-02 0.  1.
</event>
<event>
 5   0  0.7822003E-07  0.3387368E+04  0.7818609E-02  0.8141014E-01
       -2   -1    0    0    0  501  0.00000000000E+00  0.00000000000E+00  0.32922015734E+04  0.32922015734E+04  0.25500000920E-02 0. -1.
        2   -1    0    0  501    0  0.00000000000E+00  0.00000000000E+00 -0.87132120102E+03  0.87132120102E+03  0.25500000920E-02 0.  1.
    10030    2    1    2    0    0  0.00000000000E+00  0.00000000000E+00  0.24208803724E+04  0.41635227744E+04  0.33873677267E+04 0.  0.
        5    1    3    3  502    0  0.88023125873E+03  0.13069089390E+04  0.19738143091E+04  0.25256252811E+04  0.46999998093E+01 0. -1.
       -5    1    3    3    0  502 -0.88023125873E+03 -0.13069089390E+04  0.44706606328E+03  0.16378974933E+04  0.46999998093E+01 0.  1.
</event>
<event>
 5   0  0.2592200E-07  0.3406701E+04  0.7818609E-02  0.8136264E-01
        1   -1    0    0  501    0  0.00000000000E+00  0.00000000000E+00  0.19158383598E+04  0.19158383598E+04  0.50400001928E-02 0. -1.
       -1   -1    0    0    0  501  0.00000000000E+00  0.00000000000E+00 -0.15144300443E+04  0.15144300443E+04  0.50400001928E-02 0.  1.
    10030    2    1    2    0    0  0.00000000000E+00  0.00000000000E+00  0.40140831550E+03  0.34302684042E+04  0.34067011446E+04 0.  0.
        4    1    3    3  502    0  0.12313373291E+04 -0.10668390288E+04 -0.29979018963E+03  0.16565666006E+04  0.12699999809E+01 0.  1.
       -4    1    3    3    0  502 -0.12313373291E+04  0.10668390288E+04  0.70119850514E+03  0.17737018036E+04  0.12699999809E+01 0. -1.
</event>
<event>
 5   0  0.2641442E-07  0.3369057E+04  0.7818609E-02  0.8145543E-01
        1   -1    0    0  501    0  0.00000000000E+00  0.00000000000E+00  0.12102679888E+04  0.12102679888E+04  0.50400001928E-02 0. -1.
       -1   -1    0    0    0  501  0.00000000000E+00  0.00000000000E+00 -0.23446349380E+04  0.23446349380E+04  0.50400001928E-02 0.  1.
    10030    2    1    2    0    0  0.00000000000E+00  0.00000000000E+00 -0.11343669492E+04  0.35549029268E+04  0.33690572040E+04 0.  0.
        1    1    3    3  502    0  0.15484754679E+04  0.62608775803E+03 -0.33631146459E+03  0.17037803722E+04  0.50400001928E-02 0. -1.
       -1    1    3    3    0  502 -0.15484754679E+04 -0.62608775803E+03 -0.79805548461E+03  0.18511225546E+04  0.50400001928E-02 0.  1.
</event>
<event>
 5   0  0.7899402E-07  0.3374255E+04  0.7818609E-02  0.8144254E-01
        2   -1    0    0  501    0  0.00000000000E+00  0.00000000000E+00  0.11933028757E+04  0.11933028757E+04  0.25500000920E-02 0.  1.
       -2   -1    0    0    0  501  0.00000000000E+00  0.00000000000E+00 -0.23853109621E+04  0.23853109621E+04  0.25500000920E-02 0. -1.
    10030    2    1    2    0    0  0.00000000000E+00  0.00000000000E+00 -0.11920080864E+04  0.35786138378E+04  0.33742545432E+04 0.  0.
        2    1    3    3  502    0  0.79647119951E+03 -0.11480166079E+03  0.97665674347E+03  0.12654659962E+04  0.25500000920E-02 0.  1.
       -2    1    3    3    0  502 -0.79647119951E+03  0.11480166079E+03 -0.21686648299E+04  0.23131478416E+04  0.25500000920E-02 0. -1.
</event>
<event>
 5   0  0.2553250E-07  0.3420958E+04  0.7818609E-02  0.8132782E-01
       -3   -1    0    0    0  501  0.00000000000E+00  0.00000000000E+00  0.21320965345E+04  0.21320965369E+04  0.10100000352E+00 0. -1.
        3   -1    0    0  501    0  0.00000000000E+00  0.00000000000E+00 -0.13722355559E+04  0.13722355596E+04  0.10100000352E+00 0.  1.
    10030    2    1    2    0    0  0.00000000000E+00  0.00000000000E+00  0.75986097862E+03  0.35043320965E+04  0.34209581605E+04 0.  0.
        5    1    3    3  502    0 -0.52811943380E+03  0.12975890167E+04 -0.62534765578E+03  0.15341868117E+04  0.46999998093E+01 0.  1.
       -5    1    3    3    0  502  0.52811943380E+03 -0.12975890167E+04  0.13852086344E+04  0.19701452848E+04  0.46999998093E+01 0. -1.
</event>
<event>
 5   0  0.2592200E-07  0.3348679E+04  0.7818609E-02  0.8150618E-01
       -1   -1    0    0    0  501  0.00000000000E+00  0.00000000000E+00  0.11005526446E+04  0.11005526446E+04  0.50400001928E-02 0.  1.
        1   -1    0    0  501    0  0.00000000000E+00  0.00000000000E+00 -0.25472769933E+04  0.25472769933E+04  0.50400001928E-02 0. -1.
    10030    2    1    2    0    0  0.00000000000E+00  0.00000000000E+00 -0.14467243488E+04  0.36478296379E+04  0.33486788030E+04 0.  0.
        4    1    3    3  502    0 -0.90374949352E+03 -0.12521312761E+04 -0.18389738467E+02  0.15443236951E+04  0.12699999809E+01 0.  1.
       -4    1    3    3    0  502  0.90374949352E+03  0.12521312761E+04 -0.14283346103E+04  0.21035059429E+04  0.12699999809E+01 0. -1.
</event>
<event>
 5   0  0.7610412E-07  0.3391290E+04  0.7818609E-02  0.8140047E-01
        2   -1    0    0  501    0  0.00000000000E+00  0.00000000000E+00  0.23220113854E+04  0.23220113854E+04  0.25500000920E-02 0. -1.
       -2   -1    0    0    0  501  0.00000000000E+00  0.00000000000E+00 -0.12382417740E+04  0.12382417740E+04  0.25500000920E-02 0.  1.
    10030    2    1    2    0    0  0.00000000000E+00  0.00000000000E+00  0.10837696114E+04  0.35602531594E+04  0.33912897234E+04 0.  0.
        4    1    3    3  502    0  0.15201086343E+04 -0.61283109496E+03  0.99818670937E+03  0.19190285382E+04  0.12699999809E+01 0. -1.
       -4    1    3    3    0  502 -0.15201086343E+04  0.61283109496E+03  0.85582902032E+02  0.16412246211E+04  0.12699999809E+01 0.  1.
</event>
<event>
 5   0  0.2553250E-07  0.3400807E+04  0.7818609E-02  0.8137708E-01
       -1   -1    0    0    0  501  0.00000000000E+00  0.00000000000E+00  0.11152492359E+04  0.11152492359E+04  0.50400001928E-02 0.  1.
        1   -1    0    0  501    0  0.00000000000E+00  0.00000000000E+00 -0.25925786586E+04  0.25925786586E+04  0.50400001928E-02 0. -1.
    10030    2    1    2    0    0  0.00000000000E+00  0.00000000000E+00 -0.14773294227E+04  0.37078278945E+04  0.34008065914E+04 0.  0.
        5    1    3    3  502    0  0.15089993572E+03 -0.15162101137E+04 -0.15615800743E+04  0.21817924553E+04  0.46999998093E+01 0.  1.
       -5    1    3    3    0  502 -0.15089993572E+03  0.15162101137E+04  0.84250651584E+02  0.15260354392E+04  0.46999998093E+01 0. -1.
</event>
<event>
 5   0  0.8489228E-07  0.3394489E+04  0.7818609E-02  0.8139260E-01
        2   -1    0    0  501    0  0.00000000000E+00  0.00000000000E+00  0.21953195621E+04  0.21953195621E+04  0.25500000920E-02 0.  1.
       -2   -1    0    0    0  501  0.00000000000E+00  0.00000000000E+00 -0.13121728892E+04  0.13121728892E+04  0.25500000920E-02 0. -1.
    10030    2    1    2    0    0  0.00000000000E+00  0.00000000000E+00  0.88314667296E+03  0.35074924513E+04  0.33944889527E+04 0.  0.
        3    1    3    3  502    0  0.56934374171E+03 -0.15952479674E+04  0.55319943559E+03  0.17818524068E+04  0.10100000352E+00 0.  1.
       -3    1    3    3    0  502 -0.56934374171E+03  0.15952479674E+04  0.32994723737E+03  0.17256400446E+04  0.10100000352E+00 0. -1.
</event>
<event>
 5   0  0.7838333E-07  0.3370231E+04  0.7818609E-02  0.8145251E-01
       -2   -1    0    0    0  501  0.00000000000E+00  0.00000000000E+00  0.14054744675E+04  0.14054744675E+04  0.25500000920E-02 0. -1.
        2   -1    0    0  501    0  0.00000000000E+00  0.00000000000E+00 -0.20203954259E+04  0.20203954259E+04  0.25500000920E-02 0.  1.
    10030    2    1    2    0    0  0.00000000000E+00  0.00000000000E+00 -0.61492095843E+03  0.34258698935E+04  0.33702309627E+04 0.  0.
        1    1    3    3  502    0 -0.14732559645E+04 -0.25445109523E+03 -0.10977173623E+04  0.18547808239E+04  0.50400001928E-02 0.  1.
       -1    1    3    3    0  502  0.14732559645E+04  0.25445109523E+03  0.48279640392E+03  0.15710890696E+04  0.50400001928E-02 0. -1.
</event>
<event>
 5   0  0.2622205E-07  0.3405257E+04  0.7818609E-02  0.8136617E-01
        1   -1    0    0  501    0  0.00000000000E+00  0.00000000000E+00  0.28061212176E+04  0.28061212176E+04  0.50400001928E-02 0. -1.
       -1   -1    0    0    0  501  0.00000000000E+00  0.00000000000E+00 -0.10330787161E+04  0.10330787161E+04  0.50400001928E-02 0.  1.
    10030    2    1    2    0    0  0.00000000000E+00  0.00000000000E+00  0.17730425016E+04  0.38391999337E+04  0.34052571737E+04 0.  0.
        3    1    3    3  502    0 -0.15346328054E+04  0.66197904496E+03  0.12529456920E+04  0.20888243155E+04  0.10100000352E+00 0.  1.
       -3    1    3    3    0  502  0.15346328054E+04 -0.66197904496E+03  0.52009680955E+03  0.17503756183E+04  0.10100000352E+00 0. -1.
</event>
<event>
 5   0  0.2592200E-07  0.3514648E+04  0.7818609E-02  0.8110327E-01
        1   -1    0    0  501    0  0.00000000000E+00  0.00000000000E+00  0.21910101912E+04  0.21910101912E+04  0.50400001928E-02 0.  1.
       -1   -1    0    0    0  501  0.00000000000E+00  0.00000000000E+00 -0.14094807956E+04  0.14094807956E+04  0.50400001928E-02 0. -1.
    10030    2    1    2    0    0  0.00000000000E+00  0.00000000000E+00  0.78152939560E+03  0.36004909868E+04  0.35146475143E+04 0.  0.
        4    1    3    3  502    0  0.12757633746E+04  0.11899088000E+04  0.60742511108E+03  0.18472742132E+04  0.12699999809E+01 0. -1.
       -4    1    3    3    0  502 -0.12757633746E+04 -0.11899088000E+04  0.17410428453E+03  0.17532167736E+04  0.12699999809E+01 0.  1.
</event>
<event>
 5   0  0.2592200E-07  0.3413291E+04  0.7818609E-02  0.8134652E-01
        1   -1    0    0  501    0  0.00000000000E+00  0.00000000000E+00  0.13070773627E+04  0.13070773628E+04  0.50400001928E-02 0.  1.
       -1   -1    0    0    0  501  0.00000000000E+00  0.00000000000E+00 -0.22283603836E+04  0.22283603836E+04  0.50400001928E-02 0. -1.
    10030    2    1    2    0    0  0.00000000000E+00  0.00000000000E+00 -0.92128302089E+03  0.35354377464E+04  0.34132913228E+04 0.  0.
        4    1    3    3  502    0 -0.14607091059E+04 -0.25064735389E+03 -0.13371771840E+04  0.19961311636E+04  0.12699999809E+01 0. -1.
       -4    1    3    3    0  502  0.14607091059E+04  0.25064735389E+03  0.41589416307E+03  0.15393065828E+04  0.12699999809E+01 0.  1.
</event>
<event>
 5   0  0.2592200E-07  0.3422571E+04  0.7818609E-02  0.8132389E-01
       -1   -1    0    0    0  501  0.00000000000E+00  0.00000000000E+00  0.16006742936E+04  0.16006742936E+04  0.50400001928E-02 0.  1.
        1   -1    0    0  501    0  0.00000000000E+00  0.00000000000E+00 -0.18295405806E+04  0.18295405806E+04  0.50400001928E-02 0. -1.
    10030    2    1    2    0    0  0.00000000000E+00  0.00000000000E+00 -0.22886628698E+03  0.34302148742E+04  0.34225713003E+04 0.  0.
        4    1    3    3  502    0 -0.83949288260E+03 -0.10395265510E+04 -0.11859949929E+04  0.17866027780E+04  0.12699999809E+01 0. -1.
       -4    1    3    3    0  502  0.83949288260E+03  0.10395265510E+04  0.95712870592E+03  0.16436120962E+04  0.12699999809E+01 0.  1.
</event>
<event>
 5   0  0.2622205E-07  0.3388074E+04  0.7818609E-02  0.8140839E-01
        1   -1    0    0  501    0  0.00000000000E+00  0.00000000000E+00  0.16954603519E+04  0.16954603519E+04  0.50400001928E-02 0.  1.
       -1   -1    0    0    0  501  0.00000000000E+00  0.00000000000E+00 -0.16926153216E+04  0.16926153216E+04  0.50400001928E-02 0. -1.
    10030    2    1    2    0    0  0.00000000000E+00  0.00000000000E+00  0.28450302715E+01  0.33880756735E+04  0.33880744790E+04 0.  0.
        3    1    3    3  502    0 -0.13081738890E+03  0.15467076377E+04  0.67990963909E+03  0.16946075750E+04  0.10100000352E+00 0.  1.
       -3    1    3    3    0  502  0.13081738890E+03 -0.15467076377E+04 -0.67706460882E+03  0.16934680985E+04  0.10100000352E+00 0. -1.
</event>
<event>
 5   0  0.7822003E-07  0.3383467E+04  0.7818609E-02  0.8141976E-01
        2   -1    0    0  501    0  0.00000000000E+00  0.00000000000E+00  0.22753758006E+04  0.22753758007E+04  0.25500000920E-02 0. -1.
       -2   -1    0    0    0  501  0.00000000000E+00  0.00000000000E+00 -0.12577975031E+04  0.12577975032E+04  0.25500000920E-02 0.  1.
    10030    2    1    2    0    0  0.00000000000E+00  0.00000000000E+00  0.10175782975E+04  0.35331733038E+04  0.33834668615E+04 0.  0.
        5    1    3    3  502    0 -0.79549004180E+03 -0.12258283551E+04 -0.38126196591E+03  0.15102457877E+04  0.46999998093E+01 0.  1.
       -5    1    3    3    0  502  0.79549004180E+03  0.12258283551E+04  0.13988402634E+04  0.20229275161E+04  0.46999998093E+01 0. -1.
</event>
<event>
 5   0  0.7899402E-07  0.3390001E+04  0.7818609E-02  0.8140365E-01
        2   -1    0    0  501    0  0.00000000000E+00  0.00000000000E+00  0.24798177864E+04  0.24798177864E+04  0.25500000920E-02 0.  1.
       -2   -1    0    0    0  501  0.00000000000E+00  0.00000000000E+00 -0.11585632914E+04  0.11585632914E+04  0.25500000920E-02 0. -1.
    10030    2    1    2    0    0  0.00000000000E+00  0.00000000000E+00  0.13212544950E+04  0.36383810779E+04  0.33900005055E+04 0.  0.
        2    1    3    3  502    0 -0.11744220879E+03  0.27516450606E+03  0.24512554213E+04  0.24694455487E+04  0.25500000920E-02 0.  1.
       -2    1    3    3    0  502  0.11744220879E+03 -0.27516450606E+03 -0.11300009263E+04  0.11689355291E+04  0.25500000920E-02 0. -1.
</event>
<event>
 5   0  0.2599367E-07  0.3391834E+04  0.7818609E-02  0.8139914E-01
       -1   -1    0    0    0  501  0.00000000000E+00  0.00000000000E+00  0.13490304872E+04  0.13490304873E+04  0.50400001928E-02 0.  1.
        1   -1    0    0  501    0  0.00000000000E+00  0.00000000000E+00 -0.21320004984E+04  0.21320004984E+04  0.50400001928E-02 0. -1.
    10030    2    1    2    0    0  0.00000000000E+00  0.00000000000E+00 -0.78297001118E+03  0.34810309857E+04  0.33918335285E+04 0.  0.
        2    1    3    3  502    0 -0.97613424325E+03  0.19909302975E+03 -0.18000417210E+04  0.20573347547E+04  0.25500000920E-02 0. -1.
       -2    1    3    3    0  502  0.97613424325E+03 -0.19909302975E+03  0.10170717098E+04  0.14236962310E+04  0.25500000920E-02 0.  1.
</event>
<event>
 5   0  0.2641442E-07  0.3414273E+04  0.7818609E-02  0.8134412E-01
       -1   -1    0    0    0  501  0.00000000000E+00  0.00000000000E+00  0.18447429419E+04  0.18447429419E+04  0.50400001928E-02 0.  1.
        1   -1    0    0  501    0  0.00000000000E+00  0.00000000000E+00 -0.15797947586E+04  0.15797947586E+04  0.50400001928E-02 0. -1.
    10030    2    1    2    0    0  0.00000000000E+00  0.00000000000E+00  0.26494818332E+03  0.34245377005E+04  0.34142731177E+04 0.  0.
        1    1    3    3  502    0 -0.11452019472E+04  0.62344965770E+03 -0.97271798975E+03  0.16267628171E+04  0.50400001928E-02 0. -1.
       -1    1    3    3    0  502  0.11452019472E+04 -0.62344965770E+03  0.12376661731E+04  0.17977748834E+04  0.50400001928E-02 0.  1.
</event>
<event>
 5   0  0.2622205E-07  0.3397523E+04  0.7818609E-02  0.8138514E-01
        1   -1    0    0  501    0  0.00000000000E+00  0.00000000000E+00  0.13810764093E+04  0.13810764093E+04  0.50400001928E-02 0. -1.
       -1   -1    0    0    0  501  0.00000000000E+00  0.00000000000E+00 -0.20895230436E+04  0.20895230436E+04  0.50400001928E-02 0.  1.
    10030    2    1    2    0    0  0.00000000000E+00  0.00000000000E+00 -0.70844663431E+03  0.34705994529E+04  0.33975232050E+04 0.  0.
        3    1    3    3  502    0 -0.99665117267E+03  0.14599439475E+03  0.10431031287E+04  0.14500662297E+04  0.10100000352E+00 0. -1.
       -3    1    3    3    0  502  0.99665117267E+03 -0.14599439475E+03 -0.17515497630E+04  0.20205332231E+04  0.10100000352E+00 0.  1.
</event>
<event>
 5   0  0.2641442E-07  0.3392763E+04  0.7818609E-02  0.8139685E-01
       -1   -1    0    0    0  501  0.00000000000E+00  0.00000000000E+00  0.21104894198E+04  0.21104894198E+04  0.50400001928E-02 0.  1.
        1   -1    0    0  501    0  0.00000000000E+00  0.00000000000E+00 -0.13635273554E+04  0.13635273554E+04  0.50400001928E-02 0. -1.
    10030    2    1    2    0    0  0.00000000000E+00  0.00000000000E+00  0.74696206441E+03  0.34740167752E+04  0.33927629196E+04 0.  0.
        1    1    3    3  502    0 -0.65999484314E+03  0.83364136224E+03 -0.97997641498E+03  0.14459961576E+04  0.50400001928E-02 0. -1.
       -1    1    3    3    0  502  0.65999484314E+03 -0.83364136224E+03  0.17269384794E+04  0.20280206176E+04  0.50400001928E-02 0.  1.
</event>
<event>
 5   0  0.2592200E-07  0.3372403E+04  0.7818609E-02  0.8144713E-01
       -1   -1    0    0    0  501  0.00000000000E+00  0.00000000000E+00  0.24330060860E+04  0.24330060860E+04  0.50400001928E-02 0. -1.
        1   -1    0    0  501    0  0.00000000000E+00  0.00000000000E+00 -0.11686266045E+04  0.11686266045E+04  0.50400001928E-02 0.  1.
    10030    2    1    2    0    0  0.00000000000E+00  0.00000000000E+00  0.12643794815E+04  0.36016326905E+04  0.33724030844E+04 0.  0.
        4    1    3    3  502    0 -0.34458254026E+02  0.60645070743E+03 -0.10477220860E+04  0.12110710194E+04  0.12699999809E+01 0.  1.
       -4    1    3    3    0  502  0.34458254026E+02 -0.60645070743E+03  0.23121015675E+04  0.23905616711E+04  0.12699999809E+01 0. -1.
</event>
<event>
 5   0  0.2592200E-07  0.3380094E+04  0.7818609E-02  0.8142809E-01
       -1   -1    0    0    0  501  0.00000000000E+00  0.00000000000E+00  0.14047315820E+04  0.14047315820E+04  0.50400001928E-02 0.  1.
        1   -1    0    0  501    0  0.00000000000E+00  0.00000000000E+00 -0.20333124265E+04  0.20333124265E+04  0.50400001928E-02 0. -1.
    10030    2    1    2    0    0  0.00000000000E+00  0.00000000000E+00 -0.62858084447E+03  0.34380440085E+04  0.33800935972E+04 0.  0.
        4    1    3    3  502    0  0.15087584006E+04 -0.76125546321E+03 -0.29408077749E+03  0.17153270557E+04  0.12699999809E+01 0. -1.
       -4    1    3    3    0  502 -0.15087584006E+04  0.76125546321E+03 -0.33450006699E+03  0.17227169527E+04  0.12699999809E+01 0.  1.
</event>
<event>
 5   0  0.2622205E-07  0.3414238E+04  0.7818609E-02  0.8134421E-01
       -1   -1    0    0    0  501  0.00000000000E+00  0.00000000000E+00  0.11976020197E+04  0.11976020197E+04  0.50400001928E-02 0.  1.
        1   -1    0    0  501    0  0.00000000000E+00  0.00000000000E+00 -0.24334094249E+04  0.24334094249E+04  0.50400001928E-02 0. -1.
    10030    2    1    2    0    0  0.00000000000E+00  0.00000000000E+00 -0.12358074052E+04  0.36310114447E+04  0.34142384463E+04 0.  0.
        3    1    3    3  502    0  0.90771256564E+03 -0.77612194620E+03 -0.19151658375E+04  0.22570262675E+04  0.10100000352E+00 0. -1.
       -3    1    3    3    0  502 -0.90771256564E+03  0.77612194620E+03  0.67935843228E+03  0.13739851771E+04  0.10100000352E+00 0.  1.
</event>
<event>
 5   0  0.7899402E-07  0.3401481E+04  0.7818609E-02  0.8137543E-01
        2   -1    0    0  501    0  0.00000000000E+00  0.00000000000E+00  0.21651997556E+04  0.21651997556E+04  0.25500000920E-02 0. -1.
       -2   -1    0    0    0  501  0.00000000000E+00  0.00000000000E+00 -0.13359131148E+04  0.13359131148E+04  0.25500000920E-02 0.  1.
    10030    2    1    2    0    0  0.00000000000E+00  0.00000000000E+00  0.82928664080E+03  0.35011128704E+04  0.34014812948E+04 0.  0.
        2    1    3    3  502    0  0.23607701002E+03 -0.14184263842E+04 -0.52017303214E+03  0.15291323505E+04  0.25500000920E-02 0.  1.
       -2    1    3    3    0  502 -0.23607701002E+03  0.14184263842E+04  0.13494596729E+04  0.19719805199E+04  0.25500000920E-02 0. -1.
</event>
<event>
 5   0  0.2553250E-07  0.3402987E+04  0.7818609E-02  0.8137174E-01
        1   -1    0    0  501    0  0.00000000000E+00  0.00000000000E+00  0.30370708811E+04  0.30370708811E+04  0.50400001928E-02 0.  1.
       -1   -1    0    0    0  501  0.00000000000E+00  0.00000000000E+00 -0.95324769559E+03  0.95324769561E+03  0.50400001928E-02 0. -1.
    10030    2    1    2    0    0  0.00000000000E+00  0.00000000000E+00  0.20838231855E+04  0.39903185767E+04  0.34029874045E+04 0.  0.
        5    1    3    3  502    0 -0.15981812316E+04 -0.58342273659E+03  0.10158655058E+04  0.19815575072E+04  0.46999998093E+01 0. -1.
       -5    1    3    3    0  502  0.15981812316E+04  0.58342273659E+03  0.10679576797E+04  0.20087610695E+04  0.46999998093E+01 0.  1.
</event>
<event>
 5   0  0.7838333E-07  0.3413068E+04  0.7818609E-02  0.8134706E-01
       -2   -1    0    0    0  501  0.00000000000E+00  0.00000000000E+00  0.15243078287E+04  0.15243078287E+04  0.25500000920E-02 0.  1.
        2   -1    0    0  501    0  0.00000000000E+00  0.00000000000E+00 -0.19105448564E+04  0.19105448564E+04  0.25500000920E-02 0. -1.
    10030    2    1    2    0    0  0.00000000000E+00  0.00000000000E+00 -0.38623702771E+03  0.34348526851E+04  0.34130681105E+04 0.  0.
        1    1    3    3  502    0 -0.16337483457E+04  0.34963114428E+03 -0.54301982786E+03  0.17567715069E+04  0.50400001928E-02 0. -1.
       -1    1    3    3    0  502  0.16337483457E+04 -0.34963114428E+03  0.15678280015E+03  0.16780811782E+04  0.50400001928E-02 0.  1.
</event>
<event>
 5   0  0.2622205E-07  0.3408044E+04  0.7818609E-02  0.8135935E-01
        1   -1    0    0  501    0  0.00000000000E+00  0.00000000000E+00  0.13906130541E+04  0.13906130541E+04  0.50400001928E-02 0.  1.
       -1   -1    0    0    0  501  0.00000000000E+00  0.00000000000E+00 -0.20880657501E+04  0.20880657501E+04  0.50400001928E-02 0. -1.
    10030    2    1    2    0    0  0.00000000000E+00  0.00000000000E+00 -0.69745269601E+03  0.34786788043E+04  0.34080443014E+04 0.  0.
        3    1    3    3  502    0  0.66098231399E+03 -0.29975662981E+03  0.12249600567E+04  0.14238254132E+04  0.10100000352E+00 0.  1.
       -3    1    3    3    0  502 -0.66098231399E+03  0.29975662981E+03 -0.19224127527E+04  0.20548533910E+04  0.10100000352E+00 0. -1.
</event>
<event>
 5   0  0.7838333E-07  0.3316991E+04  0.7818609E-02  0.8158586E-01
        2   -1    0    0  501    0  0.00000000000E+00  0.00000000000E+00  0.22573780574E+04  0.22573780574E+04  0.25500000920E-02 0.  1.
       -2   -1    0    0    0  501  0.00000000000E+00  0.00000000000E+00 -0.12184963558E+04  0.12184963558E+04  0.25500000920E-02 0. -1.
    10030    2    1    2    0    0  0.00000000000E+00  0.00000000000E+00  0.10388817016E+04  0.34758744132E+04  0.33169907667E+04 0.  0.
        1    1    3    3  502    0 -0.34322591237E+03 -0.15371219446E+04  0.10640051565E+04  0.19006985223E+04  0.50400001928E-02 0.  1.
       -1    1    3    3    0  502  0.34322591237E+03  0.15371219446E+04 -0.25123454867E+02  0.15751758910E+04  0.50400001928E-02 0. -1.
</event>
<event>
 5   0  0.2641442E-07  0.3306684E+04  0.7818609E-02  0.8161197E-01
       -1   -1    0    0    0  501  0.00000000000E+00  0.00000000000E+00  0.12705614066E+04  0.12705614067E+04  0.50400001928E-02 0.  1.
        1   -1    0    0  501    0  0.00000000000E+00  0.00000000000E+00 -0.21514418564E+04  0.21514418564E+04  0.50400001928E-02 0. -1.
    10030    2    1    2    0    0  0.00000000000E+00  0.00000000000E+00 -0.88088044971E+03  0.34220032630E+04  0.33066835297E+04 0.  0.
        1    1    3    3  502    0 -0.20826243653E+03  0.15365037453E+04 -0.10343194761E+04  0.18638760100E+04  0.50400001928E-02 0. -1.
       -1    1    3    3    0  502  0.20826243653E+03 -0.15365037453E+04  0.15343902644E+03  0.15581272530E+04  0.50400001928E-02 0.  1.
</event>
<event>
 5   0  0.7822003E-07  0.3398146E+04  0.7818609E-02  0.8138361E-01
        2   -1    0    0  501    0  0.00000000000E+00  0.00000000000E+00  0.17809920208E+04  0.17809920208E+04  0.25500000920E-02 0.  1.
       -2   -1    0    0    0  501  0.00000000000E+00  0.00000000000E+00 -0.16209222810E+04  0.16209222810E+04  0.25500000920E-02 0. -1.
    10030    2    1    2    0    0  0.00000000000E+00  0.00000000000E+00  0.16006973986E+03  0.34019143018E+04  0.33981463469E+04 0.  0.
        5    1    3    3  502    0 -0.85850307822E+03 -0.70615953541E+03  0.13664261079E+04  0.17614855160E+04  0.46999998093E+01 0.  1.
       -5    1    3    3    0  502  0.85850307822E+03  0.70615953541E+03 -0.12063563680E+04  0.16404287858E+04  0.46999998093E+01 0. -1.
</event>
<event>
 5   0  0.2599367E-07  0.3334275E+04  0.7818609E-02  0.8154228E-01
        1   -1    0    0  501    0  0.00000000000E+00  0.00000000000E+00  0.17183924984E+04  0.17183924984E+04  0.50400001928E-02 0.  1.
       -1   -1    0    0    0  501  0.00000000000E+00  0.00000000000E+00 -0.16174117391E+04  0.16174117391E+04  0.50400001928E-02 0. -1.
    10030    2    1    2    0    0  0.00000000000E+00  0.00000000000E+00  0.10098075928E+03  0.33358042376E+04  0.33342754532E+04 0.  0.
        2    1    3    3  502    0  0.79630810631E+03  0.88493629477E+03 -0.11171477184E+04  0.16325556256E+04  0.25500000920E-02 0. -1.
       -2    1    3    3    0  502 -0.79630810631E+03 -0.88493629477E+03  0.12181284777E+04  0.17032486120E+04  0.25500000920E-02 0.  1.
</event>
<event>
 5   0  0.8489228E-07  0.3529016E+04  0.7818609E-02  0.8106948E-01
        2   -1    0    0  501    0  0.00000000000E+00  0.00000000000E+00  0.23187420779E+04  0.23187420779E+04  0.25500000920E-02 0. -1.
       -2   -1    0    0    0  501  0.00000000000E+00  0.00000000000E+00 -0.13427490400E+04  0.13427490400E+04  0.25500000920E-02 0.  1.
    10030    2    1    2    0    0  0.00000000000E+00  0.00000000000E+00  0.97599303791E+03  0.36614911179E+04  0.35290161230E+04 0.  0.
        3    1    3    3  502    0  0.42846277088E+03 -0.60196187403E+03 -0.11745117652E+04  0.13875937231E+04  0.10100000352E+00 0.  1.
       -3    1    3    3    0  502 -0.42846277088E+03  0.60196187403E+03  0.21505048031E+04  0.22738973948E+04  0.10100000352E+00 0. -1.
</event>
<event>
 5   0  0.7899402E-07  0.3395984E+04  0.7818609E-02  0.8138893E-01
        2   -1    0    0  501    0  0.00000000000E+00  0.00000000000E+00  0.14816204460E+04  0.14816204460E+04  0.25500000920E-02 0. -1.
       -2   -1    0    0    0  501  0.00000000000E+00  0.00000000000E+00 -0.19459619219E+04  0.19459619219E+04  0.25500000920E-02 0.  1.
    10030    2    1    2    0    0  0.00000000000E+00  0.00000000000E+00 -0.46434147589E+03  0.34275823679E+04  0.33959840816E+04 0.  0.
        2    1    3    3  502    0 -0.78726718180E+03 -0.50325100301E+03  0.11988102748E+04  0.15199333086E+04  0.25500000920E-02 0. -1.
       -2    1    3    3    0  502  0.78726718180E+03  0.50325100301E+03 -0.16631517507E+04  0.19076490593E+04  0.25500000920E-02 0.  1.
</event>
<event>
 5   0  0.2599367E-07  0.3392379E+04  0.7818609E-02  0.8139779E-01
        1   -1    0    0  501    0  0.00000000000E+00  0.00000000000E+00  0.15113361398E+04  0.15113361398E+04  0.50400001928E-02 0.  1.
       -1   -1    0    0    0  501  0.00000000000E+00  0.00000000000E+00 -0.19036519386E+04  0.19036519386E+04  0.50400001928E-02 0. -1.
    10030    2    1    2    0    0  0.00000000000E+00  0.00000000000E+00 -0.39231579878E+03  0.34149880784E+04  0.33923785004E+04 0.  0.
        2    1    3    3  502    0  0.74546682394E+03  0.45538283376E+03  0.12674800068E+04  0.15393504729E+04  0.25500000920E-02 0.  1.
       -2    1    3    3    0  502 -0.74546682394E+03 -0.45538283376E+03 -0.16597958056E+04  0.18756376055E+04  0.25500000920E-02 0. -1.
</event>
<event>
 5   0  0.7822003E-07  0.3391729E+04  0.7818609E-02  0.8139939E-01
       -2   -1    0    0    0  501  0.00000000000E+00  0.00000000000E+00  0.19068920911E+04  0.19068920911E+04  0.25500000920E-02 0.  1.
        2   -1    0    0  501    0  0.00000000000E+00  0.00000000000E+00 -0.15081905470E+04  0.15081905470E+04  0.25500000920E-02 0. -1.
    10030    2    1    2    0    0  0.00000000000E+00  0.00000000000E+00  0.39870154408E+03  0.34150826381E+04  0.33917291318E+04 0.  0.
        5    1    3    3  502    0 -0.45240258373E+03  0.70181230795E+03  0.16855647992E+04  0.18810527360E+04  0.46999998093E+01 0.  1.
       -5    1    3    3    0  502  0.45240258373E+03 -0.70181230795E+03 -0.12868632551E+04  0.15340299021E+04  0.46999998093E+01 0. -1.
</event>
<event>
 5   0  0.7822003E-07  0.3418501E+04  0.7818609E-02  0.8133380E-01
        2   -1    0    0  501    0  0.00000000000E+00  0.00000000000E+00  0.22059523463E+04  0.22059523463E+04  0.25500000920E-02 0. -1.
       -2   -1    0    0    0  501  0.00000000000E+00  0.00000000000E+00 -0.13243885923E+04  0.13243885923E+04  0.25500000920E-02 0.  1.
    10030    2    1    2    0    0  0.00000000000E+00  0.00000000000E+00  0.88156375399E+03  0.35303409386E+04  0.34185014978E+04 0.  0.
        5    1    3    3  502    0 -0.92238896090E+02  0.40877659151E+03  0.21520734090E+04  0.21924982015E+04  0.46999998093E+01 0. -1.
       -5    1    3    3    0  502  0.92238896090E+02 -0.40877659151E+03 -0.12705096550E+04  0.13378427371E+04  0.46999998093E+01 0.  1.
</event>
<event>
 5   0  0.8489228E-07  0.3394816E+04  0.7818609E-02  0.8139180E-01
        2   -1    0    0  501    0  0.00000000000E+00  0.00000000000E+00  0.21932708011E+04  0.21932708011E+04  0.25500000920E-02 0.  1.
       -2   -1    0    0    0  501  0.00000000000E+00  0.00000000000E+00 -0.13136520583E+04  0.13136520583E+04  0.25500000920E-02 0. -1.
    10030    2    1    2    0    0  0.00000000000E+00  0.00000000000E+00  0.87961874274E+03  0.35069228594E+04  0.33948164618E+04 0.  0.
        3    1    3    3  502    0 -0.46240901267E+03 -0.57851369162E+03 -0.11379430187E+04  0.13577240185E+04  0.10100000352E+00 0. -1.
       -3    1    3    3    0  502  0.46240901267E+03  0.57851369162E+03  0.20175617614E+04  0.21491988409E+04  0.10100000352E+00 0.  1.
</event>
<event>
 5   0  0.7838333E-07  0.3375718E+04  0.7818609E-02  0.8143892E-01
        2   -1    0    0  501    0  0.00000000000E+00  0.00000000000E+00  0.21961321244E+04  0.21961321244E+04  0.25500000920E-02 0. -1.
       -2   -1    0    0    0  501  0.00000000000E+00  0.00000000000E+00 -0.12972207647E+04  0.12972207647E+04  0.25500000920E-02 0.  1.
    10030    2    1    2    0    0  0.00000000000E+00  0.00000000000E+00  0.89891135968E+03  0.34933528891E+04  0.33757181125E+04 0.  0.
        1    1    3    3  502    0  0.67290733247E+03 -0.51781365229E+02  0.20504225703E+04  0.21586380671E+04  0.50400001928E-02 0. -1.
       -1    1    3    3    0  502 -0.67290733247E+03  0.51781365229E+02 -0.11515112106E+04  0.13347148220E+04  0.50400001928E-02 0.  1.
</event>
<event>
 5   0  0.2553250E-07  0.3397411E+04  0.7818609E-02  0.8138542E-01
        1   -1    0    0  501    0  0.00000000000E+00  0.00000000000E+00  0.18641180784E+04  0.18641180784E+04  0.50400001928E-02 0.  1.
       -1   -1    0    0    0  501  0.00000000000E+00  0.00000000000E+00 -0.15479707663E+04  0.15479707663E+04  0.50400001928E-02 0. -1.
    10030    2    1    2    0    0  0.00000000000E+00  0.00000000000E+00  0.31614731207E+03  0.34120888447E+04  0.33974109497E+04 0.  0.
        5    1    3    3  502    0  0.11880248544E+04 -0.10194038561E+04  0.82046148889E+03  0.17674180098E+04  0.46999998093E+01 0.  1.
       -5    1    3    3    0  502 -0.11880248544E+04  0.10194038561E+04 -0.50431417682E+03  0.16446708350E+04  0.46999998093E+01 0. -1.
</event>
<event>
 5   0  0.2641442E-07  0.3400018E+04  0.7818609E-02  0.8137902E-01
        1   -1    0    0  501    0  0.00000000000E+00  0.00000000000E+00  0.19317905843E+04  0.19317905843E+04  0.50400001928E-02 0. -1.
       -1   -1    0    0    0  501  0.00000000000E+00  0.00000000000E+00 -0.14960376015E+04  0.14960376015E+04  0.50400001928E-02 0.  1.
    10030    2    1    2    0    0  0.00000000000E+00  0.00000000000E+00  0.43575298282E+03  0.34278281858E+04  0.34000184425E+04 0.  0.
        1    1    3    3  502    0  0.10353561054E+04  0.35852475154E+03  0.15283269574E+04  0.18805014096E+04  0.50400001928E-02 0. -1.
       -1    1    3    3    0  502 -0.10353561054E+04 -0.35852475154E+03 -0.10925739746E+04  0.15473267763E+04  0.50400001928E-02 0.  1.
</event>
<event>
 5   0  0.7899402E-07  0.3377267E+04  0.7818609E-02  0.8143508E-01
       -2   -1    0    0    0  501  0.00000000000E+00  0.00000000000E+00  0.10974209156E+04  0.10974209156E+04  0.25500000920E-02 0. -1.
        2   -1    0    0  501    0  0.00000000000E+00  0.00000000000E+00 -0.25983498579E+04  0.25983498579E+04  0.25500000920E-02 0.  1.
    10030    2    1    2    0    0  0.00000000000E+00  0.00000000000E+00 -0.15009289423E+04  0.36957707734E+04  0.33772672266E+04 0.  0.
        2    1    3    3  502    0 -0.10599017952E+04  0.10849650733E+04 -0.15627200834E+04  0.21777591889E+04  0.25500000920E-02 0.  1.
       -2    1    3    3    0  502  0.10599017952E+04 -0.10849650733E+04  0.61791141052E+02  0.15180115846E+04  0.25500000920E-02 0. -1.
</event>
<event>
 5   0  0.2599367E-07  0.3381092E+04  0.7818609E-02  0.8142563E-01
        1   -1    0    0  501    0  0.00000000000E+00  0.00000000000E+00  0.20333316013E+04  0.20333316013E+04  0.50400001928E-02 0. -1.
       -1   -1    0    0    0  501  0.00000000000E+00  0.00000000000E+00 -0.14055482984E+04  0.14055482984E+04  0.50400001928E-02 0.  1.
    10030    2    1    2    0    0  0.00000000000E+00  0.00000000000E+00  0.62778330293E+03  0.34388798998E+04  0.33810919966E+04 0.  0.
        2    1    3    3  502    0 -0.22703901766E+03 -0.11504967239E+04  0.15523885307E+04  0.19455332373E+04  0.25500000920E-02 0. -1.
       -2    1    3    3    0  502  0.22703901766E+03  0.11504967239E+04 -0.92460522774E+03  0.14933466625E+04  0.25500000920E-02 0.  1.
</event>
<event>
 5   0  0.7838333E-07  0.3527007E+04  0.7818609E-02  0.8107419E-01
        2   -1    0    0  501    0  0.00000000000E+00  0.00000000000E+00  0.13455302002E+04  0.13455302002E+04  0.25500000920E-02 0.  1.
       -2   -1    0    0    0  501  0.00000000000E+00  0.00000000000E+00 -0.23113148010E+04  0.23113148010E+04  0.25500000920E-02 0. -1.
    10030    2    1    2    0    0  0.00000000000E+00  0.00000000000E+00 -0.96578460080E+03  0.36568450011E+04  0.35270065873E+04 0.  0.
        1    1    3    3  502    0  0.13759870824E+04  0.28781780007E+03 -0.15868734974E+04  0.21199875079E+04  0.50400001928E-02 0. -1.
       -1    1    3    3    0  502 -0.13759870824E+04 -0.28781780007E+03  0.62108889659E+03  0.15368574932E+04  0.50400001928E-02 0.  1.
</event>
<event>
 5   0  0.7822003E-07  0.3408142E+04  0.7818609E-02  0.8135911E-01
        2   -1    0    0  501    0  0.00000000000E+00  0.00000000000E+00  0.21395233597E+04  0.21395233597E+04  0.25500000920E-02 0. -1.
       -2   -1    0    0    0  501  0.00000000000E+00  0.00000000000E+00 -0.13572452219E+04  0.13572452219E+04  0.25500000920E-02 0.  1.
    10030    2    1    2    0    0  0.00000000000E+00  0.00000000000E+00  0.78227813784E+03  0.34967685817E+04  0.34081419320E+04 0.  0.
        5    1    3    3  502    0 -0.10099321082E+04 -0.10809228636E+04  0.12589948550E+04  0.19425362893E+04  0.46999998093E+01 0. -1.
       -5    1    3    3    0  502  0.10099321082E+04  0.10809228636E+04 -0.47671671718E+03  0.15542322924E+04  0.46999998093E+01 0.  1.
</event>
<event>
 5   0  0.2622205E-07  0.3424962E+04  0.7818609E-02  0.8131807E-01
        1   -1    0    0  501    0  0.00000000000E+00  0.00000000000E+00  0.13978467367E+04  0.13978467368E+04  0.50400001928E-02 0.  1.
       -1   -1    0    0    0  501  0.00000000000E+00  0.00000000000E+00 -0.20979351673E+04  0.20979351673E+04  0.50400001928E-02 0. -1.
    10030    2    1    2    0    0  0.00000000000E+00  0.00000000000E+00 -0.70008843053E+03  0.34957819040E+04  0.34249623808E+04 0.  0.
        3    1    3    3  502    0  0.85756238909E+03 -0.45695949202E+03  0.10892074901E+04  0.14596568759E+04  0.10100000352E+00 0.  1.
       -3    1    3    3    0  502 -0.85756238909E+03  0.45695949202E+03 -0.17892959206E+04  0.20361250282E+04  0.10100000352E+00 0. -1.
</event>
<event>
 5   0  0.2553250E-07  0.3212292E+04  0.7818609E-02  0.8185578E-01
        1   -1    0    0  501    0  0.00000000000E+00  0.00000000000E+00  0.17588612784E+04  0.17588612784E+04  0.50400001928E-02 0.  1.
       -1   -1    0    0    0  501  0.00000000000E+00  0.00000000000E+00 -0.14666908061E+04  0.14666908061E+04  0.50400001928E-02 0. -1.
    10030    2    1    2    0    0  0.00000000000E+00  0.00000000000E+00  0.29217047230E+03  0.32255520845E+04  0.32122924315E+04 0.  0.
        5    1    3    3  502    0  0.15324659445E+04 -0.34610442560E+03  0.48129466271E+03  0.16431393084E+04  0.46999998093E+01 0.  1.
       -5    1    3    3    0  502 -0.15324659445E+04  0.34610442560E+03 -0.18912419041E+03  0.15824127761E+04  0.46999998093E+01 0. -1.
</event>
<event>
 5   0  0.7838333E-07  0.3402106E+04  0.7818609E-02  0.8137390E-01
        2   -1    0    0  501    0  0.00000000000E+00  0.00000000000E+00  0.23213701480E+04  0.23213701480E+04  0.25500000920E-02 0.  1.
       -2   -1    0    0    0  501  0.00000000000E+00  0.00000000000E+00 -0.12464973260E+04  0.12464973260E+04  0.25500000920E-02 0. -1.
    10030    2    1    2    0    0  0.00000000000E+00  0.00000000000E+00  0.10748728220E+04  0.35678674739E+04  0.34021062194E+04 0.  0.
        1    1    3    3  502    0  0.11861790340E+04 -0.10261670321E+04  0.12279568466E+04  0.19919632265E+04  0.50400001928E-02 0. -1.
       -1    1    3    3    0  502 -0.11861790340E+04  0.10261670321E+04 -0.15308402458E+03  0.15759042475E+04  0.50400001928E-02 0.  1.
</event>
<event>
 5   0  0.7610412E-07  0.3403437E+04  0.7818609E-02  0.8137063E-01
       -2   -1    0    0    0  501  0.00000000000E+00  0.00000000000E+00  0.13354832867E+04  0.13354832867E+04  0.25500000920E-02 0. -1.
        2   -1    0    0  501    0  0.00000000000E+00  0.00000000000E+00 -0.21683881924E+04  0.21683881924E+04  0.25500000920E-02 0.  1.
    10030    2    1    2    0    0  0.00000000000E+00  0.00000000000E+00 -0.83290490570E+03  0.35038714790E+04  0.34034371978E+04 0.  0.
        4    1    3    3  502    0 -0.80433196175E+03 -0.51830634791E+03 -0.18651935793E+04  0.20963158341E+04  0.12699999809E+01 0.  1.
       -4    1    3    3    0  502  0.80433196175E+03  0.51830634791E+03  0.10322886736E+04  0.14075556449E+04  0.12699999809E+01 0. -1.
</event>
<event>
 5   0  0.2599367E-07  0.3396133E+04  0.7818609E-02  0.8138856E-01
        1   -1    0    0  501    0  0.00000000000E+00  0.00000000000E+00  0.26571029276E+04  0.26571029276E+04  0.50400001928E-02 0.  1.
       -1   -1    0    0    0  501  0.00000000000E+00  0.00000000000E+00 -0.10851780199E+04  0.10851780199E+04  0.50400001928E-02 0. -1.
    10030    2    1    2    0    0  0.00000000000E+00  0.00000000000E+00  0.15719249077E+04  0.37422809476E+04  0.33961329148E+04 0.  0.
        2    1    3    3  502    0  0.11237573438E+04  0.11959324966E+04  0.12667154265E+04  0.20730781644E+04  0.25500000920E-02 0.  1.
       -2    1    3    3    0  502 -0.11237573438E+04 -0.11959324966E+04  0.30520948122E+03  0.16692027832E+04  0.25500000920E-02 0. -1.
</event>
<event>
 5   0  0.2592200E-07  0.3392248E+04  0.7818609E-02  0.8139811E-01
       -1   -1    0    0    0  501  0.00000000000E+00  0.00000000000E+00  0.11343320071E+04  0.11343320071E+04  0.50400001928E-02 0. -1.
        1   -1    0    0  501    0  0.00000000000E+00  0.00000000000E+00 -0.25361509795E+04  0.25361509795E+04  0.50400001928E-02 0.  1.
    10030    2    1    2    0    0  0.00000000000E+00  0.00000000000E+00 -0.14018189724E+04  0.36704829865E+04  0.33922483581E+04 0.  0.
        4    1    3    3  502    0  0.25311919792E+03 -0.37084962246E+03  0.10688599606E+04  0.11593368790E+04  0.12699999809E+01 0. -1.
       -4    1    3    3    0  502 -0.25311919792E+03  0.37084962246E+03 -0.24706789329E+04  0.25111461075E+04  0.12699999809E+01 0.  1.
</event>
<event>
 5   0  0.8489228E-07  0.3430611E+04  0.7818609E-02  0.8130434E-01
       -2   -1    0    0    0  501  0.00000000000E+00  0.00000000000E+00  0.14547263412E+04  0.14547263412E+04  0.25500000920E-02 0. -1.
        2   -1    0    0  501    0  0.00000000000E+00  0.00000000000E+00 -0.20225617193E+04  0.20225617193E+04  0.25500000920E-02 0.  1.
    10030    2    1    2    0    0  0.00000000000E+00  0.00000000000E+00 -0.56783537807E+03  0.34772880605E+04  0.34306114964E+04 0.  0.
        3    1    3    3  502    0 -0.67212747951E+00  0.44596575290E+03  0.13949355764E+04  0.14644900740E+04  0.10100000352E+00 0. -1.
       -3    1    3    3    0  502  0.67212747951E+00 -0.44596575290E+03 -0.19627709544E+04  0.20127979865E+04  0.10100000352E+00 0.  1.
</event>
<event>
 5   0  0.2641442E-07  0.3420892E+04  0.7818609E-02  0.8132798E-01
       -1   -1    0    0    0  501  0.00000000000E+00  0.00000000000E+00  0.23716186619E+04  0.23716186619E+04  0.50400001928E-02 0. -1.
        1   -1    0    0  501    0  0.00000000000E+00  0.00000000000E+00 -0.12335984155E+04  0.12335984155E+04  0.50400001928E-02 0.  1.
    10030    2    1    2    0    0  0.00000000000E+00  0.00000000000E+00  0.11380202464E+04  0.36052170774E+04  0.34208917104E+04 0.  0.
        1    1    3    3  502    0 -0.14142199868E+04 -0.82210164046E+02  0.15792255838E+04  0.21214924291E+04  0.50400001928E-02 0. -1.
       -1    1    3    3    0  502  0.14142199868E+04  0.82210164046E+02 -0.44120533742E+03  0.14837246483E+04  0.50400001928E-02 0.  1.
</event>
<event>
 5   0  0.7822003E-07  0.3398257E+04  0.7818609E-02  0.8138334E-01
        2   -1    0    0  501    0  0.00000000000E+00  0.00000000000E+00  0.27869747747E+04  0.27869747747E+04  0.25500000920E-02 0. -1.
       -2   -1    0    0    0  501  0.00000000000E+00  0.00000000000E+00 -0.10359040300E+04  0.10359040300E+04  0.25500000920E-02 0.  1.
    10030    2    1    2    0    0  0.00000000000E+00  0.00000000000E+00  0.17510707447E+04  0.38228788047E+04  0.33982574362E+04 0.  0.
        5    1    3    3  502    0 -0.85665642251E+03  0.49081624770E+03 -0.68009786236E+03  0.11988811482E+04  0.46999998093E+01 0.  1.
       -5    1    3    3    0  502  0.85665642251E+03 -0.49081624770E+03  0.24311686070E+04  0.26239976565E+04  0.46999998093E+01 0. -1.
</event>
<event>
 5   0  0.2599367E-07  0.3394938E+04  0.7818609E-02  0.8139150E-01
        1   -1    0    0  501    0  0.00000000000E+00  0.00000000000E+00  0.16202758935E+04  0.16202758935E+04  0.50400001928E-02 0. -1.
       -1   -1    0    0    0  501  0.00000000000E+00  0.00000000000E+00 -0.17783396614E+04  0.17783396614E+04  0.50400001928E-02 0.  1.
    10030    2    1    2    0    0  0.00000000000E+00  0.00000000000E+00 -0.15806376793E+03  0.33986155549E+04  0.33949379280E+04 0.  0.
        2    1    3    3  502    0 -0.10001422200E+03  0.14146099019E+04 -0.10129287582E+04  0.17427417159E+04  0.25500000920E-02 0.  1.
       -2    1    3    3    0  502  0.10001422200E+03 -0.14146099019E+04  0.85486499028E+03  0.16558738390E+04  0.25500000920E-02 0. -1.
</event>
<event>
 5   0  0.7838333E-07  0.3391012E+04  0.7818609E-02  0.8140116E-01
        2   -1    0    0  501    0  0.00000000000E+00  0.00000000000E+00  0.27398137051E+04  0.27398137051E+04  0.25500000920E-02 0. -1.
       -2   -1    0    0    0  501  0.00000000000E+00  0.00000000000E+00 -0.10492469210E+04  0.10492469210E+04  0.25500000920E-02 0.  1.
    10030    2    1    2    0    0  0.00000000000E+00  0.00000000000E+00  0.16905667841E+04  0.37890606261E+04  0.33910122938E+04 0.  0.
        1    1    3    3  502    0  0.11166235945E+04  0.12976145465E+03 -0.57298148384E+03  0.12617424728E+04  0.50400001928E-02 0.  1.
       -1    1    3    3    0  502 -0.11166235945E+04 -0.12976145465E+03  0.22635482679E+04  0.25273181533E+04  0.50400001928E-02 0. -1.
</event>
<event>
 5   0  0.7899402E-07  0.3401056E+04  0.7818609E-02  0.8137647E-01
        2   -1    0    0  501    0  0.00000000000E+00  0.00000000000E+00  0.19589410756E+04  0.19589410756E+04  0.25500000920E-02 0. -1.
       -2   -1    0    0    0  501  0.00000000000E+00  0.00000000000E+00 -0.14762033959E+04  0.14762033959E+04  0.25500000920E-02 0.  1.
    10030    2    1    2    0    0  0.00000000000E+00  0.00000000000E+00  0.48273767970E+03  0.34351444715E+04  0.34010559937E+04 0.  0.
        2    1    3    3  502    0 -0.78261339140E+03 -0.28042710372E+03  0.17397038311E+04  0.19281318681E+04  0.25500000920E-02 0. -1.
       -2    1    3    3    0  502  0.78261339140E+03  0.28042710372E+03 -0.12569661514E+04  0.15070126034E+04  0.25500000920E-02 0.  1.
</event>
<event>
 5   0  0.2553250E-07  0.3387214E+04  0.7818609E-02  0.8141051E-01
       -3   -1    0    0    0  501  0.00000000000E+00  0.00000000000E+00  0.12042780012E+04  0.12042780054E+04  0.10100000352E+00 0. -1.
        3   -1    0    0  501    0  0.00000000000E+00  0.00000000000E+00 -0.23817635578E+04  0.23817635599E+04  0.10100000352E+00 0.  1.
    10030    2    1    2    0    0  0.00000000000E+00  0.00000000000E+00 -0.11774855566E+04  0.35860415653E+04  0.33872144709E+04 0.  0.
        1    1    3    3  502    0  0.63264312448E+03 -0.61210130252E+03 -0.21205310766E+04  0.22959872330E+04  0.50400001928E-02 0.  1.
       -1    1    3    3    0  502 -0.63264312448E+03  0.61210130252E+03  0.94304551995E+03  0.12900543323E+04  0.50400001928E-02 0. -1.
</event>
<event>
 5   0  0.2592200E-07  0.3319323E+04  0.7818609E-02  0.8157996E-01
       -1   -1    0    0    0  501  0.00000000000E+00  0.00000000000E+00  0.15213394520E+04  0.15213394520E+04  0.50400001928E-02 0.  1.
        1   -1    0    0  501    0  0.00000000000E+00  0.00000000000E+00 -0.18105594631E+04  0.18105594631E+04  0.50400001928E-02 0. -1.
    10030    2    1    2    0    0  0.00000000000E+00  0.00000000000E+00 -0.28922001106E+03  0.33318989151E+04  0.33193225462E+04 0.  0.
        4    1    3    3  502    0 -0.46786929214E+03  0.15836731527E+04  0.22005635353E+02  0.16514866606E+04  0.12699999809E+01 0.  1.
       -4    1    3    3    0  502  0.46786929214E+03 -0.15836731527E+04 -0.31122564642E+03  0.16804122545E+04  0.12699999809E+01 0. -1.
</event>
<event>
 5   0  0.7610412E-07  0.3391964E+04  0.7818609E-02  0.8139881E-01
       -2   -1    0    0    0  501  0.00000000000E+00  0.00000000000E+00  0.16458899732E+04  0.16458899732E+04  0.25500000920E-02 0.  1.
        2   -1    0    0  501    0  0.00000000000E+00  0.00000000000E+00 -0.17475986835E+04  0.17475986835E+04  0.25500000920E-02 0. -1.
    10030    2    1    2    0    0  0.00000000000E+00  0.00000000000E+00 -0.10170871033E+03  0.33934886567E+04  0.33919641215E+04 0.  0.
        4    1    3    3  502    0  0.40364731496E+03  0.15893399141E+04 -0.48397042798E+03  0.17097255644E+04  0.12699999809E+01 0. -1.
       -4    1    3    3    0  502 -0.40364731496E+03 -0.15893399141E+04  0.38226171765E+03  0.16837630923E+04  0.12699999809E+01 0.  1.
</event>
<event>
 5   0  0.7822003E-07  0.3426759E+04  0.7818609E-02  0.8131370E-01
        2   -1    0    0  501    0  0.00000000000E+00  0.00000000000E+00  0.19427784708E+04  0.19427784708E+04  0.25500000920E-02 0. -1.
       -2   -1    0    0    0  501  0.00000000000E+00  0.00000000000E+00 -0.15110674143E+04  0.15110674143E+04  0.25500000920E-02 0.  1.
    10030    2    1    2    0    0  0.00000000000E+00  0.00000000000E+00  0.43171105651E+03  0.34538458851E+04  0.34267589588E+04 0.  0.
        5    1    3    3  502    0  0.14197074878E+03 -0.18422225730E+02 -0.15050221689E+04  0.15118230355E+04  0.46999998093E+01 0.  1.
       -5    1    3    3    0  502 -0.14197074878E+03  0.18422225730E+02  0.19367332254E+04  0.19420228496E+04  0.46999998093E+01 0. -1.
</event>
<event>
 5   0  0.2641442E-07  0.3421050E+04  0.7818609E-02  0.8132759E-01
       -1   -1    0    0    0  501  0.00000000000E+00  0.00000000000E+00  0.17760237305E+04  0.17760237305E+04  0.50400001928E-02 0. -1.
        1   -1    0    0  501    0  0.00000000000E+00  0.00000000000E+00 -0.16474420800E+04  0.16474420800E+04  0.50400001928E-02 0.  1.
    10030    2    1    2    0    0  0.00000000000E+00  0.00000000000E+00  0.12858165055E+03  0.34234658105E+04  0.34210502649E+04 0.  0.
        1    1    3    3  502    0 -0.49221088742E+03  0.16125669496E+03  0.16956630319E+04  0.17730054701E+04  0.50400001928E-02 0. -1.
       -1    1    3    3    0  502  0.49221088742E+03 -0.16125669496E+03 -0.15670813813E+04  0.16504603404E+04  0.50400001928E-02 0.  1.
</event>
<event>
 5   0  0.7610412E-07  0.3397378E+04  0.7818609E-02  0.8138550E-01
        2   -1    0    0  501    0  0.00000000000E+00  0.00000000000E+00  0.21848472535E+04  0.21848472535E+04  0.25500000920E-02 0. -1.
       -2   -1    0    0    0  501  0.00000000000E+00  0.00000000000E+00 -0.13207072928E+04  0.13207072928E+04  0.25500000920E-02 0.  1.
    10030    2    1    2    0    0  0.00000000000E+00  0.00000000000E+00  0.86413996073E+03  0.35055545464E+04  0.33973776366E+04 0.  0.
        4    1    3    3  502    0  0.16114658550E+04 -0.84003899603E+02 -0.11554835928E+03  0.16177861087E+04  0.12699999809E+01 0.  1.
       -4    1    3    3    0  502 -0.16114658550E+04  0.84003899603E+02  0.97968832000E+03  0.18877684377E+04  0.12699999809E+01 0. -1.
</event>
<event>
 5   0  0.2622205E-07  0.3400907E+04  0.7818609E-02  0.8137684E-01
        1   -1    0    0  501    0  0.00000000000E+00  0.00000000000E+00  0.15982749536E+04  0.15982749536E+04  0.50400001928E-02 0.  1.
       -1   -1    0    0    0  501  0.00000000000E+00  0.00000000000E+00 -0.18091648929E+04  0.18091648929E+04  0.50400001928E-02 0. -1.
    10030    2    1    2    0    0  0.00000000000E+00  0.00000000000E+00 -0.21088993934E+03  0.34074398465E+04  0.34009074878E+04 0.  0.
        3    1    3    3  502    0  0.78491593923E+02 -0.14341228118E+04 -0.10175086708E+04  0.17601684791E+04  0.10100000352E+00 0. -1.
       -3    1    3    3    0  502 -0.78491593923E+02  0.14341228118E+04  0.80661873145E+03  0.16472713674E+04  0.10100000352E+00 0.  1.
</event>
<event>
 5   0  0.2599367E-07  0.3391124E+04  0.7818609E-02  0.8140088E-01
        1   -1    0    0  501    0  0.00000000000E+00  0.00000000000E+00  0.29949303528E+04  0.29949303528E+04  0.50400001928E-02 0.  1.
       -1   -1    0    0    0  501  0.00000000000E+00  0.00000000000E+00 -0.95993216567E+03  0.95993216568E+03  0.50400001928E-02 0. -1.
    10030    2    1    2    0    0  0.00000000000E+00  0.00000000000E+00  0.20349981872E+04  0.39548625185E+04  0.33911236956E+04 0.  0.
        2    1    3    3  502    0 -0.19307178501E+03 -0.84154304131E+03  0.27193533194E+04  0.28531305404E+04  0.25500000920E-02 0.  1.
       -2    1    3    3    0  502  0.19307178501E+03  0.84154304131E+03 -0.68435513227E+03  0.11017319781E+04  0.25500000920E-02 0. -1.
</event>
<event>
 5   0  0.2599367E-07  0.3393818E+04  0.7818609E-02  0.8139425E-01
       -1   -1    0    0    0  501  0.00000000000E+00  0.00000000000E+00  0.27372923712E+04  0.27372923712E+04  0.50400001928E-02 0. -1.
        1   -1    0    0  501    0  0.00000000000E+00  0.00000000000E+00 -0.10519518606E+04  0.10519518606E+04  0.50400001928E-02 0.  1.
    10030    2    1    2    0    0  0.00000000000E+00  0.00000000000E+00  0.16853405106E+04  0.37892442318E+04  0.33938177929E+04 0.  0.
        2    1    3    3  502    0  0.11036433557E+04  0.88258185351E+03  0.18915518314E+04  0.23611327188E+04  0.25500000920E-02 0. -1.
       -2    1    3    3    0  502 -0.11036433557E+04 -0.88258185351E+03 -0.20621132085E+03  0.14281115130E+04  0.25500000920E-02 0.  1.
</event>
<event>
 5   0  0.2641442E-07  0.3354837E+04  0.7818609E-02  0.8149081E-01
       -1   -1    0    0    0  501  0.00000000000E+00  0.00000000000E+00  0.93765428670E+03  0.93765428672E+03  0.50400001928E-02 0. -1.
        1   -1    0    0  501    0  0.00000000000E+00  0.00000000000E+00 -0.30008208107E+04  0.30008208107E+04  0.50400001928E-02 0.  1.
    10030    2    1    2    0    0  0.00000000000E+00  0.00000000000E+00 -0.20631665240E+04  0.39384750975E+04  0.33548368049E+04 0.  0.
        1    1    3    3  502    0 -0.60740781691E+03  0.51874840483E+03 -0.27632130434E+04  0.28763502024E+04  0.50400001928E-02 0.  1.
       -1    1    3    3    0  502  0.60740781691E+03 -0.51874840483E+03  0.70004651933E+03  0.10621248951E+04  0.50400001928E-02 0. -1.
</event>
<event>
 5   0  0.2553250E-07  0.3395363E+04  0.7818609E-02  0.8139045E-01
        1   -1    0    0  501    0  0.00000000000E+00  0.00000000000E+00  0.18307536505E+04  0.18307536505E+04  0.50400001928E-02 0.  1.
       -1   -1    0    0    0  501  0.00000000000E+00  0.00000000000E+00 -0.15742817415E+04  0.15742817415E+04  0.50400001928E-02 0. -1.
    10030    2    1    2    0    0  0.00000000000E+00  0.00000000000E+00  0.25647190905E+03  0.34050353920E+04  0.33953627466E+04 0.  0.
        5    1    3    3  502    0  0.28926293461E+03 -0.14144801037E+04  0.10239056542E+04  0.17699807592E+04  0.46999998093E+01 0.  1.
       -5    1    3    3    0  502 -0.28926293461E+03  0.14144801037E+04 -0.76743374519E+03  0.16350546328E+04  0.46999998093E+01 0. -1.
</event>
<event>
 5   0  0.2599367E-07  0.3424995E+04  0.7818609E-02  0.8131799E-01
        1   -1    0    0  501    0  0.00000000000E+00  0.00000000000E+00  0.20525775997E+04  0.20525775997E+04  0.50400001928E-02 0.  1.
       -1   -1    0    0    0  501  0.00000000000E+00  0.00000000000E+00 -0.14287629608E+04  0.14287629608E+04  0.50400001928E-02 0. -1.
    10030    2    1    2    0    0  0.00000000000E+00  0.00000000000E+00  0.62381463895E+03  0.34813405605E+04  0.34249945102E+04 0.  0.
        2    1    3    3  502    0  0.91938009073E+03 -0.39646445324E+02  0.17799022310E+04  0.20037174312E+04  0.25500000920E-02 0.  1.
       -2    1    3    3    0  502 -0.91938009073E+03  0.39646445324E+02 -0.11560875921E+04  0.14776231294E+04  0.25500000920E-02 0. -1.
</event>
<event>
 5   0  0.7610412E-07  0.3356414E+04  0.7818609E-02  0.8148687E-01
        2   -1    0    0  501    0  0.00000000000E+00  0.00000000000E+00  0.13376737168E+04  0.13376737168E+04  0.25500000920E-02 0. -1.
       -2   -1    0    0    0  501  0.00000000000E+00  0.00000000000E+00 -0.21054308333E+04  0.21054308333E+04  0.25500000920E-02 0.  1.
    10030    2    1    2    0    0  0.00000000000E+00  0.00000000000E+00 -0.76775711649E+03  0.34431045501E+04  0.33564144489E+04 0.  0.
        4    1    3    3  502    0 -0.12626955737E+04 -0.70644177425E+03  0.48832746677E+03  0.15270643143E+04  0.12699999809E+01 0. -1.
       -4    1    3    3    0  502  0.12626955737E+04  0.70644177425E+03 -0.12560845833E+04  0.19160402358E+04  0.12699999809E+01 0.  1.
</event>
<event>
 5   0  0.7610412E-07  0.3387838E+04  0.7818609E-02  0.8140898E-01
        2   -1    0    0  501    0  0.00000000000E+00  0.00000000000E+00  0.15284131698E+04  0.15284131698E+04  0.25500000920E-02 0.  1.
       -2   -1    0    0    0  501  0.00000000000E+00  0.00000000000E+00 -0.18773470260E+04  0.18773470260E+04  0.25500000920E-02 0. -1.
    10030    2    1    2    0    0  0.00000000000E+00  0.00000000000E+00 -0.34893385620E+03  0.34057601958E+04  0.33878382008E+04 0.  0.
        4    1    3    3  502    0  0.12475816501E+04 -0.11331806725E+04 -0.34507592997E+03  0.17203596776E+04  0.12699999809E+01 0. -1.
       -4    1    3    3    0  502 -0.12475816501E+04  0.11331806725E+04 -0.38579262234E+01  0.16854005181E+04  0.12699999809E+01 0.  1.
</event>
<event>
 5   0  0.7610412E-07  0.3325392E+04  0.7818609E-02  0.8156464E-01
        2   -1    0    0  501    0  0.00000000000E+00  0.00000000000E+00  0.12895261429E+04  0.12895261429E+04  0.25500000920E-02 0.  1.
       -2   -1    0    0    0  501  0.00000000000E+00  0.00000000000E+00 -0.21438551052E+04  0.21438551052E+04  0.25500000920E-02 0. -1.
    10030    2    1    2    0    0  0.00000000000E+00  0.00000000000E+00 -0.85432896235E+03  0.34333812481E+04  0.33253915286E+04 0.  0.
        4    1    3    3  502    0  0.10087427954E+04 -0.51359454461E+03 -0.16845868539E+04  0.20295752918E+04  0.12699999809E+01 0. -1.
       -4    1    3    3    0  502 -0.10087427954E+04  0.51359454461E+03  0.83025789158E+03  0.14038059563E+04  0.12699999809E+01 0.  1.
</event>
<event>
 5   0  0.2592200E-07  0.3388013E+04  0.7818609E-02  0.8140855E-01
       -1   -1    0    0    0  501  0.00000000000E+00  0.00000000000E+00  0.29784503155E+04  0.29784503155E+04  0.50400001928E-02 0. -1.
        1   -1    0    0  501    0  0.00000000000E+00  0.00000000000E+00 -0.96347344436E+03  0.96347344438E+03  0.50400001928E-02 0.  1.
    10030    2    1    2    0    0  0.00000000000E+00  0.00000000000E+00  0.20149768711E+04  0.39419237598E+04  0.33880128597E+04 0.  0.
        4    1    3    3  502    0 -0.88794052833E+01 -0.77840296963E+03  0.27580176299E+04  0.28657726509E+04  0.12699999809E+01 0. -1.
       -4    1    3    3    0  502  0.88794052833E+01  0.77840296963E+03 -0.74304075884E+03  0.10761511089E+04  0.12699999809E+01 0.  1.
</event>
<event>
 5   0  0.2592200E-07  0.3387902E+04  0.7818609E-02  0.8140882E-01
       -1   -1    0    0    0  501  0.00000000000E+00  0.00000000000E+00  0.12200637773E+04  0.12200637773E+04  0.50400001928E-02 0. -1.
        1   -1    0    0  501    0  0.00000000000E+00  0.00000000000E+00 -0.23519010109E+04  0.23519010109E+04  0.50400001928E-02 0.  1.
    10030    2    1    2    0    0  0.00000000000E+00  0.00000000000E+00 -0.11318372336E+04  0.35719647882E+04  0.33879015518E+04 0.  0.
        4    1    3    3  502    0 -0.20894514087E+03  0.11944169065E+04  0.68121458142E+03  0.13908072251E+04  0.12699999809E+01 0. -1.
       -4    1    3    3    0  502  0.20894514087E+03 -0.11944169065E+04 -0.18130518150E+04  0.21811575632E+04  0.12699999809E+01 0.  1.
</event>
<event>
 5   0  0.7822003E-07  0.3397265E+04  0.7818609E-02  0.8138578E-01
        2   -1    0    0  501    0  0.00000000000E+00  0.00000000000E+00  0.28663720673E+04  0.28663720673E+04  0.25500000920E-02 0.  1.
       -2   -1    0    0    0  501  0.00000000000E+00  0.00000000000E+00 -0.10066216905E+04  0.10066216905E+04  0.25500000920E-02 0. -1.
    10030    2    1    2    0    0  0.00000000000E+00  0.00000000000E+00  0.18597503767E+04  0.38729937578E+04  0.33972649565E+04 0.  0.
        5    1    3    3  502    0 -0.43755978624E+03 -0.14427419674E+04  0.18219953565E+04  0.23648788807E+04  0.46999998093E+01 0.  1.
       -5    1    3    3    0  502  0.43755978624E+03  0.14427419674E+04  0.37755020190E+02  0.15081148771E+04  0.46999998093E+01 0. -1.
</event>
<event>
 5   0  0.2553250E-07  0.3403285E+04  0.7818609E-02  0.8137101E-01
       -1   -1    0    0    0  501  0.00000000000E+00  0.00000000000E+00  0.10114013104E+04  0.10114013104E+04  0.50400001928E-02 0.  1.
        1   -1    0    0  501    0  0.00000000000E+00  0.00000000000E+00 -0.28629451620E+04  0.28629451620E+04  0.50400001928E-02 0. -1.
    10030    2    1    2    0    0  0.00000000000E+00  0.00000000000E+00 -0.18515438517E+04  0.38743464725E+04  0.34032845832E+04 0.  0.
        5    1    3    3  502    0 -0.11439826393E+04 -0.93696920199E+03 -0.18843115846E+04  0.23952577737E+04  0.46999998093E+01 0. -1.
       -5    1    3    3    0  502  0.11439826393E+04  0.93696920199E+03  0.32767732970E+02  0.14790886988E+04  0.46999998093E+01 0.  1.
</event>
<event>
 5   0  0.2553250E-07  0.3362465E+04  0.7818609E-02  0.8147180E-01
        1   -1    0    0  501    0  0.00000000000E+00  0.00000000000E+00  0.17749539325E+04  0.17749539326E+04  0.50400001928E-02 0. -1.
       -1   -1    0    0    0  501  0.00000000000E+00  0.00000000000E+00 -0.15924600360E+04  0.15924600360E+04  0.50400001928E-02 0.  1.
    10030    2    1    2    0    0  0.00000000000E+00  0.00000000000E+00  0.18249389658E+03  0.33674139685E+04  0.33624652880E+04 0.  0.
        5    1    3    3  502    0  0.26743073996E+03  0.16502363847E+04  0.26961518675E+03  0.16933734866E+04  0.46999998093E+01 0. -1.
       -5    1    3    3    0  502 -0.26743073996E+03 -0.16502363847E+04 -0.87121290178E+02  0.16740404820E+04  0.46999998093E+01 0.  1.
</event>
<event>
 5   0  0.7899402E-07  0.3465811E+04  0.7818609E-02  0.8121940E-01
       -2   -1    0    0    0  501  0.00000000000E+00  0.00000000000E+00  0.13974985747E+04  0.13974985747E+04  0.25500000920E-02 0.  1.
        2   -1    0    0  501    0  0.00000000000E+00  0.00000000000E+00 -0.21488115942E+04  0.21488115942E+04  0.25500000920E-02 0. -1.
    10030    2    1    2    0    0  0.00000000000E+00  0.00000000000E+00 -0.75131301944E+03  0.35463101689E+04  0.34658108086E+04 0.  0.
        2    1    3    3  502    0  0.56751514001E+03  0.99793432539E+02 -0.20479135594E+04  0.21274355713E+04  0.25500000920E-02 0. -1.
       -2    1    3    3    0  502 -0.56751514001E+03 -0.99793432539E+02  0.12966005400E+04  0.14188745976E+04  0.25500000920E-02 0.  1.
</event>
<event>
 5   0  0.2622205E-07  0.3395926E+04  0.7818609E-02  0.8138907E-01
       -1   -1    0    0    0  501  0.00000000000E+00  0.00000000000E+00  0.12224092654E+04  0.12224092654E+04  0.50400001928E-02 0.  1.
        1   -1    0    0  501    0  0.00000000000E+00  0.00000000000E+00 -0.23585208953E+04  0.23585208953E+04  0.50400001928E-02 0. -1.
    10030    2    1    2    0    0  0.00000000000E+00  0.00000000000E+00 -0.11361116299E+04  0.35809301608E+04  0.33959256736E+04 0.  0.
        3    1    3    3  502    0 -0.15054607366E+04 -0.50695454930E+03  0.64334863472E+02  0.15898282704E+04  0.10100000352E+00 0.  1.
       -3    1    3    3    0  502  0.15054607366E+04  0.50695454930E+03 -0.12004464934E+04  0.19911018904E+04  0.10100000352E+00 0. -1.
</event>
<event>
 5   0  0.8489228E-07  0.3397187E+04  0.7818609E-02  0.8138597E-01
       -2   -1    0    0    0  501  0.00000000000E+00  0.00000000000E+00  0.29334166447E+04  0.29334166447E+04  0.25500000920E-02 0.  1.
        2   -1    0    0  501    0  0.00000000000E+00  0.00000000000E+00 -0.98356976542E+03  0.98356976542E+03  0.25500000920E-02 0. -1.
    10030    2    1    2    0    0  0.00000000000E+00  0.00000000000E+00  0.19498468792E+04  0.39169864101E+04  0.33971870252E+04 0.  0.
        3    1    3    3  502    0 -0.13216945847E+04  0.55395776712E+03 -0.76449943659E+02  0.14351273070E+04  0.10100000352E+00 0. -1.
       -3    1    3    3    0  502  0.13216945847E+04 -0.55395776712E+03  0.20262968229E+04  0.24818591031E+04  0.10100000352E+00 0.  1.
</event>
<event>
 5   0  0.7610412E-07  0.3397585E+04  0.7818609E-02  0.8138499E-01
        2   -1    0    0  501    0  0.00000000000E+00  0.00000000000E+00  0.29268623716E+04  0.29268623716E+04  0.25500000920E-02 0. -1.
       -2   -1    0    0    0  501  0.00000000000E+00  0.00000000000E+00 -0.98600310273E+03  0.98600310274E+03  0.25500000920E-02 0.  1.
    10030    2    1    2    0    0  0.00000000000E+00  0.00000000000E+00  0.19408592689E+04  0.39128654744E+04  0.33975846596E+04 0.  0.
        4    1    3    3  502    0 -0.82962530214E+03  0.71343500419E+03  0.24669801511E+04  0.26987516236E+04  0.12699999809E+01 0. -1.
       -4    1    3    3    0  502  0.82962530214E+03 -0.71343500419E+03 -0.52612088215E+03  0.12141138508E+04  0.12699999809E+01 0.  1.
</event>
<event>
 5   0  0.7610412E-07  0.3386350E+04  0.7818609E-02  0.8141265E-01
        2   -1    0    0  501    0  0.00000000000E+00  0.00000000000E+00  0.16682326827E+04  0.16682326827E+04  0.25500000920E-02 0. -1.
       -2   -1    0    0    0  501  0.00000000000E+00  0.00000000000E+00 -0.17184905629E+04  0.17184905629E+04  0.25500000920E-02 0.  1.
    10030    2    1    2    0    0  0.00000000000E+00  0.00000000000E+00 -0.50257880194E+02  0.33867232455E+04  0.33863503196E+04 0.  0.
        4    1    3    3  502    0  0.15507756006E+04  0.35927629553E+02 -0.70391183230E+03  0.17034345419E+04  0.12699999809E+01 0.  1.
       -4    1    3    3    0  502 -0.15507756006E+04 -0.35927629553E+02  0.65365395211E+03  0.16832887037E+04  0.12699999809E+01 0. -1.
</event>
<event>
 5   0  0.2599367E-07  0.3396020E+04  0.7818609E-02  0.8138884E-01
       -1   -1    0    0    0  501  0.00000000000E+00  0.00000000000E+00  0.15449496110E+04  0.15449496110E+04  0.50400001928E-02 0.  1.
        1   -1    0    0  501    0  0.00000000000E+00  0.00000000000E+00 -0.18662339446E+04  0.18662339446E+04  0.50400001928E-02 0. -1.
    10030    2    1    2    0    0  0.00000000000E+00  0.00000000000E+00 -0.32128433368E+03  0.34111835556E+04  0.33960196741E+04 0.  0.
        2    1    3    3  502    0  0.16305812897E+04  0.39687004793E+03 -0.42051777207E+03  0.17300683148E+04  0.25500000920E-02 0. -1.
       -2    1    3    3    0  502 -0.16305812897E+04 -0.39687004793E+03  0.99233438394E+02  0.16811152408E+04  0.25500000920E-02 0.  1.
</event>
<event>
 5   0  0.7838333E-07  0.3388206E+04  0.7818609E-02  0.8140807E-01
        2   -1    0    0  501    0  0.00000000000E+00  0.00000000000E+00  0.17334727503E+04  0.17334727503E+04  0.25500000920E-02 0. -1.
       -2   -1    0    0    0  501  0.00000000000E+00  0.00000000000E+00 -0.16556271060E+04  0.16556271060E+04  0.25500000920E-02 0.  1.
    10030    2    1    2    0    0  0.00000000000E+00  0.00000000000E+00  0.77845644246E+02  0.33890998563E+04  0.33882057038E+04 0.  0.
        1    1    3    3  502    0 -0.90326827258E+03  0.70884800243E+03 -0.12070484739E+04  0.16659306952E+04  0.50400001928E-02 0.  1.
       -1    1    3    3    0  502  0.90326827258E+03 -0.70884800243E+03  0.12848941181E+04  0.17231691611E+04  0.50400001928E-02 0. -1.
</event>
<event>
 5   0  0.2641442E-07  0.3389241E+04  0.7818609E-02  0.8140552E-01
       -1   -1    0    0    0  501  0.00000000000E+00  0.00000000000E+00  0.23900995302E+04  0.23900995302E+04  0.50400001928E-02 0.  1.
        1   -1    0    0  501    0  0.00000000000E+00  0.00000000000E+00 -0.12015141584E+04  0.12015141585E+04  0.50400001928E-02 0. -1.
    10030    2    1    2    0    0  0.00000000000E+00  0.00000000000E+00  0.11885853717E+04  0.35916136886E+04  0.33892408741E+04 0.  0.
        1    1    3    3  502    0 -0.15266032693E+04 -0.72826867063E+03  0.48393196858E+03  0.17592847833E+04  0.50400001928E-02 0.  1.
       -1    1    3    3    0  502  0.15266032693E+04  0.72826867063E+03  0.70465340313E+03  0.18323289053E+04  0.50400001928E-02 0. -1.
</event>
<event>
 5   0  0.2553250E-07  0.3430820E+04  0.7818609E-02  0.8130383E-01
       -1   -1    0    0    0  501  0.00000000000E+00  0.00000000000E+00  0.17374054740E+04  0.17374054740E+04  0.50400001928E-02 0. -1.
        1   -1    0    0  501    0  0.00000000000E+00  0.00000000000E+00 -0.16936930601E+04  0.16936930602E+04  0.50400001928E-02 0.  1.
    10030    2    1    2    0    0  0.00000000000E+00  0.00000000000E+00  0.43712413828E+02  0.34310985341E+04  0.34308200734E+04 0.  0.
        5    1    3    3  502    0 -0.65565174067E+03  0.71531384378E+03  0.14365580294E+04  0.17335726584E+04  0.46999998093E+01 0. -1.
       -5    1    3    3    0  502  0.65565174067E+03 -0.71531384378E+03 -0.13928456155E+04  0.16975258758E+04  0.46999998093E+01 0.  1.
</event>
<event>
 5   0  0.7838333E-07  0.3390833E+04  0.7818609E-02  0.8140160E-01
        2   -1    0    0  501    0  0.00000000000E+00  0.00000000000E+00  0.12572521893E+04  0.12572521893E+04  0.25500000920E-02 0. -1.
       -2   -1    0    0    0  501  0.00000000000E+00  0.00000000000E+00 -0.22862857449E+04  0.22862857449E+04  0.25500000920E-02 0.  1.
    10030    2    1    2    0    0  0.00000000000E+00  0.00000000000E+00 -0.10290335556E+04  0.35435379343E+04  0.33908333833E+04 0.  0.
        1    1    3    3  502    0  0.48908906068E+03 -0.68954367055E+03  0.10212784013E+04  0.13257783207E+04  0.50400001928E-02 0. -1.
       -1    1    3    3    0  502 -0.48908906068E+03  0.68954367055E+03 -0.20503119569E+04  0.22177596135E+04  0.50400001928E-02 0.  1.
</event>
<event>
 5   0  0.2553250E-07  0.3284485E+04  0.7818609E-02  0.8166854E-01
       -1   -1    0    0    0  501  0.00000000000E+00  0.00000000000E+00  0.19349801362E+04  0.19349801362E+04  0.50400001928E-02 0.  1.
        1   -1    0    0  501    0  0.00000000000E+00  0.00000000000E+00 -0.13937926598E+04  0.13937926598E+04  0.50400001928E-02 0. -1.
    10030    2    1    2    0    0  0.00000000000E+00  0.00000000000E+00  0.54118747632E+03  0.33287727960E+04  0.32844854152E+04 0.  0.
        5    1    3    3  502    0  0.12132611258E+04 -0.71334802947E+03  0.11282136859E+04  0.18038171143E+04  0.46999998093E+01 0.  1.
       -5    1    3    3    0  502 -0.12132611258E+04  0.71334802947E+03 -0.58702620962E+03  0.15249556818E+04  0.46999998093E+01 0. -1.
</event>
<event>
 5   0  0.2622205E-07  0.3041020E+04  0.7818609E-02  0.8232113E-01
       -1   -1    0    0    0  501  0.00000000000E+00  0.00000000000E+00  0.84595616195E+03  0.84595616197E+03  0.50400001928E-02 0. -1.
        1   -1    0    0  501    0  0.00000000000E+00  0.00000000000E+00 -0.27329437707E+04  0.27329437707E+04  0.50400001928E-02 0.  1.
    10030    2    1    2    0    0  0.00000000000E+00  0.00000000000E+00 -0.18869876088E+04  0.35788999327E+04  0.30410199757E+04 0.  0.
        3    1    3    3  502    0 -0.11040598382E+04  0.39176830089E+03  0.19723738767E+03  0.11879954231E+04  0.10100000352E+00 0. -1.
       -3    1    3    3    0  502  0.11040598382E+04 -0.39176830089E+03 -0.20842249964E+04  0.23909045096E+04  0.10100000352E+00 0.  1.
</event>
<event>
 5   0  0.2592200E-07  0.3431140E+04  0.7818609E-02  0.8130305E-01
        1   -1    0    0  501    0  0.00000000000E+00  0.00000000000E+00  0.31028083043E+04  0.31028083043E+04  0.50400001928E-02 0. -1.
       -1   -1    0    0    0  501  0.00000000000E+00  0.00000000000E+00 -0.94855397065E+03  0.94855397066E+03  0.50400001928E-02 0.  1.
    10030    2    1    2    0    0  0.00000000000E+00  0.00000000000E+00  0.21542543337E+04  0.40513622750E+04  0.34311404152E+04 0.  0.
        4    1    3    3  502    0  0.16002352016E+04  0.71242295490E+02  0.35179732177E+03  0.16399972968E+04  0.12699999809E+01 0.  1.
       -4    1    3    3    0  502 -0.16002352016E+04 -0.71242295490E+02  0.18024570119E+04  0.24113649781E+04  0.12699999809E+01 0. -1.
</event>
<event>
 5   0  0.7822003E-07  0.3409304E+04  0.7818609E-02  0.8135627E-01
       -2   -1    0    0    0  501  0.00000000000E+00  0.00000000000E+00  0.17948048784E+04  0.17948048784E+04  0.25500000920E-02 0. -1.
        2   -1    0    0  501    0  0.00000000000E+00  0.00000000000E+00 -0.16190277868E+04  0.16190277868E+04  0.25500000920E-02 0.  1.
    10030    2    1    2    0    0  0.00000000000E+00  0.00000000000E+00  0.17577709158E+03  0.34138326652E+04  0.34093043103E+04 0.  0.
        5    1    3    3  502    0  0.73633017934E+03 -0.74193405854E+03 -0.12604394648E+04  0.16374913785E+04  0.46999998093E+01 0.  1.
       -5    1    3    3    0  502 -0.73633017934E+03  0.74193405854E+03  0.14362165564E+04  0.17763412867E+04  0.46999998093E+01 0. -1.
</event>
<event>
 5   0  0.7838333E-07  0.3417529E+04  0.7818609E-02  0.8133617E-01
        2   -1    0    0  501    0  0.00000000000E+00  0.00000000000E+00  0.19788585884E+04  0.19788585885E+04  0.25500000920E-02 0. -1.
       -2   -1    0    0    0  501  0.00000000000E+00  0.00000000000E+00 -0.14755357438E+04  0.14755357438E+04  0.25500000920E-02 0.  1.
    10030    2    1    2    0    0  0.00000000000E+00  0.00000000000E+00  0.50332284470E+03  0.34543943322E+04  0.34175292707E+04 0.  0.
        1    1    3    3  502    0 -0.13817496408E+04 -0.95155129134E+03 -0.76174465889E+02  0.16794298078E+04  0.50400001928E-02 0.  1.
       -1    1    3    3    0  502  0.13817496408E+04  0.95155129134E+03  0.57949731059E+03  0.17749645244E+04  0.50400001928E-02 0. -1.
</event>
<event>
 5   0  0.2599367E-07  0.3424129E+04  0.7818609E-02  0.8132009E-01
        1   -1    0    0  501    0  0.00000000000E+00  0.00000000000E+00  0.91503932838E+03  0.91503932840E+03  0.50400001928E-02 0. -1.
       -1   -1    0    0    0  501  0.00000000000E+00  0.00000000000E+00 -0.32033220096E+04  0.32033220096E+04  0.50400001928E-02 0.  1.
    10030    2    1    2    0    0  0.00000000000E+00  0.00000000000E+00 -0.22882826812E+04  0.41183613380E+04  0.34241294487E+04 0.  0.
        2    1    3    3  502    0 -0.39911763004E+03 -0.40647693013E+03 -0.30859901117E+04  0.31381289564E+04  0.25500000920E-02 0.  1.
       -2    1    3    3    0  502  0.39911763004E+03  0.40647693013E+03  0.79770743048E+03  0.98023238163E+03  0.25500000920E-02 0. -1.
</event>
<event>
 5   0  0.2553250E-07  0.3387572E+04  0.7818609E-02  0.8140963E-01
        1   -1    0    0  501    0  0.00000000000E+00  0.00000000000E+00  0.23242249446E+04  0.23242249446E+04  0.50400001928E-02 0. -1.
       -1   -1    0    0    0  501  0.00000000000E+00  0.00000000000E+00 -0.12343519450E+04  0.12343519451E+04  0.50400001928E-02 0.  1.
    10030    2    1    2    0    0  0.00000000000E+00  0.00000000000E+00  0.10898729996E+04  0.35585768897E+04  0.33875723350E+04 0.  0.
        5    1    3    3  502    0 -0.16878410728E+04 -0.83470293068E+02  0.66523693370E+03  0.18161324414E+04  0.46999998093E+01 0. -1.
       -5    1    3    3    0  502  0.16878410728E+04  0.83470293068E+02  0.42463606587E+03  0.17424444483E+04  0.46999998093E+01 0.  1.
</event>
<event>
 5   0  0.8489228E-07  0.3364876E+04  0.7818609E-02  0.8146581E-01
        2   -1    0    0  501    0  0.00000000000E+00  0.00000000000E+00  0.16009629999E+04  0.16009629999E+04  0.25500000920E-02 0. -1.
       -2   -1    0    0    0  501  0.00000000000E+00  0.00000000000E+00 -0.17680595731E+04  0.17680595731E+04  0.25500000920E-02 0.  1.
    10030    2    1    2    0    0  0.00000000000E+00  0.00000000000E+00 -0.16709657324E+03  0.33690225730E+04  0.33648761987E+04 0.  0.
        3    1    3    3  502    0  0.13247886793E+04 -0.92057451439E+03  0.39461267552E+03  0.16607954887E+04  0.10100000352E+00 0. -1.
       -3    1    3    3    0  502 -0.13247886793E+04  0.92057451439E+03 -0.56170924876E+03  0.17082270843E+04  0.10100000352E+00 0.  1.
</event>
<event>
 5   0  0.7838333E-07  0.3146643E+04  0.7818609E-02  0.8203052E-01
        2   -1    0    0  501    0  0.00000000000E+00  0.00000000000E+00  0.26147531640E+04  0.26147531640E+04  0.25500000920E-02 0. -1.
       -2   -1    0    0    0  501  0.00000000000E+00  0.00000000000E+00 -0.94668234830E+03  0.94668234830E+03  0.25500000920E-02 0.  1.
    10030    2    1    2    0    0  0.00000000000E+00  0.00000000000E+00  0.16680708157E+04  0.35614355123E+04  0.31466430783E+04 0.  0.
        1    1    3    3  502    0 -0.97433170390E+03 -0.17283518203E+03  0.22184451485E+04  0.24291342380E+04  0.50400001928E-02 0. -1.
       -1    1    3    3    0  502  0.97433170390E+03  0.17283518203E+03 -0.55037433285E+03  0.11323012742E+04  0.50400001928E-02 0.  1.
</event>
<event>
 5   0  0.2553250E-07  0.3407348E+04  0.7818609E-02  0.8136105E-01
       -3   -1    0    0    0  501  0.00000000000E+00  0.00000000000E+00  0.17177739302E+04  0.17177739332E+04  0.10100000352E+00 0.  1.
        3   -1    0    0  501    0  0.00000000000E+00  0.00000000000E+00 -0.16896898314E+04  0.16896898344E+04  0.10100000352E+00 0. -1.
    10030    2    1    2    0    0  0.00000000000E+00  0.00000000000E+00  0.28084098776E+02  0.34074637676E+04  0.34073480319E+04 0.  0.
        2    1    3    3  502    0 -0.13940499401E+03 -0.80828375724E+03 -0.14792430018E+04  0.16914243238E+04  0.25500000920E-02 0. -1.
       -2    1    3    3    0  502  0.13940499401E+03  0.80828375724E+03  0.15073271006E+04  0.17160394438E+04  0.25500000920E-02 0.  1.
</event>
<event>
 5   0  0.2599367E-07  0.3517174E+04  0.7818609E-02  0.8109732E-01
       -1   -1    0    0    0  501  0.00000000000E+00  0.00000000000E+00  0.17931448009E+04  0.17931448009E+04  0.50400001928E-02 0. -1.
        1   -1    0    0  501    0  0.00000000000E+00  0.00000000000E+00 -0.17246952746E+04  0.17246952746E+04  0.50400001928E-02 0.  1.
    10030    2    1    2    0    0  0.00000000000E+00  0.00000000000E+00  0.68449526314E+02  0.35178400755E+04  0.35171740729E+04 0.  0.
        2    1    3    3  502    0 -0.35616430871E+03 -0.63560371924E+03 -0.15666354864E+04  0.17277707747E+04  0.25500000920E-02 0.  1.
       -2    1    3    3    0  502  0.35616430871E+03  0.63560371924E+03  0.16350850127E+04  0.17900693008E+04  0.25500000920E-02 0. -1.
</event>
<event>
 5   0  0.2553250E-07  0.3399300E+04  0.7818609E-02  0.8138078E-01
       -1   -1    0    0    0  501  0.00000000000E+00  0.00000000000E+00  0.13749793426E+04  0.13749793426E+04  0.50400001928E-02 0.  1.
        1   -1    0    0  501    0  0.00000000000E+00  0.00000000000E+00 -0.21009842470E+04  0.21009842470E+04  0.50400001928E-02 0. -1.
    10030    2    1    2    0    0  0.00000000000E+00  0.00000000000E+00 -0.72600490441E+03  0.34759635897E+04  0.33992998920E+04 0.  0.
        5    1    3    3  502    0  0.33081100780E+03  0.33179391407E+03 -0.20336373985E+04  0.20869178907E+04  0.46999998093E+01 0. -1.
       -5    1    3    3    0  502 -0.33081100780E+03 -0.33179391407E+03  0.13076324940E+04  0.13890456990E+04  0.46999998093E+01 0.  1.
</event>
<event>
 5   0  0.2599367E-07  0.3420939E+04  0.7818609E-02  0.8132786E-01
       -1   -1    0    0    0  501  0.00000000000E+00  0.00000000000E+00  0.12041878555E+04  0.12041878555E+04  0.50400001928E-02 0. -1.
        1   -1    0    0  501    0  0.00000000000E+00  0.00000000000E+00 -0.24296098914E+04  0.24296098914E+04  0.50400001928E-02 0.  1.
    10030    2    1    2    0    0  0.00000000000E+00  0.00000000000E+00 -0.12254220359E+04  0.36337977469E+04  0.34209394762E+04 0.  0.
        2    1    3    3  502    0 -0.67690767467E+03  0.22895903122E+03 -0.22634604828E+04  0.23735794900E+04  0.25500000920E-02 0.  1.
       -2    1    3    3    0  502  0.67690767467E+03 -0.22895903122E+03  0.10380384469E+04  0.12602182570E+04  0.25500000920E-02 0. -1.
</event>
<event>
 5   0  0.2553250E-07  0.3404331E+04  0.7818609E-02  0.8136844E-01
        1   -1    0    0  501    0  0.00000000000E+00  0.00000000000E+00  0.18482482239E+04  0.18482482239E+04  0.50400001928E-02 0.  1.
       -1   -1    0    0    0  501  0.00000000000E+00  0.00000000000E+00 -0.15676287923E+04  0.15676287923E+04  0.50400001928E-02 0. -1.
    10030    2    1    2    0    0  0.00000000000E+00  0.00000000000E+00  0.28061943162E+03  0.34158770163E+04  0.34043308483E+04 0.  0.
        5    1    3    3  502    0  0.97785211703E+03  0.75103786983E+03 -0.10371661278E+04  0.16112070976E+04  0.46999998093E+01 0. -1.
       -5    1    3    3    0  502 -0.97785211703E+03 -0.75103786983E+03  0.13177855594E+04  0.18046699187E+04  0.46999998093E+01 0.  1.
</event>
<event>
 5   0  0.2599367E-07  0.3445780E+04  0.7818609E-02  0.8126761E-01
       -1   -1    0    0    0  501  0.00000000000E+00  0.00000000000E+00  0.22711737861E+04  0.22711737861E+04  0.50400001928E-02 0.  1.
        1   -1    0    0  501    0  0.00000000000E+00  0.00000000000E+00 -0.13069674958E+04  0.13069674958E+04  0.50400001928E-02 0. -1.
    10030    2    1    2    0    0  0.00000000000E+00  0.00000000000E+00  0.96420629024E+03  0.35781412819E+04  0.34457802111E+04 0.  0.
        2    1    3    3  502    0 -0.75153932518E+03 -0.33831353887E+03  0.20531917306E+04  0.22124338839E+04  0.25500000920E-02 0.  1.
       -2    1    3    3    0  502  0.75153932518E+03  0.33831353887E+03 -0.10889854403E+04  0.13657073981E+04  0.25500000920E-02 0. -1.
</event>
<event>
 5   0  0.8489228E-07  0.3388044E+04  0.7818609E-02  0.8140847E-01
        2   -1    0    0  501    0  0.00000000000E+00  0.00000000000E+00  0.91926506194E+03  0.91926506194E+03  0.25500000920E-02 0. -1.
       -2   -1    0    0    0  501  0.00000000000E+00  0.00000000000E+00 -0.31217446715E+04  0.31217446715E+04  0.25500000920E-02 0.  1.
    10030    2    1    2    0    0  0.00000000000E+00  0.00000000000E+00 -0.22024796096E+04  0.40410097335E+04  0.33880441608E+04 0.  0.
        3    1    3    3  502    0 -0.29119701248E+03  0.48563486050E+03  0.80304562970E+03  0.98260837132E+03  0.10100000352E+00 0. -1.
       -3    1    3    3    0  502  0.29119701248E+03 -0.48563486050E+03 -0.30055252393E+04  0.30584013621E+04  0.10100000352E+00 0.  1.
</event>
<event>
 5   0  0.7899402E-07  0.3375797E+04  0.7818609E-02  0.8143872E-01
        2   -1    0    0  501    0  0.00000000000E+00  0.00000000000E+00  0.22649691435E+04  0.22649691435E+04  0.25500000920E-02 0.  1.
       -2   -1    0    0    0  501  0.00000000000E+00  0.00000000000E+00 -0.12578540145E+04  0.12578540145E+04  0.25500000920E-02 0. -1.
    10030    2    1    2    0    0  0.00000000000E+00  0.00000000000E+00  0.10071151291E+04  0.35228231580E+04  0.33757965163E+04 0.  0.
        2    1    3    3  502    0 -0.76267513902E+03 -0.14577653890E+04  0.89714071285E+03  0.18739302963E+04  0.25500000920E-02 0.  1.
       -2    1    3    3    0  502  0.76267513902E+03  0.14577653890E+04  0.10997441622E+03  0.16488928616E+04  0.25500000920E-02 0. -1.
</event>
<event>
 5   0  0.7838333E-07  0.3471931E+04  0.7818609E-02  0.8120474E-01
       -2   -1    0    0    0  501  0.00000000000E+00  0.00000000000E+00  0.16759711161E+04  0.16759711161E+04  0.25500000920E-02 0. -1.
        2   -1    0    0  501    0  0.00000000000E+00  0.00000000000E+00 -0.17981079753E+04  0.17981079753E+04  0.25500000920E-02 0.  1.
    10030    2    1    2    0    0  0.00000000000E+00  0.00000000000E+00 -0.12213685918E+03  0.34740790914E+04  0.34719314684E+04 0.  0.
        1    1    3    3  502    0  0.42386809791E+03  0.11752947570E+04  0.11449136231E+04  0.16946412997E+04  0.50400001928E-02 0. -1.
       -1    1    3    3    0  502 -0.42386809791E+03 -0.11752947570E+04 -0.12670504822E+04  0.17794377918E+04  0.50400001928E-02 0.  1.
</event>
<event>
 5   0  0.2599367E-07  0.3414740E+04  0.7818609E-02  0.8134298E-01
        1   -1    0    0  501    0  0.00000000000E+00  0.00000000000E+00  0.20636386863E+04  0.20636386863E+04  0.50400001928E-02 0. -1.
       -1   -1    0    0    0  501  0.00000000000E+00  0.00000000000E+00 -0.14126082283E+04  0.14126082283E+04  0.50400001928E-02 0.  1.
    10030    2    1    2    0    0  0.00000000000E+00  0.00000000000E+00  0.65103045804E+03  0.34762469147E+04  0.34147403934E+04 0.  0.
        2    1    3    3  502    0 -0.53679030392E+03  0.12527225619E+04 -0.72143252108E+03  0.15420514032E+04  0.25500000920E-02 0.  1.
       -2    1    3    3    0  502  0.53679030392E+03 -0.12527225619E+04  0.13724629791E+04  0.19341955115E+04  0.25500000920E-02 0. -1.
</event>
<event>
 5   0  0.7610412E-07  0.3404031E+04  0.7818609E-02  0.8136918E-01
        2   -1    0    0  501    0  0.00000000000E+00  0.00000000000E+00  0.23611201443E+04  0.23611201443E+04  0.25500000920E-02 0. -1.
       -2   -1    0    0    0  501  0.00000000000E+00  0.00000000000E+00 -0.12268992280E+04  0.12268992280E+04  0.25500000920E-02 0.  1.
    10030    2    1    2    0    0  0.00000000000E+00  0.00000000000E+00  0.11342209163E+04  0.35880193723E+04  0.34040308355E+04 0.  0.
        4    1    3    3  502    0 -0.45733018297E+03  0.12974044646E+03  0.22897237014E+04  0.23385507737E+04  0.12699999809E+01 0. -1.
       -4    1    3    3    0  502  0.45733018297E+03 -0.12974044646E+03 -0.11555027850E+04  0.12494685986E+04  0.12699999809E+01 0.  1.
</event>
<event>
 5   0  0.2641442E-07  0.3099328E+04  0.7818609E-02  0.8215922E-01
       -1   -1    0    0    0  501  0.00000000000E+00  0.00000000000E+00  0.12873394070E+04  0.12873394070E+04  0.50400001928E-02 0.  1.
        1   -1    0    0  501    0  0.00000000000E+00  0.00000000000E+00 -0.18654430152E+04  0.18654430152E+04  0.50400001928E-02 0. -1.
    10030    2    1    2    0    0  0.00000000000E+00  0.00000000000E+00 -0.57810360824E+03  0.31527824222E+04  0.30993278658E+04 0.  0.
        1    1    3    3  502    0  0.32850212443E+03  0.20560686454E+02  0.12513714007E+04  0.12939346081E+04  0.50400001928E-02 0.  1.
       -1    1    3    3    0  502 -0.32850212443E+03 -0.20560686454E+02 -0.18294750089E+04  0.18588478141E+04  0.50400001928E-02 0. -1.
</event>
<event>
 5   0  0.2592200E-07  0.3094022E+04  0.7818609E-02  0.8217381E-01
       -1   -1    0    0    0  501  0.00000000000E+00  0.00000000000E+00  0.16964020811E+04  0.16964020811E+04  0.50400001928E-02 0. -1.
        1   -1    0    0  501    0  0.00000000000E+00  0.00000000000E+00 -0.14107754974E+04  0.14107754974E+04  0.50400001928E-02 0.  1.
    10030    2    1    2    0    0  0.00000000000E+00  0.00000000000E+00  0.28562658375E+03  0.31071775785E+04  0.30940216482E+04 0.  0.
        4    1    3    3  502    0  0.11618690858E+04 -0.36022888117E+03  0.11026682680E+04  0.16418232370E+04  0.12699999809E+01 0.  1.
       -4    1    3    3    0  502 -0.11618690858E+04  0.36022888117E+03 -0.81704168429E+03  0.14653543415E+04  0.12699999809E+01 0. -1.
</event>
<event>
 5   0  0.8489228E-07  0.3182393E+04  0.7818609E-02  0.8193483E-01
       -2   -1    0    0    0  501  0.00000000000E+00  0.00000000000E+00  0.12664935285E+04  0.12664935285E+04  0.25500000920E-02 0. -1.
        2   -1    0    0  501    0  0.00000000000E+00  0.00000000000E+00 -0.19991467293E+04  0.19991467293E+04  0.25500000920E-02 0.  1.
    10030    2    1    2    0    0  0.00000000000E+00  0.00000000000E+00 -0.73265320079E+03  0.32656402578E+04  0.31823930588E+04 0.  0.
        3    1    3    3  502    0  0.53408417076E+03 -0.28032916868E+03  0.11446292611E+04  0.12938340310E+04  0.10100000352E+00 0. -1.
       -3    1    3    3    0  502 -0.53408417076E+03  0.28032916868E+03 -0.18772824619E+04  0.19718062268E+04  0.10100000352E+00 0.  1.
</event>
<event>
 5   0  0.2553250E-07  0.3379375E+04  0.7818609E-02  0.8142987E-01
        1   -1    0    0  501    0  0.00000000000E+00  0.00000000000E+00  0.21976599010E+04  0.21976599010E+04  0.50400001928E-02 0. -1.
       -1   -1    0    0    0  501  0.00000000000E+00  0.00000000000E+00 -0.12991291149E+04  0.12991291150E+04  0.50400001928E-02 0.  1.
    10030    2    1    2    0    0  0.00000000000E+00  0.00000000000E+00  0.89853078602E+03  0.34967890159E+04  0.33793750677E+04 0.  0.
        5    1    3    3  502    0  0.52532950559E+03 -0.15045597762E+04 -0.13180655181E+03  0.15990829456E+04  0.46999998093E+01 0.  1.
       -5    1    3    3    0  502 -0.52532950559E+03  0.15045597762E+04  0.10303373378E+04  0.18977060704E+04  0.46999998093E+01 0. -1.
</event>
<event>
 5   0  0.8489228E-07  0.3372052E+04  0.7818609E-02  0.8144800E-01
        2   -1    0    0  501    0  0.00000000000E+00  0.00000000000E+00  0.26719830133E+04  0.26719830133E+04  0.25500000920E-02 0.  1.
       -2   -1    0    0    0  501  0.00000000000E+00  0.00000000000E+00 -0.10638852467E+04  0.10638852467E+04  0.25500000920E-02 0. -1.
    10030    2    1    2    0    0  0.00000000000E+00  0.00000000000E+00  0.16080977666E+04  0.37358682600E+04  0.33720517833E+04 0.  0.
        3    1    3    3  502    0 -0.12437155317E+04  0.65109731082E+03  0.18385654430E+04  0.23132399206E+04  0.10100000352E+00 0.  1.
       -3    1    3    3    0  502  0.12437155317E+04 -0.65109731082E+03 -0.23046767643E+03  0.14226283394E+04  0.10100000352E+00 0. -1.
</event>
<event>
 5   0  0.2592200E-07  0.3379824E+04  0.7818609E-02  0.8142876E-01
        1   -1    0    0  501    0  0.00000000000E+00  0.00000000000E+00  0.23230632248E+04  0.23230632248E+04  0.50400001928E-02 0.  1.
       -1   -1    0    0    0  501  0.00000000000E+00  0.00000000000E+00 -0.12293263197E+04  0.12293263197E+04  0.50400001928E-02 0. -1.
    10030    2    1    2    0    0  0.00000000000E+00  0.00000000000E+00  0.10937369051E+04  0.35523895445E+04  0.33798241165E+04 0.  0.
        4    1    3    3  502    0 -0.29539205607E+03 -0.99115048377E+03 -0.85784363404E+03  0.13437012546E+04  0.12699999809E+01 0. -1.
       -4    1    3    3    0  502  0.29539205607E+03  0.99115048377E+03  0.19515805391E+04  0.22086882899E+04  0.12699999809E+01 0.  1.
</event>
<event>
 5   0  0.2553250E-07  0.3388182E+04  0.7818609E-02  0.8140813E-01
       -1   -1    0    0    0  501  0.00000000000E+00  0.00000000000E+00  0.21947772937E+04  0.21947772937E+04  0.50400001928E-02 0.  1.
        1   -1    0    0  501    0  0.00000000000E+00  0.00000000000E+00 -0.13076242049E+04  0.13076242049E+04  0.50400001928E-02 0. -1.
    10030    2    1    2    0    0  0.00000000000E+00  0.00000000000E+00  0.88715308878E+03  0.35024014986E+04  0.33881817623E+04 0.  0.
        5    1    3    3  502    0  0.56157749873E+03  0.40969109398E+03 -0.11534004828E+04  0.13466888443E+04  0.46999998093E+01 0. -1.
       -5    1    3    3    0  502 -0.56157749873E+03 -0.40969109398E+03  0.20405535716E+04  0.21557126543E+04  0.46999998093E+01 0.  1.
</event>
<event>
 5   0  0.7822003E-07  0.3404820E+04  0.7818609E-02  0.8136724E-01
        2   -1    0    0  501    0  0.00000000000E+00  0.00000000000E+00  0.18860962515E+04  0.18860962515E+04  0.25500000920E-02 0. -1.
       -2   -1    0    0    0  501  0.00000000000E+00  0.00000000000E+00 -0.15366127827E+04  0.15366127828E+04  0.25500000920E-02 0.  1.
    10030    2    1    2    0    0  0.00000000000E+00  0.00000000000E+00  0.34948346877E+03  0.34227090343E+04  0.34048198834E+04 0.  0.
        5    1    3    3  502    0  0.70826054959E+03  0.38544060128E+03 -0.13324623616E+04  0.15574580245E+04  0.46999998093E+01 0.  1.
       -5    1    3    3    0  502 -0.70826054959E+03 -0.38544060128E+03  0.16819458303E+04  0.18652510097E+04  0.46999998093E+01 0. -1.
</event>
<event>
 5   0  0.2641442E-07  0.3420097E+04  0.7818609E-02  0.8132991E-01
        1   -1    0    0  501    0  0.00000000000E+00  0.00000000000E+00  0.15324225612E+04  0.15324225612E+04  0.50400001928E-02 0. -1.
       -1   -1    0    0    0  501  0.00000000000E+00  0.00000000000E+00 -0.19082631599E+04  0.19082631599E+04  0.50400001928E-02 0.  1.
    10030    2    1    2    0    0  0.00000000000E+00  0.00000000000E+00 -0.37584059864E+03  0.34406857211E+04  0.34200967933E+04 0.  0.
        1    1    3    3  502    0 -0.15934119928E+04  0.33286497984E+03 -0.71500626993E+03  0.17779186820E+04  0.50400001928E-02 0.  1.
       -1    1    3    3    0  502  0.15934119928E+04 -0.33286497984E+03  0.33916567129E+03  0.16627670391E+04  0.50400001928E-02 0. -1.
</event>
<event>
 5   0  0.7822003E-07  0.3407149E+04  0.7818609E-02  0.8136154E-01
        2   -1    0    0  501    0  0.00000000000E+00  0.00000000000E+00  0.18288108316E+04  0.18288108316E+04  0.25500000920E-02 0. -1.
       -2   -1    0    0    0  501  0.00000000000E+00  0.00000000000E+00 -0.15869138965E+04  0.15869138965E+04  0.25500000920E-02 0.  1.
    10030    2    1    2    0    0  0.00000000000E+00  0.00000000000E+00  0.24189693501E+03  0.34157247281E+04  0.34071485572E+04 0.  0.
        5    1    3    3  502    0 -0.58505673732E+03 -0.11277931445E+04 -0.10167801373E+04  0.16272899865E+04  0.46999998093E+01 0.  1.
       -5    1    3    3    0  502  0.58505673732E+03  0.11277931445E+04  0.12586770723E+04  0.17884347416E+04  0.46999998093E+01 0. -1.
</event>
<event>
 5   0  0.2599367E-07  0.3376465E+04  0.7818609E-02  0.8143707E-01
        1   -1    0    0  501    0  0.00000000000E+00  0.00000000000E+00  0.24950232188E+04  0.24950232188E+04  0.50400001928E-02 0.  1.
       -1   -1    0    0    0  501  0.00000000000E+00  0.00000000000E+00 -0.11423253557E+04  0.11423253557E+04  0.50400001928E-02 0. -1.
    10030    2    1    2    0    0  0.00000000000E+00  0.00000000000E+00  0.13526978631E+04  0.36373485745E+04  0.33764645924E+04 0.  0.
        2    1    3    3  502    0  0.71783600593E+03 -0.11435831755E+04  0.17680910220E+04  0.22246835444E+04  0.25500000920E-02 0.  1.
       -2    1    3    3    0  502 -0.71783600593E+03  0.11435831755E+04 -0.41539315896E+03  0.14126650301E+04  0.25500000920E-02 0. -1.
</event>
<event>
 5   0  0.2622205E-07  0.3406626E+04  0.7818609E-02  0.8136282E-01
        1   -1    0    0  501    0  0.00000000000E+00  0.00000000000E+00  0.22849932212E+04  0.22849932212E+04  0.50400001928E-02 0. -1.
       -1   -1    0    0    0  501  0.00000000000E+00  0.00000000000E+00 -0.12697084468E+04  0.12697084468E+04  0.50400001928E-02 0.  1.
    10030    2    1    2    0    0  0.00000000000E+00  0.00000000000E+00  0.10152847744E+04  0.35547016681E+04  0.34066260106E+04 0.  0.
        3    1    3    3  502    0 -0.15731102806E+04  0.32343794294E+03  0.10997463308E+04  0.19464660439E+04  0.10100000352E+00 0. -1.
       -3    1    3    3    0  502  0.15731102806E+04 -0.32343794294E+03 -0.84461556401E+02  0.16082356241E+04  0.10100000352E+00 0.  1.
</event>
<event>
 5   0  0.2553250E-07  0.3389997E+04  0.7818609E-02  0.8140366E-01
       -1   -1    0    0    0  501  0.00000000000E+00  0.00000000000E+00  0.11628697576E+04  0.11628697576E+04  0.50400001928E-02 0. -1.
        1   -1    0    0  501    0  0.00000000000E+00  0.00000000000E+00 -0.24706292752E+04  0.24706292752E+04  0.50400001928E-02 0.  1.
    10030    2    1    2    0    0  0.00000000000E+00  0.00000000000E+00 -0.13077595176E+04  0.36334990328E+04  0.33899970893E+04 0.  0.
        5    1    3    3  502    0  0.40279160757E+03 -0.80838151360E+03 -0.21912271927E+04  0.23700676047E+04  0.46999998093E+01 0.  1.
       -5    1    3    3    0  502 -0.40279160757E+03  0.80838151360E+03  0.88346767509E+03  0.12634314281E+04  0.46999998093E+01 0. -1.
</event>
<event>
 5   0  0.7899402E-07  0.3393294E+04  0.7818609E-02  0.8139554E-01
       -2   -1    0    0    0  501  0.00000000000E+00  0.00000000000E+00  0.18201640039E+04  0.18201640039E+04  0.25500000920E-02 0. -1.
        2   -1    0    0  501    0  0.00000000000E+00  0.00000000000E+00 -0.15815123037E+04  0.15815123037E+04  0.25500000920E-02 0.  1.
    10030    2    1    2    0    0  0.00000000000E+00  0.00000000000E+00  0.23865170023E+03  0.34016763076E+04  0.33932944269E+04 0.  0.
        2    1    3    3  502    0  0.79909838128E+03  0.23735653677E+03 -0.13620643306E+04  0.15969081342E+04  0.25500000920E-02 0.  1.
       -2    1    3    3    0  502 -0.79909838128E+03 -0.23735653677E+03  0.16007160308E+04  0.18047681734E+04  0.25500000920E-02 0. -1.
</event>
<event>
 5   0  0.7838333E-07  0.3431587E+04  0.7818609E-02  0.8130197E-01
        2   -1    0    0  501    0  0.00000000000E+00  0.00000000000E+00  0.13504701055E+04  0.13504701055E+04  0.25500000920E-02 0. -1.
       -2   -1    0    0    0  501  0.00000000000E+00  0.00000000000E+00 -0.21799427285E+04  0.21799427285E+04  0.25500000920E-02 0.  1.
    10030    2    1    2    0    0  0.00000000000E+00  0.00000000000E+00 -0.82947262294E+03  0.35304128340E+04  0.34315870886E+04 0.  0.
        1    1    3    3  502    0  0.57430786623E+03  0.14876289285E+04  0.23680950436E+03  0.16121253349E+04  0.50400001928E-02 0. -1.
       -1    1    3    3    0  502 -0.57430786623E+03 -0.14876289285E+04 -0.10662821273E+04  0.19182874991E+04  0.50400001928E-02 0.  1.
</event>
<event>
 5   0  0.2641442E-07  0.3407711E+04  0.7818609E-02  0.8136016E-01
        1   -1    0    0  501    0  0.00000000000E+00  0.00000000000E+00  0.20484058762E+04  0.20484058762E+04  0.50400001928E-02 0.  1.
       -1   -1    0    0    0  501  0.00000000000E+00  0.00000000000E+00 -0.14172597361E+04  0.14172597361E+04  0.50400001928E-02 0. -1.
    10030    2    1    2    0    0  0.00000000000E+00  0.00000000000E+00  0.63114614005E+03  0.34656656123E+04  0.34077107692E+04 0.  0.
        1    1    3    3  502    0  0.36938293013E+03 -0.39720990346E+02  0.20067127600E+04  0.20408129771E+04  0.50400001928E-02 0.  1.
       -1    1    3    3    0  502 -0.36938293013E+03  0.39720990346E+02 -0.13755666200E+04  0.14248526352E+04  0.50400001928E-02 0. -1.
</event>
<event>
 5   0  0.2622205E-07  0.3409390E+04  0.7818609E-02  0.8135606E-01
        1   -1    0    0  501    0  0.00000000000E+00  0.00000000000E+00  0.21954414135E+04  0.21954414135E+04  0.50400001928E-02 0. -1.
       -1   -1    0    0    0  501  0.00000000000E+00  0.00000000000E+00 -0.13236451148E+04  0.13236451148E+04  0.50400001928E-02 0.  1.
    10030    2    1    2    0    0  0.00000000000E+00  0.00000000000E+00  0.87179629868E+03  0.35190865283E+04  0.34093901518E+04 0.  0.
        3    1    3    3  502    0  0.14532351059E+04 -0.87414293144E+03  0.25721812892E+03  0.17152782030E+04  0.10100000352E+00 0.  1.
       -3    1    3    3    0  502 -0.14532351059E+04  0.87414293144E+03  0.61457816976E+03  0.18038083253E+04  0.10100000352E+00 0. -1.
</event>
<event>
 5   0  0.2622205E-07  0.3316419E+04  0.7818609E-02  0.8158730E-01
        1   -1    0    0  501    0  0.00000000000E+00  0.00000000000E+00  0.19366259046E+04  0.19366259046E+04  0.50400001928E-02 0. -1.
       -1   -1    0    0    0  501  0.00000000000E+00  0.00000000000E+00 -0.14198190295E+04  0.14198190295E+04  0.50400001928E-02 0.  1.
    10030    2    1    2    0    0  0.00000000000E+00  0.00000000000E+00  0.51680687517E+03  0.33564449341E+04  0.33164187386E+04 0.  0.
        3    1    3    3  502    0 -0.52594583478E+03 -0.72707452477E+03  0.16696509403E+04  0.18955185724E+04  0.10100000352E+00 0. -1.
       -3    1    3    3    0  502  0.52594583478E+03  0.72707452477E+03 -0.11528440651E+04  0.14609263617E+04  0.10100000352E+00 0.  1.
</event>
<event>
 5   0  0.2599367E-07  0.3391671E+04  0.7818609E-02  0.8139953E-01
       -1   -1    0    0    0  501  0.00000000000E+00  0.00000000000E+00  0.13210604876E+04  0.13210604876E+04  0.50400001928E-02 0. -1.
        1   -1    0    0  501    0  0.00000000000E+00  0.00000000000E+00 -0.21769320308E+04  0.21769320308E+04  0.50400001928E-02 0.  1.
    10030    2    1    2    0    0  0.00000000000E+00  0.00000000000E+00 -0.85587154325E+03  0.34979925184E+04  0.33916714995E+04 0.  0.
        2    1    3    3  502    0  0.11826233211E+03  0.15870110061E+04  0.17632217754E+03  0.16011494068E+04  0.25500000920E-02 0. -1.
       -2    1    3    3    0  502 -0.11826233211E+03 -0.15870110061E+04 -0.10321937208E+04  0.18968431116E+04  0.25500000920E-02 0.  1.
</event>
<event>
 5   0  0.7838333E-07  0.3404465E+04  0.7818609E-02  0.8136811E-01
        2   -1    0    0  501    0  0.00000000000E+00  0.00000000000E+00  0.29525674942E+04  0.29525674942E+04  0.25500000920E-02 0.  1.
       -2   -1    0    0    0  501  0.00000000000E+00  0.00000000000E+00 -0.98138151863E+03  0.98138151864E+03  0.25500000920E-02 0. -1.
    10030    2    1    2    0    0  0.00000000000E+00  0.00000000000E+00  0.19711859756E+04  0.39339490128E+04  0.34044648163E+04 0.  0.
        1    1    3    3  502    0  0.13848312699E+04  0.82454627253E+03  0.35272627865E+03  0.16498636396E+04  0.50400001928E-02 0. -1.
       -1    1    3    3    0  502 -0.13848312699E+04 -0.82454627253E+03  0.16184596969E+04  0.22840853732E+04  0.50400001928E-02 0.  1.
</event>
<event>
 5   0  0.8489228E-07  0.3370052E+04  0.7818609E-02  0.8145296E-01
        2   -1    0    0  501    0  0.00000000000E+00  0.00000000000E+00  0.14824440288E+04  0.14824440288E+04  0.25500000920E-02 0. -1.
       -2   -1    0    0    0  501  0.00000000000E+00  0.00000000000E+00 -0.19152914476E+04  0.19152914476E+04  0.25500000920E-02 0.  1.
    10030    2    1    2    0    0  0.00000000000E+00  0.00000000000E+00 -0.43284741884E+03  0.33977354764E+04  0.33700518512E+04 0.  0.
        3    1    3    3  502    0  0.90534908955E+03  0.14048331207E+04  0.47475172404E-01  0.16712908435E+04  0.10100000352E+00 0.  1.
       -3    1    3    3    0  502 -0.90534908955E+03 -0.14048331207E+04 -0.43289489402E+03  0.17264446329E+04  0.10100000352E+00 0. -1.
</event>
<event>
 5   0  0.2622205E-07  0.3403302E+04  0.7818609E-02  0.8137096E-01
        1   -1    0    0  501    0  0.00000000000E+00  0.00000000000E+00  0.15524606498E+04  0.15524606498E+04  0.50400001928E-02 0. -1.
       -1   -1    0    0    0  501  0.00000000000E+00  0.00000000000E+00 -0.18651779304E+04  0.18651779304E+04  0.50400001928E-02 0.  1.
    10030    2    1    2    0    0  0.00000000000E+00  0.00000000000E+00 -0.31271728058E+03  0.34176385802E+04  0.34033015393E+04 0.  0.
        3    1    3    3  502    0 -0.89211614723E+03 -0.11856122052E+04  0.68025830155E+03  0.16322680198E+04  0.10100000352E+00 0. -1.
       -3    1    3    3    0  502  0.89211614723E+03  0.11856122052E+04 -0.99297558213E+03  0.17853705605E+04  0.10100000352E+00 0.  1.
</event>
<event>
 5   0  0.7610412E-07  0.3407368E+04  0.7818609E-02  0.8136100E-01
       -2   -1    0    0    0  501  0.00000000000E+00  0.00000000000E+00  0.30629876928E+04  0.30629876928E+04  0.25500000920E-02 0. -1.
        2   -1    0    0  501    0  0.00000000000E+00  0.00000000000E+00 -0.94761700165E+03  0.94761700165E+03  0.25500000920E-02 0.  1.
    10030    2    1    2    0    0  0.00000000000E+00  0.00000000000E+00  0.21153706911E+04  0.40106046944E+04  0.34073680245E+04 0.  0.
        4    1    3    3  502    0  0.68913337584E+03  0.23177270340E+03 -0.75583872322E+03  0.10487693665E+04  0.12699999809E+01 0.  1.
       -4    1    3    3    0  502 -0.68913337584E+03 -0.23177270340E+03  0.28712094143E+04  0.29618353279E+04  0.12699999809E+01 0. -1.
</event>
<event>
 5   0  0.2622205E-07  0.3389441E+04  0.7818609E-02  0.8140503E-01
        1   -1    0    0  501    0  0.00000000000E+00  0.00000000000E+00  0.16935288285E+04  0.16935288285E+04  0.50400001928E-02 0. -1.
       -1   -1    0    0    0  501  0.00000000000E+00  0.00000000000E+00 -0.16959131222E+04  0.16959131222E+04  0.50400001928E-02 0.  1.
    10030    2    1    2    0    0  0.00000000000E+00  0.00000000000E+00 -0.23842937109E+01  0.33894419507E+04  0.33894411121E+04 0.  0.
        3    1    3    3  502    0 -0.81048165756E+03  0.86862070362E+03 -0.12097847299E+04  0.16955711565E+04  0.10100000352E+00 0.  1.
       -3    1    3    3    0  502  0.81048165756E+03 -0.86862070362E+03  0.12074004362E+04  0.16938707942E+04  0.10100000352E+00 0. -1.
</event>
<event>
 5   0  0.2622205E-07  0.3393733E+04  0.7818609E-02  0.8139446E-01
       -1   -1    0    0    0  501  0.00000000000E+00  0.00000000000E+00  0.19059215551E+04  0.19059215551E+04  0.50400001928E-02 0.  1.
        1   -1    0    0  501    0  0.00000000000E+00  0.00000000000E+00 -0.15107423437E+04  0.15107423437E+04  0.50400001928E-02 0. -1.
    10030    2    1    2    0    0  0.00000000000E+00  0.00000000000E+00  0.39517921140E+03  0.34166638989E+04  0.33937332819E+04 0.  0.
        3    1    3    3  502    0  0.70100595829E+02 -0.95619945511E+03 -0.12119147545E+04  0.15453054306E+04  0.10100000352E+00 0. -1.
       -3    1    3    3    0  502 -0.70100595829E+02  0.95619945511E+03  0.16070939659E+04  0.18713584683E+04  0.10100000352E+00 0.  1.
</event>
<event>
 5   0  0.8489228E-07  0.3361507E+04  0.7818609E-02  0.8147419E-01
       -2   -1    0    0    0  501  0.00000000000E+00  0.00000000000E+00  0.14865832141E+04  0.14865832141E+04  0.25500000920E-02 0.  1.
        2   -1    0    0  501    0  0.00000000000E+00  0.00000000000E+00 -0.19002854192E+04  0.19002854192E+04  0.25500000920E-02 0. -1.
    10030    2    1    2    0    0  0.00000000000E+00  0.00000000000E+00 -0.41370220508E+03  0.33868686332E+04  0.33615070466E+04 0.  0.
        3    1    3    3  502    0  0.72694107033E+03  0.13973784284E+04 -0.79763893003E+03  0.17655983872E+04  0.10100000352E+00 0. -1.
       -3    1    3    3    0  502 -0.72694107033E+03 -0.13973784284E+04  0.38393672495E+03  0.16212702461E+04  0.10100000352E+00 0.  1.
</event>
<event>
 5   0  0.2592200E-07  0.3404257E+04  0.7818609E-02  0.8136862E-01
       -1   -1    0    0    0  501  0.00000000000E+00  0.00000000000E+00  0.12154025499E+04  0.12154025499E+04  0.50400001928E-02 0.  1.
        1   -1    0    0  501    0  0.00000000000E+00  0.00000000000E+00 -0.23837707919E+04  0.23837707919E+04  0.50400001928E-02 0. -1.
    10030    2    1    2    0    0  0.00000000000E+00  0.00000000000E+00 -0.11683682420E+04  0.35991733418E+04  0.34042568052E+04 0.  0.
        4    1    3    3  502    0 -0.10246747986E+04 -0.47750404774E+02 -0.20202644893E+04  0.22657689122E+04  0.12699999809E+01 0. -1.
       -4    1    3    3    0  502  0.10246747986E+04  0.47750404774E+02  0.85189624722E+03  0.13334044296E+04  0.12699999809E+01 0.  1.
</event>
<event>
 5   0  0.2622205E-07  0.3382760E+04  0.7818609E-02  0.8142151E-01
        1   -1    0    0  501    0  0.00000000000E+00  0.00000000000E+00  0.19380232295E+04  0.19380232295E+04  0.50400001928E-02 0.  1.
       -1   -1    0    0    0  501  0.00000000000E+00  0.00000000000E+00 -0.14761261330E+04  0.14761261330E+04  0.50400001928E-02 0. -1.
    10030    2    1    2    0    0  0.00000000000E+00  0.00000000000E+00  0.46189709654E+03  0.34141493625E+04  0.33827602548E+04 0.  0.
        3    1    3    3  502    0  0.67096832993E+03 -0.15525625183E+04  0.24190525545E+03  0.17085570040E+04  0.10100000352E+00 0.  1.
       -3    1    3    3    0  502 -0.67096832993E+03  0.15525625183E+04  0.21999184109E+03  0.17055923585E+04  0.10100000352E+00 0. -1.
</event>
<event>
 5   0  0.7899402E-07  0.3410031E+04  0.7818609E-02  0.8135449E-01
       -2   -1    0    0    0  501  0.00000000000E+00  0.00000000000E+00  0.13579051084E+04  0.13579051084E+04  0.25500000920E-02 0.  1.
        2   -1    0    0  501    0  0.00000000000E+00  0.00000000000E+00 -0.21408551793E+04  0.21408551793E+04  0.25500000920E-02 0. -1.
    10030    2    1    2    0    0  0.00000000000E+00  0.00000000000E+00 -0.78295007087E+03  0.34987602877E+04  0.34100311931E+04 0.  0.
        2    1    3    3  502    0 -0.71971407118E+03  0.63694756313E+03  0.10534976520E+04  0.14260251910E+04  0.25500000920E-02 0.  1.
       -2    1    3    3    0  502  0.71971407118E+03 -0.63694756313E+03 -0.18364477229E+04  0.20727350968E+04  0.25500000920E-02 0. -1.
</event>
<event>
 5   0  0.2592200E-07  0.3230091E+04  0.7818609E-02  0.8180915E-01
       -1   -1    0    0    0  501  0.00000000000E+00  0.00000000000E+00  0.10444169654E+04  0.10444169654E+04  0.50400001928E-02 0. -1.
        1   -1    0    0  501    0  0.00000000000E+00  0.00000000000E+00 -0.24974438188E+04  0.24974438188E+04  0.50400001928E-02 0.  1.
    10030    2    1    2    0    0  0.00000000000E+00  0.00000000000E+00 -0.14530268534E+04  0.35418607842E+04  0.32300914504E+04 0.  0.
        4    1    3    3  502    0 -0.14920028622E+04  0.63868624135E+02 -0.52158500243E+02  0.14942803833E+04  0.12699999809E+01 0. -1.
       -4    1    3    3    0  502  0.14920028622E+04 -0.63868624135E+02 -0.14008683532E+04  0.20475804008E+04  0.12699999809E+01 0.  1.
</event>
<event>
 5   0  0.7838333E-07  0.3394842E+04  0.7818609E-02  0.8139173E-01
        2   -1    0    0  501    0  0.00000000000E+00  0.00000000000E+00  0.30265516153E+04  0.30265516153E+04  0.25500000920E-02 0.  1.
       -2   -1    0    0    0  501  0.00000000000E+00  0.00000000000E+00 -0.95198720832E+03  0.95198720833E+03  0.25500000920E-02 0. -1.
    10030    2    1    2    0    0  0.00000000000E+00  0.00000000000E+00  0.20745644070E+04  0.39785388236E+04  0.33948422191E+04 0.  0.
        1    1    3    3  502    0  0.11637148882E+04  0.73787991803E+03 -0.12437762972E+03  0.13835349324E+04  0.50400001928E-02 0. -1.
       -1    1    3    3    0  502 -0.11637148882E+04 -0.73787991803E+03  0.21989420367E+04  0.25950038912E+04  0.50400001928E-02 0.  1.
</event>
<event>
 5   0  0.2599367E-07  0.3392958E+04  0.7818609E-02  0.8139637E-01
        1   -1    0    0  501    0  0.00000000000E+00  0.00000000000E+00  0.19458570369E+04  0.19458570369E+04  0.50400001928E-02 0.  1.
       -1   -1    0    0    0  501  0.00000000000E+00  0.00000000000E+00 -0.14790611158E+04  0.14790611158E+04  0.50400001928E-02 0. -1.
    10030    2    1    2    0    0  0.00000000000E+00  0.00000000000E+00  0.46679592116E+03  0.34249181527E+04  0.33929582846E+04 0.  0.
        2    1    3    3  502    0 -0.91124544342E+03  0.14204242921E+04  0.40843273002E+03  0.17363152717E+04  0.25500000920E-02 0.  1.
       -2    1    3    3    0  502  0.91124544342E+03 -0.14204242921E+04  0.58363191144E+02  0.16886028810E+04  0.25500000920E-02 0. -1.
</event>
<event>
 5   0  0.2592200E-07  0.3399689E+04  0.7818609E-02  0.8137983E-01
        1   -1    0    0  501    0  0.00000000000E+00  0.00000000000E+00  0.23925705725E+04  0.23925705725E+04  0.50400001928E-02 0. -1.
       -1   -1    0    0    0  501  0.00000000000E+00  0.00000000000E+00 -0.12076846044E+04  0.12076846044E+04  0.50400001928E-02 0.  1.
    10030    2    1    2    0    0  0.00000000000E+00  0.00000000000E+00  0.11848859681E+04  0.36002551769E+04  0.33996886006E+04 0.  0.
        4    1    3    3  502    0 -0.98733617938E+03  0.10884854273E+04 -0.31226144950E+03  0.15023788079E+04  0.12699999809E+01 0.  1.
       -4    1    3    3    0  502  0.98733617938E+03 -0.10884854273E+04  0.14971474176E+04  0.20978763690E+04  0.12699999809E+01 0. -1.
</event>
<event>
 5   0  0.8489228E-07  0.3386946E+04  0.7818609E-02  0.8141118E-01
        2   -1    0    0  501    0  0.00000000000E+00  0.00000000000E+00  0.11341037986E+04  0.11341037987E+04  0.25500000920E-02 0.  1.
       -2   -1    0    0    0  501  0.00000000000E+00  0.00000000000E+00 -0.25287382412E+04  0.25287382412E+04  0.25500000920E-02 0. -1.
    10030    2    1    2    0    0  0.00000000000E+00  0.00000000000E+00 -0.13946344425E+04  0.36628420398E+04  0.33869464980E+04 0.  0.
        3    1    3    3  502    0 -0.96119643046E+03  0.13681425616E+04 -0.40685150722E+03  0.17208256176E+04  0.10100000352E+00 0.  1.
       -3    1    3    3    0  502  0.96119643046E+03 -0.13681425616E+04 -0.98778293532E+03  0.19420164223E+04  0.10100000352E+00 0. -1.
</event>
<event>
 5   0  0.2622205E-07  0.3397274E+04  0.7818609E-02  0.8138576E-01
        1   -1    0    0  501    0  0.00000000000E+00  0.00000000000E+00  0.16866177775E+04  0.16866177776E+04  0.50400001928E-02 0. -1.
       -1   -1    0    0    0  501  0.00000000000E+00  0.00000000000E+00 -0.17107417656E+04  0.17107417656E+04  0.50400001928E-02 0.  1.
    10030    2    1    2    0    0  0.00000000000E+00  0.00000000000E+00 -0.24123988018E+02  0.33973595431E+04  0.33972738922E+04 0.  0.
        3    1    3    3  502    0 -0.11629127972E+04  0.56004862754E+03 -0.11163302176E+04  0.17065209650E+04  0.10100000352E+00 0.  1.
       -3    1    3    3    0  502  0.11629127972E+04 -0.56004862754E+03  0.10922062296E+04  0.16908385781E+04  0.10100000352E+00 0. -1.
</event>
<event>
 5   0  0.7899402E-07  0.3383547E+04  0.7818609E-02  0.8141956E-01
       -2   -1    0    0    0  501  0.00000000000E+00  0.00000000000E+00  0.14945691913E+04  0.14945691913E+04  0.25500000920E-02 0. -1.
        2   -1    0    0  501    0  0.00000000000E+00  0.00000000000E+00 -0.19149983009E+04  0.19149983009E+04  0.25500000920E-02 0.  1.
    10030    2    1    2    0    0  0.00000000000E+00  0.00000000000E+00 -0.42042910958E+03  0.34095674921E+04  0.33835469329E+04 0.  0.
        2    1    3    3  502    0 -0.65217754356E+03 -0.22766957778E+03  0.13459831354E+04  0.15128911348E+04  0.25500000920E-02 0. -1.
       -2    1    3    3    0  502  0.65217754356E+03  0.22766957778E+03 -0.17664122450E+04  0.18966763573E+04  0.25500000920E-02 0.  1.
</event>
<event>
 5   0  0.8489228E-07  0.3387556E+04  0.7818609E-02  0.8140967E-01
       -2   -1    0    0    0  501  0.00000000000E+00  0.00000000000E+00  0.18755271603E+04  0.18755271603E+04  0.25500000920E-02 0.  1.
        2   -1    0    0  501    0  0.00000000000E+00  0.00000000000E+00 -0.15296414013E+04  0.15296414013E+04  0.25500000920E-02 0. -1.
    10030    2    1    2    0    0  0.00000000000E+00  0.00000000000E+00  0.34588575905E+03  0.34051685616E+04  0.33875560474E+04 0.  0.
        3    1    3    3  502    0  0.87789992573E+03 -0.28590018333E+02 -0.12828126277E+04  0.15547134516E+04  0.10100000352E+00 0. -1.
       -3    1    3    3    0  502 -0.87789992573E+03  0.28590018333E+02  0.16286983867E+04  0.18504551100E+04  0.10100000352E+00 0.  1.
</event>
<event>
 5   0  0.7899402E-07  0.3413152E+04  0.7818609E-02  0.8134686E-01
        2   -1    0    0  501    0  0.00000000000E+00  0.00000000000E+00  0.23360337886E+04  0.23360337886E+04  0.25500000920E-02 0. -1.
       -2   -1    0    0    0  501  0.00000000000E+00  0.00000000000E+00 -0.12467289076E+04  0.12467289076E+04  0.25500000920E-02 0.  1.
    10030    2    1    2    0    0  0.00000000000E+00  0.00000000000E+00  0.10893048809E+04  0.35827626962E+04  0.34131515369E+04 0.  0.
        2    1    3    3  502    0 -0.87208261973E+02 -0.11268580856E+03 -0.12404738117E+04  0.12486307100E+04  0.25500000920E-02 0.  1.
       -2    1    3    3    0  502  0.87208261973E+02  0.11268580856E+03  0.23297786926E+04  0.23341319862E+04  0.25500000920E-02 0. -1.
</event>
<event>
 5   0  0.7899402E-07  0.3400583E+04  0.7818609E-02  0.8137763E-01
        2   -1    0    0  501    0  0.00000000000E+00  0.00000000000E+00  0.16296155472E+04  0.16296155472E+04  0.25500000920E-02 0. -1.
       -2   -1    0    0    0  501  0.00000000000E+00  0.00000000000E+00 -0.17740329071E+04  0.17740329072E+04  0.25500000920E-02 0.  1.
    10030    2    1    2    0    0  0.00000000000E+00  0.00000000000E+00 -0.14441735998E+03  0.34036484543E+04  0.34005832480E+04 0.  0.
        2    1    3    3  502    0 -0.12813735850E+04 -0.27205696551E+03  0.10127694972E+04  0.16557884259E+04  0.25500000920E-02 0. -1.
       -2    1    3    3    0  502  0.12813735850E+04  0.27205696551E+03 -0.11571868572E+04  0.17478600285E+04  0.25500000920E-02 0.  1.
</event>
<event>
 5   0  0.2553250E-07  0.3408851E+04  0.7818609E-02  0.8135737E-01
       -1   -1    0    0    0  501  0.00000000000E+00  0.00000000000E+00  0.17473136158E+04  0.17473136158E+04  0.50400001928E-02 0. -1.
        1   -1    0    0  501    0  0.00000000000E+00  0.00000000000E+00 -0.16625901414E+04  0.16625901414E+04  0.50400001928E-02 0.  1.
    10030    2    1    2    0    0  0.00000000000E+00  0.00000000000E+00  0.84723474341E+02  0.34099037572E+04  0.34088510625E+04 0.  0.
        5    1    3    3  502    0 -0.15966037912E+04 -0.22650716115E+02 -0.55396628539E+03  0.16901353367E+04  0.46999998093E+01 0.  1.
       -5    1    3    3    0  502  0.15966037912E+04  0.22650716115E+02  0.63868975973E+03  0.17197684205E+04  0.46999998093E+01 0. -1.
</event>
<event>
 5   0  0.2592200E-07  0.3401806E+04  0.7818609E-02  0.8137463E-01
        1   -1    0    0  501    0  0.00000000000E+00  0.00000000000E+00  0.25509821764E+04  0.25509821764E+04  0.50400001928E-02 0.  1.
       -1   -1    0    0    0  501  0.00000000000E+00  0.00000000000E+00 -0.11341005121E+04  0.11341005121E+04  0.50400001928E-02 0. -1.
    10030    2    1    2    0    0  0.00000000000E+00  0.00000000000E+00  0.14168816642E+04  0.36850826885E+04  0.34018055163E+04 0.  0.
        4    1    3    3  502    0 -0.11572162985E+04 -0.39912219292E+03  0.19877213250E+04  0.23344133664E+04  0.12699999809E+01 0.  1.
       -4    1    3    3    0  502  0.11572162985E+04  0.39912219292E+03 -0.57083966075E+03  0.13506693221E+04  0.12699999809E+01 0. -1.
</event>
<event>
 5   0  0.7899402E-07  0.3385080E+04  0.7818609E-02  0.8141578E-01
       -2   -1    0    0    0  501  0.00000000000E+00  0.00000000000E+00  0.11693444917E+04  0.11693444917E+04  0.25500000920E-02 0.  1.
        2   -1    0    0  501    0  0.00000000000E+00  0.00000000000E+00 -0.24498274979E+04  0.24498274979E+04  0.25500000920E-02 0. -1.
    10030    2    1    2    0    0  0.00000000000E+00  0.00000000000E+00 -0.12804830062E+04  0.36191719895E+04  0.33850803773E+04 0.  0.
        2    1    3    3  502    0 -0.21621902083E+03 -0.40714472809E+03 -0.23814120354E+04  0.24256217300E+04  0.25500000920E-02 0. -1.
       -2    1    3    3    0  502  0.21621902083E+03  0.40714472809E+03  0.11009290293E+04  0.11935502595E+04  0.25500000920E-02 0.  1.
</event>
<event>
 5   0  0.7899402E-07  0.3346942E+04  0.7818609E-02  0.8151053E-01
        2   -1    0    0  501    0  0.00000000000E+00  0.00000000000E+00  0.17897756747E+04  0.17897756747E+04  0.25500000920E-02 0. -1.
       -2   -1    0    0    0  501  0.00000000000E+00  0.00000000000E+00 -0.15647239987E+04  0.15647239987E+04  0.25500000920E-02 0.  1.
    10030    2    1    2    0    0  0.00000000000E+00  0.00000000000E+00  0.22505167596E+03  0.33544996734E+04  0.33469418582E+04 0.  0.
        2    1    3    3  502    0  0.12341272893E+04 -0.15204761630E+03 -0.10099658147E+04  0.16019424430E+04  0.25500000920E-02 0.  1.
       -2    1    3    3    0  502 -0.12341272893E+04  0.15204761630E+03  0.12350174907E+04  0.17525572305E+04  0.25500000920E-02 0. -1.
</event>
<event>
 5   0  0.2553250E-07  0.3398053E+04  0.7818609E-02  0.8138384E-01
       -3   -1    0    0    0  501  0.00000000000E+00  0.00000000000E+00  0.14786973254E+04  0.14786973288E+04  0.10100000352E+00 0. -1.
        3   -1    0    0  501    0  0.00000000000E+00  0.00000000000E+00 -0.19521846939E+04  0.19521846965E+04  0.10100000352E+00 0.  1.
    10030    2    1    2    0    0  0.00000000000E+00  0.00000000000E+00 -0.47348736852E+03  0.34308820253E+04  0.33980525575E+04 0.  0.
        5    1    3    3  502    0  0.28477558477E+03 -0.79096603546E+03 -0.17274714544E+04  0.19211725895E+04  0.46999998093E+01 0.  1.
       -5    1    3    3    0  502 -0.28477558477E+03  0.79096603546E+03  0.12539840859E+04  0.15097094358E+04  0.46999998093E+01 0. -1.
</event>
<event>
 5   0  0.8489228E-07  0.3394227E+04  0.7818609E-02  0.8139325E-01
       -2   -1    0    0    0  501  0.00000000000E+00  0.00000000000E+00  0.12956336462E+04  0.12956336462E+04  0.25500000920E-02 0.  1.
        2   -1    0    0  501    0  0.00000000000E+00  0.00000000000E+00 -0.22230003437E+04  0.22230003437E+04  0.25500000920E-02 0. -1.
    10030    2    1    2    0    0  0.00000000000E+00  0.00000000000E+00 -0.92736669754E+03  0.35186339899E+04  0.33942268875E+04 0.  0.
        3    1    3    3  502    0  0.74164659390E+03  0.14550720966E+04  0.14661386234E+02  0.16332450652E+04  0.10100000352E+00 0.  1.
       -3    1    3    3    0  502 -0.74164659390E+03 -0.14550720966E+04 -0.94202808377E+03  0.18853889247E+04  0.10100000352E+00 0. -1.
</event>
<event>
 5   0  0.2599367E-07  0.3377106E+04  0.7818609E-02  0.8143548E-01
        1   -1    0    0  501    0  0.00000000000E+00  0.00000000000E+00  0.27594314311E+04  0.27594314312E+04  0.50400001928E-02 0. -1.
       -1   -1    0    0    0  501  0.00000000000E+00  0.00000000000E+00 -0.10332602990E+04  0.10332602990E+04  0.50400001928E-02 0.  1.
    10030    2    1    2    0    0  0.00000000000E+00  0.00000000000E+00  0.17261711321E+04  0.37926917302E+04  0.33771058293E+04 0.  0.
        2    1    3    3  502    0 -0.19691105585E+03  0.10132172885E+04  0.23638849844E+04  0.25794060280E+04  0.25500000920E-02 0. -1.
       -2    1    3    3    0  502  0.19691105585E+03 -0.10132172885E+04 -0.63771385229E+03  0.12132857022E+04  0.25500000920E-02 0.  1.
</event>
<event>
 5   0  0.2641442E-07  0.3420404E+04  0.7818609E-02  0.8132917E-01
        1   -1    0    0  501    0  0.00000000000E+00  0.00000000000E+00  0.17754166192E+04  0.17754166192E+04  0.50400001928E-02 0. -1.
       -1   -1    0    0    0  501  0.00000000000E+00  0.00000000000E+00 -0.16473826616E+04  0.16473826616E+04  0.50400001928E-02 0.  1.
    10030    2    1    2    0    0  0.00000000000E+00  0.00000000000E+00  0.12803395762E+03  0.34227992808E+04  0.34204038098E+04 0.  0.
        1    1    3    3  502    0  0.14300703615E+04  0.16920945790E+03  0.98719083310E+03  0.17459320779E+04  0.50400001928E-02 0. -1.
       -1    1    3    3    0  502 -0.14300703615E+04 -0.16920945790E+03 -0.85915687548E+03  0.16768672029E+04  0.50400001928E-02 0.  1.
</event>
<event>
 5   0  0.7899402E-07  0.3394394E+04  0.7818609E-02  0.8139284E-01
        2   -1    0    0  501    0  0.00000000000E+00  0.00000000000E+00  0.19573172348E+04  0.19573172348E+04  0.25500000920E-02 0. -1.
       -2   -1    0    0    0  501  0.00000000000E+00  0.00000000000E+00 -0.14716460217E+04  0.14716460217E+04  0.25500000920E-02 0.  1.
    10030    2    1    2    0    0  0.00000000000E+00  0.00000000000E+00  0.48567121302E+03  0.34289632565E+04  0.33943942740E+04 0.  0.
        2    1    3    3  502    0  0.52745828523E+03  0.80834609258E+03  0.16530622429E+04  0.19142231915E+04  0.25500000920E-02 0. -1.
       -2    1    3    3    0  502 -0.52745828523E+03 -0.80834609258E+03 -0.11673910298E+04  0.15147400650E+04  0.25500000920E-02 0.  1.
</event>
<event>
 5   0  0.7822003E-07  0.3218771E+04  0.7818609E-02  0.8183877E-01
        2   -1    0    0  501    0  0.00000000000E+00  0.00000000000E+00  0.13442151943E+04  0.13442151943E+04  0.25500000920E-02 0. -1.
       -2   -1    0    0    0  501  0.00000000000E+00  0.00000000000E+00 -0.19268652270E+04  0.19268652270E+04  0.25500000920E-02 0.  1.
    10030    2    1    2    0    0  0.00000000000E+00  0.00000000000E+00 -0.58265003265E+03  0.32710804213E+04  0.32187708930E+04 0.  0.
        5    1    3    3  502    0 -0.10418011299E+03 -0.36319595924E+03  0.12984945349E+04  0.13523590307E+04  0.46999998093E+01 0. -1.
       -5    1    3    3    0  502  0.10418011299E+03  0.36319595924E+03 -0.18811445675E+04  0.19187213906E+04  0.46999998093E+01 0.  1.
</event>
<event>
 5   0  0.2599367E-07  0.3371246E+04  0.7818609E-02  0.8145000E-01
       -1   -1    0    0    0  501  0.00000000000E+00  0.00000000000E+00  0.31255773485E+04  0.31255773485E+04  0.50400001928E-02 0. -1.
        1   -1    0    0  501    0  0.00000000000E+00  0.00000000000E+00 -0.90905623845E+03  0.90905623846E+03  0.50400001928E-02 0.  1.
    10030    2    1    2    0    0  0.00000000000E+00  0.00000000000E+00  0.22165211101E+04  0.40346335870E+04  0.33712464090E+04 0.  0.
        2    1    3    3  502    0 -0.14332285384E+04  0.83358620997E+03  0.74463776783E+03  0.18175520400E+04  0.25500000920E-02 0. -1.
       -2    1    3    3    0  502  0.14332285384E+04 -0.83358620997E+03  0.14718833423E+04  0.22170815470E+04  0.25500000920E-02 0.  1.
</event>
<event>
 5   0  0.2553250E-07  0.3393559E+04  0.7818609E-02  0.8139489E-01
       -1   -1    0    0    0  501  0.00000000000E+00  0.00000000000E+00  0.15499236926E+04  0.15499236926E+04  0.50400001928E-02 0.  1.
        1   -1    0    0  501    0  0.00000000000E+00  0.00000000000E+00 -0.18575495510E+04  0.18575495510E+04  0.50400001928E-02 0. -1.
    10030    2    1    2    0    0  0.00000000000E+00  0.00000000000E+00 -0.30762585847E+03  0.34074732436E+04  0.33935586391E+04 0.  0.
        5    1    3    3  502    0  0.11995138106E+04  0.71869766735E+03 -0.11188354645E+04  0.17908586224E+04  0.46999998093E+01 0. -1.
       -5    1    3    3    0  502 -0.11995138106E+04 -0.71869766735E+03  0.81120960600E+03  0.16166146213E+04  0.46999998093E+01 0.  1.
</event>
<event>
 5   0  0.7610412E-07  0.3392379E+04  0.7818609E-02  0.8139779E-01
        2   -1    0    0  501    0  0.00000000000E+00  0.00000000000E+00  0.26903725167E+04  0.26903725167E+04  0.25500000920E-02 0.  1.
       -2   -1    0    0    0  501  0.00000000000E+00  0.00000000000E+00 -0.10693906930E+04  0.10693906930E+04  0.25500000920E-02 0. -1.
    10030    2    1    2    0    0  0.00000000000E+00  0.00000000000E+00  0.16209818237E+04  0.37597632096E+04  0.33923793007E+04 0.  0.
        4    1    3    3  502    0  0.14051460084E+04  0.93846948225E+03  0.64648753447E+03  0.18091732972E+04  0.12699999809E+01 0. -1.
       -4    1    3    3    0  502 -0.14051460084E+04 -0.93846948225E+03  0.97449428922E+03  0.19505899125E+04  0.12699999809E+01 0.  1.
</event>
<event>
 5   0  0.2622205E-07  0.3450411E+04  0.7818609E-02  0.8125643E-01
       -1   -1    0    0    0  501  0.00000000000E+00  0.00000000000E+00  0.15915814163E+04  0.15915814163E+04  0.50400001928E-02 0.  1.
        1   -1    0    0  501    0  0.00000000000E+00  0.00000000000E+00 -0.18700486226E+04  0.18700486226E+04  0.50400001928E-02 0. -1.
    10030    2    1    2    0    0  0.00000000000E+00  0.00000000000E+00 -0.27846720630E+03  0.34616300389E+04  0.34504113583E+04 0.  0.
        3    1    3    3  502    0  0.14440038404E+04 -0.54589923279E+03 -0.91192058900E+03  0.17929730155E+04  0.10100000352E+00 0. -1.
       -3    1    3    3    0  502 -0.14440038404E+04  0.54589923279E+03  0.63345338270E+03  0.16686570234E+04  0.10100000352E+00 0.  1.
</event>
<event>
 5   0  0.2599367E-07  0.3464540E+04  0.7818609E-02  0.8122245E-01
       -1   -1    0    0    0  501  0.00000000000E+00  0.00000000000E+00  0.11195364884E+04  0.11195364884E+04  0.50400001928E-02 0.  1.
        1   -1    0    0  501    0  0.00000000000E+00  0.00000000000E+00 -0.26803584994E+04  0.26803584994E+04  0.50400001928E-02 0. -1.
    10030    2    1    2    0    0  0.00000000000E+00  0.00000000000E+00 -0.15608220110E+04  0.37998949878E+04  0.34645398783E+04 0.  0.
        2    1    3    3  502    0  0.17375105951E+03  0.45622072652E+03 -0.26033488314E+04  0.26487264714E+04  0.25500000920E-02 0. -1.
       -2    1    3    3    0  502 -0.17375105951E+03 -0.45622072652E+03  0.10425268204E+04  0.11511685164E+04  0.25500000920E-02 0.  1.
</event>
<event>
 5   0  0.7899402E-07  0.3401163E+04  0.7818609E-02  0.8137621E-01
       -2   -1    0    0    0  501  0.00000000000E+00  0.00000000000E+00  0.15653671991E+04  0.15653671991E+04  0.25500000920E-02 0. -1.
        2   -1    0    0  501    0  0.00000000000E+00  0.00000000000E+00 -0.18474755761E+04  0.18474755761E+04  0.25500000920E-02 0.  1.
    10030    2    1    2    0    0  0.00000000000E+00  0.00000000000E+00 -0.28210837704E+03  0.34128427752E+04  0.34011631351E+04 0.  0.
        2    1    3    3  502    0 -0.83027388424E+03 -0.64118964784E+03  0.12020109509E+04  0.15954025239E+04  0.25500000920E-02 0. -1.
       -2    1    3    3    0  502  0.83027388424E+03  0.64118964784E+03 -0.14841193279E+04  0.18174402513E+04  0.25500000920E-02 0.  1.
</event>
<event>
 5   0  0.8489228E-07  0.3389291E+04  0.7818609E-02  0.8140540E-01
       -2   -1    0    0    0  501  0.00000000000E+00  0.00000000000E+00  0.10903367466E+04  0.10903367466E+04  0.25500000920E-02 0.  1.
        2   -1    0    0  501    0  0.00000000000E+00  0.00000000000E+00 -0.26338870565E+04  0.26338870565E+04  0.25500000920E-02 0. -1.
    10030    2    1    2    0    0  0.00000000000E+00  0.00000000000E+00 -0.15435503099E+04  0.37242238031E+04  0.33892912793E+04 0.  0.
        3    1    3    3  502    0 -0.12505411876E+04 -0.37536220220E+03 -0.19588443503E+04  0.23541073135E+04  0.10100000352E+00 0.  1.
       -3    1    3    3    0  502  0.12505411876E+04  0.37536220220E+03  0.41529404040E+03  0.13701164896E+04  0.10100000352E+00 0. -1.
</event>
<event>
 5   0  0.2592200E-07  0.3399212E+04  0.7818609E-02  0.8138100E-01
        1   -1    0    0  501    0  0.00000000000E+00  0.00000000000E+00  0.10084117821E+04  0.10084117821E+04  0.50400001928E-02 0.  1.
       -1   -1    0    0    0  501  0.00000000000E+00  0.00000000000E+00 -0.28645639791E+04  0.28645639791E+04  0.50400001928E-02 0. -1.
    10030    2    1    2    0    0  0.00000000000E+00  0.00000000000E+00 -0.18561521971E+04  0.38729757612E+04  0.33992117128E+04 0.  0.
        4    1    3    3  502    0 -0.17763785394E+02  0.13721436292E+04  0.21446435940E+03  0.13889169398E+04  0.12699999809E+01 0.  1.
       -4    1    3    3    0  502  0.17763785394E+02 -0.13721436292E+04 -0.20706165565E+04  0.24840588214E+04  0.12699999809E+01 0. -1.
</event>
<event>
 5   0  0.8489228E-07  0.3407890E+04  0.7818609E-02  0.8135972E-01
       -2   -1    0    0    0  501  0.00000000000E+00  0.00000000000E+00  0.11976247007E+04  0.11976247007E+04  0.25500000920E-02 0. -1.
        2   -1    0    0  501    0  0.00000000000E+00  0.00000000000E+00 -0.24243229644E+04  0.24243229644E+04  0.25500000920E-02 0.  1.
    10030    2    1    2    0    0  0.00000000000E+00  0.00000000000E+00 -0.12266982637E+04  0.36219476651E+04  0.34078902944E+04 0.  0.
        3    1    3    3  502    0  0.95421640306E+03  0.90424631443E+03  0.53882895087E+03  0.14207487426E+04  0.10100000352E+00 0. -1.
       -3    1    3    3    0  502 -0.95421640306E+03 -0.90424631443E+03 -0.17655272145E+04  0.22011989225E+04  0.10100000352E+00 0.  1.
</event>
<event>
 5   0  0.2622205E-07  0.3398555E+04  0.7818609E-02  0.8138261E-01
        1   -1    0    0  501    0  0.00000000000E+00  0.00000000000E+00  0.16477817553E+04  0.16477817553E+04  0.50400001928E-02 0. -1.
       -1   -1    0    0    0  501  0.00000000000E+00  0.00000000000E+00 -0.17523825534E+04  0.17523825534E+04  0.50400001928E-02 0.  1.
    10030    2    1    2    0    0  0.00000000000E+00  0.00000000000E+00 -0.10460079814E+03  0.34001643087E+04  0.33985549869E+04 0.  0.
        3    1    3    3  502    0 -0.16573384567E+04  0.34418343017E+03 -0.20173978775E+03  0.17046794261E+04  0.10100000352E+00 0. -1.
       -3    1    3    3    0  502  0.16573384567E+04 -0.34418343017E+03  0.97138989609E+02  0.16954848826E+04  0.10100000352E+00 0.  1.
</event>
<event>
 5   0  0.7899402E-07  0.3413454E+04  0.7818609E-02  0.8134612E-01
       -2   -1    0    0    0  501  0.00000000000E+00  0.00000000000E+00  0.12034382698E+04  0.12034382698E+04  0.25500000920E-02 0. -1.
        2   -1    0    0  501    0  0.00000000000E+00  0.00000000000E+00 -0.24204960194E+04  0.24204960194E+04  0.25500000920E-02 0.  1.
    10030    2    1    2    0    0  0.00000000000E+00  0.00000000000E+00 -0.12170577495E+04  0.36239342892E+04  0.34134542866E+04 0.  0.
        2    1    3    3  502    0 -0.97329023833E+03  0.13109589668E+04 -0.80881595653E+02  0.16347627146E+04  0.25500000920E-02 0. -1.
       -2    1    3    3    0  502  0.97329023833E+03 -0.13109589668E+04 -0.11361761539E+04  0.19891715746E+04  0.25500000920E-02 0.  1.
</event>
<event>
 5   0  0.8489228E-07  0.3337558E+04  0.7818609E-02  0.8153404E-01
        2   -1    0    0  501    0  0.00000000000E+00  0.00000000000E+00  0.27169531523E+04  0.27169531523E+04  0.25500000920E-02 0.  1.
       -2   -1    0    0    0  501  0.00000000000E+00  0.00000000000E+00 -0.10249804098E+04  0.10249804098E+04  0.25500000920E-02 0. -1.
    10030    2    1    2    0    0  0.00000000000E+00  0.00000000000E+00  0.16919727425E+04  0.37419335621E+04  0.33375582424E+04 0.  0.
        3    1    3    3  502    0  0.15547828392E+04  0.31725700207E+02  0.16727522686E+03  0.15640771109E+04  0.10100000352E+00 0. -1.
       -3    1    3    3    0  502 -0.15547828392E+04 -0.31725700207E+02  0.15246975157E+04  0.21778564511E+04  0.10100000352E+00 0.  1.
</event>
<event>
 5   0  0.7838333E-07  0.3395339E+04  0.7818609E-02  0.8139051E-01
        2   -1    0    0  501    0  0.00000000000E+00  0.00000000000E+00  0.19672992720E+04  0.19672992720E+04  0.25500000920E-02 0.  1.
       -2   -1    0    0    0  501  0.00000000000E+00  0.00000000000E+00 -0.14649938514E+04  0.14649938514E+04  0.25500000920E-02 0. -1.
    10030    2    1    2    0    0  0.00000000000E+00  0.00000000000E+00  0.50230542062E+03  0.34322931234E+04  0.33953387680E+04 0.  0.
        1    1    3    3  502    0 -0.78457324660E+03 -0.15039134313E+04  0.18133181096E+03  0.17059284903E+04  0.50400001928E-02 0.  1.
       -1    1    3    3    0  502  0.78457324660E+03  0.15039134313E+04  0.32097360967E+03  0.17263646331E+04  0.50400001928E-02 0. -1.
</event>
<event>
 5   0  0.2641442E-07  0.3377019E+04  0.7818609E-02  0.8143570E-01
        1   -1    0    0  501    0  0.00000000000E+00  0.00000000000E+00  0.11241563006E+04  0.11241563006E+04  0.50400001928E-02 0. -1.
       -1   -1    0    0    0  501  0.00000000000E+00  0.00000000000E+00 -0.25361821753E+04  0.25361821753E+04  0.50400001928E-02 0.  1.
    10030    2    1    2    0    0  0.00000000000E+00  0.00000000000E+00 -0.14120258747E+04  0.36603384759E+04  0.33770194977E+04 0.  0.
        1    1    3    3  502    0 -0.13498940854E+03  0.99518427014E+03  0.76523439211E+03  0.12626153598E+04  0.50400001928E-02 0. -1.
       -1    1    3    3    0  502  0.13498940854E+03 -0.99518427014E+03 -0.21772602668E+04  0.23977231161E+04  0.50400001928E-02 0.  1.
</event>
<event>
 5   0  0.8489228E-07  0.3349589E+04  0.7818609E-02  0.8150391E-01
        2   -1    0    0  501    0  0.00000000000E+00  0.00000000000E+00  0.22781874028E+04  0.22781874028E+04  0.25500000920E-02 0. -1.
       -2   -1    0    0    0  501  0.00000000000E+00  0.00000000000E+00 -0.12312143888E+04  0.12312143888E+04  0.25500000920E-02 0.  1.
    10030    2    1    2    0    0  0.00000000000E+00  0.00000000000E+00  0.10469730140E+04  0.35094017916E+04  0.33495892947E+04 0.  0.
        3    1    3    3  502    0 -0.12860233026E+04  0.10145208326E+03  0.16425226858E+04  0.20885471609E+04  0.10100000352E+00 0. -1.
       -3    1    3    3    0  502  0.12860233026E+04 -0.10145208326E+03 -0.59554967174E+03  0.14208546307E+04  0.10100000352E+00 0.  1.
</event>
<event>
 5   0  0.2592200E-07  0.3403615E+04  0.7818609E-02  0.8137020E-01
       -1   -1    0    0    0  501  0.00000000000E+00  0.00000000000E+00  0.20173570324E+04  0.20173570324E+04  0.50400001928E-02 0. -1.
        1   -1    0    0  501    0  0.00000000000E+00  0.00000000000E+00 -0.14356151595E+04  0.14356151595E+04  0.50400001928E-02 0.  1.
    10030    2    1    2    0    0  0.00000000000E+00  0.00000000000E+00  0.58174187287E+03  0.34529721919E+04  0.34036147478E+04 0.  0.
        4    1    3    3  502    0 -0.10939029179E+04 -0.12068948581E+04  0.79089558241E+03  0.18107280932E+04  0.12699999809E+01 0. -1.
       -4    1    3    3    0  502  0.10939029179E+04  0.12068948581E+04 -0.20915370954E+03  0.16422440987E+04  0.12699999809E+01 0.  1.
</event>
<event>
 5   0  0.7822003E-07  0.3403740E+04  0.7818609E-02  0.8136989E-01
       -2   -1    0    0    0  501  0.00000000000E+00  0.00000000000E+00  0.14748061934E+04  0.14748061934E+04  0.25500000920E-02 0.  1.
        2   -1    0    0  501    0  0.00000000000E+00  0.00000000000E+00 -0.19638923852E+04  0.19638923852E+04  0.25500000920E-02 0. -1.
    10030    2    1    2    0    0  0.00000000000E+00  0.00000000000E+00 -0.48908619176E+03  0.34386985785E+04  0.34037395040E+04 0.  0.
        5    1    3    3  502    0 -0.23045345916E+03  0.10433880185E+04  0.10936638918E+04  0.15290160732E+04  0.46999998093E+01 0.  1.
       -5    1    3    3    0  502  0.23045345916E+03 -0.10433880185E+04 -0.15827500836E+04  0.19096825053E+04  0.46999998093E+01 0. -1.
</event>
<event>
 5   0  0.2592200E-07  0.3408458E+04  0.7818609E-02  0.8135833E-01
       -1   -1    0    0    0  501  0.00000000000E+00  0.00000000000E+00  0.14565027274E+04  0.14565027274E+04  0.50400001928E-02 0.  1.
        1   -1    0    0  501    0  0.00000000000E+00  0.00000000000E+00 -0.19940896767E+04  0.19940896767E+04  0.50400001928E-02 0. -1.
    10030    2    1    2    0    0  0.00000000000E+00  0.00000000000E+00 -0.53758694923E+03  0.34505924041E+04  0.34084583335E+04 0.  0.
        4    1    3    3  502    0  0.36397556418E+03  0.11815118161E+04 -0.14563014482E+04  0.19103046626E+04  0.12699999809E+01 0. -1.
       -4    1    3    3    0  502 -0.36397556418E+03 -0.11815118161E+04  0.91871449902E+03  0.15402877415E+04  0.12699999809E+01 0.  1.
</event>
<event>
 5   0  0.2622205E-07  0.3277441E+04  0.7818609E-02  0.8168659E-01
       -1   -1    0    0    0  501  0.00000000000E+00  0.00000000000E+00  0.15348007017E+04  0.15348007017E+04  0.50400001928E-02 0. -1.
        1   -1    0    0  501    0  0.00000000000E+00  0.00000000000E+00 -0.17496762435E+04  0.17496762435E+04  0.50400001928E-02 0.  1.
    10030    2    1    2    0    0  0.00000000000E+00  0.00000000000E+00 -0.21487554181E+03  0.32844769452E+04  0.32774406638E+04 0.  0.
        3    1    3    3  502    0  0.85602557002E+03  0.11084155228E+04 -0.96016971110E+03  0.16980255098E+04  0.10100000352E+00 0.  1.
       -3    1    3    3    0  502 -0.85602557002E+03 -0.11084155228E+04  0.74529416929E+03  0.15864514353E+04  0.10100000352E+00 0. -1.
</event>
<event>
 5   0  0.7838333E-07  0.3396266E+04  0.7818609E-02  0.8138823E-01
       -2   -1    0    0    0  501  0.00000000000E+00  0.00000000000E+00  0.14458462476E+04  0.14458462476E+04  0.25500000920E-02 0.  1.
        2   -1    0    0  501    0  0.00000000000E+00  0.00000000000E+00 -0.19944411378E+04  0.19944411378E+04  0.25500000920E-02 0. -1.
    10030    2    1    2    0    0  0.00000000000E+00  0.00000000000E+00 -0.54859489013E+03  0.34402873854E+04  0.33962657347E+04 0.  0.
        1    1    3    3  502    0  0.60948593399E+03  0.14328246052E+04  0.41212583563E+03  0.16106853068E+04  0.50400001928E-02 0.  1.
       -1    1    3    3    0  502 -0.60948593399E+03 -0.14328246052E+04 -0.96072072576E+03  0.18296020786E+04  0.50400001928E-02 0. -1.
</event>
<event>
 5   0  0.7610412E-07  0.3367864E+04  0.7818609E-02  0.8145839E-01
        2   -1    0    0  501    0  0.00000000000E+00  0.00000000000E+00  0.16901456250E+04  0.16901456250E+04  0.25500000920E-02 0.  1.
       -2   -1    0    0    0  501  0.00000000000E+00  0.00000000000E+00 -0.16777409444E+04  0.16777409444E+04  0.25500000920E-02 0. -1.
    10030    2    1    2    0    0  0.00000000000E+00  0.00000000000E+00  0.12404680596E+02  0.33678865693E+04  0.33678637246E+04 0.  0.
        4    1    3    3  502    0  0.61084380462E+03  0.76762386526E+03 -0.13624735764E+04  0.16789021447E+04  0.12699999809E+01 0. -1.
       -4    1    3    3    0  502 -0.61084380462E+03 -0.76762386526E+03  0.13748782570E+04  0.16889844246E+04  0.12699999809E+01 0.  1.
</event>
<event>
 5   0  0.8489228E-07  0.3367900E+04  0.7818609E-02  0.8145830E-01
        2   -1    0    0  501    0  0.00000000000E+00  0.00000000000E+00  0.20989768852E+04  0.20989768852E+04  0.25500000920E-02 0.  1.
       -2   -1    0    0    0  501  0.00000000000E+00  0.00000000000E+00 -0.13509854759E+04  0.13509854759E+04  0.25500000920E-02 0. -1.
    10030    2    1    2    0    0  0.00000000000E+00  0.00000000000E+00  0.74799140935E+03  0.34499623611E+04  0.33678998121E+04 0.  0.
        3    1    3    3  502    0  0.15341950263E+04 -0.69344308288E+03  0.34049426670E+03  0.17177176845E+04  0.10100000352E+00 0.  1.
       -3    1    3    3    0  502 -0.15341950263E+04  0.69344308288E+03  0.40749714264E+03  0.17322446765E+04  0.10100000352E+00 0. -1.
</event>
<event>
 5   0  0.2592200E-07  0.3403590E+04  0.7818609E-02  0.8137026E-01
       -1   -1    0    0    0  501  0.00000000000E+00  0.00000000000E+00  0.14975646413E+04  0.14975646414E+04  0.50400001928E-02 0.  1.
        1   -1    0    0  501    0  0.00000000000E+00  0.00000000000E+00 -0.19338770746E+04  0.19338770746E+04  0.50400001928E-02 0. -1.
    10030    2    1    2    0    0  0.00000000000E+00  0.00000000000E+00 -0.43631243323E+03  0.34314417159E+04  0.34035898270E+04 0.  0.
        4    1    3    3  502    0 -0.46452662517E+03  0.16141324160E+04  0.57754362671E+02  0.16806384564E+04  0.12699999809E+01 0.  1.
       -4    1    3    3    0  502  0.46452662517E+03 -0.16141324160E+04 -0.49406679590E+03  0.17508032595E+04  0.12699999809E+01 0. -1.
</event>
<event>
 5   0  0.2599367E-07  0.3415376E+04  0.7818609E-02  0.8134143E-01
        1   -1    0    0  501    0  0.00000000000E+00  0.00000000000E+00  0.12857610375E+04  0.12857610376E+04  0.50400001928E-02 0.  1.
       -1   -1    0    0    0  501  0.00000000000E+00  0.00000000000E+00 -0.22680718830E+04  0.22680718830E+04  0.50400001928E-02 0. -1.
    10030    2    1    2    0    0  0.00000000000E+00  0.00000000000E+00 -0.98231084542E+03  0.35538329205E+04  0.34153760891E+04 0.  0.
        2    1    3    3  502    0  0.57426526664E+03  0.64864542171E+02 -0.21632247871E+04  0.22390912185E+04  0.25500000920E-02 0. -1.
       -2    1    3    3    0  502 -0.57426526664E+03 -0.64864542171E+02  0.11809139417E+04  0.13147417020E+04  0.25500000920E-02 0.  1.
</event>
<event>
 5   0  0.7822003E-07  0.3385195E+04  0.7818609E-02  0.8141549E-01
       -2   -1    0    0    0  501  0.00000000000E+00  0.00000000000E+00  0.15914156011E+04  0.15914156011E+04  0.25500000920E-02 0.  1.
        2   -1    0    0  501    0  0.00000000000E+00  0.00000000000E+00 -0.18002126522E+04  0.18002126522E+04  0.25500000920E-02 0. -1.
    10030    2    1    2    0    0  0.00000000000E+00  0.00000000000E+00 -0.20879705118E+03  0.33916282533E+04  0.33851951199E+04 0.  0.
        5    1    3    3  502    0  0.92896239926E+03 -0.89543232387E+02 -0.15191284272E+04  0.17829084099E+04  0.46999998093E+01 0. -1.
       -5    1    3    3    0  502 -0.92896239926E+03  0.89543232387E+02  0.13103313760E+04  0.16087198434E+04  0.46999998093E+01 0.  1.
</event>
<event>
 5   0  0.2641442E-07  0.3388181E+04  0.7818609E-02  0.8140813E-01
        1   -1    0    0  501    0  0.00000000000E+00  0.00000000000E+00  0.32675984488E+04  0.32675984488E+04  0.50400001928E-02 0. -1.
       -1   -1    0    0    0  501  0.00000000000E+00  0.00000000000E+00 -0.87830315110E+03  0.87830315112E+03  0.50400001928E-02 0.  1.
    10030    2    1    2    0    0  0.00000000000E+00  0.00000000000E+00  0.23892952977E+04  0.41459015999E+04  0.33881806411E+04 0.  0.
        1    1    3    3  502    0 -0.89494983523E+03  0.11413841544E+04  0.12352944780E+03  0.14556622273E+04  0.50400001928E-02 0.  1.
       -1    1    3    3    0  502  0.89494983523E+03 -0.11413841544E+04  0.22657658499E+04  0.26902393726E+04  0.50400001928E-02 0. -1.
</event>
<event>
 5   0  0.8489228E-07  0.3370910E+04  0.7818609E-02  0.8145083E-01
        2   -1    0    0  501    0  0.00000000000E+00  0.00000000000E+00  0.23048654374E+04  0.23048654374E+04  0.25500000920E-02 0. -1.
       -2   -1    0    0    0  501  0.00000000000E+00  0.00000000000E+00 -0.12325050565E+04  0.12325050565E+04  0.25500000920E-02 0.  1.
    10030    2    1    2    0    0  0.00000000000E+00  0.00000000000E+00  0.10723603809E+04  0.35373704940E+04  0.33709098512E+04 0.  0.
        3    1    3    3  502    0  0.60763644202E+03  0.40617295707E+02  0.21853748037E+04  0.22686416317E+04  0.10100000352E+00 0. -1.
       -3    1    3    3    0  502 -0.60763644202E+03 -0.40617295707E+02 -0.11130144228E+04  0.12687288622E+04  0.10100000352E+00 0.  1.
</event>
<event>
 5   0  0.2599367E-07  0.3412177E+04  0.7818609E-02  0.8134924E-01
        1   -1    0    0  501    0  0.00000000000E+00  0.00000000000E+00  0.12869160179E+04  0.12869160179E+04  0.50400001928E-02 0.  1.
       -1   -1    0    0    0  501  0.00000000000E+00  0.00000000000E+00 -0.22617932047E+04  0.22617932047E+04  0.50400001928E-02 0. -1.
    10030    2    1    2    0    0  0.00000000000E+00  0.00000000000E+00 -0.97487718677E+03  0.35487092226E+04  0.34121769616E+04 0.  0.
        2    1    3    3  502    0 -0.14919451803E+04 -0.53462364068E+03  0.16951320365E+03  0.15938812956E+04  0.25500000920E-02 0.  1.
       -2    1    3    3    0  502  0.14919451803E+04  0.53462364068E+03 -0.11443903904E+04  0.19548279270E+04  0.25500000920E-02 0. -1.
</event>
<event>
 5   0  0.2592200E-07  0.3368990E+04  0.7818609E-02  0.8145559E-01
        1   -1    0    0  501    0  0.00000000000E+00  0.00000000000E+00  0.18633111476E+04  0.18633111476E+04  0.50400001928E-02 0.  1.
       -1   -1    0    0    0  501  0.00000000000E+00  0.00000000000E+00 -0.15228391590E+04  0.15228391590E+04  0.50400001928E-02 0. -1.
    10030    2    1    2    0    0  0.00000000000E+00  0.00000000000E+00  0.34047198854E+03  0.33861503066E+04  0.33689898670E+04 0.  0.
        4    1    3    3  502    0 -0.14403982135E+04 -0.87208704972E+03  0.12267974303E+03  0.16882934484E+04  0.12699999809E+01 0.  1.
       -4    1    3    3    0  502  0.14403982135E+04  0.87208704972E+03  0.21779224552E+03  0.16978568582E+04  0.12699999809E+01 0. -1.
</event>
<event>
 5   0  0.2553250E-07  0.3388361E+04  0.7818609E-02  0.8140769E-01
       -3   -1    0    0    0  501  0.00000000000E+00  0.00000000000E+00  0.24734143863E+04  0.24734143883E+04  0.10100000352E+00 0.  1.
        3   -1    0    0  501    0  0.00000000000E+00  0.00000000000E+00 -0.11604390936E+04  0.11604390980E+04  0.10100000352E+00 0. -1.
    10030    2    1    2    0    0  0.00000000000E+00  0.00000000000E+00  0.13129752927E+04  0.36338534863E+04  0.33883605240E+04 0.  0.
        2    1    3    3  502    0  0.13973211582E+03 -0.11755940433E+04 -0.64321617996E+03  0.13473208501E+04  0.25500000920E-02 0. -1.
       -2    1    3    3    0  502 -0.13973211582E+03  0.11755940433E+04  0.19561914727E+04  0.22865326362E+04  0.25500000920E-02 0.  1.
</event>
<event>
 5   0  0.7610412E-07  0.3360479E+04  0.7818609E-02  0.8147675E-01
        2   -1    0    0  501    0  0.00000000000E+00  0.00000000000E+00  0.20922871216E+04  0.20922871216E+04  0.25500000920E-02 0.  1.
       -2   -1    0    0    0  501  0.00000000000E+00  0.00000000000E+00 -0.13493391293E+04  0.13493391293E+04  0.25500000920E-02 0. -1.
    10030    2    1    2    0    0  0.00000000000E+00  0.00000000000E+00  0.74294799223E+03  0.34416262509E+04  0.33604790628E+04 0.  0.
        4    1    3    3  502    0  0.37967474252E+03  0.16182707240E+04  0.12008755839E+03  0.16665460332E+04  0.12699999809E+01 0. -1.
       -4    1    3    3    0  502 -0.37967474252E+03 -0.16182707240E+04  0.62286043385E+03  0.17750802177E+04  0.12699999809E+01 0.  1.
</event>
<event>
 5   0  0.2553250E-07  0.3417879E+04  0.7818609E-02  0.8133532E-01
        1   -1    0    0  501    0  0.00000000000E+00  0.00000000000E+00  0.24247855466E+04  0.24247855466E+04  0.50400001928E-02 0. -1.
       -1   -1    0    0    0  501  0.00000000000E+00  0.00000000000E+00 -0.12044256925E+04  0.12044256925E+04  0.50400001928E-02 0.  1.
    10030    2    1    2    0    0  0.00000000000E+00  0.00000000000E+00  0.12203598541E+04  0.36292112391E+04  0.34178788809E+04 0.  0.
        5    1    3    3  502    0  0.48987841390E+02 -0.69141491101E+03  0.22688128140E+04  0.23723381004E+04  0.46999998093E+01 0. -1.
       -5    1    3    3    0  502 -0.48987841390E+02  0.69141491101E+03 -0.10484529599E+04  0.12568731387E+04  0.46999998093E+01 0.  1.
</event>
<event>
 5   0  0.7899402E-07  0.3401637E+04  0.7818609E-02  0.8137505E-01
        2   -1    0    0  501    0  0.00000000000E+00  0.00000000000E+00  0.25478267191E+04  0.25478267191E+04  0.25500000920E-02 0.  1.
       -2   -1    0    0    0  501  0.00000000000E+00  0.00000000000E+00 -0.11353928615E+04  0.11353928615E+04  0.25500000920E-02 0. -1.
    10030    2    1    2    0    0  0.00000000000E+00  0.00000000000E+00  0.14124338575E+04  0.36832195806E+04  0.34016374112E+04 0.  0.
        2    1    3    3  502    0  0.90795388850E+03 -0.79828220144E+03  0.20015519218E+04  0.23383423258E+04  0.25500000920E-02 0.  1.
       -2    1    3    3    0  502 -0.90795388850E+03  0.79828220144E+03 -0.58911806430E+03  0.13448772548E+04  0.25500000920E-02 0. -1.
</event>
<event>
 5   0  0.2592200E-07  0.3376112E+04  0.7818609E-02  0.8143794E-01
        1   -1    0    0  501    0  0.00000000000E+00  0.00000000000E+00  0.91461855226E+03  0.91461855227E+03  0.50400001928E-02 0. -1.
       -1   -1    0    0    0  501  0.00000000000E+00  0.00000000000E+00 -0.31155421798E+04  0.31155421798E+04  0.50400001928E-02 0.  1.
    10030    2    1    2    0    0  0.00000000000E+00  0.00000000000E+00 -0.22009236276E+04  0.40301607321E+04  0.33761117743E+04 0.  0.
        4    1    3    3  502    0  0.46214216231E+03 -0.25341337746E+03 -0.30148008551E+04  0.30605260213E+04  0.12699999809E+01 0.  1.
       -4    1    3    3    0  502 -0.46214216231E+03  0.25341337746E+03  0.81387722753E+03  0.96963471083E+03  0.12699999809E+01 0. -1.
</event>
<event>
 5   0  0.2641442E-07  0.3352067E+04  0.7818609E-02  0.8149772E-01
       -1   -1    0    0    0  501  0.00000000000E+00  0.00000000000E+00  0.10780780283E+04  0.10780780283E+04  0.50400001928E-02 0. -1.
        1   -1    0    0  501    0  0.00000000000E+00  0.00000000000E+00 -0.26056452199E+04  0.26056452199E+04  0.50400001928E-02 0.  1.
    10030    2    1    2    0    0  0.00000000000E+00  0.00000000000E+00 -0.15275671916E+04  0.36837232482E+04  0.33520673389E+04 0.  0.
        1    1    3    3  502    0  0.50095644415E+03  0.15593094688E+04 -0.37263868370E+03  0.16796615633E+04  0.50400001928E-02 0. -1.
       -1    1    3    3    0  502 -0.50095644415E+03 -0.15593094688E+04 -0.11549285079E+04  0.20040616849E+04  0.50400001928E-02 0.  1.
</event>
<event>
 5   0  0.7899402E-07  0.3404671E+04  0.7818609E-02  0.8136761E-01
       -2   -1    0    0    0  501  0.00000000000E+00  0.00000000000E+00  0.27393672888E+04  0.27393672888E+04  0.25500000920E-02 0.  1.
        2   -1    0    0  501    0  0.00000000000E+00  0.00000000000E+00 -0.10578887608E+04  0.10578887608E+04  0.25500000920E-02 0. -1.
    10030    2    1    2    0    0  0.00000000000E+00  0.00000000000E+00  0.16814785280E+04  0.37972560496E+04  0.34046708308E+04 0.  0.
        2    1    3    3  502    0  0.63194434311E+03 -0.18973457966E+03 -0.90947441297E+03  0.11236087270E+04  0.25500000920E-02 0. -1.
       -2    1    3    3    0  502 -0.63194434311E+03  0.18973457966E+03  0.25909529410E+04  0.26736473226E+04  0.25500000920E-02 0.  1.
</event>
<event>
 5   0  0.7610412E-07  0.3374358E+04  0.7818609E-02  0.8144229E-01
       -2   -1    0    0    0  501  0.00000000000E+00  0.00000000000E+00  0.19937098899E+04  0.19937098899E+04  0.25500000920E-02 0. -1.
        2   -1    0    0  501    0  0.00000000000E+00  0.00000000000E+00 -0.14277767001E+04  0.14277767001E+04  0.25500000920E-02 0.  1.
    10030    2    1    2    0    0  0.00000000000E+00  0.00000000000E+00  0.56593318980E+03  0.34214865901E+04  0.33743577331E+04 0.  0.
        4    1    3    3  502    0  0.21754141242E+03 -0.16336525025E+04 -0.83223047699E+02  0.16501734617E+04  0.12699999809E+01 0.  1.
       -4    1    3    3    0  502 -0.21754141242E+03  0.16336525025E+04  0.64915623750E+03  0.17713131284E+04  0.12699999809E+01 0. -1.
</event>
<event>
 5   0  0.2599367E-07  0.3397166E+04  0.7818609E-02  0.8138602E-01
        1   -1    0    0  501    0  0.00000000000E+00  0.00000000000E+00  0.19543485271E+04  0.19543485271E+04  0.50400001928E-02 0. -1.
       -1   -1    0    0    0  501  0.00000000000E+00  0.00000000000E+00 -0.14762891253E+04  0.14762891253E+04  0.50400001928E-02 0.  1.
    10030    2    1    2    0    0  0.00000000000E+00  0.00000000000E+00  0.47805940183E+03  0.34306376524E+04  0.33971655701E+04 0.  0.
        2    1    3    3  502    0 -0.12472036262E+04  0.67043471482E+02  0.14015330773E+04  0.18773136869E+04  0.25500000920E-02 0. -1.
       -2    1    3    3    0  502  0.12472036262E+04 -0.67043471482E+02 -0.92347367550E+03  0.15533239655E+04  0.25500000920E-02 0.  1.
</event>
<event>
 5   0  0.2641442E-07  0.3423205E+04  0.7818609E-02  0.8132234E-01
        1   -1    0    0  501    0  0.00000000000E+00  0.00000000000E+00  0.18943416104E+04  0.18943416104E+04  0.50400001928E-02 0.  1.
       -1   -1    0    0    0  501  0.00000000000E+00  0.00000000000E+00 -0.15464916781E+04  0.15464916781E+04  0.50400001928E-02 0. -1.
    10030    2    1    2    0    0  0.00000000000E+00  0.00000000000E+00  0.34784993232E+03  0.34408332885E+04  0.34232052442E+04 0.  0.
        1    1    3    3  502    0 -0.15622089869E+04  0.19717702639E+03  0.84835549052E+03  0.17885979807E+04  0.50400001928E-02 0.  1.
       -1    1    3    3    0  502  0.15622089869E+04 -0.19717702639E+03 -0.50050555821E+03  0.16522353078E+04  0.50400001928E-02 0. -1.
</event>
<event>
 5   0  0.2592200E-07  0.3374784E+04  0.7818609E-02  0.8144123E-01
        1   -1    0    0  501    0  0.00000000000E+00  0.00000000000E+00  0.30165683943E+04  0.30165683943E+04  0.50400001928E-02 0. -1.
       -1   -1    0    0    0  501  0.00000000000E+00  0.00000000000E+00 -0.94388443826E+03  0.94388443827E+03  0.50400001928E-02 0.  1.
    10030    2    1    2    0    0  0.00000000000E+00  0.00000000000E+00  0.20726839561E+04  0.39604528326E+04  0.33747841201E+04 0.  0.
        4    1    3    3  502    0  0.79788770162E+03 -0.19464494254E+03 -0.69350073887E+03  0.10749215440E+04  0.12699999809E+01 0.  1.
       -4    1    3    3    0  502 -0.79788770162E+03  0.19464494254E+03  0.27661846949E+04  0.28855312886E+04  0.12699999809E+01 0. -1.
</event>
<event>
 5   0  0.7610412E-07  0.3527236E+04  0.7818609E-02  0.8107365E-01
       -2   -1    0    0    0  501  0.00000000000E+00  0.00000000000E+00  0.26409181198E+04  0.26409181198E+04  0.25500000920E-02 0. -1.
        2   -1    0    0  501    0  0.00000000000E+00  0.00000000000E+00 -0.11777529585E+04  0.11777529586E+04  0.25500000920E-02 0.  1.
    10030    2    1    2    0    0  0.00000000000E+00  0.00000000000E+00  0.14631651612E+04  0.38186710783E+04  0.35272363850E+04 0.  0.
        4    1    3    3  502    0  0.10333941075E+04 -0.12693910512E+04  0.20758864673E+02  0.16369757377E+04  0.12699999809E+01 0. -1.
       -4    1    3    3    0  502 -0.10333941075E+04  0.12693910512E+04  0.14424062966E+04  0.21816953407E+04  0.12699999809E+01 0.  1.
</event>
<event>
 5   0  0.2622205E-07  0.3382486E+04  0.7818609E-02  0.8142218E-01
        1   -1    0    0  501    0  0.00000000000E+00  0.00000000000E+00  0.16842198964E+04  0.16842198964E+04  0.50400001928E-02 0. -1.
       -1   -1    0    0    0  501  0.00000000000E+00  0.00000000000E+00 -0.16982958655E+04  0.16982958655E+04  0.50400001928E-02 0.  1.
    10030    2    1    2    0    0  0.00000000000E+00  0.00000000000E+00 -0.14075969086E+02  0.33825157619E+04  0.33824864740E+04 0.  0.
        3    1    3    3  502    0 -0.71876733921E+03  0.10203795861E+04 -0.11483202655E+04  0.16960072022E+04  0.10100000352E+00 0.  1.
       -3    1    3    3    0  502  0.71876733921E+03 -0.10203795861E+04  0.11342442964E+04  0.16865085597E+04  0.10100000352E+00 0. -1.
</event>
<event>
 5   0  0.2641442E-07  0.3383347E+04  0.7818609E-02  0.8142006E-01
        1   -1    0    0  501    0  0.00000000000E+00  0.00000000000E+00  0.13353053888E+04  0.13353053888E+04  0.50400001928E-02 0. -1.
       -1   -1    0    0    0  501  0.00000000000E+00  0.00000000000E+00 -0.21431500474E+04  0.21431500474E+04  0.50400001928E-02 0.  1.
    10030    2    1    2    0    0  0.00000000000E+00  0.00000000000E+00 -0.80784465864E+03  0.34784554362E+04  0.33833473409E+04 0.  0.
        1    1    3    3  502    0 -0.12598897127E+04  0.10211376833E+04 -0.89882232354E+03  0.18541644549E+04  0.50400001928E-02 0.  1.
       -1    1    3    3    0  502  0.12598897127E+04 -0.10211376833E+04  0.90977664901E+02  0.16242909813E+04  0.50400001928E-02 0. -1.
</event>
<event>
 5   0  0.2641442E-07  0.3354869E+04  0.7818609E-02  0.8149073E-01
       -1   -1    0    0    0  501  0.00000000000E+00  0.00000000000E+00  0.17400571106E+04  0.17400571106E+04  0.50400001928E-02 0.  1.
        1   -1    0    0  501    0  0.00000000000E+00  0.00000000000E+00 -0.16170659245E+04  0.16170659245E+04  0.50400001928E-02 0. -1.
    10030    2    1    2    0    0  0.00000000000E+00  0.00000000000E+00  0.12299118602E+03  0.33571230351E+04  0.33548693329E+04 0.  0.
        1    1    3    3  502    0  0.70566000157E+03 -0.95778012380E+03 -0.11218757833E+04  0.16352076555E+04  0.50400001928E-02 0. -1.
       -1    1    3    3    0  502 -0.70566000157E+03  0.95778012380E+03  0.12448669693E+04  0.17219153797E+04  0.50400001928E-02 0.  1.
</event>
<event>
 5   0  0.7610412E-07  0.3411022E+04  0.7818609E-02  0.8135206E-01
        2   -1    0    0  501    0  0.00000000000E+00  0.00000000000E+00  0.24712456702E+04  0.24712456702E+04  0.25500000920E-02 0. -1.
       -2   -1    0    0    0  501  0.00000000000E+00  0.00000000000E+00 -0.11770454268E+04  0.11770454268E+04  0.25500000920E-02 0.  1.
    10030    2    1    2    0    0  0.00000000000E+00  0.00000000000E+00  0.12942002434E+04  0.36482910970E+04  0.34110223773E+04 0.  0.
        4    1    3    3  502    0 -0.12793978151E+04  0.10202118057E+03  0.18483918663E+04  0.22502935797E+04  0.12699999809E+01 0. -1.
       -4    1    3    3    0  502  0.12793978151E+04 -0.10202118057E+03 -0.55419162290E+03  0.13979975173E+04  0.12699999809E+01 0.  1.
</event>
<event>
 5   0  0.8489228E-07  0.3387518E+04  0.7818609E-02  0.8140977E-01
       -2   -1    0    0    0  501  0.00000000000E+00  0.00000000000E+00  0.14035195386E+04  0.14035195386E+04  0.25500000920E-02 0. -1.
        2   -1    0    0  501    0  0.00000000000E+00  0.00000000000E+00 -0.20440187493E+04  0.20440187493E+04  0.25500000920E-02 0.  1.
    10030    2    1    2    0    0  0.00000000000E+00  0.00000000000E+00 -0.64049921075E+03  0.34475382879E+04  0.33875184144E+04 0.  0.
        3    1    3    3  502    0 -0.91517386807E+03  0.13492304578E+04 -0.78757412307E+03  0.18105908004E+04  0.10100000352E+00 0.  1.
       -3    1    3    3    0  502  0.91517386807E+03 -0.13492304578E+04  0.14707491232E+03  0.16369474875E+04  0.10100000352E+00 0. -1.
</event>
<event>
 5   0  0.7822003E-07  0.3345069E+04  0.7818609E-02  0.8151521E-01
       -2   -1    0    0    0  501  0.00000000000E+00  0.00000000000E+00  0.11963690012E+04  0.11963690012E+04  0.25500000920E-02 0. -1.
        2   -1    0    0  501    0  0.00000000000E+00  0.00000000000E+00 -0.23382183457E+04  0.23382183457E+04  0.25500000920E-02 0.  1.
    10030    2    1    2    0    0  0.00000000000E+00  0.00000000000E+00 -0.11418493445E+04  0.35345873470E+04  0.33450691753E+04 0.  0.
        5    1    3    3  502    0 -0.75824931660E+03  0.29075329413E+03  0.97406043511E+03  0.12681858403E+04  0.46999998093E+01 0. -1.
       -5    1    3    3    0  502  0.75824931660E+03 -0.29075329413E+03 -0.21159097796E+04  0.22664015067E+04  0.46999998093E+01 0.  1.
</event>
<event>
 5   0  0.8489228E-07  0.3402798E+04  0.7818609E-02  0.8137220E-01
       -2   -1    0    0    0  501  0.00000000000E+00  0.00000000000E+00  0.12410502235E+04  0.12410502235E+04  0.25500000920E-02 0. -1.
        2   -1    0    0  501    0  0.00000000000E+00  0.00000000000E+00 -0.23325073832E+04  0.23325073832E+04  0.25500000920E-02 0.  1.
    10030    2    1    2    0    0  0.00000000000E+00  0.00000000000E+00 -0.10914571598E+04  0.35735576067E+04  0.34027981481E+04 0.  0.
        3    1    3    3  502    0  0.88439829865E+03  0.65964884254E+03 -0.19058914837E+04  0.22022078248E+04  0.10100000352E+00 0.  1.
       -3    1    3    3    0  502 -0.88439829865E+03 -0.65964884254E+03  0.81443432386E+03  0.13713497819E+04  0.10100000352E+00 0. -1.
</event>
<event>
 5   0  0.2553250E-07  0.3396225E+04  0.7818609E-02  0.8138834E-01
       -1   -1    0    0    0  501  0.00000000000E+00  0.00000000000E+00  0.17689451476E+04  0.17689451476E+04  0.50400001928E-02 0.  1.
        1   -1    0    0  501    0  0.00000000000E+00  0.00000000000E+00 -0.16301157169E+04  0.16301157169E+04  0.50400001928E-02 0. -1.
    10030    2    1    2    0    0  0.00000000000E+00  0.00000000000E+00  0.13882943078E+03  0.33990608645E+04  0.33962245435E+04 0.  0.
        5    1    3    3  502    0 -0.58407722942E+03  0.67892768256E+02  0.16637949009E+04  0.17646504470E+04  0.46999998093E+01 0.  1.
       -5    1    3    3    0  502  0.58407722942E+03 -0.67892768256E+02 -0.15249654701E+04  0.16344104175E+04  0.46999998093E+01 0. -1.
</event>
<event>
 5   0  0.7822003E-07  0.3392724E+04  0.7818609E-02  0.8139694E-01
       -2   -1    0    0    0  501  0.00000000000E+00  0.00000000000E+00  0.17172692238E+04  0.17172692238E+04  0.25500000920E-02 0. -1.
        2   -1    0    0  501    0  0.00000000000E+00  0.00000000000E+00 -0.16757096834E+04  0.16757096834E+04  0.25500000920E-02 0.  1.
    10030    2    1    2    0    0  0.00000000000E+00  0.00000000000E+00  0.41559540436E+02  0.33929789072E+04  0.33927243727E+04 0.  0.
        5    1    3    3  502    0 -0.12593693704E+04  0.77947834315E+03 -0.80634024440E+03  0.16863583185E+04  0.46999998093E+01 0. -1.
       -5    1    3    3    0  502  0.12593693704E+04 -0.77947834315E+03  0.84789978484E+03  0.17066205887E+04  0.46999998093E+01 0.  1.
</event>
<event>
 5   0  0.7899402E-07  0.3404957E+04  0.7818609E-02  0.8136691E-01
        2   -1    0    0  501    0  0.00000000000E+00  0.00000000000E+00  0.19506674523E+04  0.19506674523E+04  0.25500000920E-02 0. -1.
       -2   -1    0    0    0  501  0.00000000000E+00  0.00000000000E+00 -0.14858676597E+04  0.14858676597E+04  0.25500000920E-02 0.  1.
    10030    2    1    2    0    0  0.00000000000E+00  0.00000000000E+00  0.46479979264E+03  0.34365351120E+04  0.34049573754E+04 0.  0.
        2    1    3    3  502    0 -0.86542219023E+03 -0.14641133197E+04  0.30959650866E+03  0.17287085869E+04  0.25500000920E-02 0. -1.
       -2    1    3    3    0  502  0.86542219023E+03  0.14641133197E+04  0.15520328398E+03  0.17078265250E+04  0.25500000920E-02 0.  1.
</event>
<event>
 5   0  0.7822003E-07  0.3263350E+04  0.7818609E-02  0.8172284E-01
        2   -1    0    0  501    0  0.00000000000E+00  0.00000000000E+00  0.20023950018E+04  0.20023950019E+04  0.25500000920E-02 0.  1.
       -2   -1    0    0    0  501  0.00000000000E+00  0.00000000000E+00 -0.13295896244E+04  0.13295896244E+04  0.25500000920E-02 0. -1.
    10030    2    1    2    0    0  0.00000000000E+00  0.00000000000E+00  0.67280537742E+03  0.33319846263E+04  0.32633501917E+04 0.  0.
        5    1    3    3  502    0  0.74498859571E+03 -0.61641855330E+03 -0.10055306722E+04  0.13950246820E+04  0.46999998093E+01 0. -1.
       -5    1    3    3    0  502 -0.74498859571E+03  0.61641855330E+03  0.16783360496E+04  0.19369599443E+04  0.46999998093E+01 0.  1.
</event>
<event>
 5   0  0.2641442E-07  0.3424612E+04  0.7818609E-02  0.8131892E-01
        1   -1    0    0  501    0  0.00000000000E+00  0.00000000000E+00  0.18617138223E+04  0.18617138223E+04  0.50400001928E-02 0.  1.
       -1   -1    0    0    0  501  0.00000000000E+00  0.00000000000E+00 -0.15748881222E+04  0.15748881223E+04  0.50400001928E-02 0. -1.
    10030    2    1    2    0    0  0.00000000000E+00  0.00000000000E+00  0.28682570007E+03  0.34366019446E+04  0.34246115025E+04 0.  0.
        1    1    3    3  502    0  0.37753743766E+03  0.21890848827E+03  0.18049683824E+04  0.18569777339E+04  0.50400001928E-02 0.  1.
       -1    1    3    3    0  502 -0.37753743766E+03 -0.21890848827E+03 -0.15181426823E+04  0.15796242106E+04  0.50400001928E-02 0. -1.
</event>
<event>
 5   0  0.7899402E-07  0.3424327E+04  0.7818609E-02  0.8131961E-01
        2   -1    0    0  501    0  0.00000000000E+00  0.00000000000E+00  0.17259001844E+04  0.17259001844E+04  0.25500000920E-02 0. -1.
       -2   -1    0    0    0  501  0.00000000000E+00  0.00000000000E+00 -0.16985363717E+04  0.16985363717E+04  0.25500000920E-02 0.  1.
    10030    2    1    2    0    0  0.00000000000E+00  0.00000000000E+00  0.27363812705E+02  0.34244365562E+04  0.34243272258E+04 0.  0.
        2    1    3    3  502    0 -0.34037592349E+03  0.16275428873E+04 -0.39468467676E+03  0.17089551233E+04  0.25500000920E-02 0.  1.
       -2    1    3    3    0  502  0.34037592349E+03 -0.16275428873E+04  0.42204848947E+03  0.17154814329E+04  0.25500000920E-02 0. -1.
</event>
<event>
 5   0  0.2553250E-07  0.3399831E+04  0.7818609E-02  0.8137948E-01
        1   -1    0    0  501    0  0.00000000000E+00  0.00000000000E+00  0.12538607200E+04  0.12538607200E+04  0.50400001928E-02 0. -1.
       -1   -1    0    0    0  501  0.00000000000E+00  0.00000000000E+00 -0.23046523837E+04  0.23046523837E+04  0.50400001928E-02 0.  1.
    10030    2    1    2    0    0  0.00000000000E+00  0.00000000000E+00 -0.10507916637E+04  0.35585131037E+04  0.33998312295E+04 0.  0.
        5    1    3    3  502    0 -0.74310413847E+03 -0.49314511086E+03 -0.20401081375E+04  0.22265352375E+04  0.46999998093E+01 0.  1.
       -5    1    3    3    0  502  0.74310413847E+03  0.49314511086E+03  0.98931647376E+03  0.13319778663E+04  0.46999998093E+01 0. -1.
</event>
<event>
 5   0  0.2622205E-07  0.3373484E+04  0.7818609E-02  0.8144445E-01
        1   -1    0    0  501    0  0.00000000000E+00  0.00000000000E+00  0.17597617942E+04  0.17597617942E+04  0.50400001928E-02 0. -1.
       -1   -1    0    0    0  501  0.00000000000E+00  0.00000000000E+00 -0.16167516820E+04  0.16167516821E+04  0.50400001928E-02 0.  1.
    10030    2    1    2    0    0  0.00000000000E+00  0.00000000000E+00  0.14301011214E+03  0.33765134762E+04  0.33734835650E+04 0.  0.
        3    1    3    3  502    0 -0.54408335446E+03 -0.65047857128E+03 -0.13878678711E+04  0.16264459124E+04  0.10100000352E+00 0.  1.
       -3    1    3    3    0  502  0.54408335446E+03  0.65047857128E+03  0.15308779832E+04  0.17500675638E+04  0.10100000352E+00 0. -1.
</event>
<event>
 5   0  0.7610412E-07  0.3420061E+04  0.7818609E-02  0.8133000E-01
       -2   -1    0    0    0  501  0.00000000000E+00  0.00000000000E+00  0.22292307557E+04  0.22292307557E+04  0.25500000920E-02 0. -1.
        2   -1    0    0  501    0  0.00000000000E+00  0.00000000000E+00 -0.13117545702E+04  0.13117545702E+04  0.25500000920E-02 0.  1.
    10030    2    1    2    0    0  0.00000000000E+00  0.00000000000E+00  0.91747618548E+03  0.35409853259E+04  0.34200606028E+04 0.  0.
        4    1    3    3  502    0 -0.33084690473E+03  0.37708586119E+03 -0.12338572083E+04  0.13319379282E+04  0.12699999809E+01 0.  1.
       -4    1    3    3    0  502  0.33084690473E+03 -0.37708586119E+03  0.21513333938E+04  0.22090473977E+04  0.12699999809E+01 0. -1.
</event>
<event>
 5   0  0.2553250E-07  0.3392457E+04  0.7818609E-02  0.8139760E-01
        1   -1    0    0  501    0  0.00000000000E+00  0.00000000000E+00  0.15305996755E+04  0.15305996755E+04  0.50400001928E-02 0. -1.
       -1   -1    0    0    0  501  0.00000000000E+00  0.00000000000E+00 -0.18797803929E+04  0.18797803929E+04  0.50400001928E-02 0.  1.
    10030    2    1    2    0    0  0.00000000000E+00  0.00000000000E+00 -0.34918071741E+03  0.34103800684E+04  0.33924570797E+04 0.  0.
        5    1    3    3  502    0 -0.67169861274E+03 -0.45919388127E+03  0.13216044347E+04  0.15519982019E+04  0.46999998093E+01 0. -1.
       -5    1    3    3    0  502  0.67169861274E+03  0.45919388127E+03 -0.16707851521E+04  0.18583818664E+04  0.46999998093E+01 0.  1.
</event>
<event>
 5   0  0.2641442E-07  0.3387371E+04  0.7818609E-02  0.8141013E-01
       -1   -1    0    0    0  501  0.00000000000E+00  0.00000000000E+00  0.21839080118E+04  0.21839080118E+04  0.50400001928E-02 0.  1.
        1   -1    0    0  501    0  0.00000000000E+00  0.00000000000E+00 -0.13135036446E+04  0.13135036446E+04  0.50400001928E-02 0. -1.
    10030    2    1    2    0    0  0.00000000000E+00  0.00000000000E+00  0.87040436719E+03  0.34974116564E+04  0.33873713306E+04 0.  0.
        1    1    3    3  502    0 -0.39908526177E+03  0.14154793271E+04 -0.43215957317E+03  0.15328446328E+04  0.50400001928E-02 0. -1.
       -1    1    3    3    0  502  0.39908526177E+03 -0.14154793271E+04  0.13025639404E+04  0.19645670236E+04  0.50400001928E-02 0.  1.
</event>
<event>
 5   0  0.2622205E-07  0.3383381E+04  0.7818609E-02  0.8141997E-01
       -1   -1    0    0    0  501  0.00000000000E+00  0.00000000000E+00  0.97393437175E+03  0.97393437176E+03  0.50400001928E-02 0.  1.
        1   -1    0    0  501    0  0.00000000000E+00  0.00000000000E+00 -0.29384078684E+04  0.29384078684E+04  0.50400001928E-02 0. -1.
    10030    2    1    2    0    0  0.00000000000E+00  0.00000000000E+00 -0.19644734967E+04  0.39123422402E+04  0.33833808070E+04 0.  0.
        3    1    3    3  502    0  0.29404234921E+03  0.73593991620E+03 -0.27104727206E+04  0.28239565936E+04  0.10100000352E+00 0. -1.
       -3    1    3    3    0  502 -0.29404234921E+03 -0.73593991620E+03  0.74599922391E+03  0.10883856466E+04  0.10100000352E+00 0.  1.
</event>
<event>
 5   0  0.7822003E-07  0.3393389E+04  0.7818609E-02  0.8139531E-01
       -2   -1    0    0    0  501  0.00000000000E+00  0.00000000000E+00  0.11656829568E+04  0.11656829568E+04  0.25500000920E-02 0.  1.
        2   -1    0    0  501    0  0.00000000000E+00  0.00000000000E+00 -0.24696020870E+04  0.24696020870E+04  0.25500000920E-02 0. -1.
    10030    2    1    2    0    0  0.00000000000E+00  0.00000000000E+00 -0.13039191303E+04  0.36352850438E+04  0.33933894930E+04 0.  0.
        5    1    3    3  502    0 -0.82225717751E+03  0.14455974028E+04 -0.10119051367E+04  0.19467492937E+04  0.46999998093E+01 0. -1.
       -5    1    3    3    0  502  0.82225717751E+03 -0.14455974028E+04 -0.29201399360E+03  0.16885357501E+04  0.46999998093E+01 0.  1.
</event>
<event>
 5   0  0.2592200E-07  0.3381680E+04  0.7818609E-02  0.8142417E-01
        1   -1    0    0  501    0  0.00000000000E+00  0.00000000000E+00  0.28809144667E+04  0.28809144667E+04  0.50400001928E-02 0.  1.
       -1   -1    0    0    0  501  0.00000000000E+00  0.00000000000E+00 -0.99237240660E+03  0.99237240661E+03  0.50400001928E-02 0. -1.
    10030    2    1    2    0    0  0.00000000000E+00  0.00000000000E+00  0.18885420601E+04  0.38732868733E+04  0.33816800692E+04 0.  0.
        4    1    3    3  502    0 -0.15930214999E+04  0.49010771213E+03  0.61826113764E+03  0.17776871254E+04  0.12699999809E+01 0. -1.
       -4    1    3    3    0  502  0.15930214999E+04 -0.49010771213E+03  0.12702809225E+04  0.20955997479E+04  0.12699999809E+01 0.  1.
</event>
<event>
 5   0  0.2553250E-07  0.3392296E+04  0.7818609E-02  0.8139800E-01
       -1   -1    0    0    0  501  0.00000000000E+00  0.00000000000E+00  0.28491731962E+04  0.28491731962E+04  0.50400001928E-02 0. -1.
        1   -1    0    0  501    0  0.00000000000E+00  0.00000000000E+00 -0.10097381457E+04  0.10097381457E+04  0.50400001928E-02 0.  1.
    10030    2    1    2    0    0  0.00000000000E+00  0.00000000000E+00  0.18394350505E+04  0.38589113420E+04  0.33922964847E+04 0.  0.
        5    1    3    3  502    0 -0.62791287484E+03  0.14946796789E+04  0.14868468690E+04  0.21997903588E+04  0.46999998093E+01 0.  1.
       -5    1    3    3    0  502  0.62791287484E+03 -0.14946796789E+04  0.35258818146E+03  0.16591209831E+04  0.46999998093E+01 0. -1.
</event>
<event>
 5   0  0.7822003E-07  0.3356864E+04  0.7818609E-02  0.8148575E-01
       -2   -1    0    0    0  501  0.00000000000E+00  0.00000000000E+00  0.11461561576E+04  0.11461561576E+04  0.25500000920E-02 0. -1.
        2   -1    0    0  501    0  0.00000000000E+00  0.00000000000E+00 -0.24578970331E+04  0.24578970331E+04  0.25500000920E-02 0.  1.
    10030    2    1    2    0    0  0.00000000000E+00  0.00000000000E+00 -0.13117408755E+04  0.36040531908E+04  0.33568639051E+04 0.  0.
        5    1    3    3  502    0 -0.11619930164E+04 -0.11973690596E+04 -0.85147075375E+03  0.18732178115E+04  0.46999998093E+01 0. -1.
       -5    1    3    3    0  502  0.11619930164E+04  0.11973690596E+04 -0.46027012175E+03  0.17308353792E+04  0.46999998093E+01 0.  1.
</event>
<event>
 5   0  0.2553250E-07  0.3411408E+04  0.7818609E-02  0.8135112E-01
       -1   -1    0    0    0  501  0.00000000000E+00  0.00000000000E+00  0.12428083324E+04  0.12428083324E+04  0.50400001928E-02 0. -1.
        1   -1    0    0  501    0  0.00000000000E+00  0.00000000000E+00 -0.23410098512E+04  0.23410098512E+04  0.50400001928E-02 0.  1.
    10030    2    1    2    0    0  0.00000000000E+00  0.00000000000E+00 -0.10982015188E+04  0.35838181836E+04  0.34114082425E+04 0.  0.
        5    1    3    3  502    0 -0.15254192657E+04  0.68797794929E+03 -0.20196650489E+03  0.16855355689E+04  0.46999998093E+01 0. -1.
       -5    1    3    3    0  502  0.15254192657E+04 -0.68797794929E+03 -0.89623501396E+03  0.18982826147E+04  0.46999998093E+01 0.  1.
</event>
<event>
 5   0  0.7610412E-07  0.3435006E+04  0.7818609E-02  0.8129368E-01
       -2   -1    0    0    0  501  0.00000000000E+00  0.00000000000E+00  0.11585994164E+04  0.11585994164E+04  0.25500000920E-02 0. -1.
        2   -1    0    0  501    0  0.00000000000E+00  0.00000000000E+00 -0.25460192300E+04  0.25460192300E+04  0.25500000920E-02 0.  1.
    10030    2    1    2    0    0  0.00000000000E+00  0.00000000000E+00 -0.13874198135E+04  0.37046186464E+04  0.34350059063E+04 0.  0.
        4    1    3    3  502    0 -0.10224459744E+01  0.12375529510E+04  0.59067875423E+03  0.13712918564E+04  0.12699999809E+01 0. -1.
       -4    1    3    3    0  502  0.10224459744E+01 -0.12375529510E+04 -0.19780985678E+04  0.23333267899E+04  0.12699999809E+01 0.  1.
</event>
<event>
 5   0  0.2592200E-07  0.3392912E+04  0.7818609E-02  0.8139648E-01
       -1   -1    0    0    0  501  0.00000000000E+00  0.00000000000E+00  0.10173691322E+04  0.10173691322E+04  0.50400001928E-02 0. -1.
        1   -1    0    0  501    0  0.00000000000E+00  0.00000000000E+00 -0.28288285453E+04  0.28288285453E+04  0.50400001928E-02 0.  1.
    10030    2    1    2    0    0  0.00000000000E+00  0.00000000000E+00 -0.18114594131E+04  0.38461976775E+04  0.33929119307E+04 0.  0.
        4    1    3    3  502    0  0.55570108360E+03 -0.12247071992E+04  0.26646189532E+03  0.13710269774E+04  0.12699999809E+01 0.  1.
       -4    1    3    3    0  502 -0.55570108360E+03  0.12247071992E+04 -0.20779213084E+04  0.24751707002E+04  0.12699999809E+01 0. -1.
</event>
<event>
 5   0  0.2599367E-07  0.3412903E+04  0.7818609E-02  0.8134747E-01
       -1   -1    0    0    0  501  0.00000000000E+00  0.00000000000E+00  0.31429348442E+04  0.31429348442E+04  0.50400001928E-02 0. -1.
        1   -1    0    0  501    0  0.00000000000E+00  0.00000000000E+00 -0.92651531760E+03  0.92651531761E+03  0.50400001928E-02 0.  1.
    10030    2    1    2    0    0  0.00000000000E+00  0.00000000000E+00  0.22164195266E+04  0.40694501618E+04  0.34129033244E+04 0.  0.
        2    1    3    3  502    0 -0.97021485150E+03 -0.12517639384E+04  0.35056321467E+03  0.16220740991E+04  0.25500000920E-02 0.  1.
       -2    1    3    3    0  502  0.97021485150E+03  0.12517639384E+04  0.18658563119E+04  0.24473760627E+04  0.25500000920E-02 0. -1.
</event>
<event>
 5   0  0.2622205E-07  0.3424888E+04  0.7818609E-02  0.8131825E-01
       -1   -1    0    0    0  501  0.00000000000E+00  0.00000000000E+00  0.17114287444E+04  0.17114287444E+04  0.50400001928E-02 0.  1.
        1   -1    0    0  501    0  0.00000000000E+00  0.00000000000E+00 -0.17134601214E+04  0.17134601215E+04  0.50400001928E-02 0. -1.
    10030    2    1    2    0    0  0.00000000000E+00  0.00000000000E+00 -0.20313770611E+01  0.34248888658E+04  0.34248882634E+04 0.  0.
        3    1    3    3  502    0  0.75192830724E+03 -0.10632624467E+04 -0.11130148429E+04  0.17131039841E+04  0.10100000352E+00 0. -1.
       -3    1    3    3    0  502 -0.75192830724E+03  0.10632624467E+04  0.11109834658E+04  0.17117848817E+04  0.10100000352E+00 0.  1.
</event>
<event>
 5   0  0.8489228E-07  0.3388635E+04  0.7818609E-02  0.8140701E-01
        2   -1    0    0  501    0  0.00000000000E+00  0.00000000000E+00  0.94792500165E+03  0.94792500165E+03  0.25500000920E-02 0.  1.
       -2   -1    0    0    0  501  0.00000000000E+00  0.00000000000E+00 -0.30284170979E+04  0.30284170979E+04  0.25500000920E-02 0. -1.
    10030    2    1    2    0    0  0.00000000000E+00  0.00000000000E+00 -0.20804920963E+04  0.39763420996E+04  0.33886352902E+04 0.  0.
        3    1    3    3  502    0 -0.84683803588E+03 -0.55939501554E+03  0.55176137823E+03  0.11552047745E+04  0.10100000352E+00 0.  1.
       -3    1    3    3    0  502  0.84683803588E+03  0.55939501554E+03 -0.26322534745E+04  0.28211373250E+04  0.10100000352E+00 0. -1.
</event>
<event>
 5   0  0.2599367E-07  0.3147783E+04  0.7818609E-02  0.8202745E-01
        1   -1    0    0  501    0  0.00000000000E+00  0.00000000000E+00  0.21216372237E+04  0.21216372237E+04  0.50400001928E-02 0.  1.
       -1   -1    0    0    0  501  0.00000000000E+00  0.00000000000E+00 -0.11675580630E+04  0.11675580630E+04  0.50400001928E-02 0. -1.
    10030    2    1    2    0    0  0.00000000000E+00  0.00000000000E+00  0.95407916074E+03  0.32891952867E+04  0.31477831229E+04 0.  0.
        2    1    3    3  502    0 -0.94058139963E+03  0.83309505620E+03  0.14674569658E+04  0.19318826798E+04  0.25500000920E-02 0.  1.
       -2    1    3    3    0  502  0.94058139963E+03 -0.83309505620E+03 -0.51337780509E+03  0.13573126069E+04  0.25500000920E-02 0. -1.
</event>
<event>
 5   0  0.2599367E-07  0.3389463E+04  0.7818609E-02  0.8140497E-01
        1   -1    0    0  501    0  0.00000000000E+00  0.00000000000E+00  0.90525667745E+03  0.90525667747E+03  0.50400001928E-02 0. -1.
       -1   -1    0    0    0  501  0.00000000000E+00  0.00000000000E+00 -0.31727069803E+04  0.31727069803E+04  0.50400001928E-02 0.  1.
    10030    2    1    2    0    0  0.00000000000E+00  0.00000000000E+00 -0.22674503029E+04  0.40779636578E+04  0.33894626002E+04 0.  0.
        2    1    3    3  502    0  0.98719219444E+03 -0.75540828137E+03 -0.25196367918E+04  0.28095835391E+04  0.25500000920E-02 0.  1.
       -2    1    3    3    0  502 -0.98719219444E+03  0.75540828137E+03  0.25218648896E+03  0.12683801187E+04  0.25500000920E-02 0. -1.
</event>
<event>
 5   0  0.7822003E-07  0.3784544E+04  0.7818609E-02  0.8049480E-01
       -2   -1    0    0    0  501  0.00000000000E+00  0.00000000000E+00  0.18930115535E+04  0.18930115535E+04  0.25500000920E-02 0.  1.
        2   -1    0    0  501    0  0.00000000000E+00  0.00000000000E+00 -0.18915330107E+04  0.18915330107E+04  0.25500000920E-02 0. -1.
    10030    2    1    2    0    0  0.00000000000E+00  0.00000000000E+00  0.14785427684E+01  0.37845445641E+04  0.37845442753E+04 0.  0.
        5    1    3    3  502    0 -0.42481527314E+03 -0.87976572910E+02  0.18426036467E+04  0.18929918601E+04  0.46999998093E+01 0.  1.
       -5    1    3    3    0  502  0.42481527314E+03  0.87976572910E+02 -0.18411251039E+04  0.18915527040E+04  0.46999998093E+01 0. -1.
</event>
<event>
 5   0  0.7610412E-07  0.3374629E+04  0.7818609E-02  0.8144162E-01
        2   -1    0    0  501    0  0.00000000000E+00  0.00000000000E+00  0.15430806820E+04  0.15430806820E+04  0.25500000920E-02 0. -1.
       -2   -1    0    0    0  501  0.00000000000E+00  0.00000000000E+00 -0.18450295003E+04  0.18450295003E+04  0.25500000920E-02 0.  1.
    10030    2    1    2    0    0  0.00000000000E+00  0.00000000000E+00 -0.30194881828E+03  0.33881101824E+04  0.33746285009E+04 0.  0.
        4    1    3    3  502    0  0.14667092726E+04 -0.76773736601E+03 -0.47842305879E+03  0.17232373573E+04  0.12699999809E+01 0. -1.
       -4    1    3    3    0  502 -0.14667092726E+04  0.76773736601E+03  0.17647424051E+03  0.16648728251E+04  0.12699999809E+01 0.  1.
</event>
<event>
 5   0  0.2599367E-07  0.3320553E+04  0.7818609E-02  0.8157685E-01
        1   -1    0    0  501    0  0.00000000000E+00  0.00000000000E+00  0.12806401574E+04  0.12806401574E+04  0.50400001928E-02 0.  1.
       -1   -1    0    0    0  501  0.00000000000E+00  0.00000000000E+00 -0.21524536224E+04  0.21524536224E+04  0.50400001928E-02 0. -1.
    10030    2    1    2    0    0  0.00000000000E+00  0.00000000000E+00 -0.87181346503E+03  0.34330937798E+04  0.33205532947E+04 0.  0.
        2    1    3    3  502    0  0.14458135389E+04  0.46863022614E+03 -0.11267814524E+04  0.18919903593E+04  0.25500000920E-02 0. -1.
       -2    1    3    3    0  502 -0.14458135389E+04 -0.46863022614E+03  0.25496798740E+03  0.15411034205E+04  0.25500000920E-02 0.  1.
</event>
<event>
 5   0  0.2622205E-07  0.3393779E+04  0.7818609E-02  0.8139435E-01
       -1   -1    0    0    0  501  0.00000000000E+00  0.00000000000E+00  0.14708706823E+04  0.14708706823E+04  0.50400001928E-02 0.  1.
        1   -1    0    0  501    0  0.00000000000E+00  0.00000000000E+00 -0.19576391676E+04  0.19576391676E+04  0.50400001928E-02 0. -1.
    10030    2    1    2    0    0  0.00000000000E+00  0.00000000000E+00 -0.48676848525E+03  0.34285098499E+04  0.33937790488E+04 0.  0.
        3    1    3    3  502    0  0.10846009336E+04  0.12818209347E+04  0.40919837748E+01  0.16791190691E+04  0.10100000352E+00 0. -1.
       -3    1    3    3    0  502 -0.10846009336E+04 -0.12818209347E+04 -0.49086046903E+03  0.17493907808E+04  0.10100000352E+00 0.  1.
</event>
<event>
 5   0  0.2622205E-07  0.3069951E+04  0.7818609E-02  0.8224033E-01
       -1   -1    0    0    0  501  0.00000000000E+00  0.00000000000E+00  0.96264481504E+03  0.96264481505E+03  0.50400001928E-02 0.  1.
        1   -1    0    0  501    0  0.00000000000E+00  0.00000000000E+00 -0.24475801233E+04  0.24475801233E+04  0.50400001928E-02 0. -1.
    10030    2    1    2    0    0  0.00000000000E+00  0.00000000000E+00 -0.14849353083E+04  0.34102249384E+04  0.30699513450E+04 0.  0.
        3    1    3    3  502    0 -0.15025830142E+04  0.31299905112E+03 -0.76540009881E+03  0.17150980852E+04  0.10100000352E+00 0.  1.
       -3    1    3    3    0  502  0.15025830142E+04 -0.31299905112E+03 -0.71953520946E+03  0.16951268532E+04  0.10100000352E+00 0. -1.
</event>
<event>
 5   0  0.7899402E-07  0.3389918E+04  0.7818609E-02  0.8140385E-01
        2   -1    0    0  501    0  0.00000000000E+00  0.00000000000E+00  0.17354470825E+04  0.17354470825E+04  0.25500000920E-02 0.  1.
       -2   -1    0    0    0  501  0.00000000000E+00  0.00000000000E+00 -0.16554152296E+04  0.16554152296E+04  0.25500000920E-02 0. -1.
    10030    2    1    2    0    0  0.00000000000E+00  0.00000000000E+00  0.80031852838E+02  0.33908623121E+04  0.33899177161E+04 0.  0.
        2    1    3    3  502    0 -0.16402748756E+04  0.42700362362E+03  0.32818885708E+02  0.16952612900E+04  0.25500000920E-02 0. -1.
       -2    1    3    3    0  502  0.16402748756E+04 -0.42700362362E+03  0.47212967130E+02  0.16956010221E+04  0.25500000920E-02 0.  1.
</event>
<event>
 5   0  0.2641442E-07  0.3435952E+04  0.7818609E-02  0.8129139E-01
        1   -1    0    0  501    0  0.00000000000E+00  0.00000000000E+00  0.22841473376E+04  0.22841473376E+04  0.50400001928E-02 0. -1.
       -1   -1    0    0    0  501  0.00000000000E+00  0.00000000000E+00 -0.12921413792E+04  0.12921413792E+04  0.50400001928E-02 0.  1.
    10030    2    1    2    0    0  0.00000000000E+00  0.00000000000E+00  0.99200595844E+03  0.35762887168E+04  0.34359518571E+04 0.  0.
        1    1    3    3  502    0 -0.51269017366E+03 -0.24891257479E+03  0.21828867814E+04  0.22560592600E+04  0.50400001928E-02 0. -1.
       -1    1    3    3    0  502  0.51269017366E+03  0.24891257479E+03 -0.11908808230E+04  0.13202294568E+04  0.50400001928E-02 0.  1.
</event>
<event>
 5   0  0.7822003E-07  0.3401201E+04  0.7818609E-02  0.8137612E-01
       -2   -1    0    0    0  501  0.00000000000E+00  0.00000000000E+00  0.11541367959E+04  0.11541367959E+04  0.25500000920E-02 0.  1.
        2   -1    0    0  501    0  0.00000000000E+00  0.00000000000E+00 -0.25058055470E+04  0.25058055470E+04  0.25500000920E-02 0. -1.
    10030    2    1    2    0    0  0.00000000000E+00  0.00000000000E+00 -0.13516687510E+04  0.36599423429E+04  0.34012011909E+04 0.  0.
        5    1    3    3  502    0 -0.11966784611E+04  0.12037485689E+04 -0.56312710298E+03  0.17883467730E+04  0.46999998093E+01 0.  1.
       -5    1    3    3    0  502  0.11966784611E+04 -0.12037485689E+04 -0.78854164804E+03  0.18715955699E+04  0.46999998093E+01 0. -1.
</event>
<event>
 5   0  0.2622205E-07  0.3405688E+04  0.7818609E-02  0.8136512E-01
        1   -1    0    0  501    0  0.00000000000E+00  0.00000000000E+00  0.19446326928E+04  0.19446326928E+04  0.50400001928E-02 0.  1.
       -1   -1    0    0    0  501  0.00000000000E+00  0.00000000000E+00 -0.14911182662E+04  0.14911182662E+04  0.50400001928E-02 0. -1.
    10030    2    1    2    0    0  0.00000000000E+00  0.00000000000E+00  0.45351442658E+03  0.34357509591E+04  0.34056877892E+04 0.  0.
        3    1    3    3  502    0 -0.52171108706E+03  0.10026062072E+04  0.15116863273E+04  0.18874843648E+04  0.10100000352E+00 0.  1.
       -3    1    3    3    0  502  0.52171108706E+03 -0.10026062072E+04 -0.10581719008E+04  0.15482665942E+04  0.10100000352E+00 0. -1.
</event>
<event>
 5   0  0.7899402E-07  0.3342276E+04  0.7818609E-02  0.8152221E-01
        2   -1    0    0  501    0  0.00000000000E+00  0.00000000000E+00  0.31405672802E+04  0.31405672802E+04  0.25500000920E-02 0.  1.
       -2   -1    0    0    0  501  0.00000000000E+00  0.00000000000E+00 -0.88923520316E+03  0.88923520316E+03  0.25500000920E-02 0. -1.
    10030    2    1    2    0    0  0.00000000000E+00  0.00000000000E+00  0.22513320770E+04  0.40298024833E+04  0.33422764598E+04 0.  0.
        2    1    3    3  502    0 -0.54409675099E+03 -0.39334478997E+03  0.29708064435E+04  0.30457268957E+04  0.25500000920E-02 0.  1.
       -2    1    3    3    0  502  0.54409675099E+03  0.39334478997E+03 -0.71947436648E+03  0.98407558768E+03  0.25500000920E-02 0. -1.
</event>
<event>
 5   0  0.2553250E-07  0.3391678E+04  0.7818609E-02  0.8139952E-01
       -3   -1    0    0    0  501  0.00000000000E+00  0.00000000000E+00  0.20716050092E+04  0.20716050116E+04  0.10100000352E+00 0.  1.
        3   -1    0    0  501    0  0.00000000000E+00  0.00000000000E+00 -0.13882329849E+04  0.13882329886E+04  0.10100000352E+00 0. -1.
    10030    2    1    2    0    0  0.00000000000E+00  0.00000000000E+00  0.68337202427E+03  0.34598380002E+04  0.33916782961E+04 0.  0.
        5    1    3    3  502    0  0.15963966438E+04 -0.20370220624E+02  0.92497333465E+03  0.18451273533E+04  0.46999998093E+01 0.  1.
       -5    1    3    3    0  502 -0.15963966438E+04  0.20370220624E+02 -0.24160131037E+03  0.16147106469E+04  0.46999998093E+01 0. -1.
</event>
<event>
 5   0  0.7822003E-07  0.3462762E+04  0.7818609E-02  0.8122672E-01
        2   -1    0    0  501    0  0.00000000000E+00  0.00000000000E+00  0.17274830610E+04  0.17274830610E+04  0.25500000920E-02 0. -1.
       -2   -1    0    0    0  501  0.00000000000E+00  0.00000000000E+00 -0.17352875836E+04  0.17352875836E+04  0.25500000920E-02 0.  1.
    10030    2    1    2    0    0  0.00000000000E+00  0.00000000000E+00 -0.78045226313E+01  0.34627706447E+04  0.34627618496E+04 0.  0.
        5    1    3    3  502    0  0.12927176123E+03  0.61282993027E+03  0.16102226843E+04  0.17277473469E+04  0.46999998093E+01 0. -1.
       -5    1    3    3    0  502 -0.12927176123E+03 -0.61282993027E+03 -0.16180272069E+04  0.17350232978E+04  0.46999998093E+01 0.  1.
</event>
<event>
 5   0  0.2641442E-07  0.3395724E+04  0.7818609E-02  0.8138957E-01
        1   -1    0    0  501    0  0.00000000000E+00  0.00000000000E+00  0.20674497941E+04  0.20674497941E+04  0.50400001928E-02 0. -1.
       -1   -1    0    0    0  501  0.00000000000E+00  0.00000000000E+00 -0.13943431941E+04  0.13943431941E+04  0.50400001928E-02 0.  1.
    10030    2    1    2    0    0  0.00000000000E+00  0.00000000000E+00  0.67310659993E+03  0.34617929882E+04  0.33957235162E+04 0.  0.
        1    1    3    3  502    0 -0.97265551561E+03  0.11562485666E+04 -0.45295981551E+03  0.15773845740E+04  0.50400001928E-02 0.  1.
       -1    1    3    3    0  502  0.97265551561E+03 -0.11562485666E+04  0.11260664154E+04  0.18844084143E+04  0.50400001928E-02 0. -1.
</event>
<event>
 5   0  0.2592200E-07  0.3357679E+04  0.7818609E-02  0.8148372E-01
        1   -1    0    0  501    0  0.00000000000E+00  0.00000000000E+00  0.25297722292E+04  0.25297722292E+04  0.50400001928E-02 0. -1.
       -1   -1    0    0    0  501  0.00000000000E+00  0.00000000000E+00 -0.11141324576E+04  0.11141324576E+04  0.50400001928E-02 0.  1.
    10030    2    1    2    0    0  0.00000000000E+00  0.00000000000E+00  0.14156397716E+04  0.36439046867E+04  0.33576785735E+04 0.  0.
        4    1    3    3  502    0 -0.14999548395E+04 -0.75201368515E+03  0.76834733858E+03  0.18454669731E+04  0.12699999809E+01 0. -1.
       -4    1    3    3    0  502  0.14999548395E+04  0.75201368515E+03  0.64729243301E+03  0.17984377137E+04  0.12699999809E+01 0.  1.
</event>
<event>
 5   0  0.8489228E-07  0.3429940E+04  0.7818609E-02  0.8130597E-01
       -2   -1    0    0    0  501  0.00000000000E+00  0.00000000000E+00  0.13024369629E+04  0.13024369629E+04  0.25500000920E-02 0. -1.
        2   -1    0    0  501    0  0.00000000000E+00  0.00000000000E+00 -0.22581685537E+04  0.22581685537E+04  0.25500000920E-02 0.  1.
    10030    2    1    2    0    0  0.00000000000E+00  0.00000000000E+00 -0.95573159073E+03  0.35606055166E+04  0.34299400536E+04 0.  0.
        3    1    3    3  502    0  0.15987925908E+04  0.60402742205E+03 -0.62517044851E+03  0.18198420192E+04  0.10100000352E+00 0.  1.
       -3    1    3    3    0  502 -0.15987925908E+04 -0.60402742205E+03 -0.33056114222E+03  0.17407634974E+04  0.10100000352E+00 0. -1.
</event>
<event>
 5   0  0.2553250E-07  0.3344770E+04  0.7818609E-02  0.8151596E-01
       -1   -1    0    0    0  501  0.00000000000E+00  0.00000000000E+00  0.14693491038E+04  0.14693491038E+04  0.50400001928E-02 0.  1.
        1   -1    0    0  501    0  0.00000000000E+00  0.00000000000E+00 -0.19034768902E+04  0.19034768902E+04  0.50400001928E-02 0. -1.
    10030    2    1    2    0    0  0.00000000000E+00  0.00000000000E+00 -0.43412778642E+03  0.33728259940E+04  0.33447702838E+04 0.  0.
        5    1    3    3  502    0 -0.66335216016E+03 -0.13825109790E+03 -0.17588427182E+04  0.18848605391E+04  0.46999998093E+01 0. -1.
       -5    1    3    3    0  502  0.66335216016E+03  0.13825109790E+03  0.13247149318E+04  0.14879654549E+04  0.46999998093E+01 0.  1.
</event>
<event>
 5   0  0.7838333E-07  0.3373650E+04  0.7818609E-02  0.8144404E-01
        2   -1    0    0  501    0  0.00000000000E+00  0.00000000000E+00  0.26931099725E+04  0.26931099725E+04  0.25500000920E-02 0.  1.
       -2   -1    0    0    0  501  0.00000000000E+00  0.00000000000E+00 -0.10565403333E+04  0.10565403333E+04  0.25500000920E-02 0. -1.
    10030    2    1    2    0    0  0.00000000000E+00  0.00000000000E+00  0.16365696392E+04  0.37496503058E+04  0.33736504312E+04 0.  0.
        1    1    3    3  502    0 -0.13174531605E+04  0.88935355595E+03  0.19078507103E+03  0.16009470700E+04  0.50400001928E-02 0. -1.
       -1    1    3    3    0  502  0.13174531605E+04 -0.88935355595E+03  0.14457845681E+04  0.21487032357E+04  0.50400001928E-02 0.  1.
</event>
<event>
 5   0  0.2641442E-07  0.3384042E+04  0.7818609E-02  0.8141834E-01
        1   -1    0    0  501    0  0.00000000000E+00  0.00000000000E+00  0.21342140934E+04  0.21342140934E+04  0.50400001928E-02 0. -1.
       -1   -1    0    0    0  501  0.00000000000E+00  0.00000000000E+00 -0.13414468802E+04  0.13414468802E+04  0.50400001928E-02 0.  1.
    10030    2    1    2    0    0  0.00000000000E+00  0.00000000000E+00  0.79276721324E+03  0.34756609736E+04  0.33840418657E+04 0.  0.
        1    1    3    3  502    0  0.35729554960E+03 -0.16498240178E+04  0.51507814725E+03  0.17649036510E+04  0.50400001928E-02 0. -1.
       -1    1    3    3    0  502 -0.35729554960E+03  0.16498240178E+04  0.27768906600E+03  0.17107573226E+04  0.50400001928E-02 0.  1.
</event>
<event>
 5   0  0.7899402E-07  0.3403170E+04  0.7818609E-02  0.8137129E-01
        2   -1    0    0  501    0  0.00000000000E+00  0.00000000000E+00  0.27766008822E+04  0.27766008822E+04  0.25500000920E-02 0. -1.
       -2   -1    0    0    0  501  0.00000000000E+00  0.00000000000E+00 -0.10427826075E+04  0.10427826075E+04  0.25500000920E-02 0.  1.
    10030    2    1    2    0    0  0.00000000000E+00  0.00000000000E+00  0.17338182747E+04  0.38193834898E+04  0.34031697625E+04 0.  0.
        2    1    3    3  502    0 -0.12359725293E+04 -0.11689287682E+04  0.82539080049E+03  0.18908443965E+04  0.25500000920E-02 0. -1.
       -2    1    3    3    0  502  0.12359725293E+04  0.11689287682E+04  0.90842747420E+03  0.19285390933E+04  0.25500000920E-02 0.  1.
</event>
<event>
 5   0  0.2622205E-07  0.3378031E+04  0.7818609E-02  0.8143319E-01
       -1   -1    0    0    0  501  0.00000000000E+00  0.00000000000E+00  0.14042499960E+04  0.14042499960E+04  0.50400001928E-02 0. -1.
        1   -1    0    0  501    0  0.00000000000E+00  0.00000000000E+00 -0.20315286433E+04  0.20315286434E+04  0.50400001928E-02 0.  1.
    10030    2    1    2    0    0  0.00000000000E+00  0.00000000000E+00 -0.62727864733E+03  0.34357786394E+04  0.33780314323E+04 0.  0.
        3    1    3    3  502    0 -0.17240677914E+03  0.26195476497E+03 -0.20016583363E+04  0.20260751471E+04  0.10100000352E+00 0.  1.
       -3    1    3    3    0  502  0.17240677914E+03 -0.26195476497E+03  0.13743796890E+04  0.14097034922E+04  0.10100000352E+00 0. -1.
</event>
<event>
 5   0  0.7610412E-07  0.3405216E+04  0.7818609E-02  0.8136627E-01
        2   -1    0    0  501    0  0.00000000000E+00  0.00000000000E+00  0.18334491956E+04  0.18334491956E+04  0.25500000920E-02 0. -1.
       -2   -1    0    0    0  501  0.00000000000E+00  0.00000000000E+00 -0.15811039175E+04  0.15811039175E+04  0.25500000920E-02 0.  1.
    10030    2    1    2    0    0  0.00000000000E+00  0.00000000000E+00  0.25234527815E+03  0.34145531131E+04  0.34052158261E+04 0.  0.
        4    1    3    3  502    0 -0.12583176503E+04 -0.34753035182E+02 -0.10234006131E+04  0.16223197928E+04  0.12699999809E+01 0.  1.
       -4    1    3    3    0  502  0.12583176503E+04  0.34753035182E+02  0.12757458912E+04  0.17922333203E+04  0.12699999809E+01 0. -1.
</event>
<event>
 5   0  0.7838333E-07  0.3390400E+04  0.7818609E-02  0.8140267E-01
       -2   -1    0    0    0  501  0.00000000000E+00  0.00000000000E+00  0.20666491206E+04  0.20666491206E+04  0.25500000920E-02 0.  1.
        2   -1    0    0  501    0  0.00000000000E+00  0.00000000000E+00 -0.13905131919E+04  0.13905131919E+04  0.25500000920E-02 0. -1.
    10030    2    1    2    0    0  0.00000000000E+00  0.00000000000E+00  0.67613592869E+03  0.34571623124E+04  0.33903998968E+04 0.  0.
        1    1    3    3  502    0  0.13260877421E+04  0.77010214291E+03 -0.39875137836E+03  0.15844774129E+04  0.50400001928E-02 0. -1.
       -1    1    3    3    0  502 -0.13260877421E+04 -0.77010214291E+03  0.10748873071E+04  0.18726848996E+04  0.50400001928E-02 0.  1.
</event>
<event>
 5   0  0.2622205E-07  0.3412541E+04  0.7818609E-02  0.8134835E-01
        1   -1    0    0  501    0  0.00000000000E+00  0.00000000000E+00  0.19194978341E+04  0.19194978342E+04  0.50400001928E-02 0.  1.
       -1   -1    0    0    0  501  0.00000000000E+00  0.00000000000E+00 -0.15167294535E+04  0.15167294535E+04  0.50400001928E-02 0. -1.
    10030    2    1    2    0    0  0.00000000000E+00  0.00000000000E+00  0.40276838062E+03  0.34362272877E+04  0.34125409308E+04 0.  0.
        3    1    3    3  502    0 -0.16019416162E+04 -0.50857935607E+03 -0.94747182660E+02  0.16834033807E+04  0.10100000352E+00 0. -1.
       -3    1    3    3    0  502  0.16019416162E+04  0.50857935607E+03  0.49751556328E+03  0.17528239070E+04  0.10100000352E+00 0.  1.
</event>
<event>
 5   0  0.2553250E-07  0.3415234E+04  0.7818609E-02  0.8134178E-01
       -1   -1    0    0    0  501  0.00000000000E+00  0.00000000000E+00  0.14680303557E+04  0.14680303557E+04  0.50400001928E-02 0.  1.
        1   -1    0    0  501    0  0.00000000000E+00  0.00000000000E+00 -0.19863046827E+04  0.19863046828E+04  0.50400001928E-02 0. -1.
    10030    2    1    2    0    0  0.00000000000E+00  0.00000000000E+00 -0.51827432705E+03  0.34543350385E+04  0.34152338543E+04 0.  0.
        5    1    3    3  502    0 -0.10217747898E+04 -0.95800757404E+03  0.72884264827E+03  0.15789350616E+04  0.46999998093E+01 0.  1.
       -5    1    3    3    0  502  0.10217747898E+04  0.95800757404E+03 -0.12471169753E+04  0.18753999768E+04  0.46999998093E+01 0. -1.
</event>
<event>
 5   0  0.2622205E-07  0.3411339E+04  0.7818609E-02  0.8135129E-01
       -1   -1    0    0    0  501  0.00000000000E+00  0.00000000000E+00  0.96005742884E+03  0.96005742885E+03  0.50400001928E-02 0.  1.
        1   -1    0    0  501    0  0.00000000000E+00  0.00000000000E+00 -0.30303476659E+04  0.30303476659E+04  0.50400001928E-02 0. -1.
    10030    2    1    2    0    0  0.00000000000E+00  0.00000000000E+00 -0.20702902371E+04  0.39904050948E+04  0.34113386162E+04 0.  0.
        3    1    3    3  502    0 -0.17007972538E+04  0.82356281543E+02 -0.11510264497E+04  0.20553237588E+04  0.10100000352E+00 0.  1.
       -3    1    3    3    0  502  0.17007972538E+04 -0.82356281543E+02 -0.91926378742E+03  0.19350813359E+04  0.10100000352E+00 0. -1.
</event>
<event>
 5   0  0.2553250E-07  0.3402969E+04  0.7818609E-02  0.8137178E-01
       -1   -1    0    0    0  501  0.00000000000E+00  0.00000000000E+00  0.12114170479E+04  0.12114170479E+04  0.50400001928E-02 0. -1.
        1   -1    0    0  501    0  0.00000000000E+00  0.00000000000E+00 -0.23898045696E+04  0.23898045696E+04  0.50400001928E-02 0.  1.
    10030    2    1    2    0    0  0.00000000000E+00  0.00000000000E+00 -0.11783875218E+04  0.36012216175E+04  0.34029692897E+04 0.  0.
        5    1    3    3  502    0  0.11355853500E+03  0.14021082672E+04  0.42376749291E+03  0.14691508132E+04  0.46999998093E+01 0. -1.
       -5    1    3    3    0  502 -0.11355853500E+03 -0.14021082672E+04 -0.16021550147E+04  0.21320708043E+04  0.46999998093E+01 0.  1.
</event>
<event>
 5   0  0.7899402E-07  0.3406679E+04  0.7818609E-02  0.8136269E-01
        2   -1    0    0  501    0  0.00000000000E+00  0.00000000000E+00  0.22374536823E+04  0.22374536823E+04  0.25500000920E-02 0. -1.
       -2   -1    0    0    0  501  0.00000000000E+00  0.00000000000E+00 -0.12967267835E+04  0.12967267835E+04  0.25500000920E-02 0.  1.
    10030    2    1    2    0    0  0.00000000000E+00  0.00000000000E+00  0.94072689884E+03  0.35341804658E+04  0.34066793900E+04 0.  0.
        2    1    3    3  502    0  0.32453578776E+01 -0.10342145454E+04  0.18744415108E+04  0.21408272317E+04  0.25500000920E-02 0. -1.
       -2    1    3    3    0  502 -0.32453578776E+01  0.10342145454E+04 -0.93371461198E+03  0.13933532341E+04  0.25500000920E-02 0.  1.
</event>
<event>
 5   0  0.2622205E-07  0.3381953E+04  0.7818609E-02  0.8142350E-01
        1   -1    0    0  501    0  0.00000000000E+00  0.00000000000E+00  0.20037204476E+04  0.20037204476E+04  0.50400001928E-02 0. -1.
       -1   -1    0    0    0  501  0.00000000000E+00  0.00000000000E+00 -0.14270461869E+04  0.14270461869E+04  0.50400001928E-02 0.  1.
    10030    2    1    2    0    0  0.00000000000E+00  0.00000000000E+00  0.57667426064E+03  0.34307666345E+04  0.33819530596E+04 0.  0.
        3    1    3    3  502    0  0.36143996869E+03  0.14991304727E+04 -0.41548574554E+03  0.15970784077E+04  0.10100000352E+00 0.  1.
       -3    1    3    3    0  502 -0.36143996869E+03 -0.14991304727E+04  0.99216000618E+03  0.18336882269E+04  0.10100000352E+00 0. -1.
</event>
<event>
 5   0  0.7838333E-07  0.3409258E+04  0.7818609E-02  0.8135638E-01
        2   -1    0    0  501    0  0.00000000000E+00  0.00000000000E+00  0.27320419495E+04  0.27320419495E+04  0.25500000920E-02 0. -1.
       -2   -1    0    0    0  501  0.00000000000E+00  0.00000000000E+00 -0.10635857084E+04  0.10635857084E+04  0.25500000920E-02 0.  1.
    10030    2    1    2    0    0  0.00000000000E+00  0.00000000000E+00  0.16684562411E+04  0.37956276579E+04  0.34092584369E+04 0.  0.
        1    1    3    3  502    0  0.56474030227E+03 -0.50144859158E+02  0.26239946167E+04  0.26845472364E+04  0.50400001928E-02 0. -1.
       -1    1    3    3    0  502 -0.56474030227E+03  0.50144859158E+02 -0.95553837559E+03  0.11110804216E+04  0.50400001928E-02 0.  1.
</event>
<event>
 5   0  0.7610412E-07  0.3403345E+04  0.7818609E-02  0.8137086E-01
        2   -1    0    0  501    0  0.00000000000E+00  0.00000000000E+00  0.16319328247E+04  0.16319328247E+04  0.25500000920E-02 0. -1.
       -2   -1    0    0    0  501  0.00000000000E+00  0.00000000000E+00 -0.17743922005E+04  0.17743922005E+04  0.25500000920E-02 0.  1.
    10030    2    1    2    0    0  0.00000000000E+00  0.00000000000E+00 -0.14245937583E+03  0.34063250252E+04  0.34033447524E+04 0.  0.
        4    1    3    3  502    0  0.14551441424E+04  0.10158954247E+03 -0.94830885447E+03  0.17398437306E+04  0.12699999809E+01 0.  1.
       -4    1    3    3    0  502 -0.14551441424E+04 -0.10158954247E+03  0.80584947864E+03  0.16664812947E+04  0.12699999809E+01 0. -1.
</event>
<event>
 5   0  0.2622205E-07  0.3385228E+04  0.7818609E-02  0.8141541E-01
        1   -1    0    0  501    0  0.00000000000E+00  0.00000000000E+00  0.22492008069E+04  0.22492008070E+04  0.50400001928E-02 0. -1.
       -1   -1    0    0    0  501  0.00000000000E+00  0.00000000000E+00 -0.12737598779E+04  0.12737598779E+04  0.50400001928E-02 0.  1.
    10030    2    1    2    0    0  0.00000000000E+00  0.00000000000E+00  0.97544092903E+03  0.35229606849E+04  0.33852277591E+04 0.  0.
        3    1    3    3  502    0  0.99464113380E+03 -0.14086921428E+03  0.19054191024E+04  0.21540141798E+04  0.10100000352E+00 0. -1.
       -3    1    3    3    0  502 -0.99464113380E+03  0.14086921428E+03 -0.92997817341E+03  0.13689465051E+04  0.10100000352E+00 0.  1.
</event>
<event>
 5   0  0.8489228E-07  0.3406077E+04  0.7818609E-02  0.8136417E-01
        2   -1    0    0  501    0  0.00000000000E+00  0.00000000000E+00  0.19733062411E+04  0.19733062411E+04  0.25500000920E-02 0.  1.
       -2   -1    0    0    0  501  0.00000000000E+00  0.00000000000E+00 -0.14697867274E+04  0.14697867274E+04  0.25500000920E-02 0. -1.
    10030    2    1    2    0    0  0.00000000000E+00  0.00000000000E+00  0.50351951371E+03  0.34430929684E+04  0.34060765242E+04 0.  0.
        3    1    3    3  502    0 -0.10707662607E+04 -0.12902690879E+04  0.55333840724E+03  0.17656494860E+04  0.10100000352E+00 0.  1.
       -3    1    3    3    0  502  0.10707662607E+04  0.12902690879E+04 -0.49818893524E+02  0.16774434824E+04  0.10100000352E+00 0. -1.
</event>
<event>
 5   0  0.7838333E-07  0.3388198E+04  0.7818609E-02  0.8140809E-01
        2   -1    0    0  501    0  0.00000000000E+00  0.00000000000E+00  0.19149868738E+04  0.19149868738E+04  0.25500000920E-02 0. -1.
       -2   -1    0    0    0  501  0.00000000000E+00  0.00000000000E+00 -0.14986896299E+04  0.14986896299E+04  0.25500000920E-02 0.  1.
    10030    2    1    2    0    0  0.00000000000E+00  0.00000000000E+00  0.41629724386E+03  0.34136765037E+04  0.33881977328E+04 0.  0.
        1    1    3    3  502    0 -0.78932862165E+03  0.55986506369E+03  0.16091021450E+04  0.18776842854E+04  0.50400001928E-02 0. -1.
       -1    1    3    3    0  502  0.78932862165E+03 -0.55986506369E+03 -0.11928049011E+04  0.15359922183E+04  0.50400001928E-02 0.  1.
</event>
<event>
 5   0  0.2599367E-07  0.3541522E+04  0.7818609E-02  0.8104020E-01
       -1   -1    0    0    0  501  0.00000000000E+00  0.00000000000E+00  0.16644635030E+04  0.16644635030E+04  0.50400001928E-02 0.  1.
        1   -1    0    0  501    0  0.00000000000E+00  0.00000000000E+00 -0.18838471386E+04  0.18838471386E+04  0.50400001928E-02 0. -1.
    10030    2    1    2    0    0  0.00000000000E+00  0.00000000000E+00 -0.21938363557E+03  0.35483106416E+04  0.35415221628E+04 0.  0.
        2    1    3    3  502    0  0.14836580508E+04  0.63744646353E+03 -0.83773149316E+03  0.18191682881E+04  0.25500000920E-02 0. -1.
       -2    1    3    3    0  502 -0.14836580508E+04 -0.63744646353E+03  0.61834785760E+03  0.17291423535E+04  0.25500000920E-02 0.  1.
</event>
<event>
 5   0  0.2553250E-07  0.3401922E+04  0.7818609E-02  0.8137435E-01
        1   -1    0    0  501    0  0.00000000000E+00  0.00000000000E+00  0.12073258458E+04  0.12073258458E+04  0.50400001928E-02 0.  1.
       -1   -1    0    0    0  501  0.00000000000E+00  0.00000000000E+00 -0.23964265634E+04  0.23964265634E+04  0.50400001928E-02 0. -1.
    10030    2    1    2    0    0  0.00000000000E+00  0.00000000000E+00 -0.11891007175E+04  0.36037524092E+04  0.34019216497E+04 0.  0.
        5    1    3    3  502    0  0.15573375881E+04 -0.66315357595E+03 -0.41674527544E+03  0.17432073150E+04  0.46999998093E+01 0.  1.
       -5    1    3    3    0  502 -0.15573375881E+04  0.66315357595E+03 -0.77235544207E+03  0.18605450942E+04  0.46999998093E+01 0. -1.
</event>
<event>
 5   0  0.2641442E-07  0.3402956E+04  0.7818609E-02  0.8137181E-01
       -1   -1    0    0    0  501  0.00000000000E+00  0.00000000000E+00  0.10668233982E+04  0.10668233982E+04  0.50400001928E-02 0.  1.
        1   -1    0    0  501    0  0.00000000000E+00  0.00000000000E+00 -0.27136898034E+04  0.27136898034E+04  0.50400001928E-02 0. -1.
    10030    2    1    2    0    0  0.00000000000E+00  0.00000000000E+00 -0.16468664052E+04  0.37805132017E+04  0.34029562312E+04 0.  0.
        1    1    3    3  502    0 -0.15753541598E+04 -0.27893269803E+03 -0.14669057784E+04  0.21705659957E+04  0.50400001928E-02 0.  1.
       -1    1    3    3    0  502  0.15753541598E+04  0.27893269803E+03 -0.17996062680E+03  0.16099472060E+04  0.50400001928E-02 0. -1.
</event>
<event>
 5   0  0.7822003E-07  0.3405137E+04  0.7818609E-02  0.8136647E-01
       -2   -1    0    0    0  501  0.00000000000E+00  0.00000000000E+00  0.10316226603E+04  0.10316226603E+04  0.25500000920E-02 0. -1.
        2   -1    0    0  501    0  0.00000000000E+00  0.00000000000E+00 -0.28098826960E+04  0.28098826960E+04  0.25500000920E-02 0.  1.
    10030    2    1    2    0    0  0.00000000000E+00  0.00000000000E+00 -0.17782600357E+04  0.38415053563E+04  0.34051365094E+04 0.  0.
        5    1    3    3  502    0 -0.21674878779E+03  0.57348011716E+03 -0.26810278374E+04  0.27502348694E+04  0.46999998093E+01 0.  1.
       -5    1    3    3    0  502  0.21674878779E+03 -0.57348011716E+03  0.90276780168E+03  0.10912704869E+04  0.46999998093E+01 0. -1.
</event>
<event>
 5   0  0.8489228E-07  0.3386313E+04  0.7818609E-02  0.8141274E-01
       -2   -1    0    0    0  501  0.00000000000E+00  0.00000000000E+00  0.98700591353E+03  0.98700591354E+03  0.25500000920E-02 0. -1.
        2   -1    0    0  501    0  0.00000000000E+00  0.00000000000E+00 -0.29045200598E+04  0.29045200598E+04  0.25500000920E-02 0.  1.
    10030    2    1    2    0    0  0.00000000000E+00  0.00000000000E+00 -0.19175141463E+04  0.38915259734E+04  0.33863127292E+04 0.  0.
        3    1    3    3  502    0 -0.16913443350E+04  0.62623234200E+02 -0.10127952375E+04  0.19723898023E+04  0.10100000352E+00 0.  1.
       -3    1    3    3    0  502  0.16913443350E+04 -0.62623234200E+02 -0.90471890878E+03  0.19191361710E+04  0.10100000352E+00 0. -1.
</event>
<event>
 5   0  0.7610412E-07  0.3408833E+04  0.7818609E-02  0.8135742E-01
        2   -1    0    0  501    0  0.00000000000E+00  0.00000000000E+00  0.24443573373E+04  0.24443573373E+04  0.25500000920E-02 0. -1.
       -2   -1    0    0    0  501  0.00000000000E+00  0.00000000000E+00 -0.11884659309E+04  0.11884659309E+04  0.25500000920E-02 0.  1.
    10030    2    1    2    0    0  0.00000000000E+00  0.00000000000E+00  0.12558914064E+04  0.36328232682E+04  0.34088328902E+04 0.  0.
        4    1    3    3  502    0  0.55634928965E+03  0.11310950685E+04  0.18505572257E+04  0.22390766500E+04  0.12699999809E+01 0. -1.
       -4    1    3    3    0  502 -0.55634928965E+03 -0.11310950685E+04 -0.59466581934E+03  0.13937466182E+04  0.12699999809E+01 0.  1.
</event>
<event>
 5   0  0.8489228E-07  0.3372897E+04  0.7818609E-02  0.8144591E-01
       -2   -1    0    0    0  501  0.00000000000E+00  0.00000000000E+00  0.15521434846E+04  0.15521434846E+04  0.25500000920E-02 0. -1.
        2   -1    0    0  501    0  0.00000000000E+00  0.00000000000E+00 -0.18323743099E+04  0.18323743099E+04  0.25500000920E-02 0.  1.
    10030    2    1    2    0    0  0.00000000000E+00  0.00000000000E+00 -0.28023082526E+03  0.33845177945E+04  0.33728965869E+04 0.  0.
        3    1    3    3  502    0 -0.16814856978E+04 -0.11559652793E+03 -0.19820378786E+03  0.16970684903E+04  0.10100000352E+00 0. -1.
       -3    1    3    3    0  502  0.16814856978E+04  0.11559652793E+03 -0.82027037400E+02  0.16874493042E+04  0.10100000352E+00 0.  1.
</event>
<event>
 5   0  0.2553250E-07  0.3219286E+04  0.7818609E-02  0.8183742E-01
       -1   -1    0    0    0  501  0.00000000000E+00  0.00000000000E+00  0.12398484405E+04  0.12398484405E+04  0.50400001928E-02 0.  1.
        1   -1    0    0  501    0  0.00000000000E+00  0.00000000000E+00 -0.20897312885E+04  0.20897312885E+04  0.50400001928E-02 0. -1.
    10030    2    1    2    0    0  0.00000000000E+00  0.00000000000E+00 -0.84988284795E+03  0.33295797290E+04  0.32192856842E+04 0.  0.
        5    1    3    3  502    0  0.26686672149E+03  0.13978485249E+04  0.35297755723E+03  0.14662242637E+04  0.46999998093E+01 0.  1.
       -5    1    3    3    0  502 -0.26686672149E+03 -0.13978485249E+04 -0.12028604052E+04  0.18633554653E+04  0.46999998093E+01 0. -1.
</event>
<event>
 5   0  0.2592200E-07  0.3399615E+04  0.7818609E-02  0.8138001E-01
       -1   -1    0    0    0  501  0.00000000000E+00  0.00000000000E+00  0.12561785058E+04  0.12561785058E+04  0.50400001928E-02 0.  1.
        1   -1    0    0  501    0  0.00000000000E+00  0.00000000000E+00 -0.23001080589E+04  0.23001080589E+04  0.50400001928E-02 0. -1.
    10030    2    1    2    0    0  0.00000000000E+00  0.00000000000E+00 -0.10439295531E+04  0.35562865646E+04  0.33996154515E+04 0.  0.
        4    1    3    3  502    0  0.50976125221E+03  0.11955205232E+04 -0.16679979094E+04  0.21145553893E+04  0.12699999809E+01 0. -1.
       -4    1    3    3    0  502 -0.50976125221E+03 -0.11955205232E+04  0.62406835631E+03  0.14417311753E+04  0.12699999809E+01 0.  1.
</event>
<event>
 5   0  0.2553250E-07  0.3433922E+04  0.7818609E-02  0.8129631E-01
        1   -1    0    0  501    0  0.00000000000E+00  0.00000000000E+00  0.24834782307E+04  0.24834782307E+04  0.50400001928E-02 0. -1.
       -1   -1    0    0    0  501  0.00000000000E+00  0.00000000000E+00 -0.11870267956E+04  0.11870267956E+04  0.50400001928E-02 0.  1.
    10030    2    1    2    0    0  0.00000000000E+00  0.00000000000E+00  0.12964514351E+04  0.36705050264E+04  0.34339220761E+04 0.  0.
        5    1    3    3  502    0 -0.18284172712E+03 -0.17039863537E+04  0.75998809565E+03  0.18747278700E+04  0.46999998093E+01 0. -1.
       -5    1    3    3    0  502  0.18284172712E+03  0.17039863537E+04  0.53646333943E+03  0.17957771564E+04  0.46999998093E+01 0.  1.
</event>
<event>
 5   0  0.2592200E-07  0.3389184E+04  0.7818609E-02  0.8140566E-01
        1   -1    0    0  501    0  0.00000000000E+00  0.00000000000E+00  0.11398982621E+04  0.11398982621E+04  0.50400001928E-02 0.  1.
       -1   -1    0    0    0  501  0.00000000000E+00  0.00000000000E+00 -0.25192093335E+04  0.25192093335E+04  0.50400001928E-02 0. -1.
    10030    2    1    2    0    0  0.00000000000E+00  0.00000000000E+00 -0.13793110714E+04  0.36591075956E+04  0.33891841739E+04 0.  0.
        4    1    3    3  502    0 -0.90802154875E+02 -0.13661978067E+04  0.38831190863E+03  0.14232108872E+04  0.12699999809E+01 0.  1.
       -4    1    3    3    0  502  0.90802154875E+02  0.13661978067E+04 -0.17676229800E+04  0.22358967084E+04  0.12699999809E+01 0. -1.
</event>
<event>
 5   0  0.8489228E-07  0.3378201E+04  0.7818609E-02  0.8143277E-01
        2   -1    0    0  501    0  0.00000000000E+00  0.00000000000E+00  0.16831040393E+04  0.16831040393E+04  0.25500000920E-02 0. -1.
       -2   -1    0    0    0  501  0.00000000000E+00  0.00000000000E+00 -0.16951178446E+04  0.16951178446E+04  0.25500000920E-02 0.  1.
    10030    2    1    2    0    0  0.00000000000E+00  0.00000000000E+00 -0.12013805348E+02  0.33782218839E+04  0.33782005218E+04 0.  0.
        3    1    3    3  502    0 -0.12591348309E+04 -0.79124711871E+03  0.79497703582E+03  0.16862624419E+04  0.10100000352E+00 0. -1.
       -3    1    3    3    0  502  0.12591348309E+04  0.79124711871E+03 -0.80699084117E+03  0.16919594420E+04  0.10100000352E+00 0.  1.
</event>
<event>
 5   0  0.2622205E-07  0.3384246E+04  0.7818609E-02  0.8141784E-01
       -1   -1    0    0    0  501  0.00000000000E+00  0.00000000000E+00  0.12815055487E+04  0.12815055488E+04  0.50400001928E-02 0.  1.
        1   -1    0    0  501    0  0.00000000000E+00  0.00000000000E+00 -0.22343098884E+04  0.22343098884E+04  0.50400001928E-02 0. -1.
    10030    2    1    2    0    0  0.00000000000E+00  0.00000000000E+00 -0.95280433963E+03  0.35158154371E+04  0.33842461610E+04 0.  0.
        3    1    3    3  502    0 -0.18799962219E+02  0.15617100357E+04 -0.11528609438E+04  0.19412315781E+04  0.10100000352E+00 0.  1.
       -3    1    3    3    0  502  0.18799962219E+02 -0.15617100357E+04  0.20005660413E+03  0.15745838590E+04  0.10100000352E+00 0. -1.
</event>
<event>
 5   0  0.7822003E-07  0.3420768E+04  0.7818609E-02  0.8132828E-01
       -2   -1    0    0    0  501  0.00000000000E+00  0.00000000000E+00  0.15689968630E+04  0.15689968630E+04  0.25500000920E-02 0. -1.
        2   -1    0    0  501    0  0.00000000000E+00  0.00000000000E+00 -0.18645123952E+04  0.18645123952E+04  0.25500000920E-02 0.  1.
    10030    2    1    2    0    0  0.00000000000E+00  0.00000000000E+00 -0.29551553219E+03  0.34335092582E+04  0.34207683927E+04 0.  0.
        5    1    3    3  502    0  0.12477433470E+04 -0.84746684320E+03  0.66167530620E+03  0.16470882828E+04  0.46999998093E+01 0. -1.
       -5    1    3    3    0  502 -0.12477433470E+04  0.84746684320E+03 -0.95719083839E+03  0.17864209754E+04  0.46999998093E+01 0.  1.
</event>
<event>
 5   0  0.8489228E-07  0.3391118E+04  0.7818609E-02  0.8140090E-01
       -2   -1    0    0    0  501  0.00000000000E+00  0.00000000000E+00  0.14393199382E+04  0.14393199382E+04  0.25500000920E-02 0. -1.
        2   -1    0    0  501    0  0.00000000000E+00  0.00000000000E+00 -0.19974154585E+04  0.19974154586E+04  0.25500000920E-02 0.  1.
    10030    2    1    2    0    0  0.00000000000E+00  0.00000000000E+00 -0.55809552039E+03  0.34367353967E+04  0.33911177475E+04 0.  0.
        3    1    3    3  502    0  0.86711386096E+03  0.14548407631E+04 -0.19751813473E+03  0.17051280062E+04  0.10100000352E+00 0. -1.
       -3    1    3    3    0  502 -0.86711386096E+03 -0.14548407631E+04 -0.36057738566E+03  0.17316073905E+04  0.10100000352E+00 0.  1.
</event>
<event>
 5   0  0.2622205E-07  0.3382926E+04  0.7818609E-02  0.8142110E-01
       -1   -1    0    0    0  501  0.00000000000E+00  0.00000000000E+00  0.19310157573E+04  0.19310157573E+04  0.50400001928E-02 0. -1.
        1   -1    0    0  501    0  0.00000000000E+00  0.00000000000E+00 -0.14816281239E+04  0.14816281239E+04  0.50400001928E-02 0.  1.
    10030    2    1    2    0    0  0.00000000000E+00  0.00000000000E+00  0.44938763342E+03  0.34126438812E+04  0.33829261025E+04 0.  0.
        3    1    3    3  502    0  0.95033062745E+02 -0.12899364342E+04  0.13242597961E+04  0.18511162322E+04  0.10100000352E+00 0. -1.
       -3    1    3    3    0  502 -0.95033062745E+02  0.12899364342E+04 -0.87487216272E+03  0.15615276490E+04  0.10100000352E+00 0.  1.
</event>
<event>
 5   0  0.7610412E-07  0.3418129E+04  0.7818609E-02  0.8133471E-01
       -2   -1    0    0    0  501  0.00000000000E+00  0.00000000000E+00  0.16830352560E+04  0.16830352560E+04  0.25500000920E-02 0.  1.
        2   -1    0    0  501    0  0.00000000000E+00  0.00000000000E+00 -0.17354960055E+04  0.17354960055E+04  0.25500000920E-02 0. -1.
    10030    2    1    2    0    0  0.00000000000E+00  0.00000000000E+00 -0.52460749502E+02  0.34185312614E+04  0.34181287066E+04 0.  0.
        4    1    3    3  502    0 -0.34615347130E+03 -0.73206833455E+03  0.14789894254E+04  0.16861665414E+04  0.12699999809E+01 0.  1.
       -4    1    3    3    0  502  0.34615347130E+03  0.73206833455E+03 -0.15314501749E+04  0.17323647200E+04  0.12699999809E+01 0. -1.
</event>
<event>
 5   0  0.7822003E-07  0.3398273E+04  0.7818609E-02  0.8138330E-01
       -2   -1    0    0    0  501  0.00000000000E+00  0.00000000000E+00  0.12969154375E+04  0.12969154375E+04  0.25500000920E-02 0.  1.
        2   -1    0    0  501    0  0.00000000000E+00  0.00000000000E+00 -0.22261009454E+04  0.22261009454E+04  0.25500000920E-02 0. -1.
    10030    2    1    2    0    0  0.00000000000E+00  0.00000000000E+00 -0.92918550787E+03  0.35230163830E+04  0.33982729035E+04 0.  0.
        5    1    3    3  502    0  0.11689537193E+03 -0.67142033682E+03 -0.20781888263E+04  0.21870895465E+04  0.46999998093E+01 0. -1.
       -5    1    3    3    0  502 -0.11689537193E+03  0.67142033682E+03  0.11490033184E+04  0.13359268365E+04  0.46999998093E+01 0.  1.
</event>
<event>
 5   0  0.2599367E-07  0.3406726E+04  0.7818609E-02  0.8136258E-01
       -1   -1    0    0    0  501  0.00000000000E+00  0.00000000000E+00  0.18179826761E+04  0.18179826761E+04  0.50400001928E-02 0. -1.
        1   -1    0    0  501    0  0.00000000000E+00  0.00000000000E+00 -0.15959695972E+04  0.15959695972E+04  0.50400001928E-02 0.  1.
    10030    2    1    2    0    0  0.00000000000E+00  0.00000000000E+00  0.22201307884E+03  0.34139522733E+04  0.34067257473E+04 0.  0.
        2    1    3    3  502    0  0.93772650018E+03 -0.13437975036E+04 -0.35508474102E+03  0.16766657070E+04  0.25500000920E-02 0.  1.
       -2    1    3    3    0  502 -0.93772650018E+03  0.13437975036E+04  0.57709781986E+03  0.17372865663E+04  0.25500000920E-02 0. -1.
</event>
<event>
 5   0  0.2592200E-07  0.3427991E+04  0.7818609E-02  0.8131070E-01
       -1   -1    0    0    0  501  0.00000000000E+00  0.00000000000E+00  0.12879782932E+04  0.12879782932E+04  0.50400001928E-02 0.  1.
        1   -1    0    0  501    0  0.00000000000E+00  0.00000000000E+00 -0.22809242933E+04  0.22809242933E+04  0.50400001928E-02 0. -1.
    10030    2    1    2    0    0  0.00000000000E+00  0.00000000000E+00 -0.99294600009E+03  0.35689025866E+04  0.34279912359E+04 0.  0.
        4    1    3    3  502    0  0.14283938612E+04  0.14755513013E+02 -0.14826442972E+04  0.20588255081E+04  0.12699999809E+01 0. -1.
       -4    1    3    3    0  502 -0.14283938612E+04 -0.14755513013E+02  0.48969829709E+03  0.15100770785E+04  0.12699999809E+01 0.  1.
</event>
<event>
 5   0  0.2622205E-07  0.3379513E+04  0.7818609E-02  0.8142953E-01
        1   -1    0    0  501    0  0.00000000000E+00  0.00000000000E+00  0.11009385851E+04  0.11009385851E+04  0.50400001928E-02 0.  1.
       -1   -1    0    0    0  501  0.00000000000E+00  0.00000000000E+00 -0.25934932750E+04  0.25934932750E+04  0.50400001928E-02 0. -1.
    10030    2    1    2    0    0  0.00000000000E+00  0.00000000000E+00 -0.14925546899E+04  0.36944318602E+04  0.33795128742E+04 0.  0.
        3    1    3    3  502    0  0.35463999340E+03 -0.10148410304E+04 -0.21714502305E+04  0.24229874032E+04  0.10100000352E+00 0. -1.
       -3    1    3    3    0  502 -0.35463999340E+03  0.10148410304E+04  0.67889554060E+03  0.12714444570E+04  0.10100000352E+00 0.  1.
</event>
<event>
 5   0  0.2553250E-07  0.3396995E+04  0.7818609E-02  0.8138644E-01
       -1   -1    0    0    0  501  0.00000000000E+00  0.00000000000E+00  0.94274107012E+03  0.94274107013E+03  0.50400001928E-02 0.  1.
        1   -1    0    0  501    0  0.00000000000E+00  0.00000000000E+00 -0.30601123337E+04  0.30601123337E+04  0.50400001928E-02 0. -1.
    10030    2    1    2    0    0  0.00000000000E+00  0.00000000000E+00 -0.21173712636E+04  0.40028534038E+04  0.33969948932E+04 0.  0.
        5    1    3    3  502    0 -0.12002598168E+04 -0.11488148581E+04 -0.64295587251E+03  0.17815200111E+04  0.46999998093E+01 0.  1.
       -5    1    3    3    0  502  0.12002598168E+04  0.11488148581E+04 -0.14744153910E+04  0.22213333927E+04  0.46999998093E+01 0. -1.
</event>
<event>
 5   0  0.7838333E-07  0.3404179E+04  0.7818609E-02  0.8136881E-01
        2   -1    0    0  501    0  0.00000000000E+00  0.00000000000E+00  0.17797753540E+04  0.17797753540E+04  0.25500000920E-02 0.  1.
       -2   -1    0    0    0  501  0.00000000000E+00  0.00000000000E+00 -0.16277947960E+04  0.16277947960E+04  0.25500000920E-02 0. -1.
    10030    2    1    2    0    0  0.00000000000E+00  0.00000000000E+00  0.15198055808E+03  0.34075701500E+04  0.34041792311E+04 0.  0.
        1    1    3    3  502    0 -0.79549339458E+03 -0.69267846259E+02  0.15806513457E+04  0.17708942521E+04  0.50400001928E-02 0.  1.
       -1    1    3    3    0  502  0.79549339458E+03  0.69267846259E+02 -0.14286707876E+04  0.16366758979E+04  0.50400001928E-02 0. -1.
</event>
<event>
 5   0  0.2641442E-07  0.3385436E+04  0.7818609E-02  0.8141490E-01
        1   -1    0    0  501    0  0.00000000000E+00  0.00000000000E+00  0.17844870873E+04  0.17844870873E+04  0.50400001928E-02 0. -1.
       -1   -1    0    0    0  501  0.00000000000E+00  0.00000000000E+00 -0.16056681886E+04  0.16056681886E+04  0.50400001928E-02 0.  1.
    10030    2    1    2    0    0  0.00000000000E+00  0.00000000000E+00  0.17881889874E+03  0.33901552760E+04  0.33854359537E+04 0.  0.
        1    1    3    3  502    0 -0.14894947558E+04  0.58472971744E+03  0.64225755899E+03  0.17242384528E+04  0.50400001928E-02 0. -1.
       -1    1    3    3    0  502  0.14894947558E+04 -0.58472971744E+03 -0.46343866025E+03  0.16659168232E+04  0.50400001928E-02 0.  1.
</event>
<event>
 5   0  0.7838333E-07  0.3402975E+04  0.7818609E-02  0.8137176E-01
       -2   -1    0    0    0  501  0.00000000000E+00  0.00000000000E+00  0.15790607127E+04  0.15790607127E+04  0.25500000920E-02 0.  1.
        2   -1    0    0  501    0  0.00000000000E+00  0.00000000000E+00 -0.18334066383E+04  0.18334066383E+04  0.25500000920E-02 0. -1.
    10030    2    1    2    0    0  0.00000000000E+00  0.00000000000E+00 -0.25434592559E+03  0.34124673509E+04  0.34029753997E+04 0.  0.
        1    1    3    3  502    0 -0.64147949888E+03 -0.92395790780E+03 -0.14073961125E+04  0.18016542344E+04  0.50400001928E-02 0. -1.
       -1    1    3    3    0  502  0.64147949888E+03  0.92395790780E+03  0.11530501869E+04  0.16108131165E+04  0.50400001928E-02 0.  1.
</event>
<event>
 5   0  0.2622205E-07  0.3401102E+04  0.7818609E-02  0.8137636E-01
       -1   -1    0    0    0  501  0.00000000000E+00  0.00000000000E+00  0.19253306167E+04  0.19253306167E+04  0.50400001928E-02 0.  1.
        1   -1    0    0  501    0  0.00000000000E+00  0.00000000000E+00 -0.15020142064E+04  0.15020142064E+04  0.50400001928E-02 0. -1.
    10030    2    1    2    0    0  0.00000000000E+00  0.00000000000E+00  0.42331641023E+03  0.34273448231E+04  0.34011021380E+04 0.  0.
        3    1    3    3  502    0 -0.75965589306E+03 -0.36826909044E+03 -0.12759348883E+04  0.15299375962E+04  0.10100000352E+00 0. -1.
       -3    1    3    3    0  502  0.75965589306E+03  0.36826909044E+03  0.16992512986E+04  0.18974072269E+04  0.10100000352E+00 0.  1.
</event>
<event>
 5   0  0.2599367E-07  0.3361961E+04  0.7818609E-02  0.8147306E-01
        1   -1    0    0  501    0  0.00000000000E+00  0.00000000000E+00  0.18175584936E+04  0.18175584936E+04  0.50400001928E-02 0. -1.
       -1   -1    0    0    0  501  0.00000000000E+00  0.00000000000E+00 -0.15546654479E+04  0.15546654479E+04  0.50400001928E-02 0.  1.
    10030    2    1    2    0    0  0.00000000000E+00  0.00000000000E+00  0.26289304562E+03  0.33722239415E+04  0.33619609692E+04 0.  0.
        2    1    3    3  502    0  0.12881371284E+04  0.95336767865E+03 -0.37753545348E+03  0.16464325710E+04  0.25500000920E-02 0.  1.
       -2    1    3    3    0  502 -0.12881371284E+04 -0.95336767865E+03  0.64042849910E+03  0.17257913705E+04  0.25500000920E-02 0. -1.
</event>
<event>
 5   0  0.2553250E-07  0.3406622E+04  0.7818609E-02  0.8136283E-01
        1   -1    0    0  501    0  0.00000000000E+00  0.00000000000E+00  0.20587639015E+04  0.20587639015E+04  0.50400001928E-02 0. -1.
       -1   -1    0    0    0  501  0.00000000000E+00  0.00000000000E+00 -0.14092284201E+04  0.14092284201E+04  0.50400001928E-02 0.  1.
    10030    2    1    2    0    0  0.00000000000E+00  0.00000000000E+00  0.64953548146E+03  0.34679923216E+04  0.34066221394E+04 0.  0.
        5    1    3    3  502    0  0.13861810559E+04  0.18713164158E+03 -0.66471470530E+03  0.15486716568E+04  0.46999998093E+01 0.  1.
       -5    1    3    3    0  502 -0.13861810559E+04 -0.18713164158E+03  0.13142501868E+04  0.19193206648E+04  0.46999998093E+01 0. -1.
</event>
<event>
 5   0  0.7822003E-07  0.3568710E+04  0.7818609E-02  0.8097697E-01
       -2   -1    0    0    0  501  0.00000000000E+00  0.00000000000E+00  0.13131886675E+04  0.13131886676E+04  0.25500000920E-02 0.  1.
        2   -1    0    0  501    0  0.00000000000E+00  0.00000000000E+00 -0.24245743666E+04  0.24245743666E+04  0.25500000920E-02 0. -1.
    10030    2    1    2    0    0  0.00000000000E+00  0.00000000000E+00 -0.11113856991E+04  0.37377630342E+04  0.35687104572E+04 0.  0.
        5    1    3    3  502    0  0.92593298375E+03 -0.56056700823E+03 -0.20414517836E+04  0.23106567758E+04  0.46999998093E+01 0. -1.
       -5    1    3    3    0  502 -0.92593298375E+03  0.56056700823E+03  0.93006608448E+03  0.14271062583E+04  0.46999998093E+01 0.  1.
</event>
<event>
 5   0  0.7822003E-07  0.3414286E+04  0.7818609E-02  0.8134409E-01
       -2   -1    0    0    0  501  0.00000000000E+00  0.00000000000E+00  0.24667149104E+04  0.24667149104E+04  0.25500000920E-02 0.  1.
        2   -1    0    0  501    0  0.00000000000E+00  0.00000000000E+00 -0.11814651324E+04  0.11814651324E+04  0.25500000920E-02 0. -1.
    10030    2    1    2    0    0  0.00000000000E+00  0.00000000000E+00  0.12852497781E+04  0.36481800428E+04  0.34142862552E+04 0.  0.
        5    1    3    3  502    0  0.25141748913E+03 -0.15120399389E+04 -0.16041860883E+03  0.15411786888E+04  0.46999998093E+01 0. -1.
       -5    1    3    3    0  502 -0.25141748913E+03  0.15120399389E+04  0.14456683869E+04  0.21070013540E+04  0.46999998093E+01 0.  1.
</event>
<event>
 5   0  0.7822003E-07  0.3464935E+04  0.7818609E-02  0.8122151E-01
       -2   -1    0    0    0  501  0.00000000000E+00  0.00000000000E+00  0.27955943391E+04  0.27955943391E+04  0.25500000920E-02 0.  1.
        2   -1    0    0  501    0  0.00000000000E+00  0.00000000000E+00 -0.10736334188E+04  0.10736334188E+04  0.25500000920E-02 0. -1.
    10030    2    1    2    0    0  0.00000000000E+00  0.00000000000E+00  0.17219609203E+04  0.38692277578E+04  0.34649349245E+04 0.  0.
        5    1    3    3  502    0  0.84530002128E+03  0.11369010904E+04  0.19744999007E+04  0.24301745129E+04  0.46999998093E+01 0.  1.
       -5    1    3    3    0  502 -0.84530002128E+03 -0.11369010904E+04 -0.25253898041E+03  0.14390532450E+04  0.46999998093E+01 0. -1.
</event>
<event>
 5   0  0.2592200E-07  0.3404724E+04  0.7818609E-02  0.8136748E-01
       -1   -1    0    0    0  501  0.00000000000E+00  0.00000000000E+00  0.16254354875E+04  0.16254354875E+04  0.50400001928E-02 0. -1.
        1   -1    0    0  501    0  0.00000000000E+00  0.00000000000E+00 -0.17829293233E+04  0.17829293233E+04  0.50400001928E-02 0.  1.
    10030    2    1    2    0    0  0.00000000000E+00  0.00000000000E+00 -0.15749383580E+03  0.34083648108E+04  0.34047241261E+04 0.  0.
        4    1    3    3  502    0  0.11933673603E+04  0.17328158650E+03 -0.12816485622E+04  0.17597661250E+04  0.12699999809E+01 0.  1.
       -4    1    3    3    0  502 -0.11933673603E+04 -0.17328158650E+03  0.11241547264E+04  0.16485986858E+04  0.12699999809E+01 0. -1.
</event>
<event>
 5   0  0.7899402E-07  0.3411535E+04  0.7818609E-02  0.8135081E-01
        2   -1    0    0  501    0  0.00000000000E+00  0.00000000000E+00  0.22813798978E+04  0.22813798978E+04  0.25500000920E-02 0. -1.
       -2   -1    0    0    0  501  0.00000000000E+00  0.00000000000E+00 -0.12753870364E+04  0.12753870364E+04  0.25500000920E-02 0.  1.
    10030    2    1    2    0    0  0.00000000000E+00  0.00000000000E+00  0.10059928614E+04  0.35567669342E+04  0.34115347554E+04 0.  0.
        2    1    3    3  502    0 -0.27502130901E+02  0.15368124300E+04  0.12741420558E+04  0.19964936240E+04  0.25500000920E-02 0.  1.
       -2    1    3    3    0  502  0.27502130901E+02 -0.15368124300E+04 -0.26814919442E+03  0.15602733103E+04  0.25500000920E-02 0. -1.
</event>
<event>
 5   0  0.8489228E-07  0.3408169E+04  0.7818609E-02  0.8135904E-01
       -2   -1    0    0    0  501  0.00000000000E+00  0.00000000000E+00  0.12517750585E+04  0.12517750585E+04  0.25500000920E-02 0. -1.
        2   -1    0    0  501    0  0.00000000000E+00  0.00000000000E+00 -0.23198283796E+04  0.23198283796E+04  0.25500000920E-02 0.  1.
    10030    2    1    2    0    0  0.00000000000E+00  0.00000000000E+00 -0.10680533212E+04  0.35716034381E+04  0.34081686024E+04 0.  0.
        3    1    3    3  502    0 -0.70193887934E+03 -0.67688984651E+03  0.93048847859E+03  0.13478526899E+04  0.10100000352E+00 0. -1.
       -3    1    3    3    0  502  0.70193887934E+03  0.67688984651E+03 -0.19985417997E+04  0.22237507482E+04  0.10100000352E+00 0.  1.
</event>
<event>
 5   0  0.2641442E-07  0.3293396E+04  0.7818609E-02  0.8164578E-01
       -1   -1    0    0    0  501  0.00000000000E+00  0.00000000000E+00  0.10347079227E+04  0.10347079227E+04  0.50400001928E-02 0. -1.
        1   -1    0    0  501    0  0.00000000000E+00  0.00000000000E+00 -0.26206561675E+04  0.26206561675E+04  0.50400001928E-02 0.  1.
    10030    2    1    2    0    0  0.00000000000E+00  0.00000000000E+00 -0.15859482448E+04  0.36553640902E+04  0.32933956332E+04 0.  0.
        1    1    3    3  502    0  0.49360933692E+02 -0.14486942383E+04 -0.16601678441E+04  0.22039303002E+04  0.50400001928E-02 0. -1.
       -1    1    3    3    0  502 -0.49360933692E+02  0.14486942383E+04  0.74219599293E+02  0.14514337900E+04  0.50400001928E-02 0.  1.
</event>
<event>
 5   0  0.8489228E-07  0.3407953E+04  0.7818609E-02  0.8135957E-01
        2   -1    0    0  501    0  0.00000000000E+00  0.00000000000E+00  0.13116645395E+04  0.13116645395E+04  0.25500000920E-02 0.  1.
       -2   -1    0    0    0  501  0.00000000000E+00  0.00000000000E+00 -0.22136267426E+04  0.22136267426E+04  0.25500000920E-02 0. -1.
    10030    2    1    2    0    0  0.00000000000E+00  0.00000000000E+00 -0.90196220313E+03  0.35252912821E+04  0.34079528764E+04 0.  0.
        3    1    3    3  502    0 -0.50689617838E+03  0.15117008696E+03  0.12245858579E+04  0.13339440260E+04  0.10100000352E+00 0.  1.
       -3    1    3    3    0  502  0.50689617838E+03 -0.15117008696E+03 -0.21265480610E+04  0.21913472561E+04  0.10100000352E+00 0. -1.
</event>
<event>
 5   0  0.2592200E-07  0.3458925E+04  0.7818609E-02  0.8123594E-01
        1   -1    0    0  501    0  0.00000000000E+00  0.00000000000E+00  0.12810822817E+04  0.12810822817E+04  0.50400001928E-02 0. -1.
       -1   -1    0    0    0  501  0.00000000000E+00  0.00000000000E+00 -0.23347758413E+04  0.23347758413E+04  0.50400001928E-02 0.  1.
    10030    2    1    2    0    0  0.00000000000E+00  0.00000000000E+00 -0.10536935596E+04  0.36158581230E+04  0.34589246664E+04 0.  0.
        4    1    3    3  502    0  0.75845769520E+03 -0.15520196314E+04 -0.61440452350E+03  0.18334441750E+04  0.12699999809E+01 0.  1.
       -4    1    3    3    0  502 -0.75845769520E+03  0.15520196314E+04 -0.43928903614E+03  0.17824139479E+04  0.12699999809E+01 0. -1.
</event>
<event>
 5   0  0.7822003E-07  0.3410092E+04  0.7818609E-02  0.8135434E-01
       -2   -1    0    0    0  501  0.00000000000E+00  0.00000000000E+00  0.23292359699E+04  0.23292359699E+04  0.25500000920E-02 0.  1.
        2   -1    0    0  501    0  0.00000000000E+00  0.00000000000E+00 -0.12481267624E+04  0.12481267624E+04  0.25500000920E-02 0. -1.
    10030    2    1    2    0    0  0.00000000000E+00  0.00000000000E+00  0.10811092075E+04  0.35773627323E+04  0.34100919342E+04 0.  0.
        5    1    3    3  502    0 -0.91906526433E+03  0.14273193866E+04  0.70721213678E+03  0.18390466791E+04  0.46999998093E+01 0.  1.
       -5    1    3    3    0  502  0.91906526433E+03 -0.14273193866E+04  0.37389707073E+03  0.17383160532E+04  0.46999998093E+01 0. -1.
</event>
<event>
 5   0  0.2622205E-07  0.3390370E+04  0.7818609E-02  0.8140274E-01
        1   -1    0    0  501    0  0.00000000000E+00  0.00000000000E+00  0.19702929951E+04  0.19702929951E+04  0.50400001928E-02 0.  1.
       -1   -1    0    0    0  501  0.00000000000E+00  0.00000000000E+00 -0.14584895356E+04  0.14584895356E+04  0.50400001928E-02 0. -1.
    10030    2    1    2    0    0  0.00000000000E+00  0.00000000000E+00  0.51180345945E+03  0.34287825307E+04  0.33903697235E+04 0.  0.
        3    1    3    3  502    0 -0.10667484121E+04 -0.73710926543E+02  0.15862009782E+04  0.19129608017E+04  0.10100000352E+00 0.  1.
       -3    1    3    3    0  502  0.10667484121E+04  0.73710926543E+02 -0.10743975188E+04  0.15158217290E+04  0.10100000352E+00 0. -1.
</event>
<event>
 5   0  0.7899402E-07  0.3402228E+04  0.7818609E-02  0.8137360E-01
       -2   -1    0    0    0  501  0.00000000000E+00  0.00000000000E+00  0.14447613487E+04  0.14447613487E+04  0.25500000920E-02 0. -1.
        2   -1    0    0  501    0  0.00000000000E+00  0.00000000000E+00 -0.20029526585E+04  0.20029526585E+04  0.25500000920E-02 0.  1.
    10030    2    1    2    0    0  0.00000000000E+00  0.00000000000E+00 -0.55819130977E+03  0.34477140072E+04  0.34022278491E+04 0.  0.
        2    1    3    3  502    0  0.15974572780E+04 -0.26550582982E+03  0.24885477546E+03  0.16383808470E+04  0.25500000920E-02 0. -1.
       -2    1    3    3    0  502 -0.15974572780E+04  0.26550582982E+03 -0.80704608523E+03  0.18093331601E+04  0.25500000920E-02 0.  1.
</event>
<event>
 5   0  0.2553250E-07  0.3419548E+04  0.7818609E-02  0.8133125E-01
       -1   -1    0    0    0  501  0.00000000000E+00  0.00000000000E+00  0.17006602144E+04  0.17006602144E+04  0.50400001928E-02 0. -1.
        1   -1    0    0  501    0  0.00000000000E+00  0.00000000000E+00 -0.17189362912E+04  0.17189362913E+04  0.50400001928E-02 0.  1.
    10030    2    1    2    0    0  0.00000000000E+00  0.00000000000E+00 -0.18276076886E+02  0.34195965056E+04  0.34195476669E+04 0.  0.
        5    1    3    3  502    0 -0.73736015171E+01  0.16970958533E+04  0.19850829045E+03  0.17086884844E+04  0.46999998093E+01 0.  1.
       -5    1    3    3    0  502  0.73736015171E+01 -0.16970958533E+04 -0.21678436734E+03  0.17109080213E+04  0.46999998093E+01 0. -1.
</event>
<event>
 5   0  0.2599367E-07  0.3344978E+04  0.7818609E-02  0.8151544E-01
        1   -1    0    0  501    0  0.00000000000E+00  0.00000000000E+00  0.14429876057E+04  0.14429876057E+04  0.50400001928E-02 0.  1.
       -1   -1    0    0    0  501  0.00000000000E+00  0.00000000000E+00 -0.19384913659E+04  0.19384913659E+04  0.50400001928E-02 0. -1.
    10030    2    1    2    0    0  0.00000000000E+00  0.00000000000E+00 -0.49550376020E+03  0.33814789717E+04  0.33449777368E+04 0.  0.
        2    1    3    3  502    0 -0.55579612946E+03 -0.68985183051E+03 -0.16818277833E+04  0.19008812636E+04  0.25500000920E-02 0. -1.
       -2    1    3    3    0  502  0.55579612946E+03  0.68985183051E+03  0.11863240231E+04  0.14805977081E+04  0.25500000920E-02 0.  1.
</event>
<event>
 5   0  0.2553250E-07  0.3317768E+04  0.7818609E-02  0.8158389E-01
       -1   -1    0    0    0  501  0.00000000000E+00  0.00000000000E+00  0.10480846048E+04  0.10480846048E+04  0.50400001928E-02 0.  1.
        1   -1    0    0  501    0  0.00000000000E+00  0.00000000000E+00 -0.26256425566E+04  0.26256425566E+04  0.50400001928E-02 0. -1.
    10030    2    1    2    0    0  0.00000000000E+00  0.00000000000E+00 -0.15775579519E+04  0.36737271614E+04  0.33177676478E+04 0.  0.
        5    1    3    3  502    0  0.88480113073E+03 -0.74137737260E+03 -0.21079685566E+04  0.24033449555E+04  0.46999998093E+01 0. -1.
       -5    1    3    3    0  502 -0.88480113073E+03  0.74137737260E+03  0.53041060472E+03  0.12703822059E+04  0.46999998093E+01 0.  1.
</event>
<event>
 5   0  0.7822003E-07  0.3391448E+04  0.7818609E-02  0.8140008E-01
        2   -1    0    0  501    0  0.00000000000E+00  0.00000000000E+00  0.21647721293E+04  0.21647721293E+04  0.25500000920E-02 0. -1.
       -2   -1    0    0    0  501  0.00000000000E+00  0.00000000000E+00 -0.13283062505E+04  0.13283062505E+04  0.25500000920E-02 0.  1.
    10030    2    1    2    0    0  0.00000000000E+00  0.00000000000E+00  0.83646587885E+03  0.34930783798E+04  0.33914482748E+04 0.  0.
        5    1    3    3  502    0 -0.88500984798E+03  0.14463322651E+04  0.43719126311E+03  0.17510790224E+04  0.46999998093E+01 0.  1.
       -5    1    3    3    0  502  0.88500984798E+03 -0.14463322651E+04  0.39927461575E+03  0.17419993573E+04  0.46999998093E+01 0. -1.
</event>
<event>
 5   0  0.2553250E-07  0.3396124E+04  0.7818609E-02  0.8138858E-01
        1   -1    0    0  501    0  0.00000000000E+00  0.00000000000E+00  0.18389491366E+04  0.18389491366E+04  0.50400001928E-02 0.  1.
       -1   -1    0    0    0  501  0.00000000000E+00  0.00000000000E+00 -0.15679686551E+04  0.15679686551E+04  0.50400001928E-02 0. -1.
    10030    2    1    2    0    0  0.00000000000E+00  0.00000000000E+00  0.27098048143E+03  0.34069177917E+04  0.33961240287E+04 0.  0.
        5    1    3    3  502    0  0.74716685828E+02 -0.15540878323E+04  0.81781441054E+03  0.17577298068E+04  0.46999998093E+01 0.  1.
       -5    1    3    3    0  502 -0.74716685828E+02  0.15540878323E+04 -0.54683392912E+03  0.16491879849E+04  0.46999998093E+01 0. -1.
</event>
<event>
 5   0  0.7838333E-07  0.3382987E+04  0.7818609E-02  0.8142094E-01
       -2   -1    0    0    0  501  0.00000000000E+00  0.00000000000E+00  0.23548606210E+04  0.23548606210E+04  0.25500000920E-02 0.  1.
        2   -1    0    0  501    0  0.00000000000E+00  0.00000000000E+00 -0.12149980526E+04  0.12149980526E+04  0.25500000920E-02 0. -1.
    10030    2    1    2    0    0  0.00000000000E+00  0.00000000000E+00  0.11398625685E+04  0.35698586736E+04  0.33829874777E+04 0.  0.
        1    1    3    3  502    0 -0.78511757132E+03 -0.99993287302E+03 -0.60744051929E+03  0.14089923122E+04  0.50400001928E-02 0. -1.
       -1    1    3    3    0  502  0.78511757132E+03  0.99993287302E+03  0.17473030878E+04  0.21608663614E+04  0.50400001928E-02 0.  1.
</event>
<event>
 5   0  0.7822003E-07  0.3404142E+04  0.7818609E-02  0.8136890E-01
        2   -1    0    0  501    0  0.00000000000E+00  0.00000000000E+00  0.14902049391E+04  0.14902049391E+04  0.25500000920E-02 0. -1.
       -2   -1    0    0    0  501  0.00000000000E+00  0.00000000000E+00 -0.19440589615E+04  0.19440589616E+04  0.25500000920E-02 0.  1.
    10030    2    1    2    0    0  0.00000000000E+00  0.00000000000E+00 -0.45385402241E+03  0.34342639007E+04  0.34041423393E+04 0.  0.
        5    1    3    3  502    0  0.10869727726E+04  0.82858553136E+03 -0.12502795730E+04  0.18523727734E+04  0.46999998093E+01 0.  1.
       -5    1    3    3    0  502 -0.10869727726E+04 -0.82858553136E+03  0.79642555056E+03  0.15818911273E+04  0.46999998093E+01 0. -1.
</event>
<event>
 5   0  0.7822003E-07  0.3407748E+04  0.7818609E-02  0.8136007E-01
       -2   -1    0    0    0  501  0.00000000000E+00  0.00000000000E+00  0.12078553124E+04  0.12078553124E+04  0.25500000920E-02 0. -1.
        2   -1    0    0  501    0  0.00000000000E+00  0.00000000000E+00 -0.24035877190E+04  0.24035877190E+04  0.25500000920E-02 0.  1.
    10030    2    1    2    0    0  0.00000000000E+00  0.00000000000E+00 -0.11957324066E+04  0.36114430314E+04  0.34077477578E+04 0.  0.
        5    1    3    3  502    0 -0.13919907945E+04 -0.94291886743E+03 -0.89085062338E+03  0.19027273282E+04  0.46999998093E+01 0. -1.
       -5    1    3    3    0  502  0.13919907945E+04  0.94291886743E+03 -0.30488178323E+03  0.17087157031E+04  0.46999998093E+01 0.  1.
</event>
<event>
 5   0  0.2553250E-07  0.3373886E+04  0.7818609E-02  0.8144345E-01
        1   -1    0    0  501    0  0.00000000000E+00  0.00000000000E+00  0.14624257608E+04  0.14624257608E+04  0.50400001928E-02 0.  1.
       -1   -1    0    0    0  501  0.00000000000E+00  0.00000000000E+00 -0.19459290583E+04  0.19459290583E+04  0.50400001928E-02 0. -1.
    10030    2    1    2    0    0  0.00000000000E+00  0.00000000000E+00 -0.48350329751E+03  0.34083548190E+04  0.33738860582E+04 0.  0.
        5    1    3    3  502    0 -0.87776533170E+02 -0.78506031416E+03  0.12640232555E+04  0.14905707957E+04  0.46999998093E+01 0.  1.
       -5    1    3    3    0  502  0.87776533170E+02  0.78506031416E+03 -0.17475265530E+04  0.19177840233E+04  0.46999998093E+01 0. -1.
</event>
<event>
 5   0  0.2553250E-07  0.3339213E+04  0.7818609E-02  0.8152989E-01
       -1   -1    0    0    0  501  0.00000000000E+00  0.00000000000E+00  0.93610839661E+03  0.93610839663E+03  0.50400001928E-02 0. -1.
        1   -1    0    0  501    0  0.00000000000E+00  0.00000000000E+00 -0.29778451299E+04  0.29778451299E+04  0.50400001928E-02 0.  1.
    10030    2    1    2    0    0  0.00000000000E+00  0.00000000000E+00 -0.20417367333E+04  0.39139535266E+04  0.33392129791E+04 0.  0.
        5    1    3    3  502    0  0.68044644009E+03  0.11118073958E+04 -0.22437204583E+04  0.25948847042E+04  0.46999998093E+01 0. -1.
       -5    1    3    3    0  502 -0.68044644009E+03 -0.11118073958E+04  0.20198372495E+03  0.13190688224E+04  0.46999998093E+01 0.  1.
</event>
<event>
 5   0  0.7822003E-07  0.3415092E+04  0.7818609E-02  0.8134212E-01
        2   -1    0    0  501    0  0.00000000000E+00  0.00000000000E+00  0.27452012964E+04  0.27452012964E+04  0.25500000920E-02 0.  1.
       -2   -1    0    0    0  501  0.00000000000E+00  0.00000000000E+00 -0.10621127280E+04  0.10621127280E+04  0.25500000920E-02 0. -1.
    10030    2    1    2    0    0  0.00000000000E+00  0.00000000000E+00  0.16830885684E+04  0.38073140244E+04  0.34150919389E+04 0.  0.
        5    1    3    3  502    0  0.34007714858E+02  0.13352892221E+04  0.20274515750E+04  0.24279077022E+04  0.46999998093E+01 0.  1.
       -5    1    3    3    0  502 -0.34007714858E+02 -0.13352892221E+04 -0.34436300657E+03  0.13794063222E+04  0.46999998093E+01 0. -1.
</event>
<event>
 5   0  0.2592200E-07  0.3383617E+04  0.7818609E-02  0.8141939E-01
        1   -1    0    0  501    0  0.00000000000E+00  0.00000000000E+00  0.84173650229E+03  0.84173650231E+03  0.50400001928E-02 0.  1.
       -1   -1    0    0    0  501  0.00000000000E+00  0.00000000000E+00 -0.34003704261E+04  0.34003704261E+04  0.50400001928E-02 0. -1.
    10030    2    1    2    0    0  0.00000000000E+00  0.00000000000E+00 -0.25586339238E+04  0.42421069284E+04  0.33836169458E+04 0.  0.
        4    1    3    3  502    0  0.11881697509E+04  0.87951173704E+03 -0.24781268839E+03  0.14988999279E+04  0.12699999809E+01 0. -1.
       -4    1    3    3    0  502 -0.11881697509E+04 -0.87951173704E+03 -0.23108212354E+04  0.27432070005E+04  0.12699999809E+01 0.  1.
</event>
<event>
 5   0  0.7838333E-07  0.3400103E+04  0.7818609E-02  0.8137881E-01
       -2   -1    0    0    0  501  0.00000000000E+00  0.00000000000E+00  0.10097752676E+04  0.10097752676E+04  0.25500000920E-02 0. -1.
        2   -1    0    0  501    0  0.00000000000E+00  0.00000000000E+00 -0.28621958165E+04  0.28621958165E+04  0.25500000920E-02 0.  1.
    10030    2    1    2    0    0  0.00000000000E+00  0.00000000000E+00 -0.18524205488E+04  0.38719710841E+04  0.34001026729E+04 0.  0.
        1    1    3    3  502    0  0.27215313253E+03 -0.11380493332E+04  0.47821189276E+03  0.12640847388E+04  0.50400001928E-02 0. -1.
       -1    1    3    3    0  502 -0.27215313253E+03  0.11380493332E+04 -0.23306324416E+04  0.26078863454E+04  0.50400001928E-02 0.  1.
</event>
<event>
 5   0  0.2553250E-07  0.3391911E+04  0.7818609E-02  0.8139895E-01
       -1   -1    0    0    0  501  0.00000000000E+00  0.00000000000E+00  0.15227160178E+04  0.15227160178E+04  0.50400001928E-02 0. -1.
        1   -1    0    0  501    0  0.00000000000E+00  0.00000000000E+00 -0.18889039217E+04  0.18889039217E+04  0.50400001928E-02 0.  1.
    10030    2    1    2    0    0  0.00000000000E+00  0.00000000000E+00 -0.36618790388E+03  0.34116199395E+04  0.33919105281E+04 0.  0.
        5    1    3    3  502    0 -0.59202607979E+03  0.14129049184E+04 -0.91495307984E+03  0.17843644291E+04  0.46999998093E+01 0.  1.
       -5    1    3    3    0  502  0.59202607979E+03 -0.14129049184E+04  0.54876517596E+03  0.16272555104E+04  0.46999998093E+01 0. -1.
</event>
<event>
 5   0  0.2641442E-07  0.3399757E+04  0.7818609E-02  0.8137966E-01
        1   -1    0    0  501    0  0.00000000000E+00  0.00000000000E+00  0.24155103420E+04  0.24155103420E+04  0.50400001928E-02 0.  1.
       -1   -1    0    0    0  501  0.00000000000E+00  0.00000000000E+00 -0.11962632668E+04  0.11962632668E+04  0.50400001928E-02 0. -1.
    10030    2    1    2    0    0  0.00000000000E+00  0.00000000000E+00  0.12192470752E+04  0.36117736088E+04  0.33997566341E+04 0.  0.
        1    1    3    3  502    0  0.51581862796E+03  0.16652940827E+03  0.23212424731E+04  0.23836877983E+04  0.50400001928E-02 0.  1.
       -1    1    3    3    0  502 -0.51581862796E+03 -0.16652940827E+03 -0.11019953979E+04  0.12280858105E+04  0.50400001928E-02 0. -1.
</event>
<event>
 5   0  0.2641442E-07  0.3437441E+04  0.7818609E-02  0.8128778E-01
       -1   -1    0    0    0  501  0.00000000000E+00  0.00000000000E+00  0.12495304892E+04  0.12495304892E+04  0.50400001928E-02 0.  1.
        1   -1    0    0  501    0  0.00000000000E+00  0.00000000000E+00 -0.23640886155E+04  0.23640886155E+04  0.50400001928E-02 0. -1.
    10030    2    1    2    0    0  0.00000000000E+00  0.00000000000E+00 -0.11145581262E+04  0.36136191047E+04  0.34374413766E+04 0.  0.
        1    1    3    3  502    0  0.14926206801E+04  0.25385904824E+03  0.29782292231E+03  0.15430681787E+04  0.50400001928E-02 0.  1.
       -1    1    3    3    0  502 -0.14926206801E+04 -0.25385904824E+03 -0.14123810486E+04  0.20705509260E+04  0.50400001928E-02 0. -1.
</event>
<event>
 5   0  0.2592200E-07  0.3430284E+04  0.7818609E-02  0.8130513E-01
        1   -1    0    0  501    0  0.00000000000E+00  0.00000000000E+00  0.27879335207E+04  0.27879335207E+04  0.50400001928E-02 0. -1.
       -1   -1    0    0    0  501  0.00000000000E+00  0.00000000000E+00 -0.10551588474E+04  0.10551588474E+04  0.50400001928E-02 0.  1.
    10030    2    1    2    0    0  0.00000000000E+00  0.00000000000E+00  0.17327746733E+04  0.38430923681E+04  0.34302843732E+04 0.  0.
        4    1    3    3  502    0  0.10818804634E+04  0.11373648418E+04  0.16406783508E+04  0.22706587555E+04  0.12699999809E+01 0. -1.
       -4    1    3    3    0  502 -0.10818804634E+04 -0.11373648418E+04  0.92096322462E+02  0.15724336126E+04  0.12699999809E+01 0.  1.
</event>
<event>
 5   0  0.7610412E-07  0.3388930E+04  0.7818609E-02  0.8140629E-01
       -2   -1    0    0    0  501  0.00000000000E+00  0.00000000000E+00  0.18706515188E+04  0.18706515188E+04  0.25500000920E-02 0.  1.
        2   -1    0    0  501    0  0.00000000000E+00  0.00000000000E+00 -0.15348726418E+04  0.15348726418E+04  0.25500000920E-02 0. -1.
    10030    2    1    2    0    0  0.00000000000E+00  0.00000000000E+00  0.33577887698E+03  0.34055241606E+04  0.33889301194E+04 0.  0.
        4    1    3    3  502    0  0.55095558507E+03  0.50293231202E+03  0.16967586220E+04  0.18535059756E+04  0.12699999809E+01 0.  1.
       -4    1    3    3    0  502 -0.55095558507E+03 -0.50293231202E+03 -0.13609797450E+04  0.15520181850E+04  0.12699999809E+01 0. -1.
</event>
<event>
 5   0  0.7838333E-07  0.3366911E+04  0.7818609E-02  0.8146076E-01
       -2   -1    0    0    0  501  0.00000000000E+00  0.00000000000E+00  0.13717628121E+04  0.13717628121E+04  0.25500000920E-02 0.  1.
        2   -1    0    0  501    0  0.00000000000E+00  0.00000000000E+00 -0.20659708094E+04  0.20659708094E+04  0.25500000920E-02 0. -1.
    10030    2    1    2    0    0  0.00000000000E+00  0.00000000000E+00 -0.69420799729E+03  0.34377336215E+04  0.33669107070E+04 0.  0.
        1    1    3    3  502    0 -0.79945192503E+03  0.14240258927E+04  0.70209379876E+02  0.16345955097E+04  0.50400001928E-02 0.  1.
       -1    1    3    3    0  502  0.79945192503E+03 -0.14240258927E+04 -0.76441737716E+03  0.18031381117E+04  0.50400001928E-02 0. -1.
</event>
<event>
 5   0  0.2592200E-07  0.3397034E+04  0.7818609E-02  0.8138635E-01
        1   -1    0    0  501    0  0.00000000000E+00  0.00000000000E+00  0.17985435422E+04  0.17985435422E+04  0.50400001928E-02 0.  1.
       -1   -1    0    0    0  501  0.00000000000E+00  0.00000000000E+00 -0.16040530928E+04  0.16040530929E+04  0.50400001928E-02 0. -1.
    10030    2    1    2    0    0  0.00000000000E+00  0.00000000000E+00  0.19449044938E+03  0.34025966351E+04  0.33970336069E+04 0.  0.
        4    1    3    3  502    0 -0.85011782595E+03 -0.12499831303E+04  0.87298078729E+03  0.17456389122E+04  0.12699999809E+01 0.  1.
       -4    1    3    3    0  502  0.85011782595E+03  0.12499831303E+04 -0.67849033791E+03  0.16569577229E+04  0.12699999809E+01 0. -1.
</event>
<event>
 5   0  0.7822003E-07  0.3416255E+04  0.7818609E-02  0.8133928E-01
       -2   -1    0    0    0  501  0.00000000000E+00  0.00000000000E+00  0.13521219244E+04  0.13521219244E+04  0.25500000920E-02 0.  1.
        2   -1    0    0  501    0  0.00000000000E+00  0.00000000000E+00 -0.21578675344E+04  0.21578675344E+04  0.25500000920E-02 0. -1.
    10030    2    1    2    0    0  0.00000000000E+00  0.00000000000E+00 -0.80574560992E+03  0.35099894588E+04  0.34162552617E+04 0.  0.
        5    1    3    3  502    0  0.75627919140E+03  0.57203623632E+03  0.10568461787E+04  0.14199047878E+04  0.46999998093E+01 0.  1.
       -5    1    3    3    0  502 -0.75627919140E+03 -0.57203623632E+03 -0.18625917886E+04  0.20900846710E+04  0.46999998093E+01 0. -1.
</event>
<event>
 5   0  0.8489228E-07  0.3262223E+04  0.7818609E-02  0.8172575E-01
       -2   -1    0    0    0  501  0.00000000000E+00  0.00000000000E+00  0.97332223128E+03  0.97332223128E+03  0.25500000920E-02 0. -1.
        2   -1    0    0  501    0  0.00000000000E+00  0.00000000000E+00 -0.27334477305E+04  0.27334477305E+04  0.25500000920E-02 0.  1.
    10030    2    1    2    0    0  0.00000000000E+00  0.00000000000E+00 -0.17601254992E+04  0.37067699618E+04  0.32622234406E+04 0.  0.
        3    1    3    3  502    0 -0.64797951334E+03 -0.54894659367E+03 -0.24624218868E+04  0.26047536104E+04  0.10100000352E+00 0.  1.
       -3    1    3    3    0  502  0.64797951334E+03  0.54894659367E+03  0.70229638757E+03  0.11020163513E+04  0.10100000352E+00 0. -1.
</event>
<event>
 5   0  0.7610412E-07  0.3390239E+04  0.7818609E-02  0.8140306E-01
        2   -1    0    0  501    0  0.00000000000E+00  0.00000000000E+00  0.23132066609E+04  0.23132066609E+04  0.25500000920E-02 0.  1.
       -2   -1    0    0    0  501  0.00000000000E+00  0.00000000000E+00 -0.12421845960E+04  0.12421845960E+04  0.25500000920E-02 0. -1.
    10030    2    1    2    0    0  0.00000000000E+00  0.00000000000E+00  0.10710220649E+04  0.35553912569E+04  0.33902387418E+04 0.  0.
        4    1    3    3  502    0 -0.23872726643E+01 -0.32116854269E+03 -0.12099831794E+04  0.12518849145E+04  0.12699999809E+01 0. -1.
       -4    1    3    3    0  502  0.23872726643E+01  0.32116854269E+03  0.22810052443E+04  0.23035063424E+04  0.12699999809E+01 0.  1.
</event>
<event>
 5   0  0.7899402E-07  0.3408688E+04  0.7818609E-02  0.8135777E-01
       -2   -1    0    0    0  501  0.00000000000E+00  0.00000000000E+00  0.12800792798E+04  0.12800792798E+04  0.25500000920E-02 0. -1.
        2   -1    0    0  501    0  0.00000000000E+00  0.00000000000E+00 -0.22692251419E+04  0.22692251419E+04  0.25500000920E-02 0.  1.
    10030    2    1    2    0    0  0.00000000000E+00  0.00000000000E+00 -0.98914586202E+03  0.35493044217E+04  0.34086877741E+04 0.  0.
        2    1    3    3  502    0 -0.14185150317E+04 -0.89759756447E+03 -0.80156021652E+03  0.18602056509E+04  0.25500000920E-02 0.  1.
       -2    1    3    3    0  502  0.14185150317E+04  0.89759756447E+03 -0.18758564550E+03  0.16890987708E+04  0.25500000920E-02 0. -1.
</event>
<event>
 5   0  0.7899402E-07  0.3331792E+04  0.7818609E-02  0.8154853E-01
       -2   -1    0    0    0  501  0.00000000000E+00  0.00000000000E+00  0.15010428313E+04  0.15010428313E+04  0.25500000920E-02 0.  1.
        2   -1    0    0  501    0  0.00000000000E+00  0.00000000000E+00 -0.18488541271E+04  0.18488541271E+04  0.25500000920E-02 0. -1.
    10030    2    1    2    0    0  0.00000000000E+00  0.00000000000E+00 -0.34781129580E+03  0.33498969585E+04  0.33317918505E+04 0.  0.
        2    1    3    3  502    0 -0.12047614097E+04  0.53900552669E+03 -0.11959095585E+04  0.17810605504E+04  0.25500000920E-02 0. -1.
       -2    1    3    3    0  502  0.12047614097E+04 -0.53900552669E+03  0.84809826274E+03  0.15688364081E+04  0.25500000920E-02 0.  1.
</event>
<event>
 5   0  0.7899402E-07  0.3393423E+04  0.7818609E-02  0.8139523E-01
        2   -1    0    0  501    0  0.00000000000E+00  0.00000000000E+00  0.21405255643E+04  0.21405255643E+04  0.25500000920E-02 0. -1.
       -2   -1    0    0    0  501  0.00000000000E+00  0.00000000000E+00 -0.13449169363E+04  0.13449169363E+04  0.25500000920E-02 0.  1.
    10030    2    1    2    0    0  0.00000000000E+00  0.00000000000E+00  0.79560862798E+03  0.34854425006E+04  0.33934225107E+04 0.  0.
        2    1    3    3  502    0 -0.13061125545E+04  0.11651560865E+03  0.15037205858E+04  0.19951645276E+04  0.25500000920E-02 0. -1.
       -2    1    3    3    0  502  0.13061125545E+04 -0.11651560865E+03 -0.70811195782E+03  0.14902779730E+04  0.25500000920E-02 0.  1.
</event>
<event>
 5   0  0.8489228E-07  0.3303897E+04  0.7818609E-02  0.8161904E-01
       -2   -1    0    0    0  501  0.00000000000E+00  0.00000000000E+00  0.16684698709E+04  0.16684698709E+04  0.25500000920E-02 0.  1.
        2   -1    0    0  501    0  0.00000000000E+00  0.00000000000E+00 -0.16355909560E+04  0.16355909560E+04  0.25500000920E-02 0. -1.
    10030    2    1    2    0    0  0.00000000000E+00  0.00000000000E+00  0.32878914883E+02  0.33040608269E+04  0.33038972328E+04 0.  0.
        3    1    3    3  502    0  0.10717149371E+04  0.81418393821E+03 -0.94145233665E+03  0.16424983726E+04  0.10100000352E+00 0. -1.
       -3    1    3    3    0  502 -0.10717149371E+04 -0.81418393821E+03  0.97433125153E+03  0.16615624543E+04  0.10100000352E+00 0.  1.
</event>
<event>
 5   0  0.7610412E-07  0.3394614E+04  0.7818609E-02  0.8139229E-01
        2   -1    0    0  501    0  0.00000000000E+00  0.00000000000E+00  0.11056297792E+04  0.11056297792E+04  0.25500000920E-02 0.  1.
       -2   -1    0    0    0  501  0.00000000000E+00  0.00000000000E+00 -0.26056202445E+04  0.26056202445E+04  0.25500000920E-02 0. -1.
    10030    2    1    2    0    0  0.00000000000E+00  0.00000000000E+00 -0.14999904653E+04  0.37112500237E+04  0.33946141669E+04 0.  0.
        4    1    3    3  502    0  0.91993616338E+02 -0.36745099198E+03 -0.25588191055E+04  0.25867044447E+04  0.12699999809E+01 0. -1.
       -4    1    3    3    0  502 -0.91993616338E+02  0.36745099198E+03  0.10588286402E+04  0.11245455789E+04  0.12699999809E+01 0.  1.
</event>
<event>
 5   0  0.7838333E-07  0.3397923E+04  0.7818609E-02  0.8138416E-01
        2   -1    0    0  501    0  0.00000000000E+00  0.00000000000E+00  0.10280954581E+04  0.10280954581E+04  0.25500000920E-02 0. -1.
       -2   -1    0    0    0  501  0.00000000000E+00  0.00000000000E+00 -0.28075896475E+04  0.28075896475E+04  0.25500000920E-02 0.  1.
    10030    2    1    2    0    0  0.00000000000E+00  0.00000000000E+00 -0.17794941894E+04  0.38356851057E+04  0.33979229920E+04 0.  0.
        1    1    3    3  502    0  0.56952683277E+03  0.10274375196E+04  0.49576816930E+03  0.12750587232E+04  0.50400001928E-02 0.  1.
       -1    1    3    3    0  502 -0.56952683277E+03 -0.10274375196E+04 -0.22752623587E+04  0.25606263825E+04  0.50400001928E-02 0. -1.
</event>
<event>
 5   0  0.2641442E-07  0.3406239E+04  0.7818609E-02  0.8136377E-01
        1   -1    0    0  501    0  0.00000000000E+00  0.00000000000E+00  0.13143057263E+04  0.13143057263E+04  0.50400001928E-02 0. -1.
       -1   -1    0    0    0  501  0.00000000000E+00  0.00000000000E+00 -0.22069566188E+04  0.22069566188E+04  0.50400001928E-02 0.  1.
    10030    2    1    2    0    0  0.00000000000E+00  0.00000000000E+00 -0.89265089252E+03  0.35212623451E+04  0.34062388183E+04 0.  0.
        1    1    3    3  502    0  0.64595550370E+03 -0.88290661679E+03 -0.17957133602E+04  0.21027051812E+04  0.50400001928E-02 0.  1.
       -1    1    3    3    0  502 -0.64595550370E+03  0.88290661679E+03  0.90306246772E+03  0.14185571639E+04  0.50400001928E-02 0. -1.
</event>
<event>
 5   0  0.2622205E-07  0.3254670E+04  0.7818609E-02  0.8174526E-01
       -1   -1    0    0    0  501  0.00000000000E+00  0.00000000000E+00  0.10877277822E+04  0.10877277823E+04  0.50400001928E-02 0.  1.
        1   -1    0    0  501    0  0.00000000000E+00  0.00000000000E+00 -0.24346334832E+04  0.24346334832E+04  0.50400001928E-02 0. -1.
    10030    2    1    2    0    0  0.00000000000E+00  0.00000000000E+00 -0.13469057010E+04  0.35223612655E+04  0.32546695558E+04 0.  0.
        3    1    3    3  502    0  0.17254080217E+02  0.15787397155E+04 -0.11002234893E+04  0.19243722429E+04  0.10100000352E+00 0.  1.
       -3    1    3    3    0  502 -0.17254080217E+02 -0.15787397155E+04 -0.24668221169E+03  0.15979890226E+04  0.10100000352E+00 0. -1.
</event>
<event>
 5   0  0.2641442E-07  0.3389564E+04  0.7818609E-02  0.8140472E-01
        1   -1    0    0  501    0  0.00000000000E+00  0.00000000000E+00  0.18501655298E+04  0.18501655298E+04  0.50400001928E-02 0. -1.
       -1   -1    0    0    0  501  0.00000000000E+00  0.00000000000E+00 -0.15524478928E+04  0.15524478928E+04  0.50400001928E-02 0.  1.
    10030    2    1    2    0    0  0.00000000000E+00  0.00000000000E+00  0.29771763702E+03  0.34026134226E+04  0.33895637348E+04 0.  0.
        1    1    3    3  502    0 -0.10476911490E+04 -0.13215941139E+04 -0.19170889832E+02  0.16866046569E+04  0.50400001928E-02 0.  1.
       -1    1    3    3    0  502  0.10476911490E+04  0.13215941139E+04  0.31688852685E+03  0.17160087657E+04  0.50400001928E-02 0. -1.
</event>
<event>
 5   0  0.7610412E-07  0.3209447E+04  0.7818609E-02  0.8186327E-01
        2   -1    0    0  501    0  0.00000000000E+00  0.00000000000E+00  0.23390592576E+04  0.23390592576E+04  0.25500000920E-02 0. -1.
       -2   -1    0    0    0  501  0.00000000000E+00  0.00000000000E+00 -0.11009287237E+04  0.11009287237E+04  0.25500000920E-02 0.  1.
    10030    2    1    2    0    0  0.00000000000E+00  0.00000000000E+00  0.12381305340E+04  0.34399879813E+04  0.32094470073E+04 0.  0.
        4    1    3    3  502    0 -0.15171984282E+04 -0.32435542752E+03  0.10584358536E+04  0.18781335371E+04  0.12699999809E+01 0.  1.
       -4    1    3    3    0  502  0.15171984282E+04  0.32435542752E+03  0.17969468036E+03  0.15618544443E+04  0.12699999809E+01 0. -1.
</event>
<event>
 5   0  0.7899402E-07  0.3394843E+04  0.7818609E-02  0.8139173E-01
        2   -1    0    0  501    0  0.00000000000E+00  0.00000000000E+00  0.18709056082E+04  0.18709056082E+04  0.25500000920E-02 0.  1.
       -2   -1    0    0    0  501  0.00000000000E+00  0.00000000000E+00 -0.15400237663E+04  0.15400237663E+04  0.25500000920E-02 0. -1.
    10030    2    1    2    0    0  0.00000000000E+00  0.00000000000E+00  0.33088184184E+03  0.34109293745E+04  0.33948426185E+04 0.  0.
        2    1    3    3  502    0 -0.11602924012E+04  0.26674373118E+03  0.13810535490E+04  0.18233868431E+04  0.25500000920E-02 0.  1.
       -2    1    3    3    0  502  0.11602924012E+04 -0.26674373118E+03 -0.10501717071E+04  0.15875425314E+04  0.25500000920E-02 0. -1.
</event>
<event>
 5   0  0.7899402E-07  0.3420629E+04  0.7818609E-02  0.8132862E-01
        2   -1    0    0  501    0  0.00000000000E+00  0.00000000000E+00  0.21171577417E+04  0.21171577417E+04  0.25500000920E-02 0. -1.
       -2   -1    0    0    0  501  0.00000000000E+00  0.00000000000E+00 -0.13816519796E+04  0.13816519796E+04  0.25500000920E-02 0.  1.
    10030    2    1    2    0    0  0.00000000000E+00  0.00000000000E+00  0.73550576207E+03  0.34988097213E+04  0.34206287054E+04 0.  0.
        2    1    3    3  502    0 -0.13708914568E+03 -0.16543402492E+03 -0.13677935098E+04  0.13845652516E+04  0.25500000920E-02 0.  1.
       -2    1    3    3    0  502  0.13708914568E+03  0.16543402492E+03  0.21032992719E+04  0.21142444697E+04  0.25500000920E-02 0. -1.
</event>
<event>
 5   0  0.7838333E-07  0.3388317E+04  0.7818609E-02  0.8140780E-01
        2   -1    0    0  501    0  0.00000000000E+00  0.00000000000E+00  0.23819822634E+04  0.23819822634E+04  0.25500000920E-02 0.  1.
       -2   -1    0    0    0  501  0.00000000000E+00  0.00000000000E+00 -0.12049517139E+04  0.12049517139E+04  0.25500000920E-02 0. -1.
    10030    2    1    2    0    0  0.00000000000E+00  0.00000000000E+00  0.11770305494E+04  0.35869339773E+04  0.33883173469E+04 0.  0.
        1    1    3    3  502    0 -0.13834787171E+03  0.74907861172E+03  0.21904652765E+04  0.23191371300E+04  0.50400001928E-02 0.  1.
       -1    1    3    3    0  502  0.13834787171E+03 -0.74907861172E+03 -0.10134347270E+04  0.12677968473E+04  0.50400001928E-02 0. -1.
</event>
<event>
 5   0  0.7822003E-07  0.3429065E+04  0.7818609E-02  0.8130809E-01
       -2   -1    0    0    0  501  0.00000000000E+00  0.00000000000E+00  0.10199119235E+04  0.10199119235E+04  0.25500000920E-02 0.  1.
        2   -1    0    0  501    0  0.00000000000E+00  0.00000000000E+00 -0.28822314772E+04  0.28822314772E+04  0.25500000920E-02 0. -1.
    10030    2    1    2    0    0  0.00000000000E+00  0.00000000000E+00 -0.18623195537E+04  0.39021434008E+04  0.34290653246E+04 0.  0.
        5    1    3    3  502    0  0.68999120094E+03 -0.91429383871E+02  0.85190345630E+03  0.11000948952E+04  0.46999998093E+01 0.  1.
       -5    1    3    3    0  502 -0.68999120094E+03  0.91429383871E+02 -0.27142230100E+04  0.28020485056E+04  0.46999998093E+01 0. -1.
</event>
<event>
 5   0  0.2599367E-07  0.3395166E+04  0.7818609E-02  0.8139094E-01
       -1   -1    0    0    0  501  0.00000000000E+00  0.00000000000E+00  0.19158968804E+04  0.19158968804E+04  0.50400001928E-02 0. -1.
        1   -1    0    0  501    0  0.00000000000E+00  0.00000000000E+00 -0.15041454400E+04  0.15041454400E+04  0.50400001928E-02 0.  1.
    10030    2    1    2    0    0  0.00000000000E+00  0.00000000000E+00  0.41175144032E+03  0.34200423204E+04  0.33951657139E+04 0.  0.
        2    1    3    3  502    0 -0.96307770807E+03 -0.28072538374E+03  0.15853850904E+04  0.18761053536E+04  0.25500000920E-02 0. -1.
       -2    1    3    3    0  502  0.96307770807E+03  0.28072538374E+03 -0.11736336501E+04  0.15439369668E+04  0.25500000920E-02 0.  1.
</event>
<event>
 5   0  0.2622205E-07  0.3400137E+04  0.7818609E-02  0.8137873E-01
       -1   -1    0    0    0  501  0.00000000000E+00  0.00000000000E+00  0.16630259052E+04  0.16630259052E+04  0.50400001928E-02 0. -1.
        1   -1    0    0  501    0  0.00000000000E+00  0.00000000000E+00 -0.17379363353E+04  0.17379363353E+04  0.50400001928E-02 0.  1.
    10030    2    1    2    0    0  0.00000000000E+00  0.00000000000E+00 -0.74910430148E+02  0.34009622405E+04  0.34001371427E+04 0.  0.
        3    1    3    3  502    0  0.12320928426E+04  0.10132883604E+04  0.55041784111E+03  0.16875324839E+04  0.10100000352E+00 0. -1.
       -3    1    3    3    0  502 -0.12320928426E+04 -0.10132883604E+04 -0.62532827125E+03  0.17134297567E+04  0.10100000352E+00 0.  1.
</event>
<event>
 5   0  0.2641442E-07  0.3393333E+04  0.7818609E-02  0.8139544E-01
        1   -1    0    0  501    0  0.00000000000E+00  0.00000000000E+00  0.11968389581E+04  0.11968389581E+04  0.50400001928E-02 0. -1.
       -1   -1    0    0    0  501  0.00000000000E+00  0.00000000000E+00 -0.24052341029E+04  0.24052341029E+04  0.50400001928E-02 0.  1.
    10030    2    1    2    0    0  0.00000000000E+00  0.00000000000E+00 -0.12083951448E+04  0.36020730609E+04  0.33933333922E+04 0.  0.
        1    1    3    3  502    0  0.78340553576E+03 -0.81509256030E+03  0.73876644291E+03  0.13505095233E+04  0.50400001928E-02 0. -1.
       -1    1    3    3    0  502 -0.78340553576E+03  0.81509256030E+03 -0.19471615877E+04  0.22515635377E+04  0.50400001928E-02 0.  1.
</event>
<event>
 5   0  0.2599367E-07  0.3407159E+04  0.7818609E-02  0.8136152E-01
        1   -1    0    0  501    0  0.00000000000E+00  0.00000000000E+00  0.24089031620E+04  0.24089031620E+04  0.50400001928E-02 0.  1.
       -1   -1    0    0    0  501  0.00000000000E+00  0.00000000000E+00 -0.12047736648E+04  0.12047736648E+04  0.50400001928E-02 0. -1.
    10030    2    1    2    0    0  0.00000000000E+00  0.00000000000E+00  0.12041294972E+04  0.36136768269E+04  0.34071589870E+04 0.  0.
        2    1    3    3  502    0  0.15729229972E+04  0.44278735014E+03  0.11129628798E+04  0.19770770760E+04  0.25500000920E-02 0.  1.
       -2    1    3    3    0  502 -0.15729229972E+04 -0.44278735014E+03  0.91166617432E+02  0.16365997509E+04  0.25500000920E-02 0. -1.
</event>
<event>
 5   0  0.8489228E-07  0.3434008E+04  0.7818609E-02  0.8129610E-01
       -2   -1    0    0    0  501  0.00000000000E+00  0.00000000000E+00  0.16953631607E+04  0.16953631607E+04  0.25500000920E-02 0. -1.
        2   -1    0    0  501    0  0.00000000000E+00  0.00000000000E+00 -0.17389206349E+04  0.17389206349E+04  0.25500000920E-02 0.  1.
    10030    2    1    2    0    0  0.00000000000E+00  0.00000000000E+00 -0.43557474176E+02  0.34342837956E+04  0.34340075618E+04 0.  0.
        3    1    3    3  502    0  0.12070084684E+04 -0.43026884348E+03 -0.11647185381E+04  0.17316379540E+04  0.10100000352E+00 0.  1.
       -3    1    3    3    0  502 -0.12070084684E+04  0.43026884348E+03  0.11211610640E+04  0.17026458416E+04  0.10100000352E+00 0. -1.
</event>
<event>
 5   0  0.2599367E-07  0.3425123E+04  0.7818609E-02  0.8131768E-01
        1   -1    0    0  501    0  0.00000000000E+00  0.00000000000E+00  0.27039425474E+04  0.27039425474E+04  0.50400001928E-02 0. -1.
       -1   -1    0    0    0  501  0.00000000000E+00  0.00000000000E+00 -0.10846628818E+04  0.10846628818E+04  0.50400001928E-02 0.  1.
    10030    2    1    2    0    0  0.00000000000E+00  0.00000000000E+00  0.16192796656E+04  0.37886054293E+04  0.34251225472E+04 0.  0.
        2    1    3    3  502    0 -0.41167644241E+03  0.39493740217E+03 -0.97647008396E+03  0.11309053319E+04  0.25500000920E-02 0.  1.
       -2    1    3    3    0  502  0.41167644241E+03 -0.39493740217E+03  0.25957497496E+04  0.26577000973E+04  0.25500000920E-02 0. -1.
</event>
<event>
 5   0  0.7822003E-07  0.3407707E+04  0.7818609E-02  0.8136017E-01
       -2   -1    0    0    0  501  0.00000000000E+00  0.00000000000E+00  0.13514644405E+04  0.13514644405E+04  0.25500000920E-02 0. -1.
        2   -1    0    0  501    0  0.00000000000E+00  0.00000000000E+00 -0.21481271566E+04  0.21481271566E+04  0.25500000920E-02 0.  1.
    10030    2    1    2    0    0  0.00000000000E+00  0.00000000000E+00 -0.79666271605E+03  0.34995915971E+04  0.34077074204E+04 0.  0.
        5    1    3    3  502    0  0.46796022997E+03 -0.15928580257E+04 -0.47055491527E+01  0.16601890552E+04  0.46999998093E+01 0. -1.
       -5    1    3    3    0  502 -0.46796022997E+03  0.15928580257E+04 -0.79195716689E+03  0.18394025419E+04  0.46999998093E+01 0.  1.
</event>
<event>
 5   0  0.7610412E-07  0.3306800E+04  0.7818609E-02  0.8161167E-01
       -2   -1    0    0    0  501  0.00000000000E+00  0.00000000000E+00  0.16452154333E+04  0.16452154333E+04  0.25500000920E-02 0. -1.
        2   -1    0    0  501    0  0.00000000000E+00  0.00000000000E+00 -0.16616252363E+04  0.16616252363E+04  0.25500000920E-02 0.  1.
    10030    2    1    2    0    0  0.00000000000E+00  0.00000000000E+00 -0.16409802999E+02  0.33068406695E+04  0.33067999534E+04 0.  0.
        4    1    3    3  502    0  0.57259033287E+03  0.93420299247E+03  0.12300086117E+04  0.16472758477E+04  0.12699999809E+01 0. -1.
       -4    1    3    3    0  502 -0.57259033287E+03 -0.93420299247E+03 -0.12464184147E+04  0.16595648219E+04  0.12699999809E+01 0.  1.
</event>
<event>
 5   0  0.2553250E-07  0.3390262E+04  0.7818609E-02  0.8140300E-01
        1   -1    0    0  501    0  0.00000000000E+00  0.00000000000E+00  0.20618109203E+04  0.20618109203E+04  0.50400001928E-02 0.  1.
       -1   -1    0    0    0  501  0.00000000000E+00  0.00000000000E+00 -0.13936630895E+04  0.13936630895E+04  0.50400001928E-02 0. -1.
    10030    2    1    2    0    0  0.00000000000E+00  0.00000000000E+00  0.66814783080E+03  0.34554740098E+04  0.33902623953E+04 0.  0.
        5    1    3    3  502    0 -0.14455606115E+04 -0.84887659161E+03  0.77820449352E+02  0.16781880293E+04  0.46999998093E+01 0. -1.
       -5    1    3    3    0  502  0.14455606115E+04  0.84887659161E+03  0.59032738145E+03  0.17772859805E+04  0.46999998093E+01 0.  1.
</event>
<event>
 5   0  0.2622205E-07  0.3397586E+04  0.7818609E-02  0.8138499E-01
        1   -1    0    0  501    0  0.00000000000E+00  0.00000000000E+00  0.15086062306E+04  0.15086062307E+04  0.50400001928E-02 0.  1.
       -1   -1    0    0    0  501  0.00000000000E+00  0.00000000000E+00 -0.19129565095E+04  0.19129565095E+04  0.50400001928E-02 0. -1.
    10030    2    1    2    0    0  0.00000000000E+00  0.00000000000E+00 -0.40435027889E+03  0.34215627402E+04  0.33975862663E+04 0.  0.
        3    1    3    3  502    0 -0.96762974656E+03 -0.26854873800E+03 -0.15820534557E+04  0.18738513543E+04  0.10100000352E+00 0. -1.
       -3    1    3    3    0  502  0.96762974656E+03  0.26854873800E+03  0.11777031768E+04  0.15477113859E+04  0.10100000352E+00 0.  1.
</event>
<event>
 5   0  0.2641442E-07  0.3412918E+04  0.7818609E-02  0.8134743E-01
        1   -1    0    0  501    0  0.00000000000E+00  0.00000000000E+00  0.17966331300E+04  0.17966331300E+04  0.50400001928E-02 0. -1.
       -1   -1    0    0    0  501  0.00000000000E+00  0.00000000000E+00 -0.16208107443E+04  0.16208107443E+04  0.50400001928E-02 0.  1.
    10030    2    1    2    0    0  0.00000000000E+00  0.00000000000E+00  0.17582238564E+03  0.34174438743E+04  0.34129179777E+04 0.  0.
        1    1    3    3  502    0 -0.82541855729E+01 -0.15412524996E+03 -0.16138069711E+04  0.16211710780E+04  0.50400001928E-02 0.  1.
       -1    1    3    3    0  502  0.82541855729E+01  0.15412524996E+03  0.17896293567E+04  0.17962727963E+04  0.50400001928E-02 0. -1.
</event>
<event>
 5   0  0.2553250E-07  0.3395321E+04  0.7818609E-02  0.8139056E-01
       -1   -1    0    0    0  501  0.00000000000E+00  0.00000000000E+00  0.17872743492E+04  0.17872743492E+04  0.50400001928E-02 0. -1.
        1   -1    0    0  501    0  0.00000000000E+00  0.00000000000E+00 -0.16125395376E+04  0.16125395376E+04  0.50400001928E-02 0.  1.
    10030    2    1    2    0    0  0.00000000000E+00  0.00000000000E+00  0.17473481157E+03  0.33998138869E+04  0.33953206345E+04 0.  0.
        5    1    3    3  502    0  0.86964919054E+02 -0.45955334044E+03 -0.15467470138E+04  0.16159209710E+04  0.46999998093E+01 0.  1.
       -5    1    3    3    0  502 -0.86964919054E+02  0.45955334044E+03  0.17214818254E+04  0.17838929158E+04  0.46999998093E+01 0. -1.
</event>
<event>
 5   0  0.7899402E-07  0.3414953E+04  0.7818609E-02  0.8134246E-01
        2   -1    0    0  501    0  0.00000000000E+00  0.00000000000E+00  0.26713760382E+04  0.26713760382E+04  0.25500000920E-02 0.  1.
       -2   -1    0    0    0  501  0.00000000000E+00  0.00000000000E+00 -0.10913762846E+04  0.10913762846E+04  0.25500000920E-02 0. -1.
    10030    2    1    2    0    0  0.00000000000E+00  0.00000000000E+00  0.15799997535E+04  0.37627523228E+04  0.34149532678E+04 0.  0.
        2    1    3    3  502    0 -0.90338104598E+03  0.11619679262E+04 -0.16372378478E+03  0.14809025131E+04  0.25500000920E-02 0. -1.
       -2    1    3    3    0  502  0.90338104598E+03 -0.11619679262E+04  0.17437235383E+04  0.22818498096E+04  0.25500000920E-02 0.  1.
</event>
<event>
 5   0  0.2599367E-07  0.3421516E+04  0.7818609E-02  0.8132646E-01
       -1   -1    0    0    0  501  0.00000000000E+00  0.00000000000E+00  0.16177969288E+04  0.16177969288E+04  0.50400001928E-02 0. -1.
        1   -1    0    0  501    0  0.00000000000E+00  0.00000000000E+00 -0.18090610456E+04  0.18090610456E+04  0.50400001928E-02 0.  1.
    10030    2    1    2    0    0  0.00000000000E+00  0.00000000000E+00 -0.19126411681E+03  0.34268579744E+04  0.34215162742E+04 0.  0.
        2    1    3    3  502    0 -0.14766815264E+04  0.60602269420E+03 -0.71209405406E+03  0.17478357411E+04  0.25500000920E-02 0.  1.
       -2    1    3    3    0  502  0.14766815264E+04 -0.60602269420E+03  0.52082993725E+03  0.16790222332E+04  0.25500000920E-02 0. -1.
</event>
<event>
 5   0  0.7822003E-07  0.3383385E+04  0.7818609E-02  0.8141996E-01
        2   -1    0    0  501    0  0.00000000000E+00  0.00000000000E+00  0.26344718718E+04  0.26344718718E+04  0.25500000920E-02 0. -1.
       -2   -1    0    0    0  501  0.00000000000E+00  0.00000000000E+00 -0.10862987601E+04  0.10862987601E+04  0.25500000920E-02 0.  1.
    10030    2    1    2    0    0  0.00000000000E+00  0.00000000000E+00  0.15481731117E+04  0.37207706319E+04  0.33833850079E+04 0.  0.
        5    1    3    3  502    0  0.63665414155E+02 -0.90445243552E+03 -0.79651531548E+03  0.12068745713E+04  0.46999998093E+01 0. -1.
       -5    1    3    3    0  502 -0.63665414155E+02  0.90445243552E+03  0.23446884272E+04  0.25138960606E+04  0.46999998093E+01 0.  1.
</event>
<event>
 5   0  0.2641442E-07  0.3395049E+04  0.7818609E-02  0.8139122E-01
       -1   -1    0    0    0  501  0.00000000000E+00  0.00000000000E+00  0.11350385797E+04  0.11350385797E+04  0.50400001928E-02 0. -1.
        1   -1    0    0  501    0  0.00000000000E+00  0.00000000000E+00 -0.25387597026E+04  0.25387597026E+04  0.50400001928E-02 0.  1.
    10030    2    1    2    0    0  0.00000000000E+00  0.00000000000E+00 -0.14037211229E+04  0.36737982822E+04  0.33950494588E+04 0.  0.
        1    1    3    3  502    0  0.66643967516E+03  0.14700391990E+04 -0.13292348236E+03  0.16195140442E+04  0.50400001928E-02 0. -1.
       -1    1    3    3    0  502 -0.66643967516E+03 -0.14700391990E+04 -0.12707976406E+04  0.20542842380E+04  0.50400001928E-02 0.  1.
</event>
<event>
 5   0  0.8489228E-07  0.3408458E+04  0.7818609E-02  0.8135834E-01
       -2   -1    0    0    0  501  0.00000000000E+00  0.00000000000E+00  0.97365810657E+03  0.97365810657E+03  0.25500000920E-02 0.  1.
        2   -1    0    0  501    0  0.00000000000E+00  0.00000000000E+00 -0.29829736412E+04  0.29829736412E+04  0.25500000920E-02 0. -1.
    10030    2    1    2    0    0  0.00000000000E+00  0.00000000000E+00 -0.20093155346E+04  0.39566317478E+04  0.34084579900E+04 0.  0.
        3    1    3    3  502    0 -0.13379976898E+03 -0.15280767244E+04 -0.14261097917E+03  0.15405384628E+04  0.10100000352E+00 0.  1.
       -3    1    3    3    0  502  0.13379976898E+03  0.15280767244E+04 -0.18667045555E+04  0.24160932849E+04  0.10100000352E+00 0. -1.
</event>
<event>
 5   0  0.7822003E-07  0.3402746E+04  0.7818609E-02  0.8137233E-01
        2   -1    0    0  501    0  0.00000000000E+00  0.00000000000E+00  0.30272716288E+04  0.30272716288E+04  0.25500000920E-02 0. -1.
       -2   -1    0    0    0  501  0.00000000000E+00  0.00000000000E+00 -0.95619759136E+03  0.95619759136E+03  0.25500000920E-02 0.  1.
    10030    2    1    2    0    0  0.00000000000E+00  0.00000000000E+00  0.20710740374E+04  0.39834692202E+04  0.34027458558E+04 0.  0.
        5    1    3    3  502    0  0.24074415379E+03 -0.55732500860E+03  0.28961472392E+04  0.29590978075E+04  0.46999998093E+01 0. -1.
       -5    1    3    3    0  502 -0.24074415379E+03  0.55732500860E+03 -0.82507320181E+03  0.10243714127E+04  0.46999998093E+01 0.  1.
</event>
<event>
 5   0  0.7822003E-07  0.3371055E+04  0.7818609E-02  0.8145047E-01
        2   -1    0    0  501    0  0.00000000000E+00  0.00000000000E+00  0.19876418972E+04  0.19876418972E+04  0.25500000920E-02 0.  1.
       -2   -1    0    0    0  501  0.00000000000E+00  0.00000000000E+00 -0.14293337779E+04  0.14293337779E+04  0.25500000920E-02 0. -1.
    10030    2    1    2    0    0  0.00000000000E+00  0.00000000000E+00  0.55830811933E+03  0.34169756751E+04  0.33710554442E+04 0.  0.
        5    1    3    3  502    0  0.99880841481E+03  0.54970552801E+03  0.15375105332E+04  0.19140938187E+04  0.46999998093E+01 0.  1.
       -5    1    3    3    0  502 -0.99880841481E+03 -0.54970552801E+03 -0.97920241384E+03  0.15028818564E+04  0.46999998093E+01 0. -1.
</event>
<event>
 5   0  0.8489228E-07  0.3406772E+04  0.7818609E-02  0.8136246E-01
       -2   -1    0    0    0  501  0.00000000000E+00  0.00000000000E+00  0.13268803817E+04  0.13268803817E+04  0.25500000920E-02 0. -1.
        2   -1    0    0  501    0  0.00000000000E+00  0.00000000000E+00 -0.21867259060E+04  0.21867259060E+04  0.25500000920E-02 0.  1.
    10030    2    1    2    0    0  0.00000000000E+00  0.00000000000E+00 -0.85984552429E+03  0.35136062877E+04  0.34067719060E+04 0.  0.
        3    1    3    3  502    0  0.15860455523E+04  0.48595299424E+03 -0.82914397883E+03  0.18545000821E+04  0.10100000352E+00 0. -1.
       -3    1    3    3    0  502 -0.15860455523E+04 -0.48595299424E+03 -0.30701545464E+02  0.16591062057E+04  0.10100000352E+00 0.  1.
</event>
<event>
 5   0  0.2641442E-07  0.3347040E+04  0.7818609E-02  0.8151028E-01
       -1   -1    0    0    0  501  0.00000000000E+00  0.00000000000E+00  0.11910186082E+04  0.11910186082E+04  0.50400001928E-02 0. -1.
        1   -1    0    0  501    0  0.00000000000E+00  0.00000000000E+00 -0.23514902303E+04  0.23514902303E+04  0.50400001928E-02 0.  1.
    10030    2    1    2    0    0  0.00000000000E+00  0.00000000000E+00 -0.11604716221E+04  0.35425088385E+04  0.33470396599E+04 0.  0.
        1    1    3    3  502    0  0.20782348671E+03  0.60730095505E+03  0.10555542949E+04  0.12353946418E+04  0.50400001928E-02 0. -1.
       -1    1    3    3    0  502 -0.20782348671E+03 -0.60730095505E+03 -0.22160259170E+04  0.23071141966E+04  0.50400001928E-02 0.  1.
</event>
<event>
 5   0  0.2592200E-07  0.3394326E+04  0.7818609E-02  0.8139300E-01
       -1   -1    0    0    0  501  0.00000000000E+00  0.00000000000E+00  0.19714281945E+04  0.19714281945E+04  0.50400001928E-02 0.  1.
        1   -1    0    0  501    0  0.00000000000E+00  0.00000000000E+00 -0.14610532980E+04  0.14610532980E+04  0.50400001928E-02 0. -1.
    10030    2    1    2    0    0  0.00000000000E+00  0.00000000000E+00  0.51037489648E+03  0.34324814925E+04  0.33943256564E+04 0.  0.
        4    1    3    3  502    0  0.12637113560E+04 -0.25520186249E+03 -0.86097061422E+03  0.15502794565E+04  0.12699999809E+01 0. -1.
       -4    1    3    3    0  502 -0.12637113560E+04  0.25520186249E+03  0.13713455107E+04  0.18822020360E+04  0.12699999809E+01 0.  1.
</event>
<event>
 5   0  0.2553250E-07  0.3348118E+04  0.7818609E-02  0.8150759E-01
        1   -1    0    0  501    0  0.00000000000E+00  0.00000000000E+00  0.21081706573E+04  0.21081706573E+04  0.50400001928E-02 0.  1.
       -1   -1    0    0    0  501  0.00000000000E+00  0.00000000000E+00 -0.13293388245E+04  0.13293388245E+04  0.50400001928E-02 0. -1.
    10030    2    1    2    0    0  0.00000000000E+00  0.00000000000E+00  0.77883183275E+03  0.34375094818E+04  0.33481177419E+04 0.  0.
        5    1    3    3  502    0  0.12971710713E+04  0.46849562619E+03 -0.58476414650E+03  0.14980360933E+04  0.46999998093E+01 0. -1.
       -5    1    3    3    0  502 -0.12971710713E+04 -0.46849562619E+03  0.13635959792E+04  0.19394733884E+04  0.46999998093E+01 0.  1.
</event>
<event>
 5   0  0.7899402E-07  0.3397959E+04  0.7818609E-02  0.8138408E-01
       -2   -1    0    0    0  501  0.00000000000E+00  0.00000000000E+00  0.16150749440E+04  0.16150749440E+04  0.25500000920E-02 0. -1.
        2   -1    0    0  501    0  0.00000000000E+00  0.00000000000E+00 -0.17872425640E+04  0.17872425640E+04  0.25500000920E-02 0.  1.
    10030    2    1    2    0    0  0.00000000000E+00  0.00000000000E+00 -0.17216762001E+03  0.34023175080E+04  0.33979586131E+04 0.  0.
        2    1    3    3  502    0 -0.30988772016E+01 -0.57834293846E+03  0.15134762019E+04  0.16202161496E+04  0.25500000920E-02 0. -1.
       -2    1    3    3    0  502  0.30988772016E+01  0.57834293846E+03 -0.16856438219E+04  0.17821013585E+04  0.25500000920E-02 0.  1.
</event>
<event>
 5   0  0.2622205E-07  0.3367556E+04  0.7818609E-02  0.8145915E-01
        1   -1    0    0  501    0  0.00000000000E+00  0.00000000000E+00  0.14560413155E+04  0.14560413155E+04  0.50400001928E-02 0. -1.
       -1   -1    0    0    0  501  0.00000000000E+00  0.00000000000E+00 -0.19471347617E+04  0.19471347617E+04  0.50400001928E-02 0.  1.
    10030    2    1    2    0    0  0.00000000000E+00  0.00000000000E+00 -0.49109344619E+03  0.34031760771E+04  0.33675561820E+04 0.  0.
        3    1    3    3  502    0  0.15858263985E+04  0.51314490431E+03 -0.48670358284E+03  0.17363880462E+04  0.10100000352E+00 0. -1.
       -3    1    3    3    0  502 -0.15858263985E+04 -0.51314490431E+03 -0.43898633472E+01  0.16667880310E+04  0.10100000352E+00 0.  1.
</event>
<event>
 5   0  0.2592200E-07  0.3385762E+04  0.7818609E-02  0.8141410E-01
        1   -1    0    0  501    0  0.00000000000E+00  0.00000000000E+00  0.11368647385E+04  0.11368647385E+04  0.50400001928E-02 0.  1.
       -1   -1    0    0    0  501  0.00000000000E+00  0.00000000000E+00 -0.25208322085E+04  0.25208322086E+04  0.50400001928E-02 0. -1.
    10030    2    1    2    0    0  0.00000000000E+00  0.00000000000E+00 -0.13839674701E+04  0.36576969470E+04  0.33857615093E+04 0.  0.
        4    1    3    3  502    0 -0.14903379324E+04  0.73410531605E+03 -0.34054690114E+03  0.16958748694E+04  0.12699999809E+01 0.  1.
       -4    1    3    3    0  502  0.14903379324E+04 -0.73410531605E+03 -0.10434205689E+04  0.19618220777E+04  0.12699999809E+01 0. -1.
</event>
<event>
 5   0  0.7610412E-07  0.3328564E+04  0.7818609E-02  0.8155665E-01
        2   -1    0    0  501    0  0.00000000000E+00  0.00000000000E+00  0.19491987821E+04  0.19491987821E+04  0.25500000920E-02 0.  1.
       -2   -1    0    0    0  501  0.00000000000E+00  0.00000000000E+00 -0.14210122671E+04  0.14210122671E+04  0.25500000920E-02 0. -1.
    10030    2    1    2    0    0  0.00000000000E+00  0.00000000000E+00  0.52818651501E+03  0.33702110492E+04  0.33285644836E+04 0.  0.
        4    1    3    3  502    0 -0.15273524042E+04  0.58510936580E+03  0.57563681045E+03  0.17339312809E+04  0.12699999809E+01 0. -1.
       -4    1    3    3    0  502  0.15273524042E+04 -0.58510936580E+03 -0.47450295440E+02  0.16362797683E+04  0.12699999809E+01 0.  1.
</event>
<event>
 5   0  0.2592200E-07  0.3400994E+04  0.7818609E-02  0.8137662E-01
        1   -1    0    0  501    0  0.00000000000E+00  0.00000000000E+00  0.14674696455E+04  0.14674696455E+04  0.50400001928E-02 0.  1.
       -1   -1    0    0    0  501  0.00000000000E+00  0.00000000000E+00 -0.19705280320E+04  0.19705280320E+04  0.50400001928E-02 0. -1.
    10030    2    1    2    0    0  0.00000000000E+00  0.00000000000E+00 -0.50305838643E+03  0.34379976775E+04  0.34009940150E+04 0.  0.
        4    1    3    3  502    0  0.15983647911E+04 -0.40933377265E+03 -0.66754580116E+03  0.17798716674E+04  0.12699999809E+01 0.  1.
       -4    1    3    3    0  502 -0.15983647911E+04  0.40933377265E+03  0.16448741474E+03  0.16581260101E+04  0.12699999809E+01 0. -1.
</event>
<event>
 5   0  0.2592200E-07  0.3395334E+04  0.7818609E-02  0.8139052E-01
        1   -1    0    0  501    0  0.00000000000E+00  0.00000000000E+00  0.16713096657E+04  0.16713096657E+04  0.50400001928E-02 0. -1.
       -1   -1    0    0    0  501  0.00000000000E+00  0.00000000000E+00 -0.17244403528E+04  0.17244403528E+04  0.50400001928E-02 0.  1.
    10030    2    1    2    0    0  0.00000000000E+00  0.00000000000E+00 -0.53130687125E+02  0.33957500185E+04  0.33953343456E+04 0.  0.
        4    1    3    3  502    0 -0.44917808948E+03  0.39612177898E+03 -0.16152807641E+04  0.17227324168E+04  0.12699999809E+01 0.  1.
       -4    1    3    3    0  502  0.44917808948E+03 -0.39612177898E+03  0.15621500770E+04  0.16730176018E+04  0.12699999809E+01 0. -1.
</event>
<event>
 5   0  0.2641442E-07  0.3411566E+04  0.7818609E-02  0.8135073E-01
        1   -1    0    0  501    0  0.00000000000E+00  0.00000000000E+00  0.21232028420E+04  0.21232028420E+04  0.50400001928E-02 0.  1.
       -1   -1    0    0    0  501  0.00000000000E+00  0.00000000000E+00 -0.13704276103E+04  0.13704276104E+04  0.50400001928E-02 0. -1.
    10030    2    1    2    0    0  0.00000000000E+00  0.00000000000E+00  0.75277523160E+03  0.34936304523E+04  0.34115660902E+04 0.  0.
        1    1    3    3  502    0 -0.12559212548E+04 -0.48789648131E+03  0.14476461052E+04  0.19776401140E+04  0.50400001928E-02 0.  1.
       -1    1    3    3    0  502  0.12559212548E+04  0.48789648131E+03 -0.69487087361E+03  0.15159903383E+04  0.50400001928E-02 0. -1.
</event>
<event>
 5   0  0.7838333E-07  0.3357079E+04  0.7818609E-02  0.8148522E-01
        2   -1    0    0  501    0  0.00000000000E+00  0.00000000000E+00  0.18955728778E+04  0.18955728778E+04  0.25500000920E-02 0. -1.
       -2   -1    0    0    0  501  0.00000000000E+00  0.00000000000E+00 -0.14863551699E+04  0.14863551699E+04  0.25500000920E-02 0.  1.
    10030    2    1    2    0    0  0.00000000000E+00  0.00000000000E+00  0.40921770786E+03  0.33819280477E+04  0.33570788176E+04 0.  0.
        1    1    3    3  502    0  0.10855899998E+04 -0.24108653184E+03  0.14712406344E+04  0.18442281225E+04  0.50400001928E-02 0. -1.
       -1    1    3    3    0  502 -0.10855899998E+04  0.24108653184E+03 -0.10620229266E+04  0.15376999252E+04  0.50400001928E-02 0.  1.
</event>
<event>
 5   0  0.2622205E-07  0.3427762E+04  0.7818609E-02  0.8131126E-01
       -1   -1    0    0    0  501  0.00000000000E+00  0.00000000000E+00  0.13064399004E+04  0.13064399004E+04  0.50400001928E-02 0.  1.
        1   -1    0    0  501    0  0.00000000000E+00  0.00000000000E+00 -0.22483915339E+04  0.22483915339E+04  0.50400001928E-02 0. -1.
    10030    2    1    2    0    0  0.00000000000E+00  0.00000000000E+00 -0.94195163355E+03  0.35548314343E+04  0.34277621922E+04 0.  0.
        3    1    3    3  502    0  0.15380476838E+04  0.98434420526E+02 -0.12485079762E+04  0.19834445265E+04  0.10100000352E+00 0.  1.
       -3    1    3    3    0  502 -0.15380476838E+04 -0.98434420526E+02  0.30655634265E+03  0.15713869079E+04  0.10100000352E+00 0. -1.
</event>
<event>
 5   0  0.7899402E-07  0.3650771E+04  0.7818609E-02  0.8078960E-01
        2   -1    0    0  501    0  0.00000000000E+00  0.00000000000E+00  0.21118260683E+04  0.21118260683E+04  0.25500000920E-02 0. -1.
       -2   -1    0    0    0  501  0.00000000000E+00  0.00000000000E+00 -0.15777969714E+04  0.15777969714E+04  0.25500000920E-02 0.  1.
    10030    2    1    2    0    0  0.00000000000E+00  0.00000000000E+00  0.53402909695E+03  0.36896230397E+04  0.36507713019E+04 0.  0.
        2    1    3    3  502    0 -0.12543246431E+04  0.87915723514E+03  0.12704477731E+04  0.19900465569E+04  0.25500000920E-02 0. -1.
       -2    1    3    3    0  502  0.12543246431E+04 -0.87915723514E+03 -0.73641867615E+03  0.16995764828E+04  0.25500000920E-02 0.  1.
</event>
<event>
 5   0  0.8489228E-07  0.3403571E+04  0.7818609E-02  0.8137030E-01
       -2   -1    0    0    0  501  0.00000000000E+00  0.00000000000E+00  0.11389297616E+04  0.11389297616E+04  0.25500000920E-02 0. -1.
        2   -1    0    0  501    0  0.00000000000E+00  0.00000000000E+00 -0.25428027477E+04  0.25428027477E+04  0.25500000920E-02 0.  1.
    10030    2    1    2    0    0  0.00000000000E+00  0.00000000000E+00 -0.14038729862E+04  0.36817325093E+04  0.34035709055E+04 0.  0.
        3    1    3    3  502    0 -0.28290881999E+03  0.93989549444E+03  0.80187049991E+03  0.12674530562E+04  0.10100000352E+00 0. -1.
       -3    1    3    3    0  502  0.28290881999E+03 -0.93989549444E+03 -0.22057434861E+04  0.24142794531E+04  0.10100000352E+00 0.  1.
</event>
<event>
 5   0  0.2553250E-07  0.3396145E+04  0.7818609E-02  0.8138853E-01
       -1   -1    0    0    0  501  0.00000000000E+00  0.00000000000E+00  0.17208838466E+04  0.17208838466E+04  0.50400001928E-02 0. -1.
        1   -1    0    0  501    0  0.00000000000E+00  0.00000000000E+00 -0.16755636440E+04  0.16755636440E+04  0.50400001928E-02 0.  1.
    10030    2    1    2    0    0  0.00000000000E+00  0.00000000000E+00  0.45320202596E+02  0.33964474906E+04  0.33961451140E+04 0.  0.
        5    1    3    3  502    0  0.59325386345E+03 -0.10260999400E+04 -0.11934239384E+04  0.16819970333E+04  0.46999998093E+01 0.  1.
       -5    1    3    3    0  502 -0.59325386345E+03  0.10260999400E+04  0.12387441410E+04  0.17144504572E+04  0.46999998093E+01 0. -1.
</event>
<event>
 5   0  0.7610412E-07  0.3404916E+04  0.7818609E-02  0.8136701E-01
       -2   -1    0    0    0  501  0.00000000000E+00  0.00000000000E+00  0.10433482590E+04  0.10433482590E+04  0.25500000920E-02 0. -1.
        2   -1    0    0  501    0  0.00000000000E+00  0.00000000000E+00 -0.27779444699E+04  0.27779444699E+04  0.25500000920E-02 0.  1.
    10030    2    1    2    0    0  0.00000000000E+00  0.00000000000E+00 -0.17345962109E+04  0.38212927289E+04  0.34049161671E+04 0.  0.
        4    1    3    3  502    0 -0.12586895992E+03 -0.16354326259E+04 -0.35560538308E+03  0.16783741152E+04  0.12699999809E+01 0. -1.
       -4    1    3    3    0  502  0.12586895992E+03  0.16354326259E+04 -0.13789908278E+04  0.21429186138E+04  0.12699999809E+01 0.  1.
</event>
<event>
 5   0  0.7610412E-07  0.3396478E+04  0.7818609E-02  0.8138771E-01
       -2   -1    0    0    0  501  0.00000000000E+00  0.00000000000E+00  0.14033477267E+04  0.14033477267E+04  0.25500000920E-02 0.  1.
        2   -1    0    0  501    0  0.00000000000E+00  0.00000000000E+00 -0.20550971635E+04  0.20550971635E+04  0.25500000920E-02 0. -1.
    10030    2    1    2    0    0  0.00000000000E+00  0.00000000000E+00 -0.65174943679E+03  0.34584448901E+04  0.33964781362E+04 0.  0.
        4    1    3    3  502    0 -0.12322413730E+04  0.67481436760E+02 -0.15137962765E+04  0.19530881509E+04  0.12699999809E+01 0. -1.
       -4    1    3    3    0  502  0.12322413730E+04 -0.67481436760E+02  0.86204683970E+03  0.15053567392E+04  0.12699999809E+01 0.  1.
</event>
<event>
 5   0  0.7899402E-07  0.3381194E+04  0.7818609E-02  0.8142537E-01
        2   -1    0    0  501    0  0.00000000000E+00  0.00000000000E+00  0.13472791286E+04  0.13472791286E+04  0.25500000920E-02 0.  1.
       -2   -1    0    0    0  501  0.00000000000E+00  0.00000000000E+00 -0.21213998180E+04  0.21213998180E+04  0.25500000920E-02 0. -1.
    10030    2    1    2    0    0  0.00000000000E+00  0.00000000000E+00 -0.77412068941E+03  0.34686789465E+04  0.33811936934E+04 0.  0.
        2    1    3    3  502    0 -0.17982663922E+03  0.16359328605E+04 -0.78372189309E+03  0.18228642160E+04  0.25500000920E-02 0. -1.
       -2    1    3    3    0  502  0.17982663922E+03 -0.16359328605E+04  0.96012036823E+01  0.16458147305E+04  0.25500000920E-02 0.  1.
</event>
<event>
 5   0  0.2553250E-07  0.3412119E+04  0.7818609E-02  0.8134938E-01
       -1   -1    0    0    0  501  0.00000000000E+00  0.00000000000E+00  0.14694537947E+04  0.14694537947E+04  0.50400001928E-02 0.  1.
        1   -1    0    0  501    0  0.00000000000E+00  0.00000000000E+00 -0.19807630828E+04  0.19807630828E+04  0.50400001928E-02 0. -1.
    10030    2    1    2    0    0  0.00000000000E+00  0.00000000000E+00 -0.51130928807E+03  0.34502168775E+04  0.34121194753E+04 0.  0.
        5    1    3    3  502    0 -0.50037253898E+03 -0.20059132771E+03 -0.18923712522E+04  0.19676637428E+04  0.46999998093E+01 0. -1.
       -5    1    3    3    0  502  0.50037253898E+03  0.20059132771E+03  0.13810619641E+04  0.14825531347E+04  0.46999998093E+01 0.  1.
</event>
<event>
 5   0  0.8489228E-07  0.3391969E+04  0.7818609E-02  0.8139880E-01
        2   -1    0    0  501    0  0.00000000000E+00  0.00000000000E+00  0.15853989630E+04  0.15853989630E+04  0.25500000920E-02 0.  1.
       -2   -1    0    0    0  501  0.00000000000E+00  0.00000000000E+00 -0.18142839313E+04  0.18142839313E+04  0.25500000920E-02 0. -1.
    10030    2    1    2    0    0  0.00000000000E+00  0.00000000000E+00 -0.22888496827E+03  0.33996828942E+04  0.33919692588E+04 0.  0.
        3    1    3    3  502    0  0.62362068806E+03  0.42338268206E+03 -0.16371762978E+04  0.18023600912E+04  0.10100000352E+00 0. -1.
       -3    1    3    3    0  502 -0.62362068806E+03 -0.42338268206E+03  0.14082913295E+04  0.15973228030E+04  0.10100000352E+00 0.  1.
</event>
<event>
 5   0  0.2553250E-07  0.3395433E+04  0.7818609E-02  0.8139028E-01
       -3   -1    0    0    0  501  0.00000000000E+00  0.00000000000E+00  0.22747923243E+04  0.22747923265E+04  0.10100000352E+00 0. -1.
        3   -1    0    0  501    0  0.00000000000E+00  0.00000000000E+00 -0.12670352163E+04  0.12670352204E+04  0.10100000352E+00 0.  1.
    10030    2    1    2    0    0  0.00000000000E+00  0.00000000000E+00  0.10077571079E+04  0.35418275469E+04  0.33954334014E+04 0.  0.
        4    1    3    3  502    0 -0.49581071400E+03 -0.12408631103E+04  0.15962500186E+04  0.20817265088E+04  0.12699999809E+01 0. -1.
       -4    1    3    3    0  502  0.49581071400E+03  0.12408631103E+04 -0.58849291068E+03  0.14601010381E+04  0.12699999809E+01 0.  1.
</event>
<event>
 5   0  0.2622205E-07  0.3312806E+04  0.7818609E-02  0.8159644E-01
       -1   -1    0    0    0  501  0.00000000000E+00  0.00000000000E+00  0.95827902541E+03  0.95827902543E+03  0.50400001928E-02 0.  1.
        1   -1    0    0  501    0  0.00000000000E+00  0.00000000000E+00 -0.28631237427E+04  0.28631237427E+04  0.50400001928E-02 0. -1.
    10030    2    1    2    0    0  0.00000000000E+00  0.00000000000E+00 -0.19048447172E+04  0.38214027681E+04  0.33128063208E+04 0.  0.
        3    1    3    3  502    0 -0.13605232561E+03  0.12352953327E+04  0.31078247068E+03  0.12810349521E+04  0.10100000352E+00 0.  1.
       -3    1    3    3    0  502  0.13605232561E+03 -0.12352953327E+04 -0.22156271879E+04  0.25403678160E+04  0.10100000352E+00 0. -1.
</event>
<event>
 5   0  0.2553250E-07  0.3307920E+04  0.7818609E-02  0.8160883E-01
        3   -1    0    0  501    0  0.00000000000E+00  0.00000000000E+00  0.27920736100E+04  0.27920736119E+04  0.10100000352E+00 0.  1.
       -3   -1    0    0    0  501  0.00000000000E+00  0.00000000000E+00 -0.97976779189E+03  0.97976779710E+03  0.10100000352E+00 0. -1.
    10030    2    1    2    0    0  0.00000000000E+00  0.00000000000E+00  0.18123058182E+04  0.37718414090E+04  0.33079200770E+04 0.  0.
        1    1    3    3  502    0  0.88736889853E+03 -0.13707131290E+04  0.12063338373E+04  0.20301525488E+04  0.50400001928E-02 0.  1.
       -1    1    3    3    0  502 -0.88736889853E+03  0.13707131290E+04  0.60597198086E+03  0.17416888602E+04  0.50400001928E-02 0. -1.
</event>
<event>
 5   0  0.7610412E-07  0.3410208E+04  0.7818609E-02  0.8135406E-01
        2   -1    0    0  501    0  0.00000000000E+00  0.00000000000E+00  0.16639264817E+04  0.16639264817E+04  0.25500000920E-02 0. -1.
       -2   -1    0    0    0  501  0.00000000000E+00  0.00000000000E+00 -0.17473002671E+04  0.17473002671E+04  0.25500000920E-02 0.  1.
    10030    2    1    2    0    0  0.00000000000E+00  0.00000000000E+00 -0.83373785404E+02  0.34112267488E+04  0.34102077273E+04 0.  0.
        4    1    3    3  502    0 -0.76872607699E+03  0.64171618245E+03 -0.14221855606E+04  0.17393541393E+04  0.12699999809E+01 0.  1.
       -4    1    3    3    0  502  0.76872607699E+03 -0.64171618245E+03  0.13388117752E+04  0.16718726095E+04  0.12699999809E+01 0. -1.
</event>
<event>
 5   0  0.2592200E-07  0.3421479E+04  0.7818609E-02  0.8132655E-01
       -1   -1    0    0    0  501  0.00000000000E+00  0.00000000000E+00  0.17174079214E+04  0.17174079214E+04  0.50400001928E-02 0.  1.
        1   -1    0    0  501    0  0.00000000000E+00  0.00000000000E+00 -0.17040967653E+04  0.17040967653E+04  0.50400001928E-02 0. -1.
    10030    2    1    2    0    0  0.00000000000E+00  0.00000000000E+00  0.13311156030E+02  0.34215046867E+04  0.34214787935E+04 0.  0.
        4    1    3    3  502    0 -0.72400338312E+03  0.56135322203E+03  0.14514257761E+04  0.17163731340E+04  0.12699999809E+01 0.  1.
       -4    1    3    3    0  502  0.72400338312E+03 -0.56135322203E+03 -0.14381146201E+04  0.17051315527E+04  0.12699999809E+01 0. -1.
</event>
<event>
 5   0  0.2622205E-07  0.3380322E+04  0.7818609E-02  0.8142753E-01
       -1   -1    0    0    0  501  0.00000000000E+00  0.00000000000E+00  0.19905265433E+04  0.19905265433E+04  0.50400001928E-02 0.  1.
        1   -1    0    0  501    0  0.00000000000E+00  0.00000000000E+00 -0.14351199739E+04  0.14351199739E+04  0.50400001928E-02 0. -1.
    10030    2    1    2    0    0  0.00000000000E+00  0.00000000000E+00  0.55540656942E+03  0.34256465172E+04  0.33803221153E+04 0.  0.
        3    1    3    3  502    0  0.88649555277E+03  0.53281696563E+03  0.16323675710E+04  0.19324575496E+04  0.10100000352E+00 0.  1.
       -3    1    3    3    0  502 -0.88649555277E+03 -0.53281696563E+03 -0.10769610016E+04  0.14931889676E+04  0.10100000352E+00 0. -1.
</event>
<event>
 5   0  0.7899402E-07  0.3390629E+04  0.7818609E-02  0.8140210E-01
       -2   -1    0    0    0  501  0.00000000000E+00  0.00000000000E+00  0.11787173155E+04  0.11787173155E+04  0.25500000920E-02 0.  1.
        2   -1    0    0  501    0  0.00000000000E+00  0.00000000000E+00 -0.24383207930E+04  0.24383207930E+04  0.25500000920E-02 0. -1.
    10030    2    1    2    0    0  0.00000000000E+00  0.00000000000E+00 -0.12596034775E+04  0.36170381085E+04  0.33906288145E+04 0.  0.
        2    1    3    3  502    0 -0.15763034692E+04  0.19864307656E+03  0.12200217167E+01  0.15887709676E+04  0.25500000920E-02 0. -1.
       -2    1    3    3    0  502  0.15763034692E+04 -0.19864307656E+03 -0.12608234993E+04  0.20282671410E+04  0.25500000920E-02 0.  1.
</event>
<event>
 5   0  0.2622205E-07  0.3389197E+04  0.7818609E-02  0.8140563E-01
        1   -1    0    0  501    0  0.00000000000E+00  0.00000000000E+00  0.19409653839E+04  0.19409653839E+04  0.50400001928E-02 0. -1.
       -1   -1    0    0    0  501  0.00000000000E+00  0.00000000000E+00 -0.14795033826E+04  0.14795033826E+04  0.50400001928E-02 0.  1.
    10030    2    1    2    0    0  0.00000000000E+00  0.00000000000E+00  0.46146200133E+03  0.34204687665E+04  0.33891974572E+04 0.  0.
        3    1    3    3  502    0  0.64132460622E+03 -0.10475865187E+04  0.14089487064E+04  0.18691899936E+04  0.10100000352E+00 0.  1.
       -3    1    3    3    0  502 -0.64132460622E+03  0.10475865187E+04 -0.94748670504E+03  0.15512787729E+04  0.10100000352E+00 0. -1.
</event>
<event>
 5   0  0.7610412E-07  0.3392915E+04  0.7818609E-02  0.8139647E-01
        2   -1    0    0  501    0  0.00000000000E+00  0.00000000000E+00  0.26331616765E+04  0.26331616766E+04  0.25500000920E-02 0. -1.
       -2   -1    0    0    0  501  0.00000000000E+00  0.00000000000E+00 -0.10929707602E+04  0.10929707602E+04  0.25500000920E-02 0.  1.
    10030    2    1    2    0    0  0.00000000000E+00  0.00000000000E+00  0.15401909163E+04  0.37261324368E+04  0.33929153950E+04 0.  0.
        4    1    3    3  502    0 -0.76083865057E+03 -0.14435033842E+04  0.12797755331E+04  0.20737416667E+04  0.12699999809E+01 0.  1.
       -4    1    3    3    0  502  0.76083865057E+03  0.14435033842E+04  0.26041538326E+03  0.16523907701E+04  0.12699999809E+01 0. -1.
</event>
<event>
 5   0  0.7838333E-07  0.3399558E+04  0.7818609E-02  0.8138015E-01
       -2   -1    0    0    0  501  0.00000000000E+00  0.00000000000E+00  0.12135001311E+04  0.12135001311E+04  0.25500000920E-02 0. -1.
        2   -1    0    0  501    0  0.00000000000E+00  0.00000000000E+00 -0.23809209211E+04  0.23809209211E+04  0.25500000920E-02 0.  1.
    10030    2    1    2    0    0  0.00000000000E+00  0.00000000000E+00 -0.11674207900E+04  0.35944210522E+04  0.33995575300E+04 0.  0.
        1    1    3    3  502    0  0.16046080702E+04 -0.54607759419E+03 -0.71861738357E+03  0.18410265457E+04  0.50400001928E-02 0.  1.
       -1    1    3    3    0  502 -0.16046080702E+04  0.54607759419E+03 -0.44880340638E+03  0.17533945065E+04  0.50400001928E-02 0. -1.
</event>
<event>
 5   0  0.7838333E-07  0.3421997E+04  0.7818609E-02  0.8132529E-01
       -2   -1    0    0    0  501  0.00000000000E+00  0.00000000000E+00  0.19242092654E+04  0.19242092654E+04  0.25500000920E-02 0. -1.
        2   -1    0    0  501    0  0.00000000000E+00  0.00000000000E+00 -0.15214120394E+04  0.15214120394E+04  0.25500000920E-02 0.  1.
    10030    2    1    2    0    0  0.00000000000E+00  0.00000000000E+00  0.40279722600E+03  0.34456213048E+04  0.34219965767E+04 0.  0.
        1    1    3    3  502    0 -0.10949825762E+03 -0.17074361234E+04  0.21517365405E+03  0.17244209711E+04  0.50400001928E-02 0. -1.
       -1    1    3    3    0  502  0.10949825762E+03  0.17074361234E+04  0.18762357195E+03  0.17212003337E+04  0.50400001928E-02 0.  1.
</event>
<event>
 5   0  0.8489228E-07  0.3401712E+04  0.7818609E-02  0.8137486E-01
        2   -1    0    0  501    0  0.00000000000E+00  0.00000000000E+00  0.22595357446E+04  0.22595357446E+04  0.25500000920E-02 0.  1.
       -2   -1    0    0    0  501  0.00000000000E+00  0.00000000000E+00 -0.12803122070E+04  0.12803122070E+04  0.25500000920E-02 0. -1.
    10030    2    1    2    0    0  0.00000000000E+00  0.00000000000E+00  0.97922353767E+03  0.35398479516E+04  0.34017120372E+04 0.  0.
        3    1    3    3  502    0  0.10473600801E+04 -0.12740070014E+04  0.56971399649E+02  0.16502432328E+04  0.10100000352E+00 0. -1.
       -3    1    3    3    0  502 -0.10473600801E+04  0.12740070014E+04  0.92225213803E+03  0.18896047188E+04  0.10100000352E+00 0.  1.
</event>
<event>
 5   0  0.7822003E-07  0.3362404E+04  0.7818609E-02  0.8147196E-01
        2   -1    0    0  501    0  0.00000000000E+00  0.00000000000E+00  0.20674904619E+04  0.20674904619E+04  0.25500000920E-02 0.  1.
       -2   -1    0    0    0  501  0.00000000000E+00  0.00000000000E+00 -0.13670877440E+04  0.13670877440E+04  0.25500000920E-02 0. -1.
    10030    2    1    2    0    0  0.00000000000E+00  0.00000000000E+00  0.70040271797E+03  0.34345782059E+04  0.33624044202E+04 0.  0.
        5    1    3    3  502    0  0.10122758918E+04 -0.74428130575E+03  0.14912109014E+04  0.19499715859E+04  0.46999998093E+01 0.  1.
       -5    1    3    3    0  502 -0.10122758918E+04  0.74428130575E+03 -0.79080818342E+03  0.14846066200E+04  0.46999998093E+01 0. -1.
</event>
<event>
 5   0  0.2622205E-07  0.3335792E+04  0.7818609E-02  0.8153847E-01
       -1   -1    0    0    0  501  0.00000000000E+00  0.00000000000E+00  0.10252707339E+04  0.10252707339E+04  0.50400001928E-02 0.  1.
        1   -1    0    0  501    0  0.00000000000E+00  0.00000000000E+00 -0.27133103642E+04  0.27133103643E+04  0.50400001928E-02 0. -1.
    10030    2    1    2    0    0  0.00000000000E+00  0.00000000000E+00 -0.16880396304E+04  0.37385810981E+04  0.33357923847E+04 0.  0.
        3    1    3    3  502    0  0.12741136519E+04 -0.10424742292E+04 -0.54379420074E+03  0.17337330416E+04  0.10100000352E+00 0.  1.
       -3    1    3    3    0  502 -0.12741136519E+04  0.10424742292E+04 -0.11442454296E+04  0.20048480566E+04  0.10100000352E+00 0. -1.
</event>
<event>
 5   0  0.2592200E-07  0.3439754E+04  0.7818609E-02  0.8128218E-01
       -1   -1    0    0    0  501  0.00000000000E+00  0.00000000000E+00  0.30746541016E+04  0.30746541016E+04  0.50400001928E-02 0. -1.
        1   -1    0    0  501    0  0.00000000000E+00  0.00000000000E+00 -0.96205181677E+03  0.96205181678E+03  0.50400001928E-02 0.  1.
    10030    2    1    2    0    0  0.00000000000E+00  0.00000000000E+00  0.21126022849E+04  0.40367059184E+04  0.34397538077E+04 0.  0.
        4    1    3    3  502    0  0.13847938134E+04  0.49639499354E+03  0.21019508574E+04  0.25655917280E+04  0.12699999809E+01 0.  1.
       -4    1    3    3    0  502 -0.13847938134E+04 -0.49639499354E+03  0.10651427500E+02  0.14711141904E+04  0.12699999809E+01 0. -1.
</event>
<event>
 5   0  0.7610412E-07  0.3399653E+04  0.7818609E-02  0.8137991E-01
       -2   -1    0    0    0  501  0.00000000000E+00  0.00000000000E+00  0.19081364692E+04  0.19081364692E+04  0.25500000920E-02 0.  1.
        2   -1    0    0  501    0  0.00000000000E+00  0.00000000000E+00 -0.15142579963E+04  0.15142579963E+04  0.25500000920E-02 0. -1.
    10030    2    1    2    0    0  0.00000000000E+00  0.00000000000E+00  0.39387847293E+03  0.34223944655E+04  0.33996534567E+04 0.  0.
        4    1    3    3  502    0  0.13753527917E+04 -0.64429727489E+03 -0.57151156188E+03  0.16227573320E+04  0.12699999809E+01 0.  1.
       -4    1    3    3    0  502 -0.13753527917E+04  0.64429727489E+03  0.96539003480E+03  0.17996371335E+04  0.12699999809E+01 0. -1.
</event>
<event>
 5   0  0.2622205E-07  0.3426061E+04  0.7818609E-02  0.8131540E-01
       -1   -1    0    0    0  501  0.00000000000E+00  0.00000000000E+00  0.15056536277E+04  0.15056536277E+04  0.50400001928E-02 0.  1.
        1   -1    0    0  501    0  0.00000000000E+00  0.00000000000E+00 -0.19489695996E+04  0.19489695996E+04  0.50400001928E-02 0. -1.
    10030    2    1    2    0    0  0.00000000000E+00  0.00000000000E+00 -0.44331597192E+03  0.34546232274E+04  0.34260607981E+04 0.  0.
        3    1    3    3  502    0 -0.54274840129E+03 -0.11677084208E+04 -0.13608351102E+04  0.18734969951E+04  0.10100000352E+00 0. -1.
       -3    1    3    3    0  502  0.54274840129E+03  0.11677084208E+04  0.91751913832E+03  0.15811262323E+04  0.10100000352E+00 0.  1.
</event>
<event>
 5   0  0.2599367E-07  0.3370497E+04  0.7818609E-02  0.8145185E-01
       -1   -1    0    0    0  501  0.00000000000E+00  0.00000000000E+00  0.16145386660E+04  0.16145386660E+04  0.50400001928E-02 0.  1.
        1   -1    0    0  501    0  0.00000000000E+00  0.00000000000E+00 -0.17590551491E+04  0.17590551491E+04  0.50400001928E-02 0. -1.
    10030    2    1    2    0    0  0.00000000000E+00  0.00000000000E+00 -0.14451648308E+03  0.33735938151E+04  0.33704970280E+04 0.  0.
        2    1    3    3  502    0 -0.91170238291E+03  0.11867508210E+04 -0.84787912481E+03  0.17200226035E+04  0.25500000920E-02 0. -1.
       -2    1    3    3    0  502  0.91170238291E+03 -0.11867508210E+04  0.70336264173E+03  0.16535712116E+04  0.25500000920E-02 0.  1.
</event>
<event>
 5   0  0.2622205E-07  0.3407145E+04  0.7818609E-02  0.8136155E-01
        1   -1    0    0  501    0  0.00000000000E+00  0.00000000000E+00  0.15043545667E+04  0.15043545667E+04  0.50400001928E-02 0. -1.
       -1   -1    0    0    0  501  0.00000000000E+00  0.00000000000E+00 -0.19291727347E+04  0.19291727347E+04  0.50400001928E-02 0.  1.
    10030    2    1    2    0    0  0.00000000000E+00  0.00000000000E+00 -0.42481816799E+03  0.34335273014E+04  0.34071453232E+04 0.  0.
        3    1    3    3  502    0 -0.16468596981E+04 -0.12766316014E+03  0.20760956807E+03  0.16647962310E+04  0.10100000352E+00 0. -1.
       -3    1    3    3    0  502  0.16468596981E+04  0.12766316014E+03 -0.63242773607E+03  0.17687310704E+04  0.10100000352E+00 0.  1.
</event>
<event>
 5   0  0.2622205E-07  0.3402273E+04  0.7818609E-02  0.8137349E-01
        1   -1    0    0  501    0  0.00000000000E+00  0.00000000000E+00  0.26938087777E+04  0.26938087777E+04  0.50400001928E-02 0. -1.
       -1   -1    0    0    0  501  0.00000000000E+00  0.00000000000E+00 -0.10742652916E+04  0.10742652916E+04  0.50400001928E-02 0.  1.
    10030    2    1    2    0    0  0.00000000000E+00  0.00000000000E+00  0.16195434861E+04  0.37680740693E+04  0.34022729298E+04 0.  0.
        3    1    3    3  502    0  0.13415532234E+04 -0.83074483364E+03  0.10585515332E+03  0.15814889672E+04  0.10100000352E+00 0. -1.
       -3    1    3    3    0  502 -0.13415532234E+04  0.83074483364E+03  0.15136883327E+04  0.21865851021E+04  0.10100000352E+00 0.  1.
</event>
<event>
 5   0  0.2553250E-07  0.3379196E+04  0.7818609E-02  0.8143031E-01
        1   -1    0    0  501    0  0.00000000000E+00  0.00000000000E+00  0.19656952530E+04  0.19656952530E+04  0.50400001928E-02 0.  1.
       -1   -1    0    0    0  501  0.00000000000E+00  0.00000000000E+00 -0.14522804205E+04  0.14522804205E+04  0.50400001928E-02 0. -1.
    10030    2    1    2    0    0  0.00000000000E+00  0.00000000000E+00  0.51341483246E+03  0.34179756736E+04  0.33791956017E+04 0.  0.
        5    1    3    3  502    0 -0.11885214108E+04  0.10915861790E+04 -0.24961202098E+03  0.16329334894E+04  0.46999998093E+01 0. -1.
       -5    1    3    3    0  502  0.11885214108E+04 -0.10915861790E+04  0.76302685344E+03  0.17850421841E+04  0.46999998093E+01 0.  1.
</event>
<event>
 5   0  0.2599367E-07  0.3638543E+04  0.7818609E-02  0.8081720E-01
        1   -1    0    0  501    0  0.00000000000E+00  0.00000000000E+00  0.21347034423E+04  0.21347034423E+04  0.50400001928E-02 0.  1.
       -1   -1    0    0    0  501  0.00000000000E+00  0.00000000000E+00 -0.15504487624E+04  0.15504487624E+04  0.50400001928E-02 0. -1.
    10030    2    1    2    0    0  0.00000000000E+00  0.00000000000E+00  0.58425467987E+03  0.36851522047E+04  0.36385427359E+04 0.  0.
        2    1    3    3  502    0 -0.16057556165E+04 -0.64263403148E+03  0.86355207274E+03  0.19331714308E+04  0.25500000920E-02 0.  1.
       -2    1    3    3    0  502  0.16057556165E+04  0.64263403148E+03 -0.27929739287E+03  0.17519807739E+04  0.25500000920E-02 0. -1.
</event>
<event>
 5   0  0.2599367E-07  0.3401070E+04  0.7818609E-02  0.8137644E-01
        1   -1    0    0  501    0  0.00000000000E+00  0.00000000000E+00  0.31935520171E+04  0.31935520171E+04  0.50400001928E-02 0.  1.
       -1   -1    0    0    0  501  0.00000000000E+00  0.00000000000E+00 -0.90551796061E+03  0.90551796062E+03  0.50400001928E-02 0. -1.
    10030    2    1    2    0    0  0.00000000000E+00  0.00000000000E+00  0.22880340565E+04  0.40990699777E+04  0.34010696609E+04 0.  0.
        2    1    3    3  502    0 -0.90206907878E+03  0.13138360149E+04  0.42903541631E+03  0.16504439056E+04  0.25500000920E-02 0. -1.
       -2    1    3    3    0  502  0.90206907878E+03 -0.13138360149E+04  0.18589986402E+04  0.24486260721E+04  0.25500000920E-02 0.  1.
</event>
<event>
 5   0  0.7822003E-07  0.3447191E+04  0.7818609E-02  0.8126420E-01
        2   -1    0    0  501    0  0.00000000000E+00  0.00000000000E+00  0.14331119856E+04  0.14331119856E+04  0.25500000920E-02 0. -1.
       -2   -1    0    0    0  501  0.00000000000E+00  0.00000000000E+00 -0.20729583087E+04  0.20729583087E+04  0.25500000920E-02 0.  1.
    10030    2    1    2    0    0  0.00000000000E+00  0.00000000000E+00 -0.63984632306E+03  0.35060702943E+04  0.34471909712E+04 0.  0.
        5    1    3    3  502    0 -0.10442428820E+04  0.95588277059E+03  0.68002992108E+03  0.15705469911E+04  0.46999998093E+01 0. -1.
       -5    1    3    3    0  502  0.10442428820E+04 -0.95588277059E+03 -0.13198762441E+04  0.19355233033E+04  0.46999998093E+01 0.  1.
</event>
<event>
 5   0  0.2622205E-07  0.3416957E+04  0.7818609E-02  0.8133757E-01
        1   -1    0    0  501    0  0.00000000000E+00  0.00000000000E+00  0.20837914927E+04  0.20837914928E+04  0.50400001928E-02 0. -1.
       -1   -1    0    0    0  501  0.00000000000E+00  0.00000000000E+00 -0.14007637539E+04  0.14007637539E+04  0.50400001928E-02 0.  1.
    10030    2    1    2    0    0  0.00000000000E+00  0.00000000000E+00  0.68302773888E+03  0.34845552466E+04  0.34169574734E+04 0.  0.
        3    1    3    3  502    0 -0.26342374772E+03  0.63925987461E+02 -0.13786944573E+04  0.14050896838E+04  0.10100000352E+00 0.  1.
       -3    1    3    3    0  502  0.26342374772E+03 -0.63925987461E+02  0.20617221962E+04  0.20794655628E+04  0.10100000352E+00 0. -1.
</event>
<event>
 5   0  0.7822003E-07  0.3278105E+04  0.7818609E-02  0.8168489E-01
       -2   -1    0    0    0  501  0.00000000000E+00  0.00000000000E+00  0.13387559739E+04  0.13387559739E+04  0.25500000920E-02 0. -1.
        2   -1    0    0  501    0  0.00000000000E+00  0.00000000000E+00 -0.20067081447E+04  0.20067081447E+04  0.25500000920E-02 0.  1.
    10030    2    1    2    0    0  0.00000000000E+00  0.00000000000E+00 -0.66795217086E+03  0.33454641186E+04  0.32781046454E+04 0.  0.
        5    1    3    3  502    0 -0.22583825463E+03  0.10217776022E+04 -0.16214203313E+04  0.19297819479E+04  0.46999998093E+01 0.  1.
       -5    1    3    3    0  502  0.22583825463E+03 -0.10217776022E+04  0.95346816044E+03  0.14156821707E+04  0.46999998093E+01 0. -1.
</event>
<event>
 5   0  0.2622205E-07  0.3071498E+04  0.7818609E-02  0.8223604E-01
        1   -1    0    0  501    0  0.00000000000E+00  0.00000000000E+00  0.17472384577E+04  0.17472384577E+04  0.50400001928E-02 0. -1.
       -1   -1    0    0    0  501  0.00000000000E+00  0.00000000000E+00 -0.13498587679E+04  0.13498587679E+04  0.50400001928E-02 0.  1.
    10030    2    1    2    0    0  0.00000000000E+00  0.00000000000E+00  0.39737968980E+03  0.30970972256E+04  0.30714981047E+04 0.  0.
        3    1    3    3  502    0 -0.12109642278E+04 -0.93633731354E+03  0.73708367474E+02  0.15325125968E+04  0.10100000352E+00 0.  1.
       -3    1    3    3    0  502  0.12109642278E+04  0.93633731354E+03  0.32367132232E+03  0.15645846288E+04  0.10100000352E+00 0. -1.
</event>
<event>
 5   0  0.7610412E-07  0.3350525E+04  0.7818609E-02  0.8150157E-01
       -2   -1    0    0    0  501  0.00000000000E+00  0.00000000000E+00  0.16358473722E+04  0.16358473722E+04  0.25500000920E-02 0.  1.
        2   -1    0    0  501    0  0.00000000000E+00  0.00000000000E+00 -0.17156268138E+04  0.17156268138E+04  0.25500000920E-02 0. -1.
    10030    2    1    2    0    0  0.00000000000E+00  0.00000000000E+00 -0.79779441636E+02  0.33514741860E+04  0.33505245052E+04 0.  0.
        4    1    3    3  502    0 -0.16124822280E+04 -0.18432355571E+03 -0.45525179663E+03  0.16856244896E+04  0.12699999809E+01 0. -1.
       -4    1    3    3    0  502  0.16124822280E+04  0.18432355571E+03  0.37547235500E+03  0.16658496964E+04  0.12699999809E+01 0.  1.
</event>
<event>
 5   0  0.2592200E-07  0.3144458E+04  0.7818609E-02  0.8203642E-01
        1   -1    0    0  501    0  0.00000000000E+00  0.00000000000E+00  0.16621058115E+04  0.16621058115E+04  0.50400001928E-02 0.  1.
       -1   -1    0    0    0  501  0.00000000000E+00  0.00000000000E+00 -0.14872120481E+04  0.14872120482E+04  0.50400001928E-02 0. -1.
    10030    2    1    2    0    0  0.00000000000E+00  0.00000000000E+00  0.17489376339E+03  0.31493178597E+04  0.31444578472E+04 0.  0.
        4    1    3    3  502    0  0.47592392911E+03  0.13336036008E+04  0.77180380855E+03  0.16126639086E+04  0.12699999809E+01 0.  1.
       -4    1    3    3    0  502 -0.47592392911E+03 -0.13336036008E+04 -0.59691004516E+03  0.15366539511E+04  0.12699999809E+01 0. -1.
</event>
<event>
 5   0  0.7610412E-07  0.3418727E+04  0.7818609E-02  0.8133325E-01
       -2   -1    0    0    0  501  0.00000000000E+00  0.00000000000E+00  0.12716389912E+04  0.12716389912E+04  0.25500000920E-02 0.  1.
        2   -1    0    0  501    0  0.00000000000E+00  0.00000000000E+00 -0.22977614567E+04  0.22977614567E+04  0.25500000920E-02 0. -1.
    10030    2    1    2    0    0  0.00000000000E+00  0.00000000000E+00 -0.10261224655E+04  0.35694004479E+04  0.34187266991E+04 0.  0.
        4    1    3    3  502    0 -0.50386308443E+03 -0.16266778434E+04 -0.35833174048E+03  0.17402189699E+04  0.12699999809E+01 0.  1.
       -4    1    3    3    0  502  0.50386308443E+03  0.16266778434E+04 -0.66779072505E+03  0.18291814780E+04  0.12699999809E+01 0. -1.
</event>
<event>
 5   0  0.7899402E-07  0.3377074E+04  0.7818609E-02  0.8143556E-01
       -2   -1    0    0    0  501  0.00000000000E+00  0.00000000000E+00  0.22228114059E+04  0.22228114059E+04  0.25500000920E-02 0. -1.
        2   -1    0    0  501    0  0.00000000000E+00  0.00000000000E+00 -0.12826808053E+04  0.12826808053E+04  0.25500000920E-02 0.  1.
    10030    2    1    2    0    0  0.00000000000E+00  0.00000000000E+00  0.94013060060E+03  0.35054922112E+04  0.33770741917E+04 0.  0.
        2    1    3    3  502    0 -0.17960976555E+03  0.12038288392E+04  0.16849083642E+04  0.20785523178E+04  0.25500000920E-02 0. -1.
       -2    1    3    3    0  502  0.17960976555E+03 -0.12038288392E+04 -0.74477776362E+03  0.14269398934E+04  0.25500000920E-02 0.  1.
</event>
<event>
 5   0  0.2641442E-07  0.3263802E+04  0.7818609E-02  0.8172168E-01
       -1   -1    0    0    0  501  0.00000000000E+00  0.00000000000E+00  0.13157899917E+04  0.13157899917E+04  0.50400001928E-02 0. -1.
        1   -1    0    0  501    0  0.00000000000E+00  0.00000000000E+00 -0.20239554326E+04  0.20239554326E+04  0.50400001928E-02 0.  1.
    10030    2    1    2    0    0  0.00000000000E+00  0.00000000000E+00 -0.70816544087E+03  0.33397454243E+04  0.32638016495E+04 0.  0.
        1    1    3    3  502    0  0.11828942913E+04 -0.66412386430E+03 -0.12822729283E+04  0.18666877816E+04  0.50400001928E-02 0.  1.
       -1    1    3    3    0  502 -0.11828942913E+04  0.66412386430E+03  0.57410748738E+03  0.14730576427E+04  0.50400001928E-02 0. -1.
</event>
<event>
 5   0  0.2553250E-07  0.3411471E+04  0.7818609E-02  0.8135097E-01
        3   -1    0    0  501    0  0.00000000000E+00  0.00000000000E+00  0.18131203003E+04  0.18131203031E+04  0.10100000352E+00 0.  1.
       -3   -1    0    0    0  501  0.00000000000E+00  0.00000000000E+00 -0.16047103332E+04  0.16047103364E+04  0.10100000352E+00 0. -1.
    10030    2    1    2    0    0  0.00000000000E+00  0.00000000000E+00  0.20840996703E+03  0.34178306395E+04  0.34114705870E+04 0.  0.
        3    1    3    3  502    0 -0.16090076896E+04 -0.41342815674E+03  0.49184271032E+03  0.17325524084E+04  0.10100000352E+00 0. -1.
       -3    1    3    3    0  502  0.16090076896E+04  0.41342815674E+03 -0.28343274329E+03  0.16852782311E+04  0.10100000352E+00 0.  1.
</event>
<event>
 5   0  0.2641442E-07  0.3446715E+04  0.7818609E-02  0.8126535E-01
       -1   -1    0    0    0  501  0.00000000000E+00  0.00000000000E+00  0.18809740005E+04  0.18809740005E+04  0.50400001928E-02 0.  1.
        1   -1    0    0  501    0  0.00000000000E+00  0.00000000000E+00 -0.15789484713E+04  0.15789484713E+04  0.50400001928E-02 0. -1.
    10030    2    1    2    0    0  0.00000000000E+00  0.00000000000E+00  0.30202552922E+03  0.34599224718E+04  0.34467149708E+04 0.  0.
        1    1    3    3  502    0  0.31112661664E+03  0.14791376102E+04  0.98202140506E+03  0.18025021169E+04  0.50400001928E-02 0.  1.
       -1    1    3    3    0  502 -0.31112661664E+03 -0.14791376102E+04 -0.67999587585E+03  0.16574203548E+04  0.50400001928E-02 0. -1.
</event>
<event>
 5   0  0.7822003E-07  0.3337291E+04  0.7818609E-02  0.8153471E-01
        2   -1    0    0  501    0  0.00000000000E+00  0.00000000000E+00  0.20279230288E+04  0.20279230288E+04  0.25500000920E-02 0.  1.
       -2   -1    0    0    0  501  0.00000000000E+00  0.00000000000E+00 -0.13730196177E+04  0.13730196177E+04  0.25500000920E-02 0. -1.
    10030    2    1    2    0    0  0.00000000000E+00  0.00000000000E+00  0.65490341112E+03  0.34009426465E+04  0.33372911780E+04 0.  0.
        5    1    3    3  502    0  0.22178775301E+03 -0.20249851846E+03  0.20001474202E+04  0.20225744114E+04  0.46999998093E+01 0.  1.
       -5    1    3    3    0  502 -0.22178775301E+03  0.20249851846E+03 -0.13452440091E+04  0.13783682350E+04  0.46999998093E+01 0. -1.
</event>
<event>
 5   0  0.8489228E-07  0.3378280E+04  0.7818609E-02  0.8143258E-01
        2   -1    0    0  501    0  0.00000000000E+00  0.00000000000E+00  0.21032286782E+04  0.21032286782E+04  0.25500000920E-02 0. -1.
       -2   -1    0    0    0  501  0.00000000000E+00  0.00000000000E+00 -0.13565777998E+04  0.13565777998E+04  0.25500000920E-02 0.  1.
    10030    2    1    2    0    0  0.00000000000E+00  0.00000000000E+00  0.74665087840E+03  0.34598064779E+04  0.33782796406E+04 0.  0.
        3    1    3    3  502    0  0.42571643929E+03 -0.16048023800E+04  0.69157893488E+03  0.17985846099E+04  0.10100000352E+00 0. -1.
       -3    1    3    3    0  502 -0.42571643929E+03  0.16048023800E+04  0.55071943516E+02  0.16612218680E+04  0.10100000352E+00 0.  1.
</event>
<event>
 5   0  0.7822003E-07  0.3389394E+04  0.7818609E-02  0.8140514E-01
        2   -1    0    0  501    0  0.00000000000E+00  0.00000000000E+00  0.22071673162E+04  0.22071673162E+04  0.25500000920E-02 0. -1.
       -2   -1    0    0    0  501  0.00000000000E+00  0.00000000000E+00 -0.13012146098E+04  0.13012146098E+04  0.25500000920E-02 0.  1.
    10030    2    1    2    0    0  0.00000000000E+00  0.00000000000E+00  0.90595270634E+03  0.35083819260E+04  0.33893942575E+04 0.  0.
        5    1    3    3  502    0  0.16441755887E+03 -0.16096013260E+04 -0.68830680926E+02  0.16194472251E+04  0.46999998093E+01 0.  1.
       -5    1    3    3    0  502 -0.16441755887E+03  0.16096013260E+04  0.97478338727E+03  0.18889347009E+04  0.46999998093E+01 0. -1.
</event>
<event>
 5   0  0.2599367E-07  0.3366255E+04  0.7818609E-02  0.8146238E-01
        1   -1    0    0  501    0  0.00000000000E+00  0.00000000000E+00  0.17373578266E+04  0.17373578267E+04  0.50400001928E-02 0.  1.
       -1   -1    0    0    0  501  0.00000000000E+00  0.00000000000E+00 -0.16305899826E+04  0.16305899826E+04  0.50400001928E-02 0. -1.
    10030    2    1    2    0    0  0.00000000000E+00  0.00000000000E+00  0.10676784406E+03  0.33679478093E+04  0.33662550517E+04 0.  0.
        2    1    3    3  502    0  0.26840570681E+03 -0.15223215174E+04  0.71961204013E+03  0.17050941071E+04  0.25500000920E-02 0. -1.
       -2    1    3    3    0  502 -0.26840570681E+03  0.15223215174E+04 -0.61284419608E+03  0.16628537021E+04  0.25500000920E-02 0.  1.
</event>
<event>
 5   0  0.7610412E-07  0.3366606E+04  0.7818609E-02  0.8146151E-01
        2   -1    0    0  501    0  0.00000000000E+00  0.00000000000E+00  0.24407973438E+04  0.24407973438E+04  0.25500000920E-02 0.  1.
       -2   -1    0    0    0  501  0.00000000000E+00  0.00000000000E+00 -0.11608947678E+04  0.11608947678E+04  0.25500000920E-02 0. -1.
    10030    2    1    2    0    0  0.00000000000E+00  0.00000000000E+00  0.12799025760E+04  0.36016921117E+04  0.33666059263E+04 0.  0.
        4    1    3    3  502    0 -0.14357111988E+04  0.83541950692E+03  0.93159466323E+03  0.19044848722E+04  0.12699999809E+01 0.  1.
       -4    1    3    3    0  502  0.14357111988E+04 -0.83541950692E+03  0.34830791279E+03  0.16972072395E+04  0.12699999809E+01 0. -1.
</event>
<event>
 5   0  0.2641442E-07  0.3401997E+04  0.7818609E-02  0.8137416E-01
        1   -1    0    0  501    0  0.00000000000E+00  0.00000000000E+00  0.93639477963E+03  0.93639477965E+03  0.50400001928E-02 0. -1.
       -1   -1    0    0    0  501  0.00000000000E+00  0.00000000000E+00 -0.30899311042E+04  0.30899311042E+04  0.50400001928E-02 0.  1.
    10030    2    1    2    0    0  0.00000000000E+00  0.00000000000E+00 -0.21535363246E+04  0.40263258839E+04  0.34019966816E+04 0.  0.
        1    1    3    3  502    0  0.18193289404E+02  0.16953054423E+04 -0.12399213096E+04  0.21004276690E+04  0.50400001928E-02 0. -1.
       -1    1    3    3    0  502 -0.18193289404E+02 -0.16953054423E+04 -0.91361501501E+03  0.19258982149E+04  0.50400001928E-02 0.  1.
</event>
<event>
 5   0  0.8489228E-07  0.3403778E+04  0.7818609E-02  0.8136980E-01
       -2   -1    0    0    0  501  0.00000000000E+00  0.00000000000E+00  0.17268967619E+04  0.17268967619E+04  0.25500000920E-02 0.  1.
        2   -1    0    0  501    0  0.00000000000E+00  0.00000000000E+00 -0.16772434575E+04  0.16772434575E+04  0.25500000920E-02 0. -1.
    10030    2    1    2    0    0  0.00000000000E+00  0.00000000000E+00  0.49653304350E+02  0.34041402194E+04  0.34037780748E+04 0.  0.
        3    1    3    3  502    0  0.25548409463E+03  0.11574613041E+04  0.12462008258E+04  0.17198852582E+04  0.10100000352E+00 0.  1.
       -3    1    3    3    0  502 -0.25548409463E+03 -0.11574613041E+04 -0.11965475215E+04  0.16842549612E+04  0.10100000352E+00 0. -1.
</event>
<event>
 5   0  0.2641442E-07  0.3401392E+04  0.7818609E-02  0.8137565E-01
       -1   -1    0    0    0  501  0.00000000000E+00  0.00000000000E+00  0.11750139702E+04  0.11750139702E+04  0.50400001928E-02 0.  1.
        1   -1    0    0  501    0  0.00000000000E+00  0.00000000000E+00 -0.24615597208E+04  0.24615597208E+04  0.50400001928E-02 0. -1.
    10030    2    1    2    0    0  0.00000000000E+00  0.00000000000E+00 -0.12865457506E+04  0.36365736910E+04  0.34013921035E+04 0.  0.
        1    1    3    3  502    0 -0.68789486934E+03 -0.75223267612E+03  0.81222026376E+03  0.13033629990E+04  0.50400001928E-02 0.  1.
       -1    1    3    3    0  502  0.68789486934E+03  0.75223267612E+03 -0.20987660144E+04  0.23332106920E+04  0.50400001928E-02 0. -1.
</event>
<event>
 5   0  0.7822003E-07  0.3392555E+04  0.7818609E-02  0.8139736E-01
       -2   -1    0    0    0  501  0.00000000000E+00  0.00000000000E+00  0.11329880218E+04  0.11329880218E+04  0.25500000920E-02 0. -1.
        2   -1    0    0  501    0  0.00000000000E+00  0.00000000000E+00 -0.25396180149E+04  0.25396180149E+04  0.25500000920E-02 0.  1.
    10030    2    1    2    0    0  0.00000000000E+00  0.00000000000E+00 -0.14066299931E+04  0.36726060367E+04  0.33925546663E+04 0.  0.
        5    1    3    3  502    0  0.13377962331E+04  0.10428915184E+04 -0.70725113039E+03  0.18378105811E+04  0.46999998093E+01 0.  1.
       -5    1    3    3    0  502 -0.13377962331E+04 -0.10428915184E+04 -0.69937886270E+03  0.18347954557E+04  0.46999998093E+01 0. -1.
</event>
<event>
 5   0  0.2553250E-07  0.3466767E+04  0.7818609E-02  0.8121711E-01
       -3   -1    0    0    0  501  0.00000000000E+00  0.00000000000E+00  0.22483707554E+04  0.22483707576E+04  0.10100000352E+00 0.  1.
        3   -1    0    0  501    0  0.00000000000E+00  0.00000000000E+00 -0.13363539616E+04  0.13363539654E+04  0.10100000352E+00 0. -1.
    10030    2    1    2    0    0  0.00000000000E+00  0.00000000000E+00  0.91201679381E+03  0.35847247230E+04  0.34667674724E+04 0.  0.
        5    1    3    3  502    0  0.45682570143E+03 -0.10112577894E+04  0.18329576193E+04  0.21426823755E+04  0.46999998093E+01 0.  1.
       -5    1    3    3    0  502 -0.45682570143E+03  0.10112577894E+04 -0.92094082547E+03  0.14420423475E+04  0.46999998093E+01 0. -1.
</event>
<event>
 5   0  0.2592200E-07  0.3388335E+04  0.7818609E-02  0.8140775E-01
       -1   -1    0    0    0  501  0.00000000000E+00  0.00000000000E+00  0.11476081197E+04  0.11476081197E+04  0.50400001928E-02 0.  1.
        1   -1    0    0  501    0  0.00000000000E+00  0.00000000000E+00 -0.25010310667E+04  0.25010310667E+04  0.50400001928E-02 0. -1.
    10030    2    1    2    0    0  0.00000000000E+00  0.00000000000E+00 -0.13534229470E+04  0.36486391863E+04  0.33883350246E+04 0.  0.
        4    1    3    3  502    0  0.14334276602E+04  0.65183715011E+03 -0.13497007529E+04  0.20739576328E+04  0.12699999809E+01 0. -1.
       -4    1    3    3    0  502 -0.14334276602E+04 -0.65183715011E+03 -0.37221940976E+01  0.15746815535E+04  0.12699999809E+01 0.  1.
</event>
<event>
 5   0  0.7899402E-07  0.3412924E+04  0.7818609E-02  0.8134742E-01
       -2   -1    0    0    0  501  0.00000000000E+00  0.00000000000E+00  0.15017237494E+04  0.15017237494E+04  0.25500000920E-02 0. -1.
        2   -1    0    0  501    0  0.00000000000E+00  0.00000000000E+00 -0.19391137899E+04  0.19391137899E+04  0.25500000920E-02 0.  1.
    10030    2    1    2    0    0  0.00000000000E+00  0.00000000000E+00 -0.43739004049E+03  0.34408375394E+04  0.34129243948E+04 0.  0.
        2    1    3    3  502    0 -0.14396423000E+03 -0.16568079233E+04 -0.60428221983E+03  0.17694335804E+04  0.25500000920E-02 0.  1.
       -2    1    3    3    0  502  0.14396423000E+03  0.16568079233E+04  0.16689217934E+03  0.16714039589E+04  0.25500000920E-02 0. -1.
</event>
<event>
 5   0  0.8489228E-07  0.3406247E+04  0.7818609E-02  0.8136375E-01
       -2   -1    0    0    0  501  0.00000000000E+00  0.00000000000E+00  0.13517924167E+04  0.13517924168E+04  0.25500000920E-02 0. -1.
        2   -1    0    0  501    0  0.00000000000E+00  0.00000000000E+00 -0.21457662158E+04  0.21457662158E+04  0.25500000920E-02 0.  1.
    10030    2    1    2    0    0  0.00000000000E+00  0.00000000000E+00 -0.79397379906E+03  0.34975586326E+04  0.34062474946E+04 0.  0.
        3    1    3    3  502    0  0.24694850382E+03 -0.11557540208E+04 -0.16561886913E+04  0.20346281999E+04  0.10100000352E+00 0.  1.
       -3    1    3    3    0  502 -0.24694850382E+03  0.11557540208E+04  0.86221489229E+03  0.14629304327E+04  0.10100000352E+00 0. -1.
</event>
<event>
 5   0  0.2553250E-07  0.3393108E+04  0.7818609E-02  0.8139600E-01
        1   -1    0    0  501    0  0.00000000000E+00  0.00000000000E+00  0.10432782438E+04  0.10432782439E+04  0.50400001928E-02 0. -1.
       -1   -1    0    0    0  501  0.00000000000E+00  0.00000000000E+00 -0.27588956239E+04  0.27588956239E+04  0.50400001928E-02 0.  1.
    10030    2    1    2    0    0  0.00000000000E+00  0.00000000000E+00 -0.17156173801E+04  0.38021738678E+04  0.33931081807E+04 0.  0.
        5    1    3    3  502    0  0.59392860759E+02  0.82707511425E+03 -0.25163451388E+04  0.26494519629E+04  0.46999998093E+01 0.  1.
       -5    1    3    3    0  502 -0.59392860759E+02 -0.82707511425E+03  0.80072775866E+03  0.11527219049E+04  0.46999998093E+01 0. -1.
</event>
<event>
 5   0  0.2553250E-07  0.3392884E+04  0.7818609E-02  0.8139655E-01
        4   -1    0    0  501    0  0.00000000000E+00  0.00000000000E+00  0.17726589517E+04  0.17726594066E+04  0.12699999809E+01 0. -1.
       -4   -1    0    0    0  501  0.00000000000E+00  0.00000000000E+00 -0.16235016159E+04  0.16235021126E+04  0.12699999809E+01 0.  1.
    10030    2    1    2    0    0  0.00000000000E+00  0.00000000000E+00  0.14915733575E+03  0.33961615192E+04  0.33928844888E+04 0.  0.
        2    1    3    3  502    0 -0.10027251292E+03 -0.17682492737E+03 -0.16112673436E+04  0.16240394344E+04  0.25500000920E-02 0.  1.
       -2    1    3    3    0  502  0.10027251292E+03  0.17682492737E+03  0.17604246794E+04  0.17721220848E+04  0.25500000920E-02 0. -1.
</event>
<event>
 5   0  0.7610412E-07  0.3394931E+04  0.7818609E-02  0.8139151E-01
       -2   -1    0    0    0  501  0.00000000000E+00  0.00000000000E+00  0.12836861717E+04  0.12836861717E+04  0.25500000920E-02 0. -1.
        2   -1    0    0  501    0  0.00000000000E+00  0.00000000000E+00 -0.22446218016E+04  0.22446218016E+04  0.25500000920E-02 0.  1.
    10030    2    1    2    0    0  0.00000000000E+00  0.00000000000E+00 -0.96093562987E+03  0.35283079733E+04  0.33949314970E+04 0.  0.
        4    1    3    3  502    0  0.88559348796E+03  0.45659845286E+03  0.94779771985E+03  0.13751654823E+04  0.12699999809E+01 0. -1.
       -4    1    3    3    0  502 -0.88559348796E+03 -0.45659845286E+03 -0.19087333497E+04  0.21531424909E+04  0.12699999809E+01 0.  1.
</event>
<event>
 5   0  0.7899402E-07  0.3443266E+04  0.7818609E-02  0.8127368E-01
        2   -1    0    0  501    0  0.00000000000E+00  0.00000000000E+00  0.25800903233E+04  0.25800903233E+04  0.25500000920E-02 0.  1.
       -2   -1    0    0    0  501  0.00000000000E+00  0.00000000000E+00 -0.11488047556E+04  0.11488047556E+04  0.25500000920E-02 0. -1.
    10030    2    1    2    0    0  0.00000000000E+00  0.00000000000E+00  0.14312855677E+04  0.37288950789E+04  0.34432659109E+04 0.  0.
        2    1    3    3  502    0 -0.86828981951E+03  0.47635282300E+03 -0.80943065183E+03  0.12790688812E+04  0.25500000920E-02 0. -1.
       -2    1    3    3    0  502  0.86828981951E+03 -0.47635282300E+03  0.22407162195E+04  0.24498261977E+04  0.25500000920E-02 0.  1.
</event>
<event>
 5   0  0.2599367E-07  0.3448529E+04  0.7818609E-02  0.8126097E-01
       -1   -1    0    0    0  501  0.00000000000E+00  0.00000000000E+00  0.14291506215E+04  0.14291506215E+04  0.50400001928E-02 0. -1.
        1   -1    0    0  501    0  0.00000000000E+00  0.00000000000E+00 -0.20803179020E+04  0.20803179020E+04  0.50400001928E-02 0.  1.
    10030    2    1    2    0    0  0.00000000000E+00  0.00000000000E+00 -0.65116728056E+03  0.35094685235E+04  0.34485287428E+04 0.  0.
        2    1    3    3  502    0 -0.85594728377E+03  0.13881264483E+04  0.24426394345E+03  0.16490014139E+04  0.25500000920E-02 0. -1.
       -2    1    3    3    0  502  0.85594728377E+03 -0.13881264483E+04 -0.89543122401E+03  0.18604671096E+04  0.25500000920E-02 0.  1.
</event>
<event>
 5   0  0.7899402E-07  0.3200809E+04  0.7818609E-02  0.8188604E-01
       -2   -1    0    0    0  501  0.00000000000E+00  0.00000000000E+00  0.11219931714E+04  0.11219931714E+04  0.25500000920E-02 0. -1.
        2   -1    0    0  501    0  0.00000000000E+00  0.00000000000E+00 -0.22828076761E+04  0.22828076761E+04  0.25500000920E-02 0.  1.
    10030    2    1    2    0    0  0.00000000000E+00  0.00000000000E+00 -0.11608145047E+04  0.34048008475E+04  0.32008090379E+04 0.  0.
        2    1    3    3  502    0  0.13764893564E+04 -0.68506631370E+03 -0.10528474739E+04  0.18634716541E+04  0.25500000920E-02 0.  1.
       -2    1    3    3    0  502 -0.13764893564E+04  0.68506631370E+03 -0.10796703084E+03  0.15413291934E+04  0.25500000920E-02 0. -1.
</event>
<event>
 5   0  0.7822003E-07  0.3412643E+04  0.7818609E-02  0.8134810E-01
        2   -1    0    0  501    0  0.00000000000E+00  0.00000000000E+00  0.17801290529E+04  0.17801290529E+04  0.25500000920E-02 0. -1.
       -2   -1    0    0    0  501  0.00000000000E+00  0.00000000000E+00 -0.16355744938E+04  0.16355744938E+04  0.25500000920E-02 0.  1.
    10030    2    1    2    0    0  0.00000000000E+00  0.00000000000E+00  0.14455455904E+03  0.34157035467E+04  0.34126433594E+04 0.  0.
        5    1    3    3  502    0 -0.30010143332E+03  0.15735881683E+04  0.66040183408E+03  0.17327415463E+04  0.46999998093E+01 0. -1.
       -5    1    3    3    0  502  0.30010143332E+03 -0.15735881683E+04 -0.51584727504E+03  0.16829620004E+04  0.46999998093E+01 0.  1.
</event>
<event>
 5   0  0.7610412E-07  0.3416728E+04  0.7818609E-02  0.8133813E-01
       -2   -1    0    0    0  501  0.00000000000E+00  0.00000000000E+00  0.19030548630E+04  0.19030548630E+04  0.25500000920E-02 0.  1.
        2   -1    0    0  501    0  0.00000000000E+00  0.00000000000E+00 -0.15335910730E+04  0.15335910730E+04  0.25500000920E-02 0. -1.
    10030    2    1    2    0    0  0.00000000000E+00  0.00000000000E+00  0.36946379000E+03  0.34366459360E+04  0.34167282299E+04 0.  0.
        4    1    3    3  502    0  0.15065129971E+04  0.53074042738E+03  0.79426747754E+03  0.17838523623E+04  0.12699999809E+01 0. -1.
       -4    1    3    3    0  502 -0.15065129971E+04 -0.53074042738E+03 -0.42480368754E+03  0.16527935737E+04  0.12699999809E+01 0.  1.
</event>
<event>
 5   0  0.7899402E-07  0.3390827E+04  0.7818609E-02  0.8140161E-01
        2   -1    0    0  501    0  0.00000000000E+00  0.00000000000E+00  0.14281280967E+04  0.14281280967E+04  0.25500000920E-02 0. -1.
       -2   -1    0    0    0  501  0.00000000000E+00  0.00000000000E+00 -0.20127234810E+04  0.20127234810E+04  0.25500000920E-02 0.  1.
    10030    2    1    2    0    0  0.00000000000E+00  0.00000000000E+00 -0.58459538435E+03  0.34408515777E+04  0.33908270106E+04 0.  0.
        2    1    3    3  502    0 -0.80837194696E+03  0.83787084657E+03 -0.15429304070E+04  0.19329063612E+04  0.25500000920E-02 0.  1.
       -2    1    3    3    0  502  0.80837194696E+03 -0.83787084657E+03  0.95833502269E+03  0.15079452165E+04  0.25500000920E-02 0. -1.
</event>
<event>
 5   0  0.7822003E-07  0.3360669E+04  0.7818609E-02  0.8147628E-01
       -2   -1    0    0    0  501  0.00000000000E+00  0.00000000000E+00  0.10584123102E+04  0.10584123102E+04  0.25500000920E-02 0.  1.
        2   -1    0    0  501    0  0.00000000000E+00  0.00000000000E+00 -0.26676971722E+04  0.26676971722E+04  0.25500000920E-02 0. -1.
    10030    2    1    2    0    0  0.00000000000E+00  0.00000000000E+00 -0.16092848620E+04  0.37261094824E+04  0.33606686995E+04 0.  0.
        5    1    3    3  502    0  0.10886758193E+04  0.75472618376E+03  0.34153721403E+03  0.13680264656E+04  0.46999998093E+01 0.  1.
       -5    1    3    3    0  502 -0.10886758193E+04 -0.75472618376E+03 -0.19508220760E+04  0.23580830168E+04  0.46999998093E+01 0. -1.
</event>
<event>
 5   0  0.2641442E-07  0.3395386E+04  0.7818609E-02  0.8139040E-01
       -1   -1    0    0    0  501  0.00000000000E+00  0.00000000000E+00  0.95937819092E+03  0.95937819094E+03  0.50400001928E-02 0. -1.
        1   -1    0    0  501    0  0.00000000000E+00  0.00000000000E+00 -0.30041981915E+04  0.30041981915E+04  0.50400001928E-02 0.  1.
    10030    2    1    2    0    0  0.00000000000E+00  0.00000000000E+00 -0.20448200006E+04  0.39635763825E+04  0.33953864147E+04 0.  0.
        1    1    3    3  502    0 -0.95460493795E+03 -0.80075916396E+03 -0.23684904158E+04  0.26762347946E+04  0.50400001928E-02 0.  1.
       -1    1    3    3    0  502  0.95460493795E+03  0.80075916396E+03  0.32367041515E+03  0.12873415879E+04  0.50400001928E-02 0. -1.
</event>
<event>
 5   0  0.8489228E-07  0.3396328E+04  0.7818609E-02  0.8138808E-01
       -2   -1    0    0    0  501  0.00000000000E+00  0.00000000000E+00  0.15436663230E+04  0.15436663230E+04  0.25500000920E-02 0. -1.
        2   -1    0    0  501    0  0.00000000000E+00  0.00000000000E+00 -0.18681245469E+04  0.18681245469E+04  0.25500000920E-02 0.  1.
    10030    2    1    2    0    0  0.00000000000E+00  0.00000000000E+00 -0.32445822398E+03  0.34117908699E+04  0.33963279878E+04 0.  0.
        3    1    3    3  502    0  0.97872145940E+03 -0.53787999176E+03  0.11228724919E+04  0.15836834355E+04  0.10100000352E+00 0. -1.
       -3    1    3    3    0  502 -0.97872145940E+03  0.53787999176E+03 -0.14473307158E+04  0.18281074344E+04  0.10100000352E+00 0.  1.
</event>
<event>
 5   0  0.2641442E-07  0.3431423E+04  0.7818609E-02  0.8130237E-01
        1   -1    0    0  501    0  0.00000000000E+00  0.00000000000E+00  0.24798938186E+04  0.24798938186E+04  0.50400001928E-02 0. -1.
       -1   -1    0    0    0  501  0.00000000000E+00  0.00000000000E+00 -0.11870131175E+04  0.11870131175E+04  0.50400001928E-02 0.  1.
    10030    2    1    2    0    0  0.00000000000E+00  0.00000000000E+00  0.12928807011E+04  0.36669069362E+04  0.34314233157E+04 0.  0.
        1    1    3    3  502    0  0.58145375678E+03 -0.15136623159E+04  0.12456377338E+04  0.20447189151E+04  0.50400001928E-02 0. -1.
       -1    1    3    3    0  502 -0.58145375678E+03  0.15136623159E+04  0.47242967307E+02  0.16221880211E+04  0.50400001928E-02 0.  1.
</event>
<event>
 5   0  0.7899402E-07  0.3410352E+04  0.7818609E-02  0.8135370E-01
        2   -1    0    0  501    0  0.00000000000E+00  0.00000000000E+00  0.19703200678E+04  0.19703200678E+04  0.25500000920E-02 0.  1.
       -2   -1    0    0    0  501  0.00000000000E+00  0.00000000000E+00 -0.14757124788E+04  0.14757124788E+04  0.25500000920E-02 0. -1.
    10030    2    1    2    0    0  0.00000000000E+00  0.00000000000E+00  0.49460758897E+03  0.34460325466E+04  0.34103524225E+04 0.  0.
        2    1    3    3  502    0  0.72609191133E+03  0.12118695154E+04 -0.71756269399E+03  0.15845293957E+04  0.25500000920E-02 0. -1.
       -2    1    3    3    0  502 -0.72609191133E+03 -0.12118695154E+04  0.12121702830E+04  0.18615031509E+04  0.25500000920E-02 0.  1.
</event>
<event>
 5   0  0.7822003E-07  0.3443527E+04  0.7818609E-02  0.8127305E-01
        2   -1    0    0  501    0  0.00000000000E+00  0.00000000000E+00  0.29936277630E+04  0.29936277630E+04  0.25500000920E-02 0.  1.
       -2   -1    0    0    0  501  0.00000000000E+00  0.00000000000E+00 -0.99026012208E+03  0.99026012208E+03  0.25500000920E-02 0. -1.
    10030    2    1    2    0    0  0.00000000000E+00  0.00000000000E+00  0.20033676409E+04  0.39838878851E+04  0.34435273741E+04 0.  0.
        5    1    3    3  502    0 -0.94851939679E+03  0.74720712412E+03 -0.41828749067E+03  0.12778865549E+04  0.46999998093E+01 0. -1.
       -5    1    3    3    0  502  0.94851939679E+03 -0.74720712412E+03  0.24216551316E+04  0.27060013302E+04  0.46999998093E+01 0.  1.
</event>
<event>
 5   0  0.2622205E-07  0.3306446E+04  0.7818609E-02  0.8161257E-01
       -1   -1    0    0    0  501  0.00000000000E+00  0.00000000000E+00  0.14492957549E+04  0.14492957549E+04  0.50400001928E-02 0.  1.
        1   -1    0    0  501    0  0.00000000000E+00  0.00000000000E+00 -0.18858448188E+04  0.18858448188E+04  0.50400001928E-02 0. -1.
    10030    2    1    2    0    0  0.00000000000E+00  0.00000000000E+00 -0.43654906385E+03  0.33351405737E+04  0.33064463645E+04 0.  0.
        3    1    3    3  502    0  0.27831852397E+03 -0.10360287697E+04  0.10505489340E+04  0.15014892225E+04  0.10100000352E+00 0.  1.
       -3    1    3    3    0  502 -0.27831852397E+03  0.10360287697E+04 -0.14870979978E+04  0.18336513512E+04  0.10100000352E+00 0. -1.
</event>
<event>
 5   0  0.2592200E-07  0.3219936E+04  0.7818609E-02  0.8183572E-01
        1   -1    0    0  501    0  0.00000000000E+00  0.00000000000E+00  0.17753402331E+04  0.17753402331E+04  0.50400001928E-02 0.  1.
       -1   -1    0    0    0  501  0.00000000000E+00  0.00000000000E+00 -0.14599998914E+04  0.14599998914E+04  0.50400001928E-02 0. -1.
    10030    2    1    2    0    0  0.00000000000E+00  0.00000000000E+00  0.31534034174E+03  0.32353401245E+04  0.32199357431E+04 0.  0.
        4    1    3    3  502    0  0.56021261411E+03  0.95243609243E+02  0.16712250107E+04  0.17651923882E+04  0.12699999809E+01 0.  1.
       -4    1    3    3    0  502 -0.56021261411E+03 -0.95243609243E+02 -0.13558846689E+04  0.14701477363E+04  0.12699999809E+01 0. -1.
</event>
<event>
 5   0  0.2553250E-07  0.3367110E+04  0.7818609E-02  0.8146026E-01
        1   -1    0    0  501    0  0.00000000000E+00  0.00000000000E+00  0.17594744926E+04  0.17594744926E+04  0.50400001928E-02 0.  1.
       -1   -1    0    0    0  501  0.00000000000E+00  0.00000000000E+00 -0.16109114697E+04  0.16109114697E+04  0.50400001928E-02 0. -1.
    10030    2    1    2    0    0  0.00000000000E+00  0.00000000000E+00  0.14856302292E+03  0.33703859624E+04  0.33671101205E+04 0.  0.
        5    1    3    3  502    0 -0.15044657398E+04 -0.72923560744E+03  0.27229666397E+03  0.16939212782E+04  0.46999998093E+01 0.  1.
       -5    1    3    3    0  502  0.15044657398E+04  0.72923560744E+03 -0.12373364105E+03  0.16764646842E+04  0.46999998093E+01 0. -1.
</event>
<event>
 5   0  0.2553250E-07  0.3410063E+04  0.7818609E-02  0.8135441E-01
       -3   -1    0    0    0  501  0.00000000000E+00  0.00000000000E+00  0.17669808219E+04  0.17669808248E+04  0.10100000352E+00 0.  1.
        3   -1    0    0  501    0  0.00000000000E+00  0.00000000000E+00 -0.16452540101E+04  0.16452540132E+04  0.10100000352E+00 0. -1.
    10030    2    1    2    0    0  0.00000000000E+00  0.00000000000E+00  0.12172681176E+03  0.34122348380E+04  0.34100629280E+04 0.  0.
        5    1    3    3  502    0 -0.12102682045E+04  0.27900722898E+03  0.12297324102E+04  0.17478152224E+04  0.46999998093E+01 0.  1.
       -5    1    3    3    0  502  0.12102682045E+04 -0.27900722898E+03 -0.11080055985E+04  0.16644196157E+04  0.46999998093E+01 0. -1.
</event>
<event>
 5   0  0.2553250E-07  0.3386100E+04  0.7818609E-02  0.8141326E-01
        3   -1    0    0  501    0  0.00000000000E+00  0.00000000000E+00  0.15833379924E+04  0.15833379956E+04  0.10100000352E+00 0.  1.
       -3   -1    0    0    0  501  0.00000000000E+00  0.00000000000E+00 -0.18103637191E+04  0.18103637219E+04  0.10100000352E+00 0. -1.
    10030    2    1    2    0    0  0.00000000000E+00  0.00000000000E+00 -0.22702572668E+03  0.33937017175E+04  0.33860996245E+04 0.  0.
        4    1    3    3  502    0  0.64643995119E+03  0.13450318517E+04  0.68792028823E+03  0.16432380316E+04  0.12699999809E+01 0.  1.
       -4    1    3    3    0  502 -0.64643995119E+03 -0.13450318517E+04 -0.91494601491E+03  0.17504636859E+04  0.12699999809E+01 0. -1.
</event>
<event>
 5   0  0.2622205E-07  0.3406207E+04  0.7818609E-02  0.8136385E-01
       -1   -1    0    0    0  501  0.00000000000E+00  0.00000000000E+00  0.14026974572E+04  0.14026974573E+04  0.50400001928E-02 0.  1.
        1   -1    0    0  501    0  0.00000000000E+00  0.00000000000E+00 -0.20678448802E+04  0.20678448802E+04  0.50400001928E-02 0. -1.
    10030    2    1    2    0    0  0.00000000000E+00  0.00000000000E+00 -0.66514742291E+03  0.34705423374E+04  0.34062065442E+04 0.  0.
        3    1    3    3  502    0 -0.30172220307E+03 -0.12112850418E+04 -0.15130391235E+04  0.19615134820E+04  0.10100000352E+00 0. -1.
       -3    1    3    3    0  502  0.30172220307E+03  0.12112850418E+04  0.84789170061E+03  0.15090288555E+04  0.10100000352E+00 0.  1.
</event>
<event>
 5   0  0.7822003E-07  0.3420285E+04  0.7818609E-02  0.8132946E-01
       -2   -1    0    0    0  501  0.00000000000E+00  0.00000000000E+00  0.10520582539E+04  0.10520582539E+04  0.25500000920E-02 0.  1.
        2   -1    0    0  501    0  0.00000000000E+00  0.00000000000E+00 -0.27798726416E+04  0.27798726416E+04  0.25500000920E-02 0. -1.
    10030    2    1    2    0    0  0.00000000000E+00  0.00000000000E+00 -0.17278143877E+04  0.38319308955E+04  0.34202853433E+04 0.  0.
        5    1    3    3  502    0 -0.63791915196E+03 -0.92735920512E+03  0.57853732803E+03  0.12655684374E+04  0.46999998093E+01 0.  1.
       -5    1    3    3    0  502  0.63791915196E+03  0.92735920512E+03 -0.23063517157E+04  0.25663624581E+04  0.46999998093E+01 0. -1.
</event>
<event>
 5   0  0.2553250E-07  0.3403886E+04  0.7818609E-02  0.8136953E-01
        3   -1    0    0  501    0  0.00000000000E+00  0.00000000000E+00  0.19639887527E+04  0.19639887553E+04  0.10100000352E+00 0.  1.
       -3   -1    0    0    0  501  0.00000000000E+00  0.00000000000E+00 -0.14748610531E+04  0.14748610565E+04  0.10100000352E+00 0. -1.
    10030    2    1    2    0    0  0.00000000000E+00  0.00000000000E+00  0.48912769970E+03  0.34388498119E+04  0.34038863262E+04 0.  0.
        4    1    3    3  502    0  0.58887882773E+03 -0.91819308295E+03 -0.10752825264E+04  0.15316954448E+04  0.12699999809E+01 0. -1.
       -4    1    3    3    0  502 -0.58887882773E+03  0.91819308295E+03  0.15644102261E+04  0.19071543670E+04  0.12699999809E+01 0.  1.
</event>
<event>
 5   0  0.7822003E-07  0.3388081E+04  0.7818609E-02  0.8140838E-01
        2   -1    0    0  501    0  0.00000000000E+00  0.00000000000E+00  0.24348090402E+04  0.24348090402E+04  0.25500000920E-02 0. -1.
       -2   -1    0    0    0  501  0.00000000000E+00  0.00000000000E+00 -0.11786443835E+04  0.11786443835E+04  0.25500000920E-02 0.  1.
    10030    2    1    2    0    0  0.00000000000E+00  0.00000000000E+00  0.12561646567E+04  0.36134534238E+04  0.33880814632E+04 0.  0.
        5    1    3    3  502    0 -0.15701406830E+04  0.13949422521E+03 -0.33633661653E+02  0.15766907485E+04  0.46999998093E+01 0. -1.
       -5    1    3    3    0  502  0.15701406830E+04 -0.13949422521E+03  0.12897983183E+04  0.20367626752E+04  0.46999998093E+01 0.  1.
</event>
<event>
 5   0  0.2641442E-07  0.3356651E+04  0.7818609E-02  0.8148628E-01
       -1   -1    0    0    0  501  0.00000000000E+00  0.00000000000E+00  0.13518242528E+04  0.13518242528E+04  0.50400001928E-02 0.  1.
        1   -1    0    0  501    0  0.00000000000E+00  0.00000000000E+00 -0.20836856198E+04  0.20836856198E+04  0.50400001928E-02 0. -1.
    10030    2    1    2    0    0  0.00000000000E+00  0.00000000000E+00 -0.73186136702E+03  0.34355098726E+04  0.33566511621E+04 0.  0.
        1    1    3    3  502    0 -0.47725475630E+03  0.31896493631E+03  0.12482275650E+04  0.13738932953E+04  0.50400001928E-02 0.  1.
       -1    1    3    3    0  502  0.47725475630E+03 -0.31896493631E+03 -0.19800889320E+04  0.20616165773E+04  0.50400001928E-02 0. -1.
</event>
<event>
 5   0  0.2553250E-07  0.3355794E+04  0.7818609E-02  0.8148842E-01
        1   -1    0    0  501    0  0.00000000000E+00  0.00000000000E+00  0.18105904114E+04  0.18105904114E+04  0.50400001928E-02 0.  1.
       -1   -1    0    0    0  501  0.00000000000E+00  0.00000000000E+00 -0.15549279828E+04  0.15549279828E+04  0.50400001928E-02 0. -1.
    10030    2    1    2    0    0  0.00000000000E+00  0.00000000000E+00  0.25566242860E+03  0.33655183941E+04  0.33557936146E+04 0.  0.
        5    1    3    3  502    0 -0.11324531037E+04  0.57340248250E+03  0.12283146879E+04  0.17663576935E+04  0.46999998093E+01 0.  1.
       -5    1    3    3    0  502  0.11324531037E+04 -0.57340248250E+03 -0.97265225926E+03  0.15991607006E+04  0.46999998093E+01 0. -1.
</event>
<event>
 5   0  0.8489228E-07  0.3361864E+04  0.7818609E-02  0.8147330E-01
       -2   -1    0    0    0  501  0.00000000000E+00  0.00000000000E+00  0.14668910332E+04  0.14668910332E+04  0.25500000920E-02 0. -1.
        2   -1    0    0  501    0  0.00000000000E+00  0.00000000000E+00 -0.19262045922E+04  0.19262045922E+04  0.25500000920E-02 0.  1.
    10030    2    1    2    0    0  0.00000000000E+00  0.00000000000E+00 -0.45931355899E+03  0.33930956254E+04  0.33618639142E+04 0.  0.
        3    1    3    3  502    0  0.13446802228E+04 -0.46250069793E+03  0.67502994615E+03  0.15740829824E+04  0.10100000352E+00 0. -1.
       -3    1    3    3    0  502 -0.13446802228E+04  0.46250069793E+03 -0.11343435051E+04  0.18190126429E+04  0.10100000352E+00 0.  1.
</event>
<event>
 5   0  0.7822003E-07  0.3410782E+04  0.7818609E-02  0.8135265E-01
       -2   -1    0    0    0  501  0.00000000000E+00  0.00000000000E+00  0.20853955865E+04  0.20853955865E+04  0.25500000920E-02 0. -1.
        2   -1    0    0  501    0  0.00000000000E+00  0.00000000000E+00 -0.13946318814E+04  0.13946318814E+04  0.25500000920E-02 0.  1.
    10030    2    1    2    0    0  0.00000000000E+00  0.00000000000E+00  0.69076370512E+03  0.34800274680E+04  0.34107824149E+04 0.  0.
        5    1    3    3  502    0  0.42017690743E+03 -0.16411467510E+04  0.14537722162E+03  0.17003140646E+04  0.46999998093E+01 0.  1.
       -5    1    3    3    0  502 -0.42017690743E+03  0.16411467510E+04  0.54538648351E+03  0.17797134034E+04  0.46999998093E+01 0. -1.
</event>
<event>
 5   0  0.2553250E-07  0.3395093E+04  0.7818609E-02  0.8139112E-01
       -3   -1    0    0    0  501  0.00000000000E+00  0.00000000000E+00  0.13130849376E+04  0.13130849415E+04  0.10100000352E+00 0. -1.
        3   -1    0    0  501    0  0.00000000000E+00  0.00000000000E+00 -0.21945749255E+04  0.21945749278E+04  0.10100000352E+00 0.  1.
    10030    2    1    2    0    0  0.00000000000E+00  0.00000000000E+00 -0.88148998785E+03  0.35076598694E+04  0.33950925113E+04 0.  0.
        3    1    3    3  502    0 -0.16559049426E+04 -0.14271046158E+03 -0.83930837900E+02  0.16641610050E+04  0.10100000352E+00 0. -1.
       -3    1    3    3    0  502  0.16559049426E+04  0.14271046158E+03 -0.79755914995E+03  0.18434988643E+04  0.10100000352E+00 0.  1.
</event>
<event>
 5   0  0.7610412E-07  0.3407583E+04  0.7818609E-02  0.8136048E-01
       -2   -1    0    0    0  501  0.00000000000E+00  0.00000000000E+00  0.15028528413E+04  0.15028528413E+04  0.25500000920E-02 0. -1.
        2   -1    0    0  501    0  0.00000000000E+00  0.00000000000E+00 -0.19315970181E+04  0.19315970181E+04  0.25500000920E-02 0.  1.
    10030    2    1    2    0    0  0.00000000000E+00  0.00000000000E+00 -0.42874417685E+03  0.34344498594E+04  0.34075833471E+04 0.  0.
        4    1    3    3  502    0  0.99796215982E+03 -0.74904893438E+03  0.95490478499E+03  0.15712566753E+04  0.12699999809E+01 0. -1.
       -4    1    3    3    0  502 -0.99796215982E+03  0.74904893438E+03 -0.13836489618E+04  0.18631931840E+04  0.12699999809E+01 0.  1.
</event>
<event>
 5   0  0.2641442E-07  0.3336992E+04  0.7818609E-02  0.8153546E-01
        1   -1    0    0  501    0  0.00000000000E+00  0.00000000000E+00  0.22550360089E+04  0.22550360089E+04  0.50400001928E-02 0. -1.
       -1   -1    0    0    0  501  0.00000000000E+00  0.00000000000E+00 -0.12345165306E+04  0.12345165306E+04  0.50400001928E-02 0.  1.
    10030    2    1    2    0    0  0.00000000000E+00  0.00000000000E+00  0.10205194783E+04  0.34895525396E+04  0.33369921967E+04 0.  0.
        1    1    3    3  502    0  0.15348875244E+03  0.13602471943E+04  0.15078373674E+04  0.20365178009E+04  0.50400001928E-02 0. -1.
       -1    1    3    3    0  502 -0.15348875244E+03 -0.13602471943E+04 -0.48731788907E+03  0.14530347387E+04  0.50400001928E-02 0.  1.
</event>
<event>
 5   0  0.2592200E-07  0.3130128E+04  0.7818609E-02  0.8207518E-01
       -1   -1    0    0    0  501  0.00000000000E+00  0.00000000000E+00  0.15447868660E+04  0.15447868660E+04  0.50400001928E-02 0. -1.
        1   -1    0    0  501    0  0.00000000000E+00  0.00000000000E+00 -0.15856075243E+04  0.15856075243E+04  0.50400001928E-02 0.  1.
    10030    2    1    2    0    0  0.00000000000E+00  0.00000000000E+00 -0.40820658333E+02  0.31303943903E+04  0.31301282262E+04 0.  0.
        4    1    3    3  502    0 -0.12034678301E+04  0.72139077402E+03 -0.71378349706E+03  0.15742388511E+04  0.12699999809E+01 0.  1.
       -4    1    3    3    0  502  0.12034678301E+04 -0.72139077402E+03  0.67296283873E+03  0.15561555392E+04  0.12699999809E+01 0. -1.
</event>
<event>
 5   0  0.2592200E-07  0.3415015E+04  0.7818609E-02  0.8134231E-01
       -1   -1    0    0    0  501  0.00000000000E+00  0.00000000000E+00  0.97684867149E+03  0.97684867151E+03  0.50400001928E-02 0. -1.
        1   -1    0    0  501    0  0.00000000000E+00  0.00000000000E+00 -0.29846808231E+04  0.29846808231E+04  0.50400001928E-02 0.  1.
    10030    2    1    2    0    0  0.00000000000E+00  0.00000000000E+00 -0.20078321516E+04  0.39615294946E+04  0.34150147858E+04 0.  0.
        4    1    3    3  502    0 -0.24439152980E+03 -0.10053535416E+04 -0.25796476997E+04  0.27793968466E+04  0.12699999809E+01 0.  1.
       -4    1    3    3    0  502  0.24439152980E+03  0.10053535416E+04  0.57181554816E+03  0.11821326480E+04  0.12699999809E+01 0. -1.
</event>
<event>
 5   0  0.2592200E-07  0.3404489E+04  0.7818609E-02  0.8136805E-01
        1   -1    0    0  501    0  0.00000000000E+00  0.00000000000E+00  0.16766166199E+04  0.16766166199E+04  0.50400001928E-02 0.  1.
       -1   -1    0    0    0  501  0.00000000000E+00  0.00000000000E+00 -0.17282642569E+04  0.17282642569E+04  0.50400001928E-02 0. -1.
    10030    2    1    2    0    0  0.00000000000E+00  0.00000000000E+00 -0.51647637025E+02  0.34048808768E+04  0.34044891403E+04 0.  0.
        4    1    3    3  502    0  0.25913703499E+03 -0.43520947425E+03 -0.16511494777E+04  0.17270945255E+04  0.12699999809E+01 0. -1.
       -4    1    3    3    0  502 -0.25913703499E+03  0.43520947425E+03  0.15995018407E+04  0.16777863513E+04  0.12699999809E+01 0.  1.
</event>
<event>
 5   0  0.2641442E-07  0.3415303E+04  0.7818609E-02  0.8134161E-01
       -1   -1    0    0    0  501  0.00000000000E+00  0.00000000000E+00  0.12200156695E+04  0.12200156695E+04  0.50400001928E-02 0.  1.
        1   -1    0    0  501    0  0.00000000000E+00  0.00000000000E+00 -0.23901942382E+04  0.23901942382E+04  0.50400001928E-02 0. -1.
    10030    2    1    2    0    0  0.00000000000E+00  0.00000000000E+00 -0.11701785687E+04  0.36102099077E+04  0.34153034558E+04 0.  0.
        1    1    3    3  502    0 -0.61437708866E+03  0.46559018537E+03  0.10256282770E+04  0.12830225214E+04  0.50400001928E-02 0.  1.
       -1    1    3    3    0  502  0.61437708866E+03 -0.46559018537E+03 -0.21958068456E+04  0.23271873863E+04  0.50400001928E-02 0. -1.
</event>
<event>
 5   0  0.2553250E-07  0.3361904E+04  0.7818609E-02  0.8147320E-01
       -1   -1    0    0    0  501  0.00000000000E+00  0.00000000000E+00  0.18930864138E+04  0.18930864138E+04  0.50400001928E-02 0.  1.
        1   -1    0    0  501    0  0.00000000000E+00  0.00000000000E+00 -0.14925888930E+04  0.14925888930E+04  0.50400001928E-02 0. -1.
    10030    2    1    2    0    0  0.00000000000E+00  0.00000000000E+00  0.40049752078E+03  0.33856753067E+04  0.33619040763E+04 0.  0.
        5    1    3    3  502    0 -0.24804012261E+03 -0.16530926068E+04  0.21969939355E+02  0.16717487363E+04  0.46999998093E+01 0. -1.
       -5    1    3    3    0  502  0.24804012261E+03  0.16530926068E+04  0.37852758142E+03  0.17139265705E+04  0.46999998093E+01 0.  1.
</event>
<event>
 5   0  0.7610412E-07  0.3396601E+04  0.7818609E-02  0.8138741E-01
        2   -1    0    0  501    0  0.00000000000E+00  0.00000000000E+00  0.17510888188E+04  0.17510888188E+04  0.25500000920E-02 0. -1.
       -2   -1    0    0    0  501  0.00000000000E+00  0.00000000000E+00 -0.16471036780E+04  0.16471036780E+04  0.25500000920E-02 0.  1.
    10030    2    1    2    0    0  0.00000000000E+00  0.00000000000E+00  0.10398514087E+03  0.33981924968E+04  0.33966011446E+04 0.  0.
        4    1    3    3  502    0 -0.12163458007E+04  0.54381711884E+03  0.11055714478E+04  0.17313359017E+04  0.12699999809E+01 0. -1.
       -4    1    3    3    0  502  0.12163458007E+04 -0.54381711884E+03 -0.10015863069E+04  0.16668565951E+04  0.12699999809E+01 0.  1.
</event>
<event>
 5   0  0.2553250E-07  0.3390380E+04  0.7818609E-02  0.8140272E-01
       -1   -1    0    0    0  501  0.00000000000E+00  0.00000000000E+00  0.17918792357E+04  0.17918792357E+04  0.50400001928E-02 0. -1.
        1   -1    0    0  501    0  0.00000000000E+00  0.00000000000E+00 -0.16037176203E+04  0.16037176203E+04  0.50400001928E-02 0.  1.
    10030    2    1    2    0    0  0.00000000000E+00  0.00000000000E+00  0.18816161539E+03  0.33955968561E+04  0.33903795091E+04 0.  0.
        5    1    3    3  502    0 -0.49656290690E+03 -0.13919748666E+04  0.92570640060E+03  0.17438816416E+04  0.46999998093E+01 0. -1.
       -5    1    3    3    0  502  0.49656290690E+03  0.13919748666E+04 -0.73754478521E+03  0.16517152145E+04  0.46999998093E+01 0.  1.
</event>
<event>
 5   0  0.7610412E-07  0.3416238E+04  0.7818609E-02  0.8133932E-01
        2   -1    0    0  501    0  0.00000000000E+00  0.00000000000E+00  0.12842274937E+04  0.12842274937E+04  0.25500000920E-02 0.  1.
       -2   -1    0    0    0  501  0.00000000000E+00  0.00000000000E+00 -0.22719268321E+04  0.22719268321E+04  0.25500000920E-02 0. -1.
    10030    2    1    2    0    0  0.00000000000E+00  0.00000000000E+00 -0.98769933832E+03  0.35561543258E+04  0.34162382244E+04 0.  0.
        4    1    3    3  502    0 -0.53115082294E+03 -0.66311387376E+03 -0.20363725665E+04  0.22065031269E+04  0.12699999809E+01 0. -1.
       -4    1    3    3    0  502  0.53115082294E+03  0.66311387376E+03  0.10486732282E+04  0.13496511989E+04  0.12699999809E+01 0.  1.
</event>
<event>
 5   0  0.2641442E-07  0.3400935E+04  0.7818609E-02  0.8137677E-01
        1   -1    0    0  501    0  0.00000000000E+00  0.00000000000E+00  0.23939042308E+04  0.23939042308E+04  0.50400001928E-02 0.  1.
       -1   -1    0    0    0  501  0.00000000000E+00  0.00000000000E+00 -0.12078972574E+04  0.12078972574E+04  0.50400001928E-02 0. -1.
    10030    2    1    2    0    0  0.00000000000E+00  0.00000000000E+00  0.11860069733E+04  0.36018014882E+04  0.34009353742E+04 0.  0.
        1    1    3    3  502    0 -0.81383616561E+03 -0.14722349100E+04  0.85625107165E+03  0.18875833313E+04  0.50400001928E-02 0. -1.
       -1    1    3    3    0  502  0.81383616561E+03  0.14722349100E+04  0.32975590169E+03  0.17142181569E+04  0.50400001928E-02 0.  1.
</event>
<event>
 5   0  0.7838333E-07  0.3375796E+04  0.7818609E-02  0.8143872E-01
       -2   -1    0    0    0  501  0.00000000000E+00  0.00000000000E+00  0.15751008813E+04  0.15751008813E+04  0.25500000920E-02 0.  1.
        2   -1    0    0  501    0  0.00000000000E+00  0.00000000000E+00 -0.18087730897E+04  0.18087730897E+04  0.25500000920E-02 0. -1.
    10030    2    1    2    0    0  0.00000000000E+00  0.00000000000E+00 -0.23367220838E+03  0.33838739710E+04  0.33757962543E+04 0.  0.
        1    1    3    3  502    0  0.12498402122E+04  0.10174220481E+03 -0.12493838944E+04  0.17701446686E+04  0.50400001928E-02 0. -1.
       -1    1    3    3    0  502 -0.12498402122E+04 -0.10174220481E+03  0.10157116860E+04  0.16137293024E+04  0.50400001928E-02 0.  1.
</event>
<event>
 5   0  0.2622205E-07  0.3318994E+04  0.7818609E-02  0.8158079E-01
        1   -1    0    0  501    0  0.00000000000E+00  0.00000000000E+00  0.21596016742E+04  0.21596016742E+04  0.50400001928E-02 0. -1.
       -1   -1    0    0    0  501  0.00000000000E+00  0.00000000000E+00 -0.12752031694E+04  0.12752031695E+04  0.50400001928E-02 0.  1.
    10030    2    1    2    0    0  0.00000000000E+00  0.00000000000E+00  0.88439850475E+03  0.34348048436E+04  0.33189943656E+04 0.  0.
        3    1    3    3  502    0  0.93546862145E+03  0.34255442847E+03 -0.93132118581E+03  0.13637463985E+04  0.10100000352E+00 0.  1.
       -3    1    3    3    0  502 -0.93546862145E+03 -0.34255442847E+03  0.18157196906E+04  0.20710584451E+04  0.10100000352E+00 0. -1.
</event>
<event>
 5   0  0.7899402E-07  0.3431854E+04  0.7818609E-02  0.8130132E-01
       -2   -1    0    0    0  501  0.00000000000E+00  0.00000000000E+00  0.11944822850E+04  0.11944822850E+04  0.25500000920E-02 0.  1.
        2   -1    0    0  501    0  0.00000000000E+00  0.00000000000E+00 -0.24650048811E+04  0.24650048811E+04  0.25500000920E-02 0. -1.
    10030    2    1    2    0    0  0.00000000000E+00  0.00000000000E+00 -0.12705225961E+04  0.36594871661E+04  0.34318535301E+04 0.  0.
        2    1    3    3  502    0  0.20183119805E+03  0.91978519131E+03  0.89434166933E+03  0.12986868954E+04  0.25500000920E-02 0.  1.
       -2    1    3    3    0  502 -0.20183119805E+03 -0.91978519131E+03 -0.21648642655E+04  0.23608002708E+04  0.25500000920E-02 0. -1.
</event>
<event>
 5   0  0.2641442E-07  0.3429942E+04  0.7818609E-02  0.8130596E-01
        1   -1    0    0  501    0  0.00000000000E+00  0.00000000000E+00  0.20621881017E+04  0.20621881017E+04  0.50400001928E-02 0.  1.
       -1   -1    0    0    0  501  0.00000000000E+00  0.00000000000E+00 -0.14262158498E+04  0.14262158498E+04  0.50400001928E-02 0. -1.
    10030    2    1    2    0    0  0.00000000000E+00  0.00000000000E+00  0.63597225194E+03  0.34884039515E+04  0.34299418980E+04 0.  0.
        1    1    3    3  502    0  0.12425578656E+04  0.71739425209E+03  0.12734240592E+04  0.19183882289E+04  0.50400001928E-02 0.  1.
       -1    1    3    3    0  502 -0.12425578656E+04 -0.71739425209E+03 -0.63745180725E+03  0.15700157225E+04  0.50400001928E-02 0. -1.
</event>
<event>
 5   0  0.2622205E-07  0.3406673E+04  0.7818609E-02  0.8136270E-01
        1   -1    0    0  501    0  0.00000000000E+00  0.00000000000E+00  0.18478623985E+04  0.18478623985E+04  0.50400001928E-02 0. -1.
       -1   -1    0    0    0  501  0.00000000000E+00  0.00000000000E+00 -0.15701143393E+04  0.15701143393E+04  0.50400001928E-02 0.  1.
    10030    2    1    2    0    0  0.00000000000E+00  0.00000000000E+00  0.27774805926E+03  0.34179767378E+04  0.34066730098E+04 0.  0.
        3    1    3    3  502    0 -0.13160449013E+03 -0.11123143417E+04 -0.11486580752E+04  0.16043622784E+04  0.10100000352E+00 0.  1.
       -3    1    3    3    0  502  0.13160449013E+03  0.11123143417E+04  0.14264061345E+04  0.18136144594E+04  0.10100000352E+00 0. -1.
</event>
<event>
 5   0  0.2641442E-07  0.3392367E+04  0.7818609E-02  0.8139782E-01
        1   -1    0    0  501    0  0.00000000000E+00  0.00000000000E+00  0.17448314224E+04  0.17448314224E+04  0.50400001928E-02 0.  1.
       -1   -1    0    0    0  501  0.00000000000E+00  0.00000000000E+00 -0.16488922609E+04  0.16488922609E+04  0.50400001928E-02 0. -1.
    10030    2    1    2    0    0  0.00000000000E+00  0.00000000000E+00  0.95939161516E+02  0.33937236834E+04  0.33923673322E+04 0.  0.
        1    1    3    3  502    0 -0.47923033737E+03 -0.72104410707E+03  0.15071386181E+04  0.17381119454E+04  0.50400001928E-02 0.  1.
       -1    1    3    3    0  502  0.47923033737E+03  0.72104410707E+03 -0.14111994566E+04  0.16556117380E+04  0.50400001928E-02 0. -1.
</event>
<event>
 5   0  0.7822003E-07  0.3381842E+04  0.7818609E-02  0.8142377E-01
        2   -1    0    0  501    0  0.00000000000E+00  0.00000000000E+00  0.17250090568E+04  0.17250090568E+04  0.25500000920E-02 0. -1.
       -2   -1    0    0    0  501  0.00000000000E+00  0.00000000000E+00 -0.16575064847E+04  0.16575064847E+04  0.25500000920E-02 0.  1.
    10030    2    1    2    0    0  0.00000000000E+00  0.00000000000E+00  0.67502572111E+02  0.33825155415E+04  0.33818419229E+04 0.  0.
        5    1    3    3  502    0  0.83388781041E+03 -0.18076885781E+03  0.14938863567E+04  0.17203966976E+04  0.46999998093E+01 0. -1.
       -5    1    3    3    0  502 -0.83388781041E+03  0.18076885781E+03 -0.14263837846E+04  0.16621188439E+04  0.46999998093E+01 0.  1.
</event>
<event>
 5   0  0.8489228E-07  0.3476098E+04  0.7818609E-02  0.8119478E-01
       -2   -1    0    0    0  501  0.00000000000E+00  0.00000000000E+00  0.14188573289E+04  0.14188573289E+04  0.25500000920E-02 0. -1.
        2   -1    0    0  501    0  0.00000000000E+00  0.00000000000E+00 -0.21290470078E+04  0.21290470078E+04  0.25500000920E-02 0.  1.
    10030    2    1    2    0    0  0.00000000000E+00  0.00000000000E+00 -0.71018967884E+03  0.35479043367E+04  0.34760977838E+04 0.  0.
        3    1    3    3  502    0 -0.31370649792E+03 -0.49342714462E+03  0.13154600407E+04  0.14395545293E+04  0.10100000352E+00 0. -1.
       -3    1    3    3    0  502  0.31370649792E+03  0.49342714462E+03 -0.20256497196E+04  0.21083498074E+04  0.10100000352E+00 0.  1.
</event>
<event>
 5   0  0.7838333E-07  0.3353152E+04  0.7818609E-02  0.8149501E-01
        2   -1    0    0  501    0  0.00000000000E+00  0.00000000000E+00  0.10859183590E+04  0.10859183590E+04  0.25500000920E-02 0.  1.
       -2   -1    0    0    0  501  0.00000000000E+00  0.00000000000E+00 -0.25885071861E+04  0.25885071861E+04  0.25500000920E-02 0. -1.
    10030    2    1    2    0    0  0.00000000000E+00  0.00000000000E+00 -0.15025888271E+04  0.36744255452E+04  0.33531522339E+04 0.  0.
        1    1    3    3  502    0  0.15313098961E+04  0.66600790916E+03 -0.58717500408E+03  0.17700991550E+04  0.50400001928E-02 0. -1.
       -1    1    3    3    0  502 -0.15313098961E+04 -0.66600790916E+03 -0.91541382300E+03  0.19043263902E+04  0.50400001928E-02 0.  1.
</event>
<event>
 5   0  0.2599367E-07  0.3407823E+04  0.7818609E-02  0.8135989E-01
        1   -1    0    0  501    0  0.00000000000E+00  0.00000000000E+00  0.19024542537E+04  0.19024542537E+04  0.50400001928E-02 0. -1.
       -1   -1    0    0    0  501  0.00000000000E+00  0.00000000000E+00 -0.15260888148E+04  0.15260888148E+04  0.50400001928E-02 0.  1.
    10030    2    1    2    0    0  0.00000000000E+00  0.00000000000E+00  0.37636543891E+03  0.34285430684E+04  0.34078228576E+04 0.  0.
        2    1    3    3  502    0 -0.10552493430E+04 -0.76616533544E+02  0.15319281016E+04  0.18617800562E+04  0.25500000920E-02 0. -1.
       -2    1    3    3    0  502  0.10552493430E+04  0.76616533544E+02 -0.11555626627E+04  0.15667630122E+04  0.25500000920E-02 0.  1.
</event>
<event>
 5   0  0.2641442E-07  0.3388327E+04  0.7818609E-02  0.8140777E-01
        1   -1    0    0  501    0  0.00000000000E+00  0.00000000000E+00  0.26344518402E+04  0.26344518402E+04  0.50400001928E-02 0.  1.
       -1   -1    0    0    0  501  0.00000000000E+00  0.00000000000E+00 -0.10894829229E+04  0.10894829230E+04  0.50400001928E-02 0. -1.
    10030    2    1    2    0    0  0.00000000000E+00  0.00000000000E+00  0.15449689173E+04  0.37239347632E+04  0.33883271927E+04 0.  0.
        1    1    3    3  502    0 -0.10651857464E+04 -0.20147590546E+03 -0.65838046546E+03  0.12683367266E+04  0.50400001928E-02 0. -1.
       -1    1    3    3    0  502  0.10651857464E+04  0.20147590546E+03  0.22033493827E+04  0.24555980366E+04  0.50400001928E-02 0.  1.
</event>
<event>
 5   0  0.7822003E-07  0.3391149E+04  0.7818609E-02  0.8140082E-01
        2   -1    0    0  501    0  0.00000000000E+00  0.00000000000E+00  0.22880732415E+04  0.22880732415E+04  0.25500000920E-02 0.  1.
       -2   -1    0    0    0  501  0.00000000000E+00  0.00000000000E+00 -0.12565036341E+04  0.12565036341E+04  0.25500000920E-02 0. -1.
    10030    2    1    2    0    0  0.00000000000E+00  0.00000000000E+00  0.10315696074E+04  0.35445768756E+04  0.33911486804E+04 0.  0.
        5    1    3    3  502    0 -0.16601924545E+04  0.16979152706E+03  0.82915247115E+03  0.18634870697E+04  0.46999998093E+01 0. -1.
       -5    1    3    3    0  502  0.16601924545E+04 -0.16979152706E+03  0.20241713626E+03  0.16810898059E+04  0.46999998093E+01 0.  1.
</event>
<event>
 5   0  0.2553250E-07  0.3388738E+04  0.7818609E-02  0.8140676E-01
        1   -1    0    0  501    0  0.00000000000E+00  0.00000000000E+00  0.21566983442E+04  0.21566983442E+04  0.50400001928E-02 0. -1.
       -1   -1    0    0    0  501  0.00000000000E+00  0.00000000000E+00 -0.13311489093E+04  0.13311489093E+04  0.50400001928E-02 0.  1.
    10030    2    1    2    0    0  0.00000000000E+00  0.00000000000E+00  0.82554943493E+03  0.34878472535E+04  0.33887382009E+04 0.  0.
        5    1    3    3  502    0 -0.15310011788E+04 -0.19923059460E+03  0.11311911403E+04  0.19139678485E+04  0.46999998093E+01 0. -1.
       -5    1    3    3    0  502  0.15310011788E+04  0.19923059460E+03 -0.30564170540E+03  0.15738794050E+04  0.46999998093E+01 0.  1.
</event>
<event>
 5   0  0.2592200E-07  0.3447654E+04  0.7818609E-02  0.8126308E-01
        1   -1    0    0  501    0  0.00000000000E+00  0.00000000000E+00  0.16274400415E+04  0.16274400415E+04  0.50400001928E-02 0. -1.
       -1   -1    0    0    0  501  0.00000000000E+00  0.00000000000E+00 -0.18259226908E+04  0.18259226908E+04  0.50400001928E-02 0.  1.
    10030    2    1    2    0    0  0.00000000000E+00  0.00000000000E+00 -0.19848264930E+03  0.34533627324E+04  0.34476541009E+04 0.  0.
        4    1    3    3  502    0 -0.12245223291E+04 -0.98302349724E+03 -0.81160661866E+03  0.17676246906E+04  0.12699999809E+01 0.  1.
       -4    1    3    3    0  502  0.12245223291E+04  0.98302349724E+03  0.61312396936E+03  0.16857380417E+04  0.12699999809E+01 0. -1.
</event>
<event>
 5   0  0.7822003E-07  0.3427776E+04  0.7818609E-02  0.8131123E-01
        2   -1    0    0  501    0  0.00000000000E+00  0.00000000000E+00  0.17643140579E+04  0.17643140579E+04  0.25500000920E-02 0. -1.
       -2   -1    0    0    0  501  0.00000000000E+00  0.00000000000E+00 -0.16649029915E+04  0.16649029915E+04  0.25500000920E-02 0.  1.
    10030    2    1    2    0    0  0.00000000000E+00  0.00000000000E+00  0.99411066400E+02  0.34292170494E+04  0.34277758112E+04 0.  0.
        5    1    3    3  502    0  0.79860475319E+02  0.11050305282E+04 -0.12584831774E+04  0.16766848725E+04  0.46999998093E+01 0.  1.
       -5    1    3    3    0  502 -0.79860475319E+02 -0.11050305282E+04  0.13578942438E+04  0.17525321769E+04  0.46999998093E+01 0. -1.
</event>
<event>
 5   0  0.2553250E-07  0.3396052E+04  0.7818609E-02  0.8138876E-01
       -1   -1    0    0    0  501  0.00000000000E+00  0.00000000000E+00  0.16433888630E+04  0.16433888630E+04  0.50400001928E-02 0.  1.
        1   -1    0    0  501    0  0.00000000000E+00  0.00000000000E+00 -0.17544791319E+04  0.17544791319E+04  0.50400001928E-02 0. -1.
    10030    2    1    2    0    0  0.00000000000E+00  0.00000000000E+00 -0.11109026893E+03  0.33978679949E+04  0.33960515106E+04 0.  0.
        5    1    3    3  502    0  0.44908111036E+03 -0.15707541175E+04  0.40765716966E+03  0.16837900105E+04  0.46999998093E+01 0.  1.
       -5    1    3    3    0  502 -0.44908111036E+03  0.15707541175E+04 -0.51874743860E+03  0.17140779844E+04  0.46999998093E+01 0. -1.
</event>
<event>
 5   0  0.7822003E-07  0.3297987E+04  0.7818609E-02  0.8163408E-01
        2   -1    0    0  501    0  0.00000000000E+00  0.00000000000E+00  0.22999855150E+04  0.22999855150E+04  0.25500000920E-02 0. -1.
       -2   -1    0    0    0  501  0.00000000000E+00  0.00000000000E+00 -0.11822593745E+04  0.11822593745E+04  0.25500000920E-02 0.  1.
    10030    2    1    2    0    0  0.00000000000E+00  0.00000000000E+00  0.11177261405E+04  0.34822448895E+04  0.32979869231E+04 0.  0.
        5    1    3    3  502    0  0.10805845326E+04  0.12453123026E+04  0.58663230855E+03  0.17500357764E+04  0.46999998093E+01 0.  1.
       -5    1    3    3    0  502 -0.10805845326E+04 -0.12453123026E+04  0.53109383197E+03  0.17322091131E+04  0.46999998093E+01 0. -1.
</event>
<event>
 5   0  0.7610412E-07  0.3414332E+04  0.7818609E-02  0.8134398E-01
        2   -1    0    0  501    0  0.00000000000E+00  0.00000000000E+00  0.17228366866E+04  0.17228366866E+04  0.25500000920E-02 0. -1.
       -2   -1    0    0    0  501  0.00000000000E+00  0.00000000000E+00 -0.16916374259E+04  0.16916374259E+04  0.25500000920E-02 0.  1.
    10030    2    1    2    0    0  0.00000000000E+00  0.00000000000E+00  0.31199260714E+02  0.34144741126E+04  0.34143315702E+04 0.  0.
        4    1    3    3  502    0  0.40518288910E+03 -0.11653493814E+04  0.11955645861E+04  0.17180188145E+04  0.12699999809E+01 0. -1.
       -4    1    3    3    0  502 -0.40518288910E+03  0.11653493814E+04 -0.11643653254E+04  0.16964552981E+04  0.12699999809E+01 0.  1.
</event>
<event>
 5   0  0.7838333E-07  0.3433776E+04  0.7818609E-02  0.8129666E-01
       -2   -1    0    0    0  501  0.00000000000E+00  0.00000000000E+00  0.26013673260E+04  0.26013673260E+04  0.25500000920E-02 0.  1.
        2   -1    0    0  501    0  0.00000000000E+00  0.00000000000E+00 -0.11331366364E+04  0.11331366364E+04  0.25500000920E-02 0. -1.
    10030    2    1    2    0    0  0.00000000000E+00  0.00000000000E+00  0.14682306895E+04  0.37345039624E+04  0.34337761266E+04 0.  0.
        1    1    3    3  502    0  0.12801028315E+04 -0.11440417311E+04  0.74987136673E+03  0.18734465054E+04  0.50400001928E-02 0. -1.
       -1    1    3    3    0  502 -0.12801028315E+04  0.11440417311E+04  0.71835932281E+03  0.18610574571E+04  0.50400001928E-02 0.  1.
</event>
<event>
 5   0  0.7838333E-07  0.3120678E+04  0.7818609E-02  0.8210086E-01
        2   -1    0    0  501    0  0.00000000000E+00  0.00000000000E+00  0.11690312175E+04  0.11690312175E+04  0.25500000920E-02 0.  1.
       -2   -1    0    0    0  501  0.00000000000E+00  0.00000000000E+00 -0.20826287413E+04  0.20826287413E+04  0.25500000920E-02 0. -1.
    10030    2    1    2    0    0  0.00000000000E+00  0.00000000000E+00 -0.91359752377E+03  0.32516599588E+04  0.31206781398E+04 0.  0.
        1    1    3    3  502    0  0.14466005194E+04  0.58418102481E+03 -0.42850234273E+03  0.16178797205E+04  0.50400001928E-02 0. -1.
       -1    1    3    3    0  502 -0.14466005194E+04 -0.58418102481E+03 -0.48509518104E+03  0.16337802383E+04  0.50400001928E-02 0.  1.
</event>
<event>
 5   0  0.2599367E-07  0.3411026E+04  0.7818609E-02  0.8135205E-01
       -1   -1    0    0    0  501  0.00000000000E+00  0.00000000000E+00  0.21621927045E+04  0.21621927045E+04  0.50400001928E-02 0.  1.
        1   -1    0    0  501    0  0.00000000000E+00  0.00000000000E+00 -0.13452894368E+04  0.13452894368E+04  0.50400001928E-02 0. -1.
    10030    2    1    2    0    0  0.00000000000E+00  0.00000000000E+00  0.81690326769E+03  0.35074821414E+04  0.34110262420E+04 0.  0.
        2    1    3    3  502    0  0.46589860991E+03 -0.50785083041E+03  0.20126310622E+04  0.21273593428E+04  0.25500000920E-02 0.  1.
       -2    1    3    3    0  502 -0.46589860991E+03  0.50785083041E+03 -0.11957277945E+04  0.13801227986E+04  0.25500000920E-02 0. -1.
</event>
<event>
 5   0  0.7838333E-07  0.3290988E+04  0.7818609E-02  0.8165192E-01
        2   -1    0    0  501    0  0.00000000000E+00  0.00000000000E+00  0.14692736308E+04  0.14692736308E+04  0.25500000920E-02 0. -1.
       -2   -1    0    0    0  501  0.00000000000E+00  0.00000000000E+00 -0.18428499747E+04  0.18428499747E+04  0.25500000920E-02 0.  1.
    10030    2    1    2    0    0  0.00000000000E+00  0.00000000000E+00 -0.37357634386E+03  0.33121236055E+04  0.32909882244E+04 0.  0.
        1    1    3    3  502    0  0.21175449565E+03  0.40391683762E+03  0.14043975015E+04  0.14765910471E+04  0.50400001928E-02 0. -1.
       -1    1    3    3    0  502 -0.21175449565E+03 -0.40391683762E+03 -0.17779738453E+04  0.18355325584E+04  0.50400001928E-02 0.  1.
</event>
<event>
 5   0  0.2553250E-07  0.3427504E+04  0.7818609E-02  0.8131189E-01
       -1   -1    0    0    0  501  0.00000000000E+00  0.00000000000E+00  0.17836065801E+04  0.17836065801E+04  0.50400001928E-02 0. -1.
        1   -1    0    0  501    0  0.00000000000E+00  0.00000000000E+00 -0.16466332973E+04  0.16466332973E+04  0.50400001928E-02 0.  1.
    10030    2    1    2    0    0  0.00000000000E+00  0.00000000000E+00  0.13697328271E+03  0.34302398774E+04  0.34275040389E+04 0.  0.
        5    1    3    3  502    0 -0.74868341919E+03  0.15301530698E+04  0.25579536209E+03  0.17225993837E+04  0.46999998093E+01 0. -1.
       -5    1    3    3    0  502  0.74868341919E+03 -0.15301530698E+04 -0.11882207938E+03  0.17076404937E+04  0.46999998093E+01 0.  1.
</event>
<event>
 5   0  0.2622205E-07  0.3386858E+04  0.7818609E-02  0.8141139E-01
       -1   -1    0    0    0  501  0.00000000000E+00  0.00000000000E+00  0.10197248963E+04  0.10197248963E+04  0.50400001928E-02 0. -1.
        1   -1    0    0  501    0  0.00000000000E+00  0.00000000000E+00 -0.28122303430E+04  0.28122303430E+04  0.50400001928E-02 0.  1.
    10030    2    1    2    0    0  0.00000000000E+00  0.00000000000E+00 -0.17925054467E+04  0.38319552393E+04  0.33868577147E+04 0.  0.
        3    1    3    3  502    0 -0.12463168230E+04  0.10763861309E+04 -0.13428244825E+04  0.21248741909E+04  0.10100000352E+00 0.  1.
       -3    1    3    3    0  502  0.12463168230E+04 -0.10763861309E+04 -0.44968096412E+03  0.17070810484E+04  0.10100000352E+00 0. -1.
</event>
<event>
 5   0  0.7610412E-07  0.3395973E+04  0.7818609E-02  0.8138895E-01
        2   -1    0    0  501    0  0.00000000000E+00  0.00000000000E+00  0.22299741138E+04  0.22299741138E+04  0.25500000920E-02 0.  1.
       -2   -1    0    0    0  501  0.00000000000E+00  0.00000000000E+00 -0.12929113496E+04  0.12929113496E+04  0.25500000920E-02 0. -1.
    10030    2    1    2    0    0  0.00000000000E+00  0.00000000000E+00  0.93706276417E+03  0.35228854634E+04  0.33959734045E+04 0.  0.
        4    1    3    3  502    0  0.72668674371E+03 -0.19922497703E+03  0.20470387100E+04  0.21813145826E+04  0.12699999809E+01 0.  1.
       -4    1    3    3    0  502 -0.72668674371E+03  0.19922497703E+03 -0.11099759459E+04  0.13415708808E+04  0.12699999809E+01 0. -1.
</event>
<event>
 5   0  0.2592200E-07  0.3411090E+04  0.7818609E-02  0.8135190E-01
       -1   -1    0    0    0  501  0.00000000000E+00  0.00000000000E+00  0.12730156682E+04  0.12730156682E+04  0.50400001928E-02 0. -1.
        1   -1    0    0  501    0  0.00000000000E+00  0.00000000000E+00 -0.22850339889E+04  0.22850339889E+04  0.50400001928E-02 0.  1.
    10030    2    1    2    0    0  0.00000000000E+00  0.00000000000E+00 -0.10120183207E+04  0.35580496571E+04  0.34110901896E+04 0.  0.
        4    1    3    3  502    0  0.13921347616E+04 -0.65563907318E+03  0.26119275032E+03  0.15608091025E+04  0.12699999809E+01 0.  1.
       -4    1    3    3    0  502 -0.13921347616E+04  0.65563907318E+03 -0.12732110710E+04  0.19972405546E+04  0.12699999809E+01 0. -1.
</event>
<event>
 5   0  0.7838333E-07  0.3399599E+04  0.7818609E-02  0.8138005E-01
       -2   -1    0    0    0  501  0.00000000000E+00  0.00000000000E+00  0.12972314766E+04  0.12972314766E+04  0.25500000920E-02 0. -1.
        2   -1    0    0  501    0  0.00000000000E+00  0.00000000000E+00 -0.22272959452E+04  0.22272959452E+04  0.25500000920E-02 0.  1.
    10030    2    1    2    0    0  0.00000000000E+00  0.00000000000E+00 -0.93006446856E+03  0.35245274218E+04  0.33995990397E+04 0.  0.
        1    1    3    3  502    0  0.11162640754E+03 -0.99360152250E+03  0.96011502242E+03  0.13861909308E+04  0.50400001928E-02 0. -1.
       -1    1    3    3    0  502 -0.11162640754E+03  0.99360152250E+03 -0.18901794910E+04  0.21383364909E+04  0.50400001928E-02 0.  1.
</event>
<event>
 5   0  0.8489228E-07  0.3375270E+04  0.7818609E-02  0.8144003E-01
        2   -1    0    0  501    0  0.00000000000E+00  0.00000000000E+00  0.23917993471E+04  0.23917993471E+04  0.25500000920E-02 0. -1.
       -2   -1    0    0    0  501  0.00000000000E+00  0.00000000000E+00 -0.11907819835E+04  0.11907819835E+04  0.25500000920E-02 0.  1.
    10030    2    1    2    0    0  0.00000000000E+00  0.00000000000E+00  0.12010173636E+04  0.35825813306E+04  0.33752698088E+04 0.  0.
        3    1    3    3  502    0 -0.62431009057E+03 -0.15193969399E+03  0.22568906006E+04  0.23465728101E+04  0.10100000352E+00 0. -1.
       -3    1    3    3    0  502  0.62431009057E+03  0.15193969399E+03 -0.10558732370E+04  0.12360085205E+04  0.10100000352E+00 0.  1.
</event>
<event>
 5   0  0.8489228E-07  0.3417279E+04  0.7818609E-02  0.8133678E-01
        2   -1    0    0  501    0  0.00000000000E+00  0.00000000000E+00  0.29342855816E+04  0.29342855816E+04  0.25500000920E-02 0. -1.
       -2   -1    0    0    0  501  0.00000000000E+00  0.00000000000E+00 -0.99494377426E+03  0.99494377426E+03  0.25500000920E-02 0.  1.
    10030    2    1    2    0    0  0.00000000000E+00  0.00000000000E+00  0.19393418074E+04  0.39292293559E+04  0.34172791348E+04 0.  0.
        3    1    3    3  502    0 -0.64173945038E+03 -0.70431977095E+03 -0.66109903584E+03  0.11597188484E+04  0.10100000352E+00 0.  1.
       -3    1    3    3    0  502  0.64173945038E+03  0.70431977095E+03  0.26004408432E+04  0.27695105075E+04  0.10100000352E+00 0. -1.
</event>
<event>
 5   0  0.2599367E-07  0.3408937E+04  0.7818609E-02  0.8135716E-01
       -1   -1    0    0    0  501  0.00000000000E+00  0.00000000000E+00  0.19403499855E+04  0.19403499856E+04  0.50400001928E-02 0.  1.
        1   -1    0    0  501    0  0.00000000000E+00  0.00000000000E+00 -0.14972623423E+04  0.14972623423E+04  0.50400001928E-02 0. -1.
    10030    2    1    2    0    0  0.00000000000E+00  0.00000000000E+00  0.44308764329E+03  0.34376123278E+04  0.34089370567E+04 0.  0.
        2    1    3    3  502    0 -0.39659207567E+03 -0.59233873290E+03  0.17828123162E+04  0.19200443234E+04  0.25500000920E-02 0.  1.
       -2    1    3    3    0  502  0.39659207567E+03  0.59233873290E+03 -0.13397246729E+04  0.15175680045E+04  0.25500000920E-02 0. -1.
</event>
<event>
 5   0  0.7822003E-07  0.3373809E+04  0.7818609E-02  0.8144364E-01
        2   -1    0    0  501    0  0.00000000000E+00  0.00000000000E+00  0.18708237215E+04  0.18708237215E+04  0.25500000920E-02 0. -1.
       -2   -1    0    0    0  501  0.00000000000E+00  0.00000000000E+00 -0.15210663931E+04  0.15210663931E+04  0.25500000920E-02 0.  1.
    10030    2    1    2    0    0  0.00000000000E+00  0.00000000000E+00  0.34975732845E+03  0.33918901146E+04  0.33738091767E+04 0.  0.
        5    1    3    3  502    0  0.12498478746E+04  0.97935579669E+03  0.74746362276E+03  0.17549875907E+04  0.46999998093E+01 0. -1.
       -5    1    3    3    0  502 -0.12498478746E+04 -0.97935579669E+03 -0.39770629432E+03  0.16369025239E+04  0.46999998093E+01 0.  1.
</event>
<event>
 5   0  0.7822003E-07  0.3365571E+04  0.7818609E-02  0.8146408E-01
        2   -1    0    0  501    0  0.00000000000E+00  0.00000000000E+00  0.19109879516E+04  0.19109879516E+04  0.25500000920E-02 0.  1.
       -2   -1    0    0    0  501  0.00000000000E+00  0.00000000000E+00 -0.14818340888E+04  0.14818340889E+04  0.25500000920E-02 0. -1.
    10030    2    1    2    0    0  0.00000000000E+00  0.00000000000E+00  0.42915386279E+03  0.33928220405E+04  0.33655710304E+04 0.  0.
        5    1    3    3  502    0  0.63107293245E+03  0.82055734626E+03 -0.11228823359E+04  0.15272374520E+04  0.46999998093E+01 0. -1.
       -5    1    3    3    0  502 -0.63107293245E+03 -0.82055734626E+03  0.15520361987E+04  0.18655845885E+04  0.46999998093E+01 0.  1.
</event>
<event>
 5   0  0.7610412E-07  0.3397762E+04  0.7818609E-02  0.8138456E-01
        2   -1    0    0  501    0  0.00000000000E+00  0.00000000000E+00  0.19022393611E+04  0.19022393611E+04  0.25500000920E-02 0. -1.
       -2   -1    0    0    0  501  0.00000000000E+00  0.00000000000E+00 -0.15172628689E+04  0.15172628689E+04  0.25500000920E-02 0.  1.
    10030    2    1    2    0    0  0.00000000000E+00  0.00000000000E+00  0.38497649221E+03  0.34195022301E+04  0.33977622933E+04 0.  0.
        4    1    3    3  502    0 -0.29083370245E+02  0.58632219434E+02 -0.15159931473E+04  0.15174058175E+04  0.12699999809E+01 0.  1.
       -4    1    3    3    0  502  0.29083370245E+02 -0.58632219434E+02  0.19009696395E+04  0.19020964126E+04  0.12699999809E+01 0. -1.
</event>
<event>
 5   0  0.7610412E-07  0.3360218E+04  0.7818609E-02  0.8147740E-01
       -2   -1    0    0    0  501  0.00000000000E+00  0.00000000000E+00  0.18279319486E+04  0.18279319486E+04  0.25500000920E-02 0.  1.
        2   -1    0    0  501    0  0.00000000000E+00  0.00000000000E+00 -0.15442403112E+04  0.15442403112E+04  0.25500000920E-02 0. -1.
    10030    2    1    2    0    0  0.00000000000E+00  0.00000000000E+00  0.28369163748E+03  0.33721722598E+04  0.33602179698E+04 0.  0.
        4    1    3    3  502    0  0.12580962143E+03 -0.85254257988E+03  0.15892346260E+04  0.18078509952E+04  0.12699999809E+01 0.  1.
       -4    1    3    3    0  502 -0.12580962143E+03  0.85254257988E+03 -0.13055429885E+04  0.15643212647E+04  0.12699999809E+01 0. -1.
</event>
<event>
 5   0  0.2599367E-07  0.3396039E+04  0.7818609E-02  0.8138879E-01
       -1   -1    0    0    0  501  0.00000000000E+00  0.00000000000E+00  0.16701317052E+04  0.16701317052E+04  0.50400001928E-02 0. -1.
        1   -1    0    0  501    0  0.00000000000E+00  0.00000000000E+00 -0.17263734646E+04  0.17263734646E+04  0.50400001928E-02 0.  1.
    10030    2    1    2    0    0  0.00000000000E+00  0.00000000000E+00 -0.56241759368E+02  0.33965051698E+04  0.33960394922E+04 0.  0.
        2    1    3    3  502    0  0.15550056756E+04  0.64807457375E+03 -0.24081821928E+03  0.17017745794E+04  0.25500000920E-02 0. -1.
       -2    1    3    3    0  502 -0.15550056756E+04 -0.64807457375E+03  0.18457645991E+03  0.16947305904E+04  0.25500000920E-02 0.  1.
</event>
<event>
 5   0  0.8489228E-07  0.3405061E+04  0.7818609E-02  0.8136665E-01
        2   -1    0    0  501    0  0.00000000000E+00  0.00000000000E+00  0.19298075737E+04  0.19298075737E+04  0.25500000920E-02 0. -1.
       -2   -1    0    0    0  501  0.00000000000E+00  0.00000000000E+00 -0.15020198767E+04  0.15020198767E+04  0.25500000920E-02 0.  1.
    10030    2    1    2    0    0  0.00000000000E+00  0.00000000000E+00  0.42778769704E+03  0.34318274504E+04  0.34050605480E+04 0.  0.
        3    1    3    3  502    0 -0.69194679331E+03  0.44217382043E+03 -0.12892391531E+04  0.15285436390E+04  0.10100000352E+00 0.  1.
       -3    1    3    3    0  502  0.69194679331E+03 -0.44217382043E+03  0.17170268502E+04  0.19032838114E+04  0.10100000352E+00 0. -1.
</event>
<event>
 5   0  0.2592200E-07  0.3408669E+04  0.7818609E-02  0.8135782E-01
        1   -1    0    0  501    0  0.00000000000E+00  0.00000000000E+00  0.17012174068E+04  0.17012174068E+04  0.50400001928E-02 0. -1.
       -1   -1    0    0    0  501  0.00000000000E+00  0.00000000000E+00 -0.17074569607E+04  0.17074569607E+04  0.50400001928E-02 0.  1.
    10030    2    1    2    0    0  0.00000000000E+00  0.00000000000E+00 -0.62395538901E+01  0.34086743675E+04  0.34086686568E+04 0.  0.
        4    1    3    3  502    0 -0.73781696760E+03 -0.76248069152E+02  0.15313423874E+04  0.17015283618E+04  0.12699999809E+01 0. -1.
       -4    1    3    3    0  502  0.73781696760E+03  0.76248069152E+02 -0.15375819413E+04  0.17071460057E+04  0.12699999809E+01 0.  1.
</event>
<event>
 5   0  0.7838333E-07  0.3393327E+04  0.7818609E-02  0.8139546E-01
       -2   -1    0    0    0  501  0.00000000000E+00  0.00000000000E+00  0.10415782663E+04  0.10415782663E+04  0.25500000920E-02 0. -1.
        2   -1    0    0  501    0  0.00000000000E+00  0.00000000000E+00 -0.27637540922E+04  0.27637540922E+04  0.25500000920E-02 0.  1.
    10030    2    1    2    0    0  0.00000000000E+00  0.00000000000E+00 -0.17221758258E+04  0.38053323585E+04  0.33933265071E+04 0.  0.
        1    1    3    3  502    0 -0.14834332915E+04 -0.78100900091E+03 -0.11537686114E+04  0.20351244184E+04  0.50400001928E-02 0.  1.
       -1    1    3    3    0  502  0.14834332915E+04  0.78100900091E+03 -0.56840721446E+03  0.17702079401E+04  0.50400001928E-02 0. -1.
</event>
<event>
 5   0  0.7899402E-07  0.3385939E+04  0.7818609E-02  0.8141366E-01
       -2   -1    0    0    0  501  0.00000000000E+00  0.00000000000E+00  0.16223809877E+04  0.16223809877E+04  0.25500000920E-02 0.  1.
        2   -1    0    0  501    0  0.00000000000E+00  0.00000000000E+00 -0.17666296715E+04  0.17666296715E+04  0.25500000920E-02 0. -1.
    10030    2    1    2    0    0  0.00000000000E+00  0.00000000000E+00 -0.14424868375E+03  0.33890106592E+04  0.33859393919E+04 0.  0.
        2    1    3    3  502    0  0.95804139190E+03 -0.24311901911E+03 -0.14478514324E+04  0.17530613042E+04  0.25500000920E-02 0. -1.
       -2    1    3    3    0  502 -0.95804139190E+03  0.24311901911E+03  0.13036027486E+04  0.16359493550E+04  0.25500000920E-02 0.  1.
</event>
<event>
 5   0  0.2592200E-07  0.3402872E+04  0.7818609E-02  0.8137202E-01
       -1   -1    0    0    0  501  0.00000000000E+00  0.00000000000E+00  0.14177298940E+04  0.14177298940E+04  0.50400001928E-02 0.  1.
        1   -1    0    0  501    0  0.00000000000E+00  0.00000000000E+00 -0.20419159452E+04  0.20419159452E+04  0.50400001928E-02 0. -1.
    10030    2    1    2    0    0  0.00000000000E+00  0.00000000000E+00 -0.62418605118E+03  0.34596458392E+04  0.34028724787E+04 0.  0.
        4    1    3    3  502    0  0.14999186754E+03  0.39136436399E+03 -0.19886107310E+04  0.20322986685E+04  0.12699999809E+01 0. -1.
       -4    1    3    3    0  502 -0.14999186754E+03 -0.39136436399E+03  0.13644246798E+04  0.14273471706E+04  0.12699999809E+01 0.  1.
</event>
<event>
 5   0  0.2599367E-07  0.3400554E+04  0.7818609E-02  0.8137770E-01
        1   -1    0    0  501    0  0.00000000000E+00  0.00000000000E+00  0.16216859284E+04  0.16216859284E+04  0.50400001928E-02 0.  1.
       -1   -1    0    0    0  501  0.00000000000E+00  0.00000000000E+00 -0.17826770095E+04  0.17826770095E+04  0.50400001928E-02 0. -1.
    10030    2    1    2    0    0  0.00000000000E+00  0.00000000000E+00 -0.16099108111E+03  0.34043629380E+04  0.34005542027E+04 0.  0.
        2    1    3    3  502    0  0.27156420655E+03  0.14817462981E+04 -0.86980933653E+03  0.17395078304E+04  0.25500000920E-02 0. -1.
       -2    1    3    3    0  502 -0.27156420655E+03 -0.14817462981E+04  0.70881825542E+03  0.16648551076E+04  0.25500000920E-02 0.  1.
</event>
<event>
 5   0  0.7610412E-07  0.3287990E+04  0.7818609E-02  0.8165958E-01
        2   -1    0    0  501    0  0.00000000000E+00  0.00000000000E+00  0.16474782864E+04  0.16474782864E+04  0.25500000920E-02 0. -1.
       -2   -1    0    0    0  501  0.00000000000E+00  0.00000000000E+00 -0.16405191647E+04  0.16405191647E+04  0.25500000920E-02 0.  1.
    10030    2    1    2    0    0  0.00000000000E+00  0.00000000000E+00  0.69591217217E+01  0.32879974512E+04  0.32879900866E+04 0.  0.
        4    1    3    3  502    0 -0.10555786264E+04  0.79339011380E+03  0.98276924035E+03  0.16460714146E+04  0.12699999809E+01 0. -1.
       -4    1    3    3    0  502  0.10555786264E+04 -0.79339011380E+03 -0.97581011863E+03  0.16419260366E+04  0.12699999809E+01 0.  1.
</event>
<event>
 5   0  0.7610412E-07  0.3421977E+04  0.7818609E-02  0.8132533E-01
        2   -1    0    0  501    0  0.00000000000E+00  0.00000000000E+00  0.30507613403E+04  0.30507613403E+04  0.25500000920E-02 0.  1.
       -2   -1    0    0    0  501  0.00000000000E+00  0.00000000000E+00 -0.95959041833E+03  0.95959041833E+03  0.25500000920E-02 0. -1.
    10030    2    1    2    0    0  0.00000000000E+00  0.00000000000E+00  0.20911709220E+04  0.40103517587E+04  0.34219768268E+04 0.  0.
        4    1    3    3  502    0 -0.25909919483E+03  0.15154904828E+04  0.19254275689E+04  0.24639636223E+04  0.12699999809E+01 0.  1.
       -4    1    3    3    0  502  0.25909919483E+03 -0.15154904828E+04  0.16574335312E+03  0.15463881363E+04  0.12699999809E+01 0. -1.
</event>
<event>
 5   0  0.2592200E-07  0.3278956E+04  0.7818609E-02  0.8168271E-01
        1   -1    0    0  501    0  0.00000000000E+00  0.00000000000E+00  0.16452647801E+04  0.16452647802E+04  0.50400001928E-02 0. -1.
       -1   -1    0    0    0  501  0.00000000000E+00  0.00000000000E+00 -0.16337114172E+04  0.16337114172E+04  0.50400001928E-02 0.  1.
    10030    2    1    2    0    0  0.00000000000E+00  0.00000000000E+00  0.11553362978E+02  0.32789761973E+04  0.32789558433E+04 0.  0.
        4    1    3    3  502    0  0.29870719521E+03 -0.93641408728E+03 -0.13064010074E+04  0.16348646845E+04  0.12699999809E+01 0.  1.
       -4    1    3    3    0  502 -0.29870719521E+03  0.93641408728E+03  0.13179543704E+04  0.16441115129E+04  0.12699999809E+01 0. -1.
</event>
<event>
 5   0  0.2599367E-07  0.3385914E+04  0.7818609E-02  0.8141372E-01
        1   -1    0    0  501    0  0.00000000000E+00  0.00000000000E+00  0.22378444823E+04  0.22378444823E+04  0.50400001928E-02 0.  1.
       -1   -1    0    0    0  501  0.00000000000E+00  0.00000000000E+00 -0.12807430504E+04  0.12807430505E+04  0.50400001928E-02 0. -1.
    10030    2    1    2    0    0  0.00000000000E+00  0.00000000000E+00  0.95710143182E+03  0.35185875327E+04  0.33859142155E+04 0.  0.
        2    1    3    3  502    0 -0.37504178707E+03  0.10423977241E+04  0.18088905523E+04  0.21211634514E+04  0.25500000920E-02 0.  1.
       -2    1    3    3    0  502  0.37504178707E+03 -0.10423977241E+04 -0.85178912048E+03  0.13974240813E+04  0.25500000920E-02 0. -1.
</event>
<event>
 5   0  0.7822003E-07  0.3364522E+04  0.7818609E-02  0.8146669E-01
       -2   -1    0    0    0  501  0.00000000000E+00  0.00000000000E+00  0.11834879510E+04  0.11834879511E+04  0.25500000920E-02 0.  1.
        2   -1    0    0  501    0  0.00000000000E+00  0.00000000000E+00 -0.23912387461E+04  0.23912387461E+04  0.25500000920E-02 0. -1.
    10030    2    1    2    0    0  0.00000000000E+00  0.00000000000E+00 -0.12077507950E+04  0.35747266971E+04  0.33645221022E+04 0.  0.
        5    1    3    3  502    0  0.73136078225E+03 -0.21915518991E+03 -0.21965499473E+04  0.23254615353E+04  0.46999998093E+01 0. -1.
       -5    1    3    3    0  502 -0.73136078225E+03  0.21915518991E+03  0.98879915227E+03  0.12492651618E+04  0.46999998093E+01 0.  1.
</event>
<event>
 5   0  0.7822003E-07  0.3389049E+04  0.7818609E-02  0.8140599E-01
        2   -1    0    0  501    0  0.00000000000E+00  0.00000000000E+00  0.21435503634E+04  0.21435503634E+04  0.25500000920E-02 0. -1.
       -2   -1    0    0    0  501  0.00000000000E+00  0.00000000000E+00 -0.13395597013E+04  0.13395597013E+04  0.25500000920E-02 0.  1.
    10030    2    1    2    0    0  0.00000000000E+00  0.00000000000E+00  0.80399066210E+03  0.34831100647E+04  0.33890492380E+04 0.  0.
        5    1    3    3  502    0  0.16440359913E+04 -0.41005538307E+03  0.42233959006E+03  0.17462510063E+04  0.46999998093E+01 0. -1.
       -5    1    3    3    0  502 -0.16440359913E+04  0.41005538307E+03  0.38165107204E+03  0.17368590583E+04  0.46999998093E+01 0.  1.
</event>
<event>
 5   0  0.2553250E-07  0.3498059E+04  0.7818609E-02  0.8114250E-01
        1   -1    0    0  501    0  0.00000000000E+00  0.00000000000E+00  0.15413388996E+04  0.15413388996E+04  0.50400001928E-02 0.  1.
       -1   -1    0    0    0  501  0.00000000000E+00  0.00000000000E+00 -0.19847052653E+04  0.19847052653E+04  0.50400001928E-02 0. -1.
    10030    2    1    2    0    0  0.00000000000E+00  0.00000000000E+00 -0.44336636575E+03  0.35260441649E+04  0.34980585642E+04 0.  0.
        5    1    3    3  502    0  0.98360311599E+03  0.14459899885E+04 -0.19465066859E+03  0.17596230021E+04  0.46999998093E+01 0. -1.
       -5    1    3    3    0  502 -0.98360311599E+03 -0.14459899885E+04 -0.24871569716E+03  0.17664211629E+04  0.46999998093E+01 0.  1.
</event>
<event>
 5   0  0.7899402E-07  0.3386871E+04  0.7818609E-02  0.8141136E-01
        2   -1    0    0  501    0  0.00000000000E+00  0.00000000000E+00  0.20326780871E+04  0.20326780871E+04  0.25500000920E-02 0. -1.
       -2   -1    0    0    0  501  0.00000000000E+00  0.00000000000E+00 -0.14108108640E+04  0.14108108640E+04  0.25500000920E-02 0.  1.
    10030    2    1    2    0    0  0.00000000000E+00  0.00000000000E+00  0.62186722311E+03  0.34434889510E+04  0.33868713162E+04 0.  0.
        2    1    3    3  502    0  0.12337417777E+04  0.84656435343E+03 -0.49537751942E+03  0.15761309797E+04  0.25500000920E-02 0.  1.
       -2    1    3    3    0  502 -0.12337417777E+04 -0.84656435343E+03  0.11172447425E+04  0.18673579713E+04  0.25500000920E-02 0. -1.
</event>
<event>
 5   0  0.2592200E-07  0.3391203E+04  0.7818609E-02  0.8140069E-01
        1   -1    0    0  501    0  0.00000000000E+00  0.00000000000E+00  0.93650258197E+03  0.93650258198E+03  0.50400001928E-02 0.  1.
       -1   -1    0    0    0  501  0.00000000000E+00  0.00000000000E+00 -0.30700017096E+04  0.30700017096E+04  0.50400001928E-02 0. -1.
    10030    2    1    2    0    0  0.00000000000E+00  0.00000000000E+00 -0.21334991276E+04  0.40065042915E+04  0.33912030477E+04 0.  0.
        4    1    3    3  502    0 -0.65848828726E+03  0.97177373537E+03 -0.25123189732E+04  0.27730306982E+04  0.12699999809E+01 0. -1.
       -4    1    3    3    0  502  0.65848828726E+03 -0.97177373537E+03  0.37881984558E+03  0.12334735934E+04  0.12699999809E+01 0.  1.
</event>
<event>
 5   0  0.8489228E-07  0.3302407E+04  0.7818609E-02  0.8162283E-01
       -2   -1    0    0    0  501  0.00000000000E+00  0.00000000000E+00  0.13920306617E+04  0.13920306617E+04  0.25500000920E-02 0. -1.
        2   -1    0    0  501    0  0.00000000000E+00  0.00000000000E+00 -0.19586303516E+04  0.19586303516E+04  0.25500000920E-02 0.  1.
    10030    2    1    2    0    0  0.00000000000E+00  0.00000000000E+00 -0.56659968989E+03  0.33506610133E+04  0.33024073064E+04 0.  0.
        3    1    3    3  502    0  0.55957461091E+03  0.63070906102E+03  0.11571471176E+04  0.14317496732E+04  0.10100000352E+00 0. -1.
       -3    1    3    3    0  502 -0.55957461091E+03 -0.63070906102E+03 -0.17237468075E+04  0.19189113401E+04  0.10100000352E+00 0.  1.
</event>
<event>
 5   0  0.7822003E-07  0.3402750E+04  0.7818609E-02  0.8137232E-01
        2   -1    0    0  501    0  0.00000000000E+00  0.00000000000E+00  0.21273499154E+04  0.21273499154E+04  0.25500000920E-02 0.  1.
       -2   -1    0    0    0  501  0.00000000000E+00  0.00000000000E+00 -0.13606959969E+04  0.13606959969E+04  0.25500000920E-02 0. -1.
    10030    2    1    2    0    0  0.00000000000E+00  0.00000000000E+00  0.76665391849E+03  0.34880459123E+04  0.34027497786E+04 0.  0.
        5    1    3    3  502    0 -0.53248462403E+03  0.18252158401E+03  0.20291260707E+04  0.21057608373E+04  0.46999998093E+01 0.  1.
       -5    1    3    3    0  502  0.53248462403E+03 -0.18252158401E+03 -0.12624721522E+04  0.13822850750E+04  0.46999998093E+01 0. -1.
</event>
<event>
 5   0  0.7899402E-07  0.3436757E+04  0.7818609E-02  0.8128944E-01
       -2   -1    0    0    0  501  0.00000000000E+00  0.00000000000E+00  0.10044927331E+04  0.10044927331E+04  0.25500000920E-02 0. -1.
        2   -1    0    0  501    0  0.00000000000E+00  0.00000000000E+00 -0.29396171193E+04  0.29396171193E+04  0.25500000920E-02 0.  1.
    10030    2    1    2    0    0  0.00000000000E+00  0.00000000000E+00 -0.19351243862E+04  0.39441098524E+04  0.34367566306E+04 0.  0.
        2    1    3    3  502    0 -0.13471959390E+04  0.30700678395E+03 -0.21399581902E+04  0.25472752342E+04  0.25500000920E-02 0.  1.
       -2    1    3    3    0  502  0.13471959390E+04 -0.30700678395E+03  0.20483380391E+03  0.13968346182E+04  0.25500000920E-02 0. -1.
</event>
<event>
 5   0  0.2622205E-07  0.3394133E+04  0.7818609E-02  0.8139348E-01
        1   -1    0    0  501    0  0.00000000000E+00  0.00000000000E+00  0.15826044988E+04  0.15826044988E+04  0.50400001928E-02 0.  1.
       -1   -1    0    0    0  501  0.00000000000E+00  0.00000000000E+00 -0.18198071817E+04  0.18198071817E+04  0.50400001928E-02 0. -1.
    10030    2    1    2    0    0  0.00000000000E+00  0.00000000000E+00 -0.23720268291E+03  0.34024116804E+04  0.33941331928E+04 0.  0.
        3    1    3    3  502    0  0.12982618021E+04  0.69418856452E+03  0.72764578488E+03  0.16422088382E+04  0.10100000352E+00 0.  1.
       -3    1    3    3    0  502 -0.12982618021E+04 -0.69418856452E+03 -0.96484846779E+03  0.17602028422E+04  0.10100000352E+00 0. -1.
</event>
<event>
 5   0  0.7899402E-07  0.3199162E+04  0.7818609E-02  0.8189038E-01
       -2   -1    0    0    0  501  0.00000000000E+00  0.00000000000E+00  0.24965280744E+04  0.24965280744E+04  0.25500000920E-02 0.  1.
        2   -1    0    0  501    0  0.00000000000E+00  0.00000000000E+00 -0.10248871516E+04  0.10248871516E+04  0.25500000920E-02 0. -1.
    10030    2    1    2    0    0  0.00000000000E+00  0.00000000000E+00  0.14716409228E+04  0.35214152260E+04  0.31991621073E+04 0.  0.
        2    1    3    3  502    0 -0.12617053956E+04  0.38454233603E+03 -0.26025622580E+03  0.13444354267E+04  0.25500000920E-02 0. -1.
       -2    1    3    3    0  502  0.12617053956E+04 -0.38454233603E+03  0.17318971486E+04  0.21769797993E+04  0.25500000920E-02 0.  1.
</event>
<event>
 5   0  0.2553250E-07  0.3405855E+04  0.7818609E-02  0.8136471E-01
        1   -1    0    0  501    0  0.00000000000E+00  0.00000000000E+00  0.15283875835E+04  0.15283875835E+04  0.50400001928E-02 0. -1.
       -1   -1    0    0    0  501  0.00000000000E+00  0.00000000000E+00 -0.18974000528E+04  0.18974000528E+04  0.50400001928E-02 0.  1.
    10030    2    1    2    0    0  0.00000000000E+00  0.00000000000E+00 -0.36901246933E+03  0.34257876363E+04  0.34058553590E+04 0.  0.
        5    1    3    3  502    0  0.92593568022E+03 -0.26817634805E+03  0.12275131408E+04  0.15607966038E+04  0.46999998093E+01 0. -1.
       -5    1    3    3    0  502 -0.92593568022E+03  0.26817634805E+03 -0.15965256101E+04  0.18649910325E+04  0.46999998093E+01 0.  1.
</event>
<event>
 5   0  0.2592200E-07  0.3342406E+04  0.7818609E-02  0.8152188E-01
       -1   -1    0    0    0  501  0.00000000000E+00  0.00000000000E+00  0.12247854946E+04  0.12247854946E+04  0.50400001928E-02 0. -1.
        1   -1    0    0  501    0  0.00000000000E+00  0.00000000000E+00 -0.22803330040E+04  0.22803330040E+04  0.50400001928E-02 0.  1.
    10030    2    1    2    0    0  0.00000000000E+00  0.00000000000E+00 -0.10555475094E+04  0.35051184987E+04  0.33424055926E+04 0.  0.
        4    1    3    3  502    0  0.14062371874E+04  0.48180523141E+02 -0.14733871351E+04  0.20373256129E+04  0.12699999809E+01 0.  1.
       -4    1    3    3    0  502 -0.14062371874E+04 -0.48180523141E+02  0.41783962570E+03  0.14677928858E+04  0.12699999809E+01 0. -1.
</event>
<event>
 5   0  0.8489228E-07  0.3411358E+04  0.7818609E-02  0.8135124E-01
       -2   -1    0    0    0  501  0.00000000000E+00  0.00000000000E+00  0.12907910564E+04  0.12907910564E+04  0.25500000920E-02 0. -1.
        2   -1    0    0  501    0  0.00000000000E+00  0.00000000000E+00 -0.22539202986E+04  0.22539202986E+04  0.25500000920E-02 0.  1.
    10030    2    1    2    0    0  0.00000000000E+00  0.00000000000E+00 -0.96312924229E+03  0.35447113550E+04  0.34113575968E+04 0.  0.
        3    1    3    3  502    0  0.67390752033E+03 -0.12787055178E+04  0.45943034868E+03  0.15166790704E+04  0.10100000352E+00 0. -1.
       -3    1    3    3    0  502 -0.67390752033E+03  0.12787055178E+04 -0.14225595910E+04  0.20280322846E+04  0.10100000352E+00 0.  1.
</event>
<event>
 5   0  0.2622205E-07  0.3417558E+04  0.7818609E-02  0.8133610E-01
        1   -1    0    0  501    0  0.00000000000E+00  0.00000000000E+00  0.26013855877E+04  0.26013855877E+04  0.50400001928E-02 0.  1.
       -1   -1    0    0    0  501  0.00000000000E+00  0.00000000000E+00 -0.11224502967E+04  0.11224502967E+04  0.50400001928E-02 0. -1.
    10030    2    1    2    0    0  0.00000000000E+00  0.00000000000E+00  0.14789352910E+04  0.37238358845E+04  0.34175582072E+04 0.  0.
        3    1    3    3  502    0  0.16766415266E+04 -0.20169922779E+03  0.45508625016E+03  0.17489748119E+04  0.10100000352E+00 0. -1.
       -3    1    3    3    0  502 -0.16766415266E+04  0.20169922779E+03  0.10238490409E+04  0.19748610726E+04  0.10100000352E+00 0.  1.
</event>
<event>
 5   0  0.2599367E-07  0.3412853E+04  0.7818609E-02  0.8134759E-01
       -1   -1    0    0    0  501  0.00000000000E+00  0.00000000000E+00  0.28847789048E+04  0.28847789048E+04  0.50400001928E-02 0. -1.
        1   -1    0    0  501    0  0.00000000000E+00  0.00000000000E+00 -0.10093985338E+04  0.10093985338E+04  0.50400001928E-02 0.  1.
    10030    2    1    2    0    0  0.00000000000E+00  0.00000000000E+00  0.18753803710E+04  0.38941774386E+04  0.34128531154E+04 0.  0.
        2    1    3    3  502    0 -0.13195530900E+04 -0.72593747513E+02 -0.29409763169E+03  0.13538772568E+04  0.25500000920E-02 0.  1.
       -2    1    3    3    0  502  0.13195530900E+04  0.72593747513E+02  0.21694780027E+04  0.25403001818E+04  0.25500000920E-02 0. -1.
</event>
<event>
 5   0  0.2599367E-07  0.3405036E+04  0.7818609E-02  0.8136671E-01
       -1   -1    0    0    0  501  0.00000000000E+00  0.00000000000E+00  0.17094323338E+04  0.17094323338E+04  0.50400001928E-02 0. -1.
        1   -1    0    0  501    0  0.00000000000E+00  0.00000000000E+00 -0.16956317498E+04  0.16956317498E+04  0.50400001928E-02 0.  1.
    10030    2    1    2    0    0  0.00000000000E+00  0.00000000000E+00  0.13800583973E+02  0.34050640837E+04  0.34050361169E+04 0.  0.
        2    1    3    3  502    0  0.36978134000E+03  0.54960622580E+03  0.15752761725E+04  0.17088886044E+04  0.25500000920E-02 0. -1.
       -2    1    3    3    0  502 -0.36978134000E+03 -0.54960622580E+03 -0.15614755885E+04  0.16961754792E+04  0.25500000920E-02 0.  1.
</event>
<event>
 5   0  0.7610412E-07  0.3521644E+04  0.7818609E-02  0.8108680E-01
       -2   -1    0    0    0  501  0.00000000000E+00  0.00000000000E+00  0.14140879532E+04  0.14140879532E+04  0.25500000920E-02 0.  1.
        2   -1    0    0  501    0  0.00000000000E+00  0.00000000000E+00 -0.21925755586E+04  0.21925755586E+04  0.25500000920E-02 0. -1.
    10030    2    1    2    0    0  0.00000000000E+00  0.00000000000E+00 -0.77848760541E+03  0.36066635117E+04  0.35216443226E+04 0.  0.
        4    1    3    3  502    0 -0.20996983712E+03 -0.93684056283E+03  0.11224449773E+04  0.14770382232E+04  0.12699999809E+01 0.  1.
       -4    1    3    3    0  502  0.20996983712E+03  0.93684056283E+03 -0.19009325827E+04  0.21296252886E+04  0.12699999809E+01 0. -1.
</event>
<event>
 5   0  0.2641442E-07  0.3403438E+04  0.7818609E-02  0.8137063E-01
        1   -1    0    0  501    0  0.00000000000E+00  0.00000000000E+00  0.17873875888E+04  0.17873875888E+04  0.50400001928E-02 0. -1.
       -1   -1    0    0    0  501  0.00000000000E+00  0.00000000000E+00 -0.16201565408E+04  0.16201565408E+04  0.50400001928E-02 0.  1.
    10030    2    1    2    0    0  0.00000000000E+00  0.00000000000E+00  0.16723104797E+03  0.34075441296E+04  0.34034380811E+04 0.  0.
        1    1    3    3  502    0 -0.62732811170E+02  0.66498461009E+02 -0.16176962111E+04  0.16202772857E+04  0.50400001928E-02 0.  1.
       -1    1    3    3    0  502  0.62732811170E+02 -0.66498461009E+02  0.17849272591E+04  0.17872668439E+04  0.50400001928E-02 0. -1.
</event>
<event>
 5   0  0.2641442E-07  0.3401517E+04  0.7818609E-02  0.8137534E-01
        1   -1    0    0  501    0  0.00000000000E+00  0.00000000000E+00  0.18157018925E+04  0.18157018925E+04  0.50400001928E-02 0. -1.
       -1   -1    0    0    0  501  0.00000000000E+00  0.00000000000E+00 -0.15930912708E+04  0.15930912708E+04  0.50400001928E-02 0.  1.
    10030    2    1    2    0    0  0.00000000000E+00  0.00000000000E+00  0.22261062169E+03  0.34087931633E+04  0.34015166237E+04 0.  0.
        1    1    3    3  502    0 -0.43837089522E+03 -0.16389796343E+04  0.23053693387E+03  0.17121829813E+04  0.50400001928E-02 0.  1.
       -1    1    3    3    0  502  0.43837089522E+03  0.16389796343E+04 -0.79263121799E+01  0.16966101821E+04  0.50400001928E-02 0. -1.
</event>
<event>
 5   0  0.7822003E-07  0.3398521E+04  0.7818609E-02  0.8138269E-01
        2   -1    0    0  501    0  0.00000000000E+00  0.00000000000E+00  0.18490094578E+04  0.18490094578E+04  0.25500000920E-02 0.  1.
       -2   -1    0    0    0  501  0.00000000000E+00  0.00000000000E+00 -0.15616398264E+04  0.15616398264E+04  0.25500000920E-02 0. -1.
    10030    2    1    2    0    0  0.00000000000E+00  0.00000000000E+00  0.28736963140E+03  0.34106492842E+04  0.33985213306E+04 0.  0.
        5    1    3    3  502    0  0.12448750065E+04 -0.10924677209E+04  0.52486286042E+03  0.17374413991E+04  0.46999998093E+01 0.  1.
       -5    1    3    3    0  502 -0.12448750065E+04  0.10924677209E+04 -0.23749322902E+03  0.16732078851E+04  0.46999998093E+01 0. -1.
</event>
<event>
 5   0  0.7838333E-07  0.3399087E+04  0.7818609E-02  0.8138130E-01
        2   -1    0    0  501    0  0.00000000000E+00  0.00000000000E+00  0.15779301831E+04  0.15779301831E+04  0.25500000920E-02 0. -1.
       -2   -1    0    0    0  501  0.00000000000E+00  0.00000000000E+00 -0.18305296813E+04  0.18305296813E+04  0.25500000920E-02 0.  1.
    10030    2    1    2    0    0  0.00000000000E+00  0.00000000000E+00 -0.25259949811E+03  0.34084598644E+04  0.33990869569E+04 0.  0.
        1    1    3    3  502    0  0.61243856259E+03  0.86049757316E+03  0.12088788815E+04  0.16052804168E+04  0.50400001928E-02 0. -1.
       -1    1    3    3    0  502 -0.61243856259E+03 -0.86049757316E+03 -0.14614783796E+04  0.18031794476E+04  0.50400001928E-02 0.  1.
</event>
<event>
 5   0  0.7838333E-07  0.3434484E+04  0.7818609E-02  0.8129494E-01
        2   -1    0    0  501    0  0.00000000000E+00  0.00000000000E+00  0.16183333985E+04  0.16183333985E+04  0.25500000920E-02 0.  1.
       -2   -1    0    0    0  501  0.00000000000E+00  0.00000000000E+00 -0.18221958745E+04  0.18221958745E+04  0.25500000920E-02 0. -1.
    10030    2    1    2    0    0  0.00000000000E+00  0.00000000000E+00 -0.20386247602E+03  0.34405292730E+04  0.34344842072E+04 0.  0.
        1    1    3    3  502    0  0.64334514283E+03  0.34509147348E+03  0.14551337771E+04  0.16280035034E+04  0.50400001928E-02 0.  1.
       -1    1    3    3    0  502 -0.64334514283E+03 -0.34509147348E+03 -0.16589962531E+04  0.18125257696E+04  0.50400001928E-02 0. -1.
</event>
<event>
 5   0  0.2622205E-07  0.3389196E+04  0.7818609E-02  0.8140563E-01
       -1   -1    0    0    0  501  0.00000000000E+00  0.00000000000E+00  0.13561862844E+04  0.13561862844E+04  0.50400001928E-02 0.  1.
        1   -1    0    0  501    0  0.00000000000E+00  0.00000000000E+00 -0.21174547591E+04  0.21174547592E+04  0.50400001928E-02 0. -1.
    10030    2    1    2    0    0  0.00000000000E+00  0.00000000000E+00 -0.76126847478E+03  0.34736410435E+04  0.33891964252E+04 0.  0.
        3    1    3    3  502    0  0.42887637045E+03  0.33517084305E+03 -0.20254209438E+04  0.20972850176E+04  0.10100000352E+00 0. -1.
       -3    1    3    3    0  502 -0.42887637045E+03 -0.33517084305E+03  0.12641524690E+04  0.13763560260E+04  0.10100000352E+00 0.  1.
</event>
<event>
 5   0  0.7822003E-07  0.3398705E+04  0.7818609E-02  0.8138224E-01
       -2   -1    0    0    0  501  0.00000000000E+00  0.00000000000E+00  0.16006920401E+04  0.16006920401E+04  0.25500000920E-02 0. -1.
        2   -1    0    0  501    0  0.00000000000E+00  0.00000000000E+00 -0.18040944106E+04  0.18040944106E+04  0.25500000920E-02 0.  1.
    10030    2    1    2    0    0  0.00000000000E+00  0.00000000000E+00 -0.20340237055E+03  0.34047864507E+04  0.33987053786E+04 0.  0.
        5    1    3    3  502    0  0.39776580227E+03  0.10176270739E+04  0.12021631866E+04  0.16245002039E+04  0.46999998093E+01 0. -1.
       -5    1    3    3    0  502 -0.39776580227E+03 -0.10176270739E+04 -0.14055655572E+04  0.17802862468E+04  0.46999998093E+01 0.  1.
</event>
<event>
 5   0  0.7899402E-07  0.3351185E+04  0.7818609E-02  0.8149992E-01
        2   -1    0    0  501    0  0.00000000000E+00  0.00000000000E+00  0.13737282096E+04  0.13737282097E+04  0.25500000920E-02 0.  1.
       -2   -1    0    0    0  501  0.00000000000E+00  0.00000000000E+00 -0.20437885358E+04  0.20437885358E+04  0.25500000920E-02 0. -1.
    10030    2    1    2    0    0  0.00000000000E+00  0.00000000000E+00 -0.67006032612E+03  0.34175167454E+04  0.33511848449E+04 0.  0.
        2    1    3    3  502    0  0.20785463263E+03 -0.16438477340E+04 -0.80753588413E+02  0.16589032711E+04  0.25500000920E-02 0. -1.
       -2    1    3    3    0  502 -0.20785463263E+03  0.16438477340E+04 -0.58930673771E+03  0.17586134743E+04  0.25500000920E-02 0.  1.
</event>
<event>
 5   0  0.2553250E-07  0.3396743E+04  0.7818609E-02  0.8138706E-01
       -1   -1    0    0    0  501  0.00000000000E+00  0.00000000000E+00  0.15102771308E+04  0.15102771308E+04  0.50400001928E-02 0. -1.
        1   -1    0    0  501    0  0.00000000000E+00  0.00000000000E+00 -0.19098914406E+04  0.19098914406E+04  0.50400001928E-02 0.  1.
    10030    2    1    2    0    0  0.00000000000E+00  0.00000000000E+00 -0.39961430980E+03  0.34201685714E+04  0.33967427722E+04 0.  0.
        5    1    3    3  502    0 -0.31922755074E+03  0.45824427723E+03  0.14151711740E+04  0.15213893613E+04  0.46999998093E+01 0. -1.
       -5    1    3    3    0  502  0.31922755074E+03 -0.45824427723E+03 -0.18147854838E+04  0.18987792102E+04  0.46999998093E+01 0.  1.
</event>
<event>
 5   0  0.7838333E-07  0.3355246E+04  0.7818609E-02  0.8148979E-01
        2   -1    0    0  501    0  0.00000000000E+00  0.00000000000E+00  0.21656326365E+04  0.21656326365E+04  0.25500000920E-02 0. -1.
       -2   -1    0    0    0  501  0.00000000000E+00  0.00000000000E+00 -0.12995824650E+04  0.12995824650E+04  0.25500000920E-02 0.  1.
    10030    2    1    2    0    0  0.00000000000E+00  0.00000000000E+00  0.86605017151E+03  0.34652151015E+04  0.33552455648E+04 0.  0.
        1    1    3    3  502    0  0.53155705171E+03 -0.14239532772E+04 -0.30033444427E+03  0.15493213396E+04  0.50400001928E-02 0.  1.
       -1    1    3    3    0  502 -0.53155705171E+03  0.14239532772E+04  0.11663846158E+04  0.19158937619E+04  0.50400001928E-02 0. -1.
</event>
<event>
 5   0  0.7610412E-07  0.3403304E+04  0.7818609E-02  0.8137096E-01
        2   -1    0    0  501    0  0.00000000000E+00  0.00000000000E+00  0.19361490679E+04  0.19361490679E+04  0.25500000920E-02 0. -1.
       -2   -1    0    0    0  501  0.00000000000E+00  0.00000000000E+00 -0.14955558709E+04  0.14955558709E+04  0.25500000920E-02 0.  1.
    10030    2    1    2    0    0  0.00000000000E+00  0.00000000000E+00  0.44059319703E+03  0.34317049388E+04  0.34033037511E+04 0.  0.
        4    1    3    3  502    0 -0.57639948791E+03 -0.81677016954E+03  0.16088386642E+04  0.18941260095E+04  0.12699999809E+01 0. -1.
       -4    1    3    3    0  502  0.57639948791E+03  0.81677016954E+03 -0.11682454672E+04  0.15375789293E+04  0.12699999809E+01 0.  1.
</event>
<event>
 5   0  0.7838333E-07  0.3397133E+04  0.7818609E-02  0.8138610E-01
        2   -1    0    0  501    0  0.00000000000E+00  0.00000000000E+00  0.21204452658E+04  0.21204452658E+04  0.25500000920E-02 0. -1.
       -2   -1    0    0    0  501  0.00000000000E+00  0.00000000000E+00 -0.13606238603E+04  0.13606238603E+04  0.25500000920E-02 0.  1.
    10030    2    1    2    0    0  0.00000000000E+00  0.00000000000E+00  0.75982140547E+03  0.34810691261E+04  0.33971331579E+04 0.  0.
        1    1    3    3  502    0 -0.21208803943E+03  0.16514859762E+04  0.72397635644E+03  0.18156346082E+04  0.50400001928E-02 0. -1.
       -1    1    3    3    0  502  0.21208803943E+03 -0.16514859762E+04  0.35845049032E+02  0.16654345179E+04  0.50400001928E-02 0.  1.
</event>
<event>
 5   0  0.7899402E-07  0.3366651E+04  0.7818609E-02  0.8146140E-01
       -2   -1    0    0    0  501  0.00000000000E+00  0.00000000000E+00  0.16938875343E+04  0.16938875343E+04  0.25500000920E-02 0. -1.
        2   -1    0    0  501    0  0.00000000000E+00  0.00000000000E+00 -0.16728291693E+04  0.16728291693E+04  0.25500000920E-02 0.  1.
    10030    2    1    2    0    0  0.00000000000E+00  0.00000000000E+00  0.21058364936E+02  0.33667167036E+04  0.33666508443E+04 0.  0.
        2    1    3    3  502    0 -0.29604925768E+03 -0.16501111689E+04  0.16242831668E+03  0.16843084607E+04  0.25500000920E-02 0. -1.
       -2    1    3    3    0  502  0.29604925768E+03  0.16501111689E+04 -0.14136995174E+03  0.16824082429E+04  0.25500000920E-02 0.  1.
</event>
<event>
 5   0  0.2599367E-07  0.3405095E+04  0.7818609E-02  0.8136657E-01
        1   -1    0    0  501    0  0.00000000000E+00  0.00000000000E+00  0.14128185504E+04  0.14128185504E+04  0.50400001928E-02 0.  1.
       -1   -1    0    0    0  501  0.00000000000E+00  0.00000000000E+00 -0.20516917227E+04  0.20516917227E+04  0.50400001928E-02 0. -1.
    10030    2    1    2    0    0  0.00000000000E+00  0.00000000000E+00 -0.63887317235E+03  0.34645102731E+04  0.34050950797E+04 0.  0.
        2    1    3    3  502    0  0.84744884654E+03  0.19993443717E+03 -0.18080185141E+04  0.20067571538E+04  0.25500000920E-02 0. -1.
       -2    1    3    3    0  502 -0.84744884654E+03 -0.19993443717E+03  0.11691453418E+04  0.14577531193E+04  0.25500000920E-02 0.  1.
</event>
<event>
 5   0  0.2599367E-07  0.3382196E+04  0.7818609E-02  0.8142290E-01
       -1   -1    0    0    0  501  0.00000000000E+00  0.00000000000E+00  0.13125572246E+04  0.13125572246E+04  0.50400001928E-02 0.  1.
        1   -1    0    0  501    0  0.00000000000E+00  0.00000000000E+00 -0.21788097505E+04  0.21788097505E+04  0.50400001928E-02 0. -1.
    10030    2    1    2    0    0  0.00000000000E+00  0.00000000000E+00 -0.86625252591E+03  0.34913669751E+04  0.33821960198E+04 0.  0.
        2    1    3    3  502    0 -0.16196414473E+04  0.45859978361E+03 -0.26584528263E+03  0.17041789500E+04  0.25500000920E-02 0.  1.
       -2    1    3    3    0  502  0.16196414473E+04 -0.45859978361E+03 -0.60040724329E+03  0.17871880251E+04  0.25500000920E-02 0. -1.
</event>
<event>
 5   0  0.7838333E-07  0.3259784E+04  0.7818609E-02  0.8173204E-01
        2   -1    0    0  501    0  0.00000000000E+00  0.00000000000E+00  0.13330091831E+04  0.13330091831E+04  0.25500000920E-02 0.  1.
       -2   -1    0    0    0  501  0.00000000000E+00  0.00000000000E+00 -0.19928955729E+04  0.19928955729E+04  0.25500000920E-02 0. -1.
    10030    2    1    2    0    0  0.00000000000E+00  0.00000000000E+00 -0.65988638978E+03  0.33259047560E+04  0.32597841031E+04 0.  0.
        1    1    3    3  502    0 -0.77408866264E+03 -0.13037740062E+04  0.28010474367E+03  0.15419139354E+04  0.50400001928E-02 0.  1.
       -1    1    3    3    0  502  0.77408866264E+03  0.13037740062E+04 -0.93999113345E+03  0.17839908206E+04  0.50400001928E-02 0. -1.
</event>
<event>
 5   0  0.2641442E-07  0.3423051E+04  0.7818609E-02  0.8132272E-01
        1   -1    0    0  501    0  0.00000000000E+00  0.00000000000E+00  0.21678458483E+04  0.21678458483E+04  0.50400001928E-02 0. -1.
       -1   -1    0    0    0  501  0.00000000000E+00  0.00000000000E+00 -0.13512581977E+04  0.13512581977E+04  0.50400001928E-02 0.  1.
    10030    2    1    2    0    0  0.00000000000E+00  0.00000000000E+00  0.81658765052E+03  0.35191040460E+04  0.34230509630E+04 0.  0.
        1    1    3    3  502    0  0.11135039590E+04 -0.37494182636E+03  0.16877429059E+04  0.20564407495E+04  0.50400001928E-02 0. -1.
       -1    1    3    3    0  502 -0.11135039590E+04  0.37494182636E+03 -0.87115525533E+03  0.14626632965E+04  0.50400001928E-02 0.  1.
</event>
<event>
 5   0  0.2553250E-07  0.3404060E+04  0.7818609E-02  0.8136911E-01
       -1   -1    0    0    0  501  0.00000000000E+00  0.00000000000E+00  0.14946734166E+04  0.14946734166E+04  0.50400001928E-02 0.  1.
        1   -1    0    0  501    0  0.00000000000E+00  0.00000000000E+00 -0.19381532510E+04  0.19381532510E+04  0.50400001928E-02 0. -1.
    10030    2    1    2    0    0  0.00000000000E+00  0.00000000000E+00 -0.44347983440E+03  0.34328266677E+04  0.34040600122E+04 0.  0.
        5    1    3    3  502    0  0.52716834646E+03 -0.79943846849E+03  0.11972314510E+04  0.15330993339E+04  0.46999998093E+01 0.  1.
       -5    1    3    3    0  502 -0.52716834646E+03  0.79943846849E+03 -0.16407112854E+04  0.18997273337E+04  0.46999998093E+01 0. -1.
</event>
<event>
 5   0  0.7838333E-07  0.3408897E+04  0.7818609E-02  0.8135726E-01
        2   -1    0    0  501    0  0.00000000000E+00  0.00000000000E+00  0.16820256987E+04  0.16820256987E+04  0.25500000920E-02 0.  1.
       -2   -1    0    0    0  501  0.00000000000E+00  0.00000000000E+00 -0.17271703608E+04  0.17271703608E+04  0.25500000920E-02 0. -1.
    10030    2    1    2    0    0  0.00000000000E+00  0.00000000000E+00 -0.45144662117E+02  0.34091960595E+04  0.34088971430E+04 0.  0.
        1    1    3    3  502    0 -0.48409660348E+03  0.52555152778E+03 -0.15701546297E+04  0.17250911544E+04  0.50400001928E-02 0. -1.
       -1    1    3    3    0  502  0.48409660348E+03 -0.52555152778E+03  0.15250099676E+04  0.16841049050E+04  0.50400001928E-02 0.  1.
</event>
<event>
 5   0  0.2592200E-07  0.3387571E+04  0.7818609E-02  0.8140963E-01
        1   -1    0    0  501    0  0.00000000000E+00  0.00000000000E+00  0.12789045429E+04  0.12789045429E+04  0.50400001928E-02 0. -1.
       -1   -1    0    0    0  501  0.00000000000E+00  0.00000000000E+00 -0.22432557933E+04  0.22432557933E+04  0.50400001928E-02 0.  1.
    10030    2    1    2    0    0  0.00000000000E+00  0.00000000000E+00 -0.96435125034E+03  0.35221603362E+04  0.33875714162E+04 0.  0.
        4    1    3    3  502    0  0.11922645936E+04 -0.49545401435E+03  0.65771151099E+03  0.14489843292E+04  0.12699999809E+01 0. -1.
       -4    1    3    3    0  502 -0.11922645936E+04  0.49545401435E+03 -0.16220627613E+04  0.20731760070E+04  0.12699999809E+01 0.  1.
</event>
<event>
 5   0  0.7899402E-07  0.3415153E+04  0.7818609E-02  0.8134197E-01
       -2   -1    0    0    0  501  0.00000000000E+00  0.00000000000E+00  0.21943468268E+04  0.21943468268E+04  0.25500000920E-02 0.  1.
        2   -1    0    0  501    0  0.00000000000E+00  0.00000000000E+00 -0.13287859921E+04  0.13287859921E+04  0.25500000920E-02 0. -1.
    10030    2    1    2    0    0  0.00000000000E+00  0.00000000000E+00  0.86556083471E+03  0.35231328189E+04  0.34151528957E+04 0.  0.
        2    1    3    3  502    0  0.20875947550E+03  0.17202151000E+03 -0.13065424578E+04  0.13342507682E+04  0.25500000920E-02 0. -1.
       -2    1    3    3    0  502 -0.20875947550E+03 -0.17202151000E+03  0.21721032925E+04  0.21888820507E+04  0.25500000920E-02 0.  1.
</event>
<event>
 5   0  0.2592200E-07  0.3396682E+04  0.7818609E-02  0.8138721E-01
       -1   -1    0    0    0  501  0.00000000000E+00  0.00000000000E+00  0.90876340020E+03  0.90876340021E+03  0.50400001928E-02 0. -1.
        1   -1    0    0  501    0  0.00000000000E+00  0.00000000000E+00 -0.31739420322E+04  0.31739420322E+04  0.50400001928E-02 0.  1.
    10030    2    1    2    0    0  0.00000000000E+00  0.00000000000E+00 -0.22651786320E+04  0.40827054324E+04  0.33966821183E+04 0.  0.
        4    1    3    3  502    0 -0.35043081625E+03 -0.28889359499E+03 -0.30995989810E+04  0.31326948020E+04  0.12699999809E+01 0.  1.
       -4    1    3    3    0  502  0.35043081625E+03  0.28889359499E+03  0.83442034902E+03  0.95001063045E+03  0.12699999809E+01 0. -1.
</event>
<event>
 5   0  0.2641442E-07  0.3403132E+04  0.7818609E-02  0.8137138E-01
       -1   -1    0    0    0  501  0.00000000000E+00  0.00000000000E+00  0.19142631661E+04  0.19142631661E+04  0.50400001928E-02 0. -1.
        1   -1    0    0  501    0  0.00000000000E+00  0.00000000000E+00 -0.15125019433E+04  0.15125019433E+04  0.50400001928E-02 0.  1.
    10030    2    1    2    0    0  0.00000000000E+00  0.00000000000E+00  0.40176122282E+03  0.34267651094E+04  0.34031319449E+04 0.  0.
        1    1    3    3  502    0 -0.35706132228E+03  0.11509561832E+04  0.14105281699E+04  0.18552042048E+04  0.50400001928E-02 0. -1.
       -1    1    3    3    0  502  0.35706132228E+03 -0.11509561832E+04 -0.10087669470E+04  0.15715609046E+04  0.50400001928E-02 0.  1.
</event>
<event>
 5   0  0.7822003E-07  0.3351102E+04  0.7818609E-02  0.8150013E-01
       -2   -1    0    0    0  501  0.00000000000E+00  0.00000000000E+00  0.15267892233E+04  0.15267892233E+04  0.25500000920E-02 0.  1.
        2   -1    0    0  501    0  0.00000000000E+00  0.00000000000E+00 -0.18388071306E+04  0.18388071306E+04  0.25500000920E-02 0. -1.
    10030    2    1    2    0    0  0.00000000000E+00  0.00000000000E+00 -0.31201790730E+03  0.33655963539E+04  0.33511018551E+04 0.  0.
        5    1    3    3  502    0  0.14125765383E+04 -0.46274095252E+03  0.62060609599E+03  0.16107997027E+04  0.46999998093E+01 0. -1.
       -5    1    3    3    0  502 -0.14125765383E+04  0.46274095252E+03 -0.93262400330E+03  0.17547966513E+04  0.46999998093E+01 0.  1.
</event>
<event>
 5   0  0.2622205E-07  0.3406431E+04  0.7818609E-02  0.8136330E-01
       -1   -1    0    0    0  501  0.00000000000E+00  0.00000000000E+00  0.19183359492E+04  0.19183359492E+04  0.50400001928E-02 0.  1.
        1   -1    0    0  501    0  0.00000000000E+00  0.00000000000E+00 -0.15122184338E+04  0.15122184338E+04  0.50400001928E-02 0. -1.
    10030    2    1    2    0    0  0.00000000000E+00  0.00000000000E+00  0.40611751545E+03  0.34305543830E+04  0.34064309678E+04 0.  0.
        3    1    3    3  502    0 -0.10794019423E+04 -0.32398329218E+03 -0.10830399088E+04  0.15630256494E+04  0.10100000352E+00 0. -1.
       -3    1    3    3    0  502  0.10794019423E+04  0.32398329218E+03  0.14891574242E+04  0.18675287336E+04  0.10100000352E+00 0.  1.
</event>
<event>
 5   0  0.2622205E-07  0.3405508E+04  0.7818609E-02  0.8136556E-01
        1   -1    0    0  501    0  0.00000000000E+00  0.00000000000E+00  0.14750825457E+04  0.14750825458E+04  0.50400001928E-02 0.  1.
       -1   -1    0    0    0  501  0.00000000000E+00  0.00000000000E+00 -0.19655654603E+04  0.19655654603E+04  0.50400001928E-02 0. -1.
    10030    2    1    2    0    0  0.00000000000E+00  0.00000000000E+00 -0.49048291459E+03  0.34406480061E+04  0.34055080696E+04 0.  0.
        3    1    3    3  502    0  0.14218087217E+03 -0.16762842919E+04  0.20583445691E+02  0.16824292306E+04  0.10100000352E+00 0. -1.
       -3    1    3    3    0  502 -0.14218087217E+03  0.16762842919E+04 -0.51106636028E+03  0.17582187755E+04  0.10100000352E+00 0.  1.
</event>
<event>
 5   0  0.7899402E-07  0.3189554E+04  0.7818609E-02  0.8191581E-01
       -2   -1    0    0    0  501  0.00000000000E+00  0.00000000000E+00  0.11502552816E+04  0.11502552816E+04  0.25500000920E-02 0.  1.
        2   -1    0    0  501    0  0.00000000000E+00  0.00000000000E+00 -0.22110869057E+04  0.22110869057E+04  0.25500000920E-02 0. -1.
    10030    2    1    2    0    0  0.00000000000E+00  0.00000000000E+00 -0.10608316242E+04  0.33613421873E+04  0.31895544462E+04 0.  0.
        2    1    3    3  502    0 -0.89697981232E+03 -0.89839091471E+03  0.48678264058E+03  0.13596456739E+04  0.25500000920E-02 0.  1.
       -2    1    3    3    0  502  0.89697981232E+03  0.89839091471E+03 -0.15476142648E+04  0.20016965134E+04  0.25500000920E-02 0. -1.
</event>
<event>
 5   0  0.7610412E-07  0.3420621E+04  0.7818609E-02  0.8132864E-01
       -2   -1    0    0    0  501  0.00000000000E+00  0.00000000000E+00  0.16629410481E+04  0.16629410481E+04  0.25500000920E-02 0. -1.
        2   -1    0    0  501    0  0.00000000000E+00  0.00000000000E+00 -0.17590288759E+04  0.17590288759E+04  0.25500000920E-02 0.  1.
    10030    2    1    2    0    0  0.00000000000E+00  0.00000000000E+00 -0.96087827808E+02  0.34219699239E+04  0.34206206001E+04 0.  0.
        4    1    3    3  502    0  0.16126243074E+04 -0.28407762505E+03 -0.54210354267E+03  0.17248579993E+04  0.12699999809E+01 0.  1.
       -4    1    3    3    0  502 -0.16126243074E+04  0.28407762505E+03  0.44601571486E+03  0.16971119246E+04  0.12699999809E+01 0. -1.
</event>
<event>
 5   0  0.2622205E-07  0.3392179E+04  0.7818609E-02  0.8139828E-01
        1   -1    0    0  501    0  0.00000000000E+00  0.00000000000E+00  0.26328745770E+04  0.26328745770E+04  0.50400001928E-02 0.  1.
       -1   -1    0    0    0  501  0.00000000000E+00  0.00000000000E+00 -0.10926158178E+04  0.10926158179E+04  0.50400001928E-02 0. -1.
    10030    2    1    2    0    0  0.00000000000E+00  0.00000000000E+00  0.15402587591E+04  0.37254903948E+04  0.33921794818E+04 0.  0.
        3    1    3    3  502    0  0.13481399101E+04 -0.10290122249E+04  0.74891782955E+03  0.18539755397E+04  0.10100000352E+00 0.  1.
       -3    1    3    3    0  502 -0.13481399101E+04  0.10290122249E+04  0.79134092958E+03  0.18715148552E+04  0.10100000352E+00 0. -1.
</event>
<event>
 5   0  0.7899402E-07  0.3393999E+04  0.7818609E-02  0.8139381E-01
        2   -1    0    0  501    0  0.00000000000E+00  0.00000000000E+00  0.19545081175E+04  0.19545081175E+04  0.25500000920E-02 0.  1.
       -2   -1    0    0    0  501  0.00000000000E+00  0.00000000000E+00 -0.14734179796E+04  0.14734179796E+04  0.25500000920E-02 0. -1.
    10030    2    1    2    0    0  0.00000000000E+00  0.00000000000E+00  0.48109013786E+03  0.34279260971E+04  0.33939990581E+04 0.  0.
        2    1    3    3  502    0 -0.64286506118E+03  0.14823395340E+04 -0.28348765339E+03  0.16404180049E+04  0.25500000920E-02 0.  1.
       -2    1    3    3    0  502  0.64286506118E+03 -0.14823395340E+04  0.76457779125E+03  0.17875080923E+04  0.25500000920E-02 0. -1.
</event>
<event>
 5   0  0.7610412E-07  0.3417608E+04  0.7818609E-02  0.8133598E-01
       -2   -1    0    0    0  501  0.00000000000E+00  0.00000000000E+00  0.95004778726E+03  0.95004778726E+03  0.25500000920E-02 0. -1.
        2   -1    0    0  501    0  0.00000000000E+00  0.00000000000E+00 -0.30735409739E+04  0.30735409739E+04  0.25500000920E-02 0.  1.
    10030    2    1    2    0    0  0.00000000000E+00  0.00000000000E+00 -0.21234931867E+04  0.40235887612E+04  0.34176078191E+04 0.  0.
        4    1    3    3  502    0 -0.10977499729E+04  0.12873364171E+04 -0.77889979491E+03  0.18625188743E+04  0.12699999809E+01 0. -1.
       -4    1    3    3    0  502  0.10977499729E+04 -0.12873364171E+04 -0.13445933918E+04  0.21610698869E+04  0.12699999809E+01 0.  1.
</event>
<event>
 5   0  0.8489228E-07  0.3402167E+04  0.7818609E-02  0.8137375E-01
       -2   -1    0    0    0  501  0.00000000000E+00  0.00000000000E+00  0.16417922057E+04  0.16417922057E+04  0.25500000920E-02 0. -1.
        2   -1    0    0  501    0  0.00000000000E+00  0.00000000000E+00 -0.17625164227E+04  0.17625164227E+04  0.25500000920E-02 0.  1.
    10030    2    1    2    0    0  0.00000000000E+00  0.00000000000E+00 -0.12072421695E+03  0.34043086284E+04  0.34021673828E+04 0.  0.
        3    1    3    3  502    0 -0.13975370608E+04  0.78272320115E+03 -0.63336574708E+03  0.17224742743E+04  0.10100000352E+00 0.  1.
       -3    1    3    3    0  502  0.13975370608E+04 -0.78272320115E+03  0.51264153013E+03  0.16818343541E+04  0.10100000352E+00 0. -1.
</event>
<event>
 5   0  0.2622205E-07  0.3011119E+04  0.7818609E-02  0.8240563E-01
       -1   -1    0    0    0  501  0.00000000000E+00  0.00000000000E+00  0.16743229338E+04  0.16743229338E+04  0.50400001928E-02 0. -1.
        1   -1    0    0  501    0  0.00000000000E+00  0.00000000000E+00 -0.13538062081E+04  0.13538062081E+04  0.50400001928E-02 0.  1.
    10030    2    1    2    0    0  0.00000000000E+00  0.00000000000E+00  0.32051672569E+03  0.30281291419E+04  0.30111185843E+04 0.  0.
        3    1    3    3  502    0  0.44821111409E+03  0.19215282947E+03  0.15926972097E+04  0.16656831405E+04  0.10100000352E+00 0. -1.
       -3    1    3    3    0  502 -0.44821111409E+03 -0.19215282947E+03 -0.12721804840E+04  0.13624460014E+04  0.10100000352E+00 0.  1.
</event>
<event>
 5   0  0.7899402E-07  0.3377608E+04  0.7818609E-02  0.8143424E-01
        2   -1    0    0  501    0  0.00000000000E+00  0.00000000000E+00  0.24925377358E+04  0.24925377358E+04  0.25500000920E-02 0. -1.
       -2   -1    0    0    0  501  0.00000000000E+00  0.00000000000E+00 -0.11442393150E+04  0.11442393150E+04  0.25500000920E-02 0.  1.
    10030    2    1    2    0    0  0.00000000000E+00  0.00000000000E+00  0.13482984208E+04  0.36367770508E+04  0.33776084269E+04 0.  0.
        2    1    3    3  502    0 -0.11638105673E+04  0.14041906090E+03 -0.63481571886E+03  0.13331029766E+04  0.25500000920E-02 0.  1.
       -2    1    3    3    0  502  0.11638105673E+04 -0.14041906090E+03  0.19831141397E+04  0.23036740742E+04  0.25500000920E-02 0. -1.
</event>
<event>
 5   0  0.2553250E-07  0.3398962E+04  0.7818609E-02  0.8138161E-01
        3   -1    0    0  501    0  0.00000000000E+00  0.00000000000E+00  0.14594137798E+04  0.14594137833E+04  0.10100000352E+00 0. -1.
       -3   -1    0    0    0  501  0.00000000000E+00  0.00000000000E+00 -0.19790381534E+04  0.19790381560E+04  0.10100000352E+00 0.  1.
    10030    2    1    2    0    0  0.00000000000E+00  0.00000000000E+00 -0.51962437358E+03  0.34384519393E+04  0.33989619370E+04 0.  0.
        2    1    3    3  502    0  0.11373348306E+04  0.12548073877E+04 -0.11616429948E+03  0.16975176704E+04  0.25500000920E-02 0. -1.
       -2    1    3    3    0  502 -0.11373348306E+04 -0.12548073877E+04 -0.40346007410E+03  0.17409342688E+04  0.25500000920E-02 0.  1.
</event>
<event>
 5   0  0.2592200E-07  0.3379846E+04  0.7818609E-02  0.8142870E-01
       -1   -1    0    0    0  501  0.00000000000E+00  0.00000000000E+00  0.19445107783E+04  0.19445107783E+04  0.50400001928E-02 0. -1.
        1   -1    0    0  501    0  0.00000000000E+00  0.00000000000E+00 -0.14686679051E+04  0.14686679051E+04  0.50400001928E-02 0.  1.
    10030    2    1    2    0    0  0.00000000000E+00  0.00000000000E+00  0.47584287326E+03  0.34131786834E+04  0.33798464884E+04 0.  0.
        4    1    3    3  502    0  0.13371775573E+02  0.39856273897E+03 -0.14204700326E+04  0.14753873348E+04  0.12699999809E+01 0.  1.
       -4    1    3    3    0  502 -0.13371775573E+02 -0.39856273897E+03  0.18963129058E+04  0.19377913487E+04  0.12699999809E+01 0. -1.
</event>
<event>
 5   0  0.7899402E-07  0.3311867E+04  0.7818609E-02  0.8159882E-01
       -2   -1    0    0    0  501  0.00000000000E+00  0.00000000000E+00  0.18580212212E+04  0.18580212212E+04  0.25500000920E-02 0. -1.
        2   -1    0    0  501    0  0.00000000000E+00  0.00000000000E+00 -0.14758255314E+04  0.14758255314E+04  0.25500000920E-02 0.  1.
    10030    2    1    2    0    0  0.00000000000E+00  0.00000000000E+00  0.38219568980E+03  0.33338467526E+04  0.33118666375E+04 0.  0.
        2    1    3    3  502    0 -0.14959829583E+04 -0.44599722534E+03  0.74724678014E+03  0.17306808738E+04  0.25500000920E-02 0. -1.
       -2    1    3    3    0  502  0.14959829583E+04  0.44599722534E+03 -0.36505109035E+03  0.16031658788E+04  0.25500000920E-02 0.  1.
</event>
<event>
 5   0  0.2553250E-07  0.3423487E+04  0.7818609E-02  0.8132166E-01
       -1   -1    0    0    0  501  0.00000000000E+00  0.00000000000E+00  0.25053843828E+04  0.25053843828E+04  0.50400001928E-02 0.  1.
        1   -1    0    0  501    0  0.00000000000E+00  0.00000000000E+00 -0.11695076617E+04  0.11695076617E+04  0.50400001928E-02 0. -1.
    10030    2    1    2    0    0  0.00000000000E+00  0.00000000000E+00  0.13358767211E+04  0.36748920445E+04  0.34234872462E+04 0.  0.
        5    1    3    3  502    0  0.67111498477E+03 -0.12705455222E+04 -0.33062357244E+03  0.14744542324E+04  0.46999998093E+01 0. -1.
       -5    1    3    3    0  502 -0.67111498477E+03  0.12705455222E+04  0.16665002935E+04  0.22004378121E+04  0.46999998093E+01 0.  1.
</event>
<event>
 5   0  0.2553250E-07  0.3515584E+04  0.7818609E-02  0.8110107E-01
       -1   -1    0    0    0  501  0.00000000000E+00  0.00000000000E+00  0.13648388913E+04  0.13648388913E+04  0.50400001928E-02 0.  1.
        1   -1    0    0  501    0  0.00000000000E+00  0.00000000000E+00 -0.22638808361E+04  0.22638808361E+04  0.50400001928E-02 0. -1.
    10030    2    1    2    0    0  0.00000000000E+00  0.00000000000E+00 -0.89904194476E+03  0.36287197274E+04  0.35155839404E+04 0.  0.
        5    1    3    3  502    0 -0.15194920912E+04 -0.13788422790E+03 -0.13505047685E+04  0.20375852118E+04  0.46999998093E+01 0. -1.
       -5    1    3    3    0  502  0.15194920912E+04  0.13788422790E+03  0.45146282374E+03  0.15911345156E+04  0.46999998093E+01 0.  1.
</event>
<event>
 5   0  0.2622205E-07  0.3413799E+04  0.7818609E-02  0.8134528E-01
        1   -1    0    0  501    0  0.00000000000E+00  0.00000000000E+00  0.20209324656E+04  0.20209324656E+04  0.50400001928E-02 0.  1.
       -1   -1    0    0    0  501  0.00000000000E+00  0.00000000000E+00 -0.14416644749E+04  0.14416644749E+04  0.50400001928E-02 0. -1.
    10030    2    1    2    0    0  0.00000000000E+00  0.00000000000E+00  0.57926799073E+03  0.34625969405E+04  0.34137993742E+04 0.  0.
        3    1    3    3  502    0 -0.64165819607E+03  0.15817015707E+04  0.28842012223E+03  0.17310953979E+04  0.10100000352E+00 0.  1.
       -3    1    3    3    0  502  0.64165819607E+03 -0.15817015707E+04  0.29084786850E+03  0.17315015427E+04  0.10100000352E+00 0. -1.
</event>
<event>
 5   0  0.2599367E-07  0.3419852E+04  0.7818609E-02  0.8133051E-01
       -1   -1    0    0    0  501  0.00000000000E+00  0.00000000000E+00  0.19968914589E+04  0.19968914589E+04  0.50400001928E-02 0. -1.
        1   -1    0    0  501    0  0.00000000000E+00  0.00000000000E+00 -0.14641990871E+04  0.14641990871E+04  0.50400001928E-02 0.  1.
    10030    2    1    2    0    0  0.00000000000E+00  0.00000000000E+00  0.53269237179E+03  0.34610905460E+04  0.34198518395E+04 0.  0.
        2    1    3    3  502    0 -0.10191009426E+04  0.25884804241E+03  0.16310417044E+04  0.19405839538E+04  0.25500000920E-02 0. -1.
       -2    1    3    3    0  502  0.10191009426E+04 -0.25884804241E+03 -0.10983493326E+04  0.15205065921E+04  0.25500000920E-02 0.  1.
</event>
<event>
 5   0  0.7822003E-07  0.3361554E+04  0.7818609E-02  0.8147407E-01
        2   -1    0    0  501    0  0.00000000000E+00  0.00000000000E+00  0.25834478988E+04  0.25834478988E+04  0.25500000920E-02 0.  1.
       -2   -1    0    0    0  501  0.00000000000E+00  0.00000000000E+00 -0.10935041712E+04  0.10935041712E+04  0.25500000920E-02 0. -1.
    10030    2    1    2    0    0  0.00000000000E+00  0.00000000000E+00  0.14899437276E+04  0.36769520700E+04  0.33615538392E+04 0.  0.
        5    1    3    3  502    0  0.76799164447E+03 -0.48925681882E+03 -0.80030752434E+03  0.12123108612E+04  0.46999998093E+01 0. -1.
       -5    1    3    3    0  502 -0.76799164447E+03  0.48925681882E+03  0.22902512520E+04  0.24646412088E+04  0.46999998093E+01 0.  1.
</event>
<event>
 5   0  0.2592200E-07  0.3404850E+04  0.7818609E-02  0.8136717E-01
       -1   -1    0    0    0  501  0.00000000000E+00  0.00000000000E+00  0.11659267513E+04  0.11659267513E+04  0.50400001928E-02 0.  1.
        1   -1    0    0  501    0  0.00000000000E+00  0.00000000000E+00 -0.24857919010E+04  0.24857919010E+04  0.50400001928E-02 0. -1.
    10030    2    1    2    0    0  0.00000000000E+00  0.00000000000E+00 -0.13198651497E+04  0.36517186523E+04  0.34048502320E+04 0.  0.
        4    1    3    3  502    0  0.20292195614E+03 -0.94617163651E+03  0.84227572276E+03  0.12829061119E+04  0.12699999809E+01 0.  1.
       -4    1    3    3    0  502 -0.20292195614E+03  0.94617163651E+03 -0.21621408725E+04  0.23688125404E+04  0.12699999809E+01 0. -1.
</event>
<event>
 5   0  0.2553250E-07  0.3375096E+04  0.7818609E-02  0.8144046E-01
        1   -1    0    0  501    0  0.00000000000E+00  0.00000000000E+00  0.22632735069E+04  0.22632735069E+04  0.50400001928E-02 0. -1.
       -1   -1    0    0    0  501  0.00000000000E+00  0.00000000000E+00 -0.12582742514E+04  0.12582742514E+04  0.50400001928E-02 0.  1.
    10030    2    1    2    0    0  0.00000000000E+00  0.00000000000E+00  0.10049992555E+04  0.35215477583E+04  0.33750963113E+04 0.  0.
        5    1    3    3  502    0  0.35446490088E+03  0.12415087642E+04  0.16363008708E+04  0.20843445030E+04  0.46999998093E+01 0. -1.
       -5    1    3    3    0  502 -0.35446490088E+03 -0.12415087642E+04 -0.63130161538E+03  0.14372032553E+04  0.46999998093E+01 0.  1.
</event>
<event>
 5   0  0.7899402E-07  0.3393059E+04  0.7818609E-02  0.8139612E-01
        2   -1    0    0  501    0  0.00000000000E+00  0.00000000000E+00  0.20229131466E+04  0.20229131466E+04  0.25500000920E-02 0.  1.
       -2   -1    0    0    0  501  0.00000000000E+00  0.00000000000E+00 -0.14228053194E+04  0.14228053195E+04  0.25500000920E-02 0. -1.
    10030    2    1    2    0    0  0.00000000000E+00  0.00000000000E+00  0.60010782718E+03  0.34457184661E+04  0.33930585529E+04 0.  0.
        2    1    3    3  502    0  0.89094962525E+03  0.11198347848E+04  0.12254541318E+04  0.18840273377E+04  0.25500000920E-02 0.  1.
       -2    1    3    3    0  502 -0.89094962525E+03 -0.11198347848E+04 -0.62534630463E+03  0.15616911284E+04  0.25500000920E-02 0. -1.
</event>
<event>
 5   0  0.2599367E-07  0.3397415E+04  0.7818609E-02  0.8138541E-01
        1   -1    0    0  501    0  0.00000000000E+00  0.00000000000E+00  0.16896026308E+04  0.16896026308E+04  0.50400001928E-02 0. -1.
       -1   -1    0    0    0  501  0.00000000000E+00  0.00000000000E+00 -0.17078612133E+04  0.17078612133E+04  0.50400001928E-02 0.  1.
    10030    2    1    2    0    0  0.00000000000E+00  0.00000000000E+00 -0.18258582533E+02  0.33974638442E+04  0.33974147814E+04 0.  0.
        2    1    3    3  502    0 -0.14928669852E+03 -0.64315959239E+03  0.15560342057E+04  0.16903204516E+04  0.25500000920E-02 0. -1.
       -2    1    3    3    0  502  0.14928669852E+03  0.64315959239E+03 -0.15742927883E+04  0.17071433926E+04  0.25500000920E-02 0.  1.
</event>
<event>
 5   0  0.7822003E-07  0.3403294E+04  0.7818609E-02  0.8137098E-01
       -2   -1    0    0    0  501  0.00000000000E+00  0.00000000000E+00  0.23266694565E+04  0.23266694565E+04  0.25500000920E-02 0.  1.
        2   -1    0    0  501    0  0.00000000000E+00  0.00000000000E+00 -0.12445268299E+04  0.12445268299E+04  0.25500000920E-02 0. -1.
    10030    2    1    2    0    0  0.00000000000E+00  0.00000000000E+00  0.10821426266E+04  0.35711962864E+04  0.34032940296E+04 0.  0.
        5    1    3    3  502    0  0.48168278627E+03 -0.39868613310E+03 -0.11196028828E+04  0.12823812399E+04  0.46999998093E+01 0. -1.
       -5    1    3    3    0  502 -0.48168278627E+03  0.39868613310E+03  0.22017455093E+04  0.22888150465E+04  0.46999998093E+01 0.  1.
</event>
<event>
 5   0  0.2641442E-07  0.3367288E+04  0.7818609E-02  0.8145982E-01
       -1   -1    0    0    0  501  0.00000000000E+00  0.00000000000E+00  0.32145379344E+04  0.32145379344E+04  0.50400001928E-02 0. -1.
        1   -1    0    0  501    0  0.00000000000E+00  0.00000000000E+00 -0.88182390837E+03  0.88182390839E+03  0.50400001928E-02 0.  1.
    10030    2    1    2    0    0  0.00000000000E+00  0.00000000000E+00  0.23327140261E+04  0.40963618428E+04  0.33672875761E+04 0.  0.
        1    1    3    3  502    0 -0.43852970558E+03 -0.16152865553E+04  0.13880083954E+04  0.21744025074E+04  0.50400001928E-02 0.  1.
       -1    1    3    3    0  502  0.43852970558E+03  0.16152865553E+04  0.94470563064E+03  0.19219593354E+04  0.50400001928E-02 0. -1.
</event>
<event>
 5   0  0.8489228E-07  0.3404651E+04  0.7818609E-02  0.8136766E-01
       -2   -1    0    0    0  501  0.00000000000E+00  0.00000000000E+00  0.29464205226E+04  0.29464205226E+04  0.25500000920E-02 0.  1.
        2   -1    0    0  501    0  0.00000000000E+00  0.00000000000E+00 -0.98353625251E+03  0.98353625251E+03  0.25500000920E-02 0. -1.
    10030    2    1    2    0    0  0.00000000000E+00  0.00000000000E+00  0.19628842701E+04  0.39299567751E+04  0.34046505836E+04 0.  0.
        3    1    3    3  502    0  0.10460029690E+04 -0.67083367996E+03 -0.36159458251E+03  0.12941756796E+04  0.10100000352E+00 0. -1.
       -3    1    3    3    0  502 -0.10460029690E+04  0.67083367996E+03  0.23244788526E+04  0.26357810955E+04  0.10100000352E+00 0.  1.
</event>
<event>
 5   0  0.7822003E-07  0.3341799E+04  0.7818609E-02  0.8152340E-01
        2   -1    0    0  501    0  0.00000000000E+00  0.00000000000E+00  0.18359729482E+04  0.18359729482E+04  0.25500000920E-02 0.  1.
       -2   -1    0    0    0  501  0.00000000000E+00  0.00000000000E+00 -0.15206679820E+04  0.15206679820E+04  0.25500000920E-02 0. -1.
    10030    2    1    2    0    0  0.00000000000E+00  0.00000000000E+00  0.31530496625E+03  0.33566409302E+04  0.33417990832E+04 0.  0.
        5    1    3    3  502    0 -0.65082244019E+03  0.15182418955E+04  0.41027472781E+03  0.17020504529E+04  0.46999998093E+01 0.  1.
       -5    1    3    3    0  502  0.65082244019E+03 -0.15182418955E+04 -0.94969761568E+02  0.16545904773E+04  0.46999998093E+01 0. -1.
</event>
<event>
 5   0  0.2641442E-07  0.3331751E+04  0.7818609E-02  0.8154863E-01
       -1   -1    0    0    0  501  0.00000000000E+00  0.00000000000E+00  0.11856365462E+04  0.11856365462E+04  0.50400001928E-02 0. -1.
        1   -1    0    0  501    0  0.00000000000E+00  0.00000000000E+00 -0.23406343801E+04  0.23406343801E+04  0.50400001928E-02 0.  1.
    10030    2    1    2    0    0  0.00000000000E+00  0.00000000000E+00 -0.11549978339E+04  0.35262709263E+04  0.33317512886E+04 0.  0.
        1    1    3    3  502    0  0.11083567520E+04  0.67349782846E+03  0.52904994376E+03  0.14006954907E+04  0.50400001928E-02 0. -1.
       -1    1    3    3    0  502 -0.11083567520E+04 -0.67349782846E+03 -0.16840477776E+04  0.21255754355E+04  0.50400001928E-02 0.  1.
</event>
<event>
 5   0  0.7899402E-07  0.3380099E+04  0.7818609E-02  0.8142808E-01
       -2   -1    0    0    0  501  0.00000000000E+00  0.00000000000E+00  0.18973778538E+04  0.18973778538E+04  0.25500000920E-02 0. -1.
        2   -1    0    0  501    0  0.00000000000E+00  0.00000000000E+00 -0.15053758044E+04  0.15053758044E+04  0.25500000920E-02 0.  1.
    10030    2    1    2    0    0  0.00000000000E+00  0.00000000000E+00  0.39200204948E+03  0.34027536582E+04  0.33800986453E+04 0.  0.
        2    1    3    3  502    0 -0.32343078485E+02  0.49753242754E+03  0.18216563062E+04  0.18886546241E+04  0.25500000920E-02 0. -1.
       -2    1    3    3    0  502  0.32343078485E+02 -0.49753242754E+03 -0.14296542568E+04  0.15140990341E+04  0.25500000920E-02 0.  1.
</event>
<event>
 5   0  0.7822003E-07  0.3399810E+04  0.7818609E-02  0.8137953E-01
        2   -1    0    0  501    0  0.00000000000E+00  0.00000000000E+00  0.20178189880E+04  0.20178189880E+04  0.25500000920E-02 0.  1.
       -2   -1    0    0    0  501  0.00000000000E+00  0.00000000000E+00 -0.14320796169E+04  0.14320796169E+04  0.25500000920E-02 0. -1.
    10030    2    1    2    0    0  0.00000000000E+00  0.00000000000E+00  0.58573937115E+03  0.34498986049E+04  0.33998102555E+04 0.  0.
        5    1    3    3  502    0  0.96267098678E+03 -0.16118352488E+03 -0.11193742305E+04  0.14851721501E+04  0.46999998093E+01 0. -1.
       -5    1    3    3    0  502 -0.96267098678E+03  0.16118352488E+03  0.17051136017E+04  0.19647264548E+04  0.46999998093E+01 0.  1.
</event>
<event>
 5   0  0.2599367E-07  0.3394925E+04  0.7818609E-02  0.8139153E-01
       -1   -1    0    0    0  501  0.00000000000E+00  0.00000000000E+00  0.15134951169E+04  0.15134951169E+04  0.50400001928E-02 0. -1.
        1   -1    0    0  501    0  0.00000000000E+00  0.00000000000E+00 -0.19037919160E+04  0.19037919160E+04  0.50400001928E-02 0.  1.
    10030    2    1    2    0    0  0.00000000000E+00  0.00000000000E+00 -0.39029679917E+03  0.34172870329E+04  0.33949254887E+04 0.  0.
        2    1    3    3  502    0 -0.11203177878E+04 -0.86154102164E+03 -0.11415620639E+04  0.18167357605E+04  0.25500000920E-02 0.  1.
       -2    1    3    3    0  502  0.11203177878E+04  0.86154102164E+03  0.75126526478E+03  0.16005512724E+04  0.25500000920E-02 0. -1.
</event>
<event>
 5   0  0.7822003E-07  0.3410758E+04  0.7818609E-02  0.8135271E-01
       -2   -1    0    0    0  501  0.00000000000E+00  0.00000000000E+00  0.11795523752E+04  0.11795523752E+04  0.25500000920E-02 0.  1.
        2   -1    0    0  501    0  0.00000000000E+00  0.00000000000E+00 -0.24656111107E+04  0.24656111107E+04  0.25500000920E-02 0. -1.
    10030    2    1    2    0    0  0.00000000000E+00  0.00000000000E+00 -0.12860587355E+04  0.36451634858E+04  0.34107579462E+04 0.  0.
        5    1    3    3  502    0  0.92172838892E+03 -0.14299698206E+04 -0.51703557320E+03  0.17781295748E+04  0.46999998093E+01 0. -1.
       -5    1    3    3    0  502 -0.92172838892E+03  0.14299698206E+04 -0.76902316229E+03  0.18670339110E+04  0.46999998093E+01 0.  1.
</event>
<event>
 5   0  0.2592200E-07  0.3394494E+04  0.7818609E-02  0.8139259E-01
       -1   -1    0    0    0  501  0.00000000000E+00  0.00000000000E+00  0.25693733587E+04  0.25693733587E+04  0.50400001928E-02 0. -1.
        1   -1    0    0  501    0  0.00000000000E+00  0.00000000000E+00 -0.11211476334E+04  0.11211476334E+04  0.50400001928E-02 0.  1.
    10030    2    1    2    0    0  0.00000000000E+00  0.00000000000E+00  0.14482257253E+04  0.36905209921E+04  0.33944936945E+04 0.  0.
        4    1    3    3  502    0 -0.16123459254E+03  0.52919913208E+03  0.24685980953E+04  0.25298273626E+04  0.12699999809E+01 0. -1.
       -4    1    3    3    0  502  0.16123459254E+03 -0.52919913208E+03 -0.10203723701E+04  0.11606936296E+04  0.12699999809E+01 0.  1.
</event>
<event>
 5   0  0.2553250E-07  0.3383827E+04  0.7818609E-02  0.8141887E-01
       -1   -1    0    0    0  501  0.00000000000E+00  0.00000000000E+00  0.20950091074E+04  0.20950091074E+04  0.50400001928E-02 0. -1.
        1   -1    0    0  501    0  0.00000000000E+00  0.00000000000E+00 -0.13663763416E+04  0.13663763416E+04  0.50400001928E-02 0.  1.
    10030    2    1    2    0    0  0.00000000000E+00  0.00000000000E+00  0.72863276583E+03  0.34613854490E+04  0.33838267567E+04 0.  0.
        5    1    3    3  502    0 -0.74803672453E+03  0.13161858015E+04  0.11370410385E+04  0.18933537489E+04  0.46999998093E+01 0. -1.
       -5    1    3    3    0  502  0.74803672453E+03 -0.13161858015E+04 -0.40840827271E+03  0.15680317001E+04  0.46999998093E+01 0.  1.
</event>
<event>
 5   0  0.2553250E-07  0.3387384E+04  0.7818609E-02  0.8141010E-01
       -1   -1    0    0    0  501  0.00000000000E+00  0.00000000000E+00  0.24986107427E+04  0.24986107427E+04  0.50400001928E-02 0. -1.
        1   -1    0    0  501    0  0.00000000000E+00  0.00000000000E+00 -0.11480747271E+04  0.11480747271E+04  0.50400001928E-02 0.  1.
    10030    2    1    2    0    0  0.00000000000E+00  0.00000000000E+00  0.13505360157E+04  0.36466854698E+04  0.33873835606E+04 0.  0.
        5    1    3    3  502    0 -0.64397393978E+03  0.14047123596E+04  0.14216284857E+04  0.20997544832E+04  0.46999998093E+01 0. -1.
       -5    1    3    3    0  502  0.64397393978E+03 -0.14047123596E+04 -0.71092470012E+02  0.15469309867E+04  0.46999998093E+01 0.  1.
</event>
<event>
 5   0  0.2553250E-07  0.3376355E+04  0.7818609E-02  0.8143734E-01
       -3   -1    0    0    0  501  0.00000000000E+00  0.00000000000E+00  0.18332515636E+04  0.18332515664E+04  0.10100000352E+00 0. -1.
        3   -1    0    0  501    0  0.00000000000E+00  0.00000000000E+00 -0.15545835421E+04  0.15545835454E+04  0.10100000352E+00 0.  1.
    10030    2    1    2    0    0  0.00000000000E+00  0.00000000000E+00  0.27866802150E+03  0.33878351118E+04  0.33763546731E+04 0.  0.
        4    1    3    3  502    0 -0.12570324378E+04 -0.76871869252E+02 -0.98872229885E+03  0.16011287366E+04  0.12699999809E+01 0.  1.
       -4    1    3    3    0  502  0.12570324378E+04  0.76871869252E+02  0.12673903204E+04  0.17867063752E+04  0.12699999809E+01 0. -1.
</event>
<event>
 5   0  0.8489228E-07  0.3389540E+04  0.7818609E-02  0.8140478E-01
        2   -1    0    0  501    0  0.00000000000E+00  0.00000000000E+00  0.24231450943E+04  0.24231450943E+04  0.25500000920E-02 0. -1.
       -2   -1    0    0    0  501  0.00000000000E+00  0.00000000000E+00 -0.11853375961E+04  0.11853375961E+04  0.25500000920E-02 0.  1.
    10030    2    1    2    0    0  0.00000000000E+00  0.00000000000E+00  0.12378074982E+04  0.36084826904E+04  0.33895397806E+04 0.  0.
        3    1    3    3  502    0 -0.77953293389E+03 -0.10350022762E+04  0.17818687820E+04  0.22031699147E+04  0.10100000352E+00 0. -1.
       -3    1    3    3    0  502  0.77953293389E+03  0.10350022762E+04 -0.54406128377E+03  0.14053127757E+04  0.10100000352E+00 0.  1.
</event>
<event>
 5   0  0.2553250E-07  0.3379320E+04  0.7818609E-02  0.8143001E-01
       -1   -1    0    0    0  501  0.00000000000E+00  0.00000000000E+00  0.20039403722E+04  0.20039403722E+04  0.50400001928E-02 0. -1.
        1   -1    0    0  501    0  0.00000000000E+00  0.00000000000E+00 -0.14246688331E+04  0.14246688331E+04  0.50400001928E-02 0.  1.
    10030    2    1    2    0    0  0.00000000000E+00  0.00000000000E+00  0.57927153908E+03  0.34286092053E+04  0.33793202818E+04 0.  0.
        5    1    3    3  502    0  0.11174318695E+04  0.91232614044E+03  0.11822036397E+04  0.18651060306E+04  0.46999998093E+01 0. -1.
       -5    1    3    3    0  502 -0.11174318695E+04 -0.91232614044E+03 -0.60293210066E+03  0.15635031748E+04  0.46999998093E+01 0.  1.
</event>
<event>
 5   0  0.2553250E-07  0.3397277E+04  0.7818609E-02  0.8138575E-01
       -1   -1    0    0    0  501  0.00000000000E+00  0.00000000000E+00  0.13610433773E+04  0.13610433773E+04  0.50400001928E-02 0.  1.
        1   -1    0    0  501    0  0.00000000000E+00  0.00000000000E+00 -0.21199712437E+04  0.21199712437E+04  0.50400001928E-02 0. -1.
    10030    2    1    2    0    0  0.00000000000E+00  0.00000000000E+00 -0.75892786641E+03  0.34810146209E+04  0.33972770398E+04 0.  0.
        5    1    3    3  502    0 -0.14500477392E+04 -0.65969162060E+03  0.22457414505E+03  0.16088154390E+04  0.46999998093E+01 0. -1.
       -5    1    3    3    0  502  0.14500477392E+04  0.65969162060E+03 -0.98350201146E+03  0.18721991819E+04  0.46999998093E+01 0.  1.
</event>
<event>
 5   0  0.8489228E-07  0.3465154E+04  0.7818609E-02  0.8122098E-01
       -2   -1    0    0    0  501  0.00000000000E+00  0.00000000000E+00  0.16061733411E+04  0.16061733411E+04  0.25500000920E-02 0.  1.
        2   -1    0    0  501    0  0.00000000000E+00  0.00000000000E+00 -0.18689282674E+04  0.18689282674E+04  0.25500000920E-02 0. -1.
    10030    2    1    2    0    0  0.00000000000E+00  0.00000000000E+00 -0.26275492632E+03  0.34751016086E+04  0.34651538261E+04 0.  0.
        3    1    3    3  502    0 -0.12326645217E+04  0.10501333204E+04  0.48649264468E+03  0.16908332021E+04  0.10100000352E+00 0. -1.
       -3    1    3    3    0  502  0.12326645217E+04 -0.10501333204E+04 -0.74924757100E+03  0.17842684065E+04  0.10100000352E+00 0.  1.
</event>
<event>
 5   0  0.7838333E-07  0.3305502E+04  0.7818609E-02  0.8161497E-01
        2   -1    0    0  501    0  0.00000000000E+00  0.00000000000E+00  0.27468338921E+04  0.27468338921E+04  0.25500000920E-02 0.  1.
       -2   -1    0    0    0  501  0.00000000000E+00  0.00000000000E+00 -0.99444866604E+03  0.99444866604E+03  0.25500000920E-02 0. -1.
    10030    2    1    2    0    0  0.00000000000E+00  0.00000000000E+00  0.17523852261E+04  0.37412825581E+04  0.33055016562E+04 0.  0.
        1    1    3    3  502    0 -0.10699635557E+04 -0.31980377704E+03  0.22552158929E+04  0.25165641637E+04  0.50400001928E-02 0.  1.
       -1    1    3    3    0  502  0.10699635557E+04  0.31980377704E+03 -0.50283066681E+03  0.12247183945E+04  0.50400001928E-02 0. -1.
</event>
<event>
 5   0  0.7610412E-07  0.3408238E+04  0.7818609E-02  0.8135887E-01
        2   -1    0    0  501    0  0.00000000000E+00  0.00000000000E+00  0.11884138104E+04  0.11884138104E+04  0.25500000920E-02 0.  1.
       -2   -1    0    0    0  501  0.00000000000E+00  0.00000000000E+00 -0.24436118887E+04  0.24436118887E+04  0.25500000920E-02 0. -1.
    10030    2    1    2    0    0  0.00000000000E+00  0.00000000000E+00 -0.12551980783E+04  0.36320256991E+04  0.34082383225E+04 0.  0.
        4    1    3    3  502    0 -0.60004581441E+02 -0.13158472378E+04 -0.17797778849E+04  0.22141963407E+04  0.12699999809E+01 0. -1.
       -4    1    3    3    0  502  0.60004581441E+02  0.13158472378E+04  0.52457980660E+03  0.14178293583E+04  0.12699999809E+01 0.  1.
</event>
<event>
 5   0  0.2599367E-07  0.3272161E+04  0.7818609E-02  0.8170015E-01
        1   -1    0    0  501    0  0.00000000000E+00  0.00000000000E+00  0.28806504930E+04  0.28806504930E+04  0.50400001928E-02 0. -1.
       -1   -1    0    0    0  501  0.00000000000E+00  0.00000000000E+00 -0.92922069861E+03  0.92922069862E+03  0.50400001928E-02 0.  1.
    10030    2    1    2    0    0  0.00000000000E+00  0.00000000000E+00  0.19514297944E+04  0.38098711917E+04  0.32721614041E+04 0.  0.
        2    1    3    3  502    0  0.92393924597E+03  0.25511717170E+03  0.25194985526E+04  0.26956671638E+04  0.25500000920E-02 0. -1.
       -2    1    3    3    0  502 -0.92393924597E+03 -0.25511717170E+03 -0.56806875821E+03  0.11142040278E+04  0.25500000920E-02 0.  1.
</event>
<event>
 5   0  0.7822003E-07  0.3387640E+04  0.7818609E-02  0.8140946E-01
        2   -1    0    0  501    0  0.00000000000E+00  0.00000000000E+00  0.21199120030E+04  0.21199120030E+04  0.25500000920E-02 0. -1.
       -2   -1    0    0    0  501  0.00000000000E+00  0.00000000000E+00 -0.13533707606E+04  0.13533707606E+04  0.25500000920E-02 0.  1.
    10030    2    1    2    0    0  0.00000000000E+00  0.00000000000E+00  0.76654124246E+03  0.34732827636E+04  0.33876404295E+04 0.  0.
        5    1    3    3  502    0 -0.30419690554E+03 -0.16083299993E+04  0.82987862349E+03  0.18352061910E+04  0.46999998093E+01 0.  1.
       -5    1    3    3    0  502  0.30419690554E+03  0.16083299993E+04 -0.63337381034E+02  0.16380765726E+04  0.46999998093E+01 0. -1.
</event>
<event>
 5   0  0.2592200E-07  0.3398954E+04  0.7818609E-02  0.8138163E-01
        1   -1    0    0  501    0  0.00000000000E+00  0.00000000000E+00  0.14724269940E+04  0.14724269940E+04  0.50400001928E-02 0.  1.
       -1   -1    0    0    0  501  0.00000000000E+00  0.00000000000E+00 -0.19615386563E+04  0.19615386563E+04  0.50400001928E-02 0. -1.
    10030    2    1    2    0    0  0.00000000000E+00  0.00000000000E+00 -0.48911166235E+03  0.34339656503E+04  0.33989542317E+04 0.  0.
        4    1    3    3  502    0 -0.11791641451E+04 -0.43535218589E+02 -0.14802230975E+04  0.18929832085E+04  0.12699999809E+01 0. -1.
       -4    1    3    3    0  502  0.11791641451E+04  0.43535218589E+02  0.99111143511E+03  0.15409824419E+04  0.12699999809E+01 0.  1.
</event>
<event>
 5   0  0.7838333E-07  0.3407634E+04  0.7818609E-02  0.8136035E-01
        2   -1    0    0  501    0  0.00000000000E+00  0.00000000000E+00  0.17100336482E+04  0.17100336482E+04  0.25500000920E-02 0.  1.
       -2   -1    0    0    0  501  0.00000000000E+00  0.00000000000E+00 -0.16976230535E+04  0.16976230535E+04  0.25500000920E-02 0. -1.
    10030    2    1    2    0    0  0.00000000000E+00  0.00000000000E+00  0.12410594666E+02  0.34076567017E+04  0.34076341021E+04 0.  0.
        1    1    3    3  502    0 -0.10878945389E+03 -0.39170240900E+01 -0.16941418447E+04  0.16976357320E+04  0.50400001928E-02 0. -1.
       -1    1    3    3    0  502  0.10878945389E+03  0.39170240900E+01  0.17065524394E+04  0.17100209697E+04  0.50400001928E-02 0.  1.
</event>
<event>
 5   0  0.7822003E-07  0.3387113E+04  0.7818609E-02  0.8141076E-01
        2   -1    0    0  501    0  0.00000000000E+00  0.00000000000E+00  0.21567823399E+04  0.21567823399E+04  0.25500000920E-02 0. -1.
       -2   -1    0    0    0  501  0.00000000000E+00  0.00000000000E+00 -0.13298209810E+04  0.13298209810E+04  0.25500000920E-02 0.  1.
    10030    2    1    2    0    0  0.00000000000E+00  0.00000000000E+00  0.82696135893E+03  0.34866033209E+04  0.33871134655E+04 0.  0.
        5    1    3    3  502    0 -0.46451229125E+03 -0.12102985314E+04  0.15352225102E+04  0.20093592137E+04  0.46999998093E+01 0. -1.
       -5    1    3    3    0  502  0.46451229125E+03  0.12102985314E+04 -0.70826115129E+03  0.14772441072E+04  0.46999998093E+01 0.  1.
</event>
<event>
 5   0  0.7899402E-07  0.3407400E+04  0.7818609E-02  0.8136092E-01
        2   -1    0    0  501    0  0.00000000000E+00  0.00000000000E+00  0.16769458544E+04  0.16769458544E+04  0.25500000920E-02 0.  1.
       -2   -1    0    0    0  501  0.00000000000E+00  0.00000000000E+00 -0.17308813949E+04  0.17308813950E+04  0.25500000920E-02 0. -1.
    10030    2    1    2    0    0  0.00000000000E+00  0.00000000000E+00 -0.53935540522E+02  0.34078272494E+04  0.34074004049E+04 0.  0.
        2    1    3    3  502    0 -0.10599341758E+04  0.13143053097E+04  0.20051506052E+03  0.17003132634E+04  0.25500000920E-02 0.  1.
       -2    1    3    3    0  502  0.10599341758E+04 -0.13143053097E+04 -0.25445060105E+03  0.17075139860E+04  0.25500000920E-02 0. -1.
</event>
<event>
 5   0  0.2641442E-07  0.3217760E+04  0.7818609E-02  0.8184143E-01
        1   -1    0    0  501    0  0.00000000000E+00  0.00000000000E+00  0.23395990984E+04  0.23395990984E+04  0.50400001928E-02 0. -1.
       -1   -1    0    0    0  501  0.00000000000E+00  0.00000000000E+00 -0.11063836029E+04  0.11063836030E+04  0.50400001928E-02 0.  1.
    10030    2    1    2    0    0  0.00000000000E+00  0.00000000000E+00  0.12332154954E+04  0.34459827013E+04  0.32177595186E+04 0.  0.
        1    1    3    3  502    0 -0.34249465133E+03  0.75824669177E+03  0.20913214009E+04  0.22507478387E+04  0.50400001928E-02 0. -1.
       -1    1    3    3    0  502  0.34249465133E+03 -0.75824669177E+03 -0.85810590545E+03  0.11952348626E+04  0.50400001928E-02 0.  1.
</event>
<event>
 5   0  0.2592200E-07  0.3420567E+04  0.7818609E-02  0.8132877E-01
        1   -1    0    0  501    0  0.00000000000E+00  0.00000000000E+00  0.15782793337E+04  0.15782793337E+04  0.50400001928E-02 0.  1.
       -1   -1    0    0    0  501  0.00000000000E+00  0.00000000000E+00 -0.18533283989E+04  0.18533283989E+04  0.50400001928E-02 0. -1.
    10030    2    1    2    0    0  0.00000000000E+00  0.00000000000E+00 -0.27504906515E+03  0.34316077326E+04  0.34205671521E+04 0.  0.
        4    1    3    3  502    0  0.12459209094E+04  0.11707054444E+04 -0.90488797350E+02  0.17120338739E+04  0.12699999809E+01 0.  1.
       -4    1    3    3    0  502 -0.12459209094E+04 -0.11707054444E+04 -0.18456026780E+03  0.17195738587E+04  0.12699999809E+01 0. -1.
</event>
<event>
 5   0  0.7899402E-07  0.3412095E+04  0.7818609E-02  0.8134944E-01
       -2   -1    0    0    0  501  0.00000000000E+00  0.00000000000E+00  0.14566331109E+04  0.14566331109E+04  0.25500000920E-02 0.  1.
        2   -1    0    0  501    0  0.00000000000E+00  0.00000000000E+00 -0.19981681386E+04  0.19981681386E+04  0.25500000920E-02 0. -1.
    10030    2    1    2    0    0  0.00000000000E+00  0.00000000000E+00 -0.54153502767E+03  0.34548012495E+04  0.34120948826E+04 0.  0.
        2    1    3    3  502    0  0.16872693982E+03 -0.33568883945E+03 -0.19557605609E+04  0.19915208130E+04  0.25500000920E-02 0. -1.
       -2    1    3    3    0  502 -0.16872693982E+03  0.33568883945E+03  0.14142255332E+04  0.14632804365E+04  0.25500000920E-02 0.  1.
</event>
<event>
 5   0  0.7822003E-07  0.3416468E+04  0.7818609E-02  0.8133876E-01
       -2   -1    0    0    0  501  0.00000000000E+00  0.00000000000E+00  0.19410011102E+04  0.19410011102E+04  0.25500000920E-02 0. -1.
        2   -1    0    0  501    0  0.00000000000E+00  0.00000000000E+00 -0.15033805336E+04  0.15033805336E+04  0.25500000920E-02 0.  1.
    10030    2    1    2    0    0  0.00000000000E+00  0.00000000000E+00  0.43762057665E+03  0.34443816438E+04  0.34164679332E+04 0.  0.
        5    1    3    3  502    0  0.76030686378E+03 -0.36565293012E+03 -0.12786782369E+04  0.15319297359E+04  0.46999998093E+01 0.  1.
       -5    1    3    3    0  502 -0.76030686378E+03  0.36565293012E+03  0.17162988135E+04  0.19124519078E+04  0.46999998093E+01 0. -1.
</event>
<event>
 5   0  0.2592200E-07  0.3403341E+04  0.7818609E-02  0.8137087E-01
        1   -1    0    0  501    0  0.00000000000E+00  0.00000000000E+00  0.10418172096E+04  0.10418172096E+04  0.50400001928E-02 0. -1.
       -1   -1    0    0    0  501  0.00000000000E+00  0.00000000000E+00 -0.27794534541E+04  0.27794534541E+04  0.50400001928E-02 0.  1.
    10030    2    1    2    0    0  0.00000000000E+00  0.00000000000E+00 -0.17376362445E+04  0.38212706636E+04  0.34033409713E+04 0.  0.
        4    1    3    3  502    0  0.11779492693E+04 -0.10348767052E+04 -0.16111803514E+04  0.22482077336E+04  0.12699999809E+01 0.  1.
       -4    1    3    3    0  502 -0.11779492693E+04  0.10348767052E+04 -0.12645589311E+03  0.15730629300E+04  0.12699999809E+01 0. -1.
</event>
<event>
 5   0  0.2599367E-07  0.3099973E+04  0.7818609E-02  0.8215745E-01
       -1   -1    0    0    0  501  0.00000000000E+00  0.00000000000E+00  0.12117915218E+04  0.12117915218E+04  0.50400001928E-02 0.  1.
        1   -1    0    0  501    0  0.00000000000E+00  0.00000000000E+00 -0.19825673829E+04  0.19825673829E+04  0.50400001928E-02 0. -1.
    10030    2    1    2    0    0  0.00000000000E+00  0.00000000000E+00 -0.77077586111E+03  0.31943589046E+04  0.30999731263E+04 0.  0.
        2    1    3    3  502    0  0.19618369209E+03  0.12559638918E+03 -0.19644272315E+04  0.19781902946E+04  0.25500000920E-02 0. -1.
       -2    1    3    3    0  502 -0.19618369209E+03 -0.12559638918E+03  0.11936513704E+04  0.12161686100E+04  0.25500000920E-02 0.  1.
</event>
<event>
 5   0  0.7610412E-07  0.3410078E+04  0.7818609E-02  0.8135437E-01
       -2   -1    0    0    0  501  0.00000000000E+00  0.00000000000E+00  0.12614144879E+04  0.12614144879E+04  0.25500000920E-02 0. -1.
        2   -1    0    0  501    0  0.00000000000E+00  0.00000000000E+00 -0.23046806538E+04  0.23046806538E+04  0.25500000920E-02 0.  1.
    10030    2    1    2    0    0  0.00000000000E+00  0.00000000000E+00 -0.10432661659E+04  0.35660951418E+04  0.34100777509E+04 0.  0.
        4    1    3    3  502    0  0.38722745737E+03  0.16059518714E+04 -0.80269504486E+02  0.16539260332E+04  0.12699999809E+01 0.  1.
       -4    1    3    3    0  502 -0.38722745737E+03 -0.16059518714E+04 -0.96299666140E+03  0.19121691086E+04  0.12699999809E+01 0. -1.
</event>
<event>
 5   0  0.2553250E-07  0.3368975E+04  0.7818609E-02  0.8145563E-01
       -1   -1    0    0    0  501  0.00000000000E+00  0.00000000000E+00  0.16373161081E+04  0.16373161081E+04  0.50400001928E-02 0. -1.
        1   -1    0    0  501    0  0.00000000000E+00  0.00000000000E+00 -0.17330177077E+04  0.17330177077E+04  0.50400001928E-02 0.  1.
    10030    2    1    2    0    0  0.00000000000E+00  0.00000000000E+00 -0.95701599592E+02  0.33703338158E+04  0.33689748045E+04 0.  0.
        5    1    3    3  502    0 -0.14869729572E+04 -0.50865550809E+03 -0.65444242118E+03  0.17023912517E+04  0.46999998093E+01 0.  1.
       -5    1    3    3    0  502  0.14869729572E+04  0.50865550809E+03  0.55874082159E+03  0.16679425640E+04  0.46999998093E+01 0. -1.
</event>
<event>
 5   0  0.7610412E-07  0.3381575E+04  0.7818609E-02  0.8142443E-01
       -2   -1    0    0    0  501  0.00000000000E+00  0.00000000000E+00  0.98231517210E+03  0.98231517210E+03  0.25500000920E-02 0.  1.
        2   -1    0    0  501    0  0.00000000000E+00  0.00000000000E+00 -0.29102289945E+04  0.29102289945E+04  0.25500000920E-02 0. -1.
    10030    2    1    2    0    0  0.00000000000E+00  0.00000000000E+00 -0.19279138224E+04  0.38925441666E+04  0.33815748376E+04 0.  0.
        4    1    3    3  502    0  0.10074365132E+04  0.11332234631E+04 -0.18250847981E+04  0.23727747214E+04  0.12699999809E+01 0. -1.
       -4    1    3    3    0  502 -0.10074365132E+04 -0.11332234631E+04 -0.10282902430E+03  0.15197694452E+04  0.12699999809E+01 0.  1.
</event>
<event>
 5   0  0.7610412E-07  0.3374151E+04  0.7818609E-02  0.8144280E-01
       -2   -1    0    0    0  501  0.00000000000E+00  0.00000000000E+00  0.13017457027E+04  0.13017457027E+04  0.25500000920E-02 0. -1.
        2   -1    0    0  501    0  0.00000000000E+00  0.00000000000E+00 -0.21864672168E+04  0.21864672168E+04  0.25500000920E-02 0.  1.
    10030    2    1    2    0    0  0.00000000000E+00  0.00000000000E+00 -0.88472151409E+03  0.34882129195E+04  0.33741513325E+04 0.  0.
        4    1    3    3  502    0 -0.21170706944E+03 -0.57010337697E+03 -0.20692107396E+04  0.21567272524E+04  0.12699999809E+01 0.  1.
       -4    1    3    3    0  502  0.21170706944E+03  0.57010337697E+03  0.11844892255E+04  0.13314856671E+04  0.12699999809E+01 0. -1.
</event>
<event>
 5   0  0.8489228E-07  0.3389298E+04  0.7818609E-02  0.8140538E-01
       -2   -1    0    0    0  501  0.00000000000E+00  0.00000000000E+00  0.10283351205E+04  0.10283351205E+04  0.25500000920E-02 0.  1.
        2   -1    0    0  501    0  0.00000000000E+00  0.00000000000E+00 -0.27927038519E+04  0.27927038519E+04  0.25500000920E-02 0. -1.
    10030    2    1    2    0    0  0.00000000000E+00  0.00000000000E+00 -0.17643687314E+04  0.38210389724E+04  0.33892981292E+04 0.  0.
        3    1    3    3  502    0 -0.96309956312E+03 -0.41856270586E+03  0.61731202139E+03  0.12181254653E+04  0.10100000352E+00 0.  1.
       -3    1    3    3    0  502  0.96309956312E+03  0.41856270586E+03 -0.23816807528E+04  0.26029135072E+04  0.10100000352E+00 0. -1.
</event>
<event>
 5   0  0.2599367E-07  0.3402233E+04  0.7818609E-02  0.8137359E-01
       -1   -1    0    0    0  501  0.00000000000E+00  0.00000000000E+00  0.19776392070E+04  0.19776392070E+04  0.50400001928E-02 0. -1.
        1   -1    0    0  501    0  0.00000000000E+00  0.00000000000E+00 -0.14632580777E+04  0.14632580777E+04  0.50400001928E-02 0.  1.
    10030    2    1    2    0    0  0.00000000000E+00  0.00000000000E+00  0.51438112926E+03  0.34408972848E+04  0.34022325285E+04 0.  0.
        2    1    3    3  502    0 -0.32462427347E+03  0.39038942379E+03  0.18992216887E+04  0.19659165404E+04  0.25500000920E-02 0. -1.
       -2    1    3    3    0  502  0.32462427347E+03 -0.39038942379E+03 -0.13848405594E+04  0.14749807443E+04  0.25500000920E-02 0.  1.
</event>
<event>
 5   0  0.2641442E-07  0.3385347E+04  0.7818609E-02  0.8141512E-01
       -1   -1    0    0    0  501  0.00000000000E+00  0.00000000000E+00  0.17242594001E+04  0.17242594001E+04  0.50400001928E-02 0.  1.
        1   -1    0    0  501    0  0.00000000000E+00  0.00000000000E+00 -0.16616661136E+04  0.16616661136E+04  0.50400001928E-02 0. -1.
    10030    2    1    2    0    0  0.00000000000E+00  0.00000000000E+00  0.62593286432E+02  0.33859255137E+04  0.33853469047E+04 0.  0.
        1    1    3    3  502    0 -0.97743937122E+03  0.13773735934E+04 -0.80961909802E+02  0.16908875099E+04  0.50400001928E-02 0.  1.
       -1    1    3    3    0  502  0.97743937122E+03 -0.13773735934E+04  0.14355519623E+03  0.16950380039E+04  0.50400001928E-02 0. -1.
</event>
<event>
 5   0  0.2553250E-07  0.3403086E+04  0.7818609E-02  0.8137149E-01
       -1   -1    0    0    0  501  0.00000000000E+00  0.00000000000E+00  0.12763565506E+04  0.12763565506E+04  0.50400001928E-02 0.  1.
        1   -1    0    0  501    0  0.00000000000E+00  0.00000000000E+00 -0.22683700401E+04  0.22683700402E+04  0.50400001928E-02 0. -1.
    10030    2    1    2    0    0  0.00000000000E+00  0.00000000000E+00 -0.99201348954E+03  0.35447265908E+04  0.34030862228E+04 0.  0.
        5    1    3    3  502    0  0.88881405864E+02 -0.92513300457E+03 -0.19806205293E+04  0.21878415737E+04  0.46999998093E+01 0. -1.
       -5    1    3    3    0  502 -0.88881405864E+02  0.92513300457E+03  0.98860703978E+03  0.13568850171E+04  0.46999998093E+01 0.  1.
</event>
<event>
 5   0  0.7838333E-07  0.3365275E+04  0.7818609E-02  0.8146482E-01
       -2   -1    0    0    0  501  0.00000000000E+00  0.00000000000E+00  0.16039505520E+04  0.16039505520E+04  0.25500000920E-02 0.  1.
        2   -1    0    0  501    0  0.00000000000E+00  0.00000000000E+00 -0.17651846870E+04  0.17651846870E+04  0.25500000920E-02 0. -1.
    10030    2    1    2    0    0  0.00000000000E+00  0.00000000000E+00 -0.16123413495E+03  0.33691352390E+04  0.33652749981E+04 0.  0.
        1    1    3    3  502    0  0.72411475623E+03  0.32004465482E+03  0.14058413295E+04  0.16134313140E+04  0.50400001928E-02 0.  1.
       -1    1    3    3    0  502 -0.72411475623E+03 -0.32004465482E+03 -0.15670754644E+04  0.17557039251E+04  0.50400001928E-02 0. -1.
</event>
<event>
 5   0  0.7822003E-07  0.3397078E+04  0.7818609E-02  0.8138624E-01
       -2   -1    0    0    0  501  0.00000000000E+00  0.00000000000E+00  0.13275924851E+04  0.13275924851E+04  0.25500000920E-02 0. -1.
        2   -1    0    0  501    0  0.00000000000E+00  0.00000000000E+00 -0.21731326169E+04  0.21731326169E+04  0.25500000920E-02 0.  1.
    10030    2    1    2    0    0  0.00000000000E+00  0.00000000000E+00 -0.84554013180E+03  0.35007251020E+04  0.33970778803E+04 0.  0.
        5    1    3    3  502    0  0.77441202151E+03 -0.31071797634E+03 -0.19473523282E+04  0.21185992589E+04  0.46999998093E+01 0.  1.
       -5    1    3    3    0  502 -0.77441202151E+03  0.31071797634E+03  0.11018121964E+04  0.13821258430E+04  0.46999998093E+01 0. -1.
</event>
<event>
 5   0  0.7610412E-07  0.3399895E+04  0.7818609E-02  0.8137932E-01
        2   -1    0    0  501    0  0.00000000000E+00  0.00000000000E+00  0.24519321508E+04  0.24519321508E+04  0.25500000920E-02 0. -1.
       -2   -1    0    0    0  501  0.00000000000E+00  0.00000000000E+00 -0.11785896041E+04  0.11785896041E+04  0.25500000920E-02 0.  1.
    10030    2    1    2    0    0  0.00000000000E+00  0.00000000000E+00  0.12733425467E+04  0.36305217550E+04  0.33998951413E+04 0.  0.
        4    1    3    3  502    0  0.13889794050E+04 -0.17511757053E+03 -0.39304920821E+03  0.14541042755E+04  0.12699999809E+01 0.  1.
       -4    1    3    3    0  502 -0.13889794050E+04  0.17511757053E+03  0.16663917549E+04  0.21764174795E+04  0.12699999809E+01 0. -1.
</event>
<event>
 5   0  0.2553250E-07  0.3382136E+04  0.7818609E-02  0.8142305E-01
        1   -1    0    0  501    0  0.00000000000E+00  0.00000000000E+00  0.19375584103E+04  0.19375584103E+04  0.50400001928E-02 0.  1.
       -1   -1    0    0    0  501  0.00000000000E+00  0.00000000000E+00 -0.14759353297E+04  0.14759353297E+04  0.50400001928E-02 0. -1.
    10030    2    1    2    0    0  0.00000000000E+00  0.00000000000E+00  0.46162308057E+03  0.34134937400E+04  0.33821359589E+04 0.  0.
        5    1    3    3  502    0 -0.11239545113E+04  0.11839902771E+04  0.67601598718E+03  0.17669539961E+04  0.46999998093E+01 0.  1.
       -5    1    3    3    0  502  0.11239545113E+04 -0.11839902771E+04 -0.21439290660E+03  0.16465397438E+04  0.46999998093E+01 0. -1.
</event>
<event>
 5   0  0.2641442E-07  0.3361790E+04  0.7818609E-02  0.8147349E-01
        1   -1    0    0  501    0  0.00000000000E+00  0.00000000000E+00  0.19955268352E+04  0.19955268352E+04  0.50400001928E-02 0.  1.
       -1   -1    0    0    0  501  0.00000000000E+00  0.00000000000E+00 -0.14158704163E+04  0.14158704163E+04  0.50400001928E-02 0. -1.
    10030    2    1    2    0    0  0.00000000000E+00  0.00000000000E+00  0.57965641893E+03  0.34113972515E+04  0.33617896489E+04 0.  0.
        1    1    3    3  502    0  0.92738659906E+03 -0.88611166970E+03 -0.81255757984E+03  0.15183838829E+04  0.50400001928E-02 0. -1.
       -1    1    3    3    0  502 -0.92738659906E+03  0.88611166970E+03  0.13922139988E+04  0.18930133686E+04  0.50400001928E-02 0.  1.
</event>
<event>
 5   0  0.2599367E-07  0.3411393E+04  0.7818609E-02  0.8135116E-01
       -1   -1    0    0    0  501  0.00000000000E+00  0.00000000000E+00  0.18646163625E+04  0.18646163625E+04  0.50400001928E-02 0. -1.
        1   -1    0    0  501    0  0.00000000000E+00  0.00000000000E+00 -0.15603216197E+04  0.15603216197E+04  0.50400001928E-02 0.  1.
    10030    2    1    2    0    0  0.00000000000E+00  0.00000000000E+00  0.30429474278E+03  0.34249379822E+04  0.34113933944E+04 0.  0.
        2    1    3    3  502    0 -0.50738904773E+03  0.48672929705E+03  0.17123613547E+04  0.18510889939E+04  0.25500000920E-02 0. -1.
       -2    1    3    3    0  502  0.50738904773E+03 -0.48672929705E+03 -0.14080666119E+04  0.15738489883E+04  0.25500000920E-02 0.  1.
</event>
<event>
 5   0  0.2599367E-07  0.3386594E+04  0.7818609E-02  0.8141204E-01
       -1   -1    0    0    0  501  0.00000000000E+00  0.00000000000E+00  0.12021882352E+04  0.12021882352E+04  0.50400001928E-02 0.  1.
        1   -1    0    0  501    0  0.00000000000E+00  0.00000000000E+00 -0.23850303312E+04  0.23850303312E+04  0.50400001928E-02 0. -1.
    10030    2    1    2    0    0  0.00000000000E+00  0.00000000000E+00 -0.11828420959E+04  0.35872185664E+04  0.33865943984E+04 0.  0.
        2    1    3    3  502    0  0.62742984495E+03  0.86351914040E+03  0.80095552020E+03  0.13344898881E+04  0.25500000920E-02 0.  1.
       -2    1    3    3    0  502 -0.62742984495E+03 -0.86351914040E+03 -0.19837976161E+04  0.22527286783E+04  0.25500000920E-02 0. -1.
</event>
<event>
 5   0  0.2553250E-07  0.3318957E+04  0.7818609E-02  0.8158088E-01
       -1   -1    0    0    0  501  0.00000000000E+00  0.00000000000E+00  0.15143155942E+04  0.15143155943E+04  0.50400001928E-02 0.  1.
        1   -1    0    0  501    0  0.00000000000E+00  0.00000000000E+00 -0.18185567785E+04  0.18185567785E+04  0.50400001928E-02 0. -1.
    10030    2    1    2    0    0  0.00000000000E+00  0.00000000000E+00 -0.30424118426E+03  0.33328723728E+04  0.33189569981E+04 0.  0.
        5    1    3    3  502    0 -0.81116516890E+03 -0.44750199843E+03 -0.15347009678E+04  0.17926450068E+04  0.46999998093E+01 0. -1.
       -5    1    3    3    0  502  0.81116516890E+03  0.44750199843E+03  0.12304597836E+04  0.15402273659E+04  0.46999998093E+01 0.  1.
</event>
<event>
 5   0  0.7838333E-07  0.3454772E+04  0.7818609E-02  0.8124593E-01
       -2   -1    0    0    0  501  0.00000000000E+00  0.00000000000E+00  0.16887403067E+04  0.16887403068E+04  0.25500000920E-02 0. -1.
        2   -1    0    0  501    0  0.00000000000E+00  0.00000000000E+00 -0.17669155708E+04  0.17669155708E+04  0.25500000920E-02 0.  1.
    10030    2    1    2    0    0  0.00000000000E+00  0.00000000000E+00 -0.78175264043E+02  0.34556558775E+04  0.34547715079E+04 0.  0.
        1    1    3    3  502    0 -0.15060952187E+04 -0.30511148762E+03 -0.82824188168E+03  0.17456805098E+04  0.50400001928E-02 0.  1.
       -1    1    3    3    0  502  0.15060952187E+04  0.30511148762E+03  0.75006661764E+03  0.17099753678E+04  0.50400001928E-02 0. -1.
</event>
<event>
 5   0  0.2592200E-07  0.3384563E+04  0.7818609E-02  0.8141706E-01
        1   -1    0    0  501    0  0.00000000000E+00  0.00000000000E+00  0.30787580714E+04  0.30787580714E+04  0.50400001928E-02 0.  1.
       -1   -1    0    0    0  501  0.00000000000E+00  0.00000000000E+00 -0.93018562157E+03  0.93018562159E+03  0.50400001928E-02 0. -1.
    10030    2    1    2    0    0  0.00000000000E+00  0.00000000000E+00  0.21485724499E+04  0.40089436930E+04  0.33845628908E+04 0.  0.
        4    1    3    3  502    0 -0.84141397015E+03  0.11957729943E+04  0.65068158157E+02  0.14635866907E+04  0.12699999809E+01 0. -1.
       -4    1    3    3    0  502  0.84141397015E+03 -0.11957729943E+04  0.20835042917E+04  0.25453570024E+04  0.12699999809E+01 0.  1.
</event>
<event>
 5   0  0.2641442E-07  0.3394681E+04  0.7818609E-02  0.8139213E-01
        1   -1    0    0  501    0  0.00000000000E+00  0.00000000000E+00  0.14821705706E+04  0.14821705707E+04  0.50400001928E-02 0.  1.
       -1   -1    0    0    0  501  0.00000000000E+00  0.00000000000E+00 -0.19437467077E+04  0.19437467077E+04  0.50400001928E-02 0. -1.
    10030    2    1    2    0    0  0.00000000000E+00  0.00000000000E+00 -0.46157613702E+03  0.34259172783E+04  0.33946806430E+04 0.  0.
        1    1    3    3  502    0 -0.97468949148E+03 -0.13709198149E+04 -0.17116926157E+01  0.16820950251E+04  0.50400001928E-02 0. -1.
       -1    1    3    3    0  502  0.97468949148E+03  0.13709198149E+04 -0.45986444440E+03  0.17438222532E+04  0.50400001928E-02 0.  1.
</event>
<event>
 5   0  0.7610412E-07  0.3423776E+04  0.7818609E-02  0.8132095E-01
        2   -1    0    0  501    0  0.00000000000E+00  0.00000000000E+00  0.27183917093E+04  0.27183917093E+04  0.25500000920E-02 0.  1.
       -2   -1    0    0    0  501  0.00000000000E+00  0.00000000000E+00 -0.10780495100E+04  0.10780495100E+04  0.25500000920E-02 0. -1.
    10030    2    1    2    0    0  0.00000000000E+00  0.00000000000E+00  0.16403421993E+04  0.37964412194E+04  0.34237761903E+04 0.  0.
        4    1    3    3  502    0 -0.14125455313E+04  0.57812594323E+03 -0.39484938138E+02  0.15267858912E+04  0.12699999809E+01 0. -1.
       -4    1    3    3    0  502  0.14125455313E+04 -0.57812594323E+03  0.16798271375E+04  0.22696553282E+04  0.12699999809E+01 0.  1.
</event>
<event>
 5   0  0.2553250E-07  0.3403584E+04  0.7818609E-02  0.8137027E-01
        1   -1    0    0  501    0  0.00000000000E+00  0.00000000000E+00  0.23044717861E+04  0.23044717861E+04  0.50400001928E-02 0.  1.
       -1   -1    0    0    0  501  0.00000000000E+00  0.00000000000E+00 -0.12567291418E+04  0.12567291418E+04  0.50400001928E-02 0. -1.
    10030    2    1    2    0    0  0.00000000000E+00  0.00000000000E+00  0.10477426443E+04  0.35612009280E+04  0.34035844929E+04 0.  0.
        5    1    3    3  502    0 -0.14288878658E+04  0.13782507669E+03  0.14801762269E+04  0.20619553917E+04  0.46999998093E+01 0.  1.
       -5    1    3    3    0  502  0.14288878658E+04 -0.13782507669E+03 -0.43243358254E+03  0.14992455363E+04  0.46999998093E+01 0. -1.
</event>
<event>
 5   0  0.2553250E-07  0.3421072E+04  0.7818609E-02  0.8132754E-01
        1   -1    0    0  501    0  0.00000000000E+00  0.00000000000E+00  0.15561760475E+04  0.15561760475E+04  0.50400001928E-02 0. -1.
       -1   -1    0    0    0  501  0.00000000000E+00  0.00000000000E+00 -0.18802074931E+04  0.18802074931E+04  0.50400001928E-02 0.  1.
    10030    2    1    2    0    0  0.00000000000E+00  0.00000000000E+00 -0.32403144557E+03  0.34363835406E+04  0.34210722676E+04 0.  0.
        5    1    3    3  502    0  0.16571179961E+04  0.21314605080E+03  0.20628656292E+03  0.16834629571E+04  0.46999998093E+01 0. -1.
       -5    1    3    3    0  502 -0.16571179961E+04 -0.21314605080E+03 -0.53031800850E+03  0.17529205835E+04  0.46999998093E+01 0.  1.
</event>
<event>
 5   0  0.2599367E-07  0.3354609E+04  0.7818609E-02  0.8149137E-01
        1   -1    0    0  501    0  0.00000000000E+00  0.00000000000E+00  0.20103283926E+04  0.20103283926E+04  0.50400001928E-02 0.  1.
       -1   -1    0    0    0  501  0.00000000000E+00  0.00000000000E+00 -0.13994483417E+04  0.13994483418E+04  0.50400001928E-02 0. -1.
    10030    2    1    2    0    0  0.00000000000E+00  0.00000000000E+00  0.61088005085E+03  0.34097767344E+04  0.33546092085E+04 0.  0.
        2    1    3    3  502    0 -0.51297573171E+03 -0.11169860611E+04  0.14655015035E+04  0.19127196916E+04  0.25500000920E-02 0.  1.
       -2    1    3    3    0  502  0.51297573171E+03  0.11169860611E+04 -0.85462145264E+03  0.14970570428E+04  0.25500000920E-02 0. -1.
</event>
<event>
 5   0  0.7838333E-07  0.3370560E+04  0.7818609E-02  0.8145170E-01
        2   -1    0    0  501    0  0.00000000000E+00  0.00000000000E+00  0.20231549183E+04  0.20231549183E+04  0.25500000920E-02 0.  1.
       -2   -1    0    0    0  501  0.00000000000E+00  0.00000000000E+00 -0.14038319056E+04  0.14038319056E+04  0.25500000920E-02 0. -1.
    10030    2    1    2    0    0  0.00000000000E+00  0.00000000000E+00  0.61932301270E+03  0.34269868239E+04  0.33705604426E+04 0.  0.
        1    1    3    3  502    0 -0.56017676749E+03 -0.53941399915E+03  0.18298180812E+04  0.19882152005E+04  0.50400001928E-02 0.  1.
       -1    1    3    3    0  502  0.56017676749E+03  0.53941399915E+03 -0.12104950685E+04  0.14387716234E+04  0.50400001928E-02 0. -1.
</event>
<event>
 5   0  0.2592200E-07  0.3394023E+04  0.7818609E-02  0.8139375E-01
        1   -1    0    0  501    0  0.00000000000E+00  0.00000000000E+00  0.22746063949E+04  0.22746063949E+04  0.50400001928E-02 0. -1.
       -1   -1    0    0    0  501  0.00000000000E+00  0.00000000000E+00 -0.12660859523E+04  0.12660859523E+04  0.50400001928E-02 0.  1.
    10030    2    1    2    0    0  0.00000000000E+00  0.00000000000E+00  0.10085204426E+04  0.35406923472E+04  0.33940225124E+04 0.  0.
        4    1    3    3  502    0 -0.14670824910E+04  0.81715291277E+03  0.24920412476E+03  0.16976967418E+04  0.12699999809E+01 0.  1.
       -4    1    3    3    0  502  0.14670824910E+04 -0.81715291277E+03  0.75931631786E+03  0.18429956055E+04  0.12699999809E+01 0. -1.
</event>
<event>
 5   0  0.7838333E-07  0.3403273E+04  0.7818609E-02  0.8137104E-01
       -2   -1    0    0    0  501  0.00000000000E+00  0.00000000000E+00  0.19567583721E+04  0.19567583721E+04  0.25500000920E-02 0.  1.
        2   -1    0    0  501    0  0.00000000000E+00  0.00000000000E+00 -0.14797770388E+04  0.14797770388E+04  0.25500000920E-02 0. -1.
    10030    2    1    2    0    0  0.00000000000E+00  0.00000000000E+00  0.47698133323E+03  0.34365354109E+04  0.34032726071E+04 0.  0.
        1    1    3    3  502    0  0.46317602460E+03  0.90248697570E+02 -0.14123857655E+04  0.14891307558E+04  0.50400001928E-02 0. -1.
       -1    1    3    3    0  502 -0.46317602460E+03 -0.90248697570E+02  0.18893670987E+04  0.19474046551E+04  0.50400001928E-02 0.  1.
</event>
<event>
 5   0  0.8489228E-07  0.3391966E+04  0.7818609E-02  0.8139881E-01
       -2   -1    0    0    0  501  0.00000000000E+00  0.00000000000E+00  0.98567460319E+03  0.98567460319E+03  0.25500000920E-02 0. -1.
        2   -1    0    0  501    0  0.00000000000E+00  0.00000000000E+00 -0.29181618612E+04  0.29181618612E+04  0.25500000920E-02 0.  1.
    10030    2    1    2    0    0  0.00000000000E+00  0.00000000000E+00 -0.19324872581E+04  0.39038364644E+04  0.33919658221E+04 0.  0.
        3    1    3    3  502    0 -0.10259879409E+04  0.25096862717E+03 -0.24934069497E+04  0.27078985826E+04  0.10100000352E+00 0.  1.
       -3    1    3    3    0  502  0.10259879409E+04 -0.25096862717E+03  0.56091969163E+03  0.11959378819E+04  0.10100000352E+00 0. -1.
</event>
<event>
 5   0  0.8489228E-07  0.3023994E+04  0.7818609E-02  0.8236912E-01
        2   -1    0    0  501    0  0.00000000000E+00  0.00000000000E+00  0.19547742098E+04  0.19547742098E+04  0.25500000920E-02 0.  1.
       -2   -1    0    0    0  501  0.00000000000E+00  0.00000000000E+00 -0.11695137645E+04  0.11695137645E+04  0.25500000920E-02 0. -1.
    10030    2    1    2    0    0  0.00000000000E+00  0.00000000000E+00  0.78526044529E+03  0.31242879742E+04  0.30239942756E+04 0.  0.
        3    1    3    3  502    0  0.82176489190E+03 -0.12502504773E+04  0.61830437213E+03  0.16188650655E+04  0.10100000352E+00 0.  1.
       -3    1    3    3    0  502 -0.82176489190E+03  0.12502504773E+04  0.16695607316E+03  0.15054229087E+04  0.10100000352E+00 0. -1.
</event>
<event>
 5   0  0.2641442E-07  0.3395122E+04  0.7818609E-02  0.8139105E-01
        1   -1    0    0  501    0  0.00000000000E+00  0.00000000000E+00  0.16965151310E+04  0.16965151310E+04  0.50400001928E-02 0.  1.
       -1   -1    0    0    0  501  0.00000000000E+00  0.00000000000E+00 -0.16986070437E+04  0.16986070437E+04  0.50400001928E-02 0. -1.
    10030    2    1    2    0    0  0.00000000000E+00  0.00000000000E+00 -0.20919127207E+01  0.33951221748E+04  0.33951215303E+04 0.  0.
        1    1    3    3  502    0  0.21708569706E+03 -0.14858861525E+04  0.79061617566E+03  0.16970733029E+04  0.50400001928E-02 0. -1.
       -1    1    3    3    0  502 -0.21708569706E+03  0.14858861525E+04 -0.79270808838E+03  0.16980488719E+04  0.50400001928E-02 0.  1.
</event>
<event>
 5   0  0.2553250E-07  0.3391447E+04  0.7818609E-02  0.8140009E-01
       -1   -1    0    0    0  501  0.00000000000E+00  0.00000000000E+00  0.16020471345E+04  0.16020471345E+04  0.50400001928E-02 0.  1.
        1   -1    0    0  501    0  0.00000000000E+00  0.00000000000E+00 -0.17948777363E+04  0.17948777363E+04  0.50400001928E-02 0. -1.
    10030    2    1    2    0    0  0.00000000000E+00  0.00000000000E+00 -0.19283060186E+03  0.33969248708E+04  0.33914473219E+04 0.  0.
        5    1    3    3  502    0 -0.31559731024E+03  0.15478337086E+04  0.52107516653E+03  0.16634098325E+04  0.46999998093E+01 0.  1.
       -5    1    3    3    0  502  0.31559731024E+03 -0.15478337086E+04 -0.71390576839E+03  0.17335150383E+04  0.46999998093E+01 0. -1.
</event>
<event>
 5   0  0.8489228E-07  0.3317902E+04  0.7818609E-02  0.8158355E-01
        2   -1    0    0  501    0  0.00000000000E+00  0.00000000000E+00  0.33081162395E+04  0.33081162395E+04  0.25500000920E-02 0. -1.
       -2   -1    0    0    0  501  0.00000000000E+00  0.00000000000E+00 -0.83192942166E+03  0.83192942166E+03  0.25500000920E-02 0.  1.
    10030    2    1    2    0    0  0.00000000000E+00  0.00000000000E+00  0.24761868179E+04  0.41400456612E+04  0.33179024880E+04 0.  0.
        3    1    3    3  502    0  0.63266834152E+03  0.64411510164E+03  0.29747041422E+04  0.31087004099E+04  0.10100000352E+00 0. -1.
       -3    1    3    3    0  502 -0.63266834152E+03 -0.64411510164E+03 -0.49851732434E+03  0.10313452513E+04  0.10100000352E+00 0.  1.
</event>
<event>
 5   0  0.2553250E-07  0.3236670E+04  0.7818609E-02  0.8179199E-01
        1   -1    0    0  501    0  0.00000000000E+00  0.00000000000E+00  0.23744854769E+04  0.23744854769E+04  0.50400001928E-02 0. -1.
       -1   -1    0    0    0  501  0.00000000000E+00  0.00000000000E+00 -0.11029788966E+04  0.11029788966E+04  0.50400001928E-02 0.  1.
    10030    2    1    2    0    0  0.00000000000E+00  0.00000000000E+00  0.12715065803E+04  0.34774643736E+04  0.32366695052E+04 0.  0.
        5    1    3    3  502    0 -0.27536397388E+03 -0.82944239048E+03 -0.82762961920E+03  0.12036581216E+04  0.46999998093E+01 0.  1.
       -5    1    3    3    0  502  0.27536397388E+03  0.82944239048E+03  0.20991361995E+04  0.22738062519E+04  0.46999998093E+01 0. -1.
</event>
<event>
 5   0  0.7899402E-07  0.3415826E+04  0.7818609E-02  0.8134033E-01
       -2   -1    0    0    0  501  0.00000000000E+00  0.00000000000E+00  0.13715057811E+04  0.13715057811E+04  0.25500000920E-02 0.  1.
        2   -1    0    0  501    0  0.00000000000E+00  0.00000000000E+00 -0.21268353930E+04  0.21268353930E+04  0.25500000920E-02 0. -1.
    10030    2    1    2    0    0  0.00000000000E+00  0.00000000000E+00 -0.75532961187E+03  0.34983411741E+04  0.34158261297E+04 0.  0.
        2    1    3    3  502    0 -0.10430223539E+04 -0.97255138073E+03  0.58483284217E+03  0.15413569580E+04  0.25500000920E-02 0.  1.
       -2    1    3    3    0  502  0.10430223539E+04  0.97255138073E+03 -0.13401624540E+04  0.19569842161E+04  0.25500000920E-02 0. -1.
</event>
<event>
 5   0  0.2622205E-07  0.3424543E+04  0.7818609E-02  0.8131909E-01
       -1   -1    0    0    0  501  0.00000000000E+00  0.00000000000E+00  0.14737892662E+04  0.14737892662E+04  0.50400001928E-02 0. -1.
        1   -1    0    0  501    0  0.00000000000E+00  0.00000000000E+00 -0.19893436696E+04  0.19893436696E+04  0.50400001928E-02 0.  1.
    10030    2    1    2    0    0  0.00000000000E+00  0.00000000000E+00 -0.51555440341E+03  0.34631329358E+04  0.34245427999E+04 0.  0.
        3    1    3    3  502    0 -0.12491327540E+04 -0.10045388381E+04 -0.86659322868E+03  0.18222005237E+04  0.10100000352E+00 0.  1.
       -3    1    3    3    0  502  0.12491327540E+04  0.10045388381E+04  0.35103882527E+03  0.16409324122E+04  0.10100000352E+00 0. -1.
</event>
<event>
 5   0  0.2641442E-07  0.3402612E+04  0.7818609E-02  0.8137265E-01
        1   -1    0    0  501    0  0.00000000000E+00  0.00000000000E+00  0.18938025339E+04  0.18938025339E+04  0.50400001928E-02 0.  1.
       -1   -1    0    0    0  501  0.00000000000E+00  0.00000000000E+00 -0.15283762935E+04  0.15283762935E+04  0.50400001928E-02 0. -1.
    10030    2    1    2    0    0  0.00000000000E+00  0.00000000000E+00  0.36542624042E+03  0.34221788274E+04  0.34026124653E+04 0.  0.
        1    1    3    3  502    0 -0.51014433435E+03  0.12909295688E+04  0.11720855348E+04  0.18167363305E+04  0.50400001928E-02 0.  1.
       -1    1    3    3    0  502  0.51014433435E+03 -0.12909295688E+04 -0.80665929438E+03  0.16054424969E+04  0.50400001928E-02 0. -1.
</event>
<event>
 5   0  0.2592200E-07  0.3380490E+04  0.7818609E-02  0.8142711E-01
        1   -1    0    0  501    0  0.00000000000E+00  0.00000000000E+00  0.15928222769E+04  0.15928222769E+04  0.50400001928E-02 0.  1.
       -1   -1    0    0    0  501  0.00000000000E+00  0.00000000000E+00 -0.17936263207E+04  0.17936263207E+04  0.50400001928E-02 0. -1.
    10030    2    1    2    0    0  0.00000000000E+00  0.00000000000E+00 -0.20080404382E+03  0.33864485977E+04  0.33804898818E+04 0.  0.
        4    1    3    3  502    0  0.13874477463E+04 -0.94165229884E+03  0.11258988996E+03  0.16805946557E+04  0.12699999809E+01 0. -1.
       -4    1    3    3    0  502 -0.13874477463E+04  0.94165229884E+03 -0.31339393378E+03  0.17058539419E+04  0.12699999809E+01 0.  1.
</event>
<event>
 5   0  0.7610412E-07  0.3239787E+04  0.7818609E-02  0.8178388E-01
        2   -1    0    0  501    0  0.00000000000E+00  0.00000000000E+00  0.26192632567E+04  0.26192632567E+04  0.25500000920E-02 0. -1.
       -2   -1    0    0    0  501  0.00000000000E+00  0.00000000000E+00 -0.10018292636E+04  0.10018292636E+04  0.25500000920E-02 0.  1.
    10030    2    1    2    0    0  0.00000000000E+00  0.00000000000E+00  0.16174339931E+04  0.36210925202E+04  0.32397867705E+04 0.  0.
        4    1    3    3  502    0 -0.53716390251E+03  0.46878126568E+02  0.25160154518E+04  0.25731455427E+04  0.12699999809E+01 0. -1.
       -4    1    3    3    0  502  0.53716390251E+03 -0.46878126568E+02 -0.89858145874E+03  0.10479469776E+04  0.12699999809E+01 0.  1.
</event>
<event>
 5   0  0.2622205E-07  0.3411147E+04  0.7818609E-02  0.8135176E-01
        1   -1    0    0  501    0  0.00000000000E+00  0.00000000000E+00  0.91047882752E+03  0.91047882753E+03  0.50400001928E-02 0. -1.
       -1   -1    0    0    0  501  0.00000000000E+00  0.00000000000E+00 -0.31950009038E+04  0.31950009038E+04  0.50400001928E-02 0.  1.
    10030    2    1    2    0    0  0.00000000000E+00  0.00000000000E+00 -0.22845220763E+04  0.41054797313E+04  0.34111468317E+04 0.  0.
        3    1    3    3  502    0 -0.74460542046E+03 -0.13195248112E+04 -0.20848765289E+04  0.25772646567E+04  0.10100000352E+00 0.  1.
       -3    1    3    3    0  502  0.74460542046E+03  0.13195248112E+04 -0.19964554734E+03  0.15282150746E+04  0.10100000352E+00 0. -1.
</event>
<event>
 5   0  0.2553250E-07  0.3414283E+04  0.7818609E-02  0.8134410E-01
       -1   -1    0    0    0  501  0.00000000000E+00  0.00000000000E+00  0.17410133546E+04  0.17410133547E+04  0.50400001928E-02 0.  1.
        1   -1    0    0  501    0  0.00000000000E+00  0.00000000000E+00 -0.16739285845E+04  0.16739285845E+04  0.50400001928E-02 0. -1.
    10030    2    1    2    0    0  0.00000000000E+00  0.00000000000E+00  0.67084770108E+02  0.34149419392E+04  0.34142829528E+04 0.  0.
        5    1    3    3  502    0  0.59666857694E+03 -0.11768281027E+04 -0.10498897274E+04  0.16861875055E+04  0.46999998093E+01 0. -1.
       -5    1    3    3    0  502 -0.59666857694E+03  0.11768281027E+04  0.11169744975E+04  0.17287544337E+04  0.46999998093E+01 0.  1.
</event>
<event>
 5   0  0.2592200E-07  0.3405993E+04  0.7818609E-02  0.8136437E-01
       -1   -1    0    0    0  501  0.00000000000E+00  0.00000000000E+00  0.25997314758E+04  0.25997314758E+04  0.50400001928E-02 0.  1.
        1   -1    0    0  501    0  0.00000000000E+00  0.00000000000E+00 -0.11155756426E+04  0.11155756426E+04  0.50400001928E-02 0. -1.
    10030    2    1    2    0    0  0.00000000000E+00  0.00000000000E+00  0.14841558331E+04  0.37153071184E+04  0.34059930192E+04 0.  0.
        4    1    3    3  502    0  0.12966434730E+04  0.76379897324E+03  0.16116715950E+04  0.22050306371E+04  0.12699999809E+01 0.  1.
       -4    1    3    3    0  502 -0.12966434730E+04 -0.76379897324E+03 -0.12751576190E+03  0.15102764813E+04  0.12699999809E+01 0. -1.
</event>
<event>
 5   0  0.7899402E-07  0.3427726E+04  0.7818609E-02  0.8131135E-01
        2   -1    0    0  501    0  0.00000000000E+00  0.00000000000E+00  0.16938041460E+04  0.16938041460E+04  0.25500000920E-02 0. -1.
       -2   -1    0    0    0  501  0.00000000000E+00  0.00000000000E+00 -0.17341594562E+04  0.17341594562E+04  0.25500000920E-02 0.  1.
    10030    2    1    2    0    0  0.00000000000E+00  0.00000000000E+00 -0.40355310231E+02  0.34279636023E+04  0.34277260549E+04 0.  0.
        2    1    3    3  502    0  0.52411491383E+03 -0.68618894775E+03 -0.15007446276E+04  0.17314116068E+04  0.25500000920E-02 0.  1.
       -2    1    3    3    0  502 -0.52411491383E+03  0.68618894775E+03  0.14603893174E+04  0.16965519954E+04  0.25500000920E-02 0. -1.
</event>
<event>
 5   0  0.7610412E-07  0.3381294E+04  0.7818609E-02  0.8142513E-01
       -2   -1    0    0    0  501  0.00000000000E+00  0.00000000000E+00  0.17078867497E+04  0.17078867497E+04  0.25500000920E-02 0. -1.
        2   -1    0    0  501    0  0.00000000000E+00  0.00000000000E+00 -0.16735812596E+04  0.16735812596E+04  0.25500000920E-02 0.  1.
    10030    2    1    2    0    0  0.00000000000E+00  0.00000000000E+00  0.34305490137E+02  0.33814680093E+04  0.33812939877E+04 0.  0.
        4    1    3    3  502    0 -0.70374745012E+03 -0.12977805595E+04  0.84108275535E+03  0.16990928957E+04  0.12699999809E+01 0. -1.
       -4    1    3    3    0  502  0.70374745012E+03  0.12977805595E+04 -0.80677726522E+03  0.16823751136E+04  0.12699999809E+01 0.  1.
</event>
<event>
 5   0  0.7610412E-07  0.3392298E+04  0.7818609E-02  0.8139799E-01
        2   -1    0    0  501    0  0.00000000000E+00  0.00000000000E+00  0.14726446491E+04  0.14726446491E+04  0.25500000920E-02 0. -1.
       -2   -1    0    0    0  501  0.00000000000E+00  0.00000000000E+00 -0.19535745067E+04  0.19535745067E+04  0.25500000920E-02 0.  1.
    10030    2    1    2    0    0  0.00000000000E+00  0.00000000000E+00 -0.48092985761E+03  0.34262191558E+04  0.33922977723E+04 0.  0.
        4    1    3    3  502    0  0.10349692194E+04  0.92937556049E+03  0.73981712521E+03  0.15755098252E+04  0.12699999809E+01 0. -1.
       -4    1    3    3    0  502 -0.10349692194E+04 -0.92937556049E+03 -0.12207469828E+04  0.18507093306E+04  0.12699999809E+01 0.  1.
</event>
<event>
 5   0  0.2592200E-07  0.3440470E+04  0.7818609E-02  0.8128044E-01
       -1   -1    0    0    0  501  0.00000000000E+00  0.00000000000E+00  0.17727467919E+04  0.17727467919E+04  0.50400001928E-02 0. -1.
        1   -1    0    0  501    0  0.00000000000E+00  0.00000000000E+00 -0.16692790241E+04  0.16692790241E+04  0.50400001928E-02 0.  1.
    10030    2    1    2    0    0  0.00000000000E+00  0.00000000000E+00  0.10346776778E+03  0.34420258161E+04  0.34404703370E+04 0.  0.
        4    1    3    3  502    0  0.12296905949E+04 -0.59154026476E+03 -0.99618828455E+03  0.16895122240E+04  0.12699999809E+01 0.  1.
       -4    1    3    3    0  502 -0.12296905949E+04  0.59154026476E+03  0.10996560523E+04  0.17525135920E+04  0.12699999809E+01 0. -1.
</event>
<event>
 5   0  0.7899402E-07  0.3405889E+04  0.7818609E-02  0.8136462E-01
        2   -1    0    0  501    0  0.00000000000E+00  0.00000000000E+00  0.15538632333E+04  0.15538632333E+04  0.25500000920E-02 0. -1.
       -2   -1    0    0    0  501  0.00000000000E+00  0.00000000000E+00 -0.18663290216E+04  0.18663290216E+04  0.25500000920E-02 0.  1.
    10030    2    1    2    0    0  0.00000000000E+00  0.00000000000E+00 -0.31246578826E+03  0.34201922549E+04  0.34058890457E+04 0.  0.
        2    1    3    3  502    0 -0.98953054196E+03 -0.96312535663E+03 -0.11570319430E+04  0.18015282577E+04  0.25500000920E-02 0.  1.
       -2    1    3    3    0  502  0.98953054196E+03  0.96312535663E+03  0.84456615475E+03  0.16186639972E+04  0.25500000920E-02 0. -1.
</event>
<event>
 5   0  0.7610412E-07  0.3379254E+04  0.7818609E-02  0.8143017E-01
       -2   -1    0    0    0  501  0.00000000000E+00  0.00000000000E+00  0.20826367296E+04  0.20826367296E+04  0.25500000920E-02 0.  1.
        2   -1    0    0  501    0  0.00000000000E+00  0.00000000000E+00 -0.13707816380E+04  0.13707816380E+04  0.25500000920E-02 0. -1.
    10030    2    1    2    0    0  0.00000000000E+00  0.00000000000E+00  0.71185509159E+03  0.34534183676E+04  0.33792544667E+04 0.  0.
        4    1    3    3  502    0  0.83533207634E+03 -0.55157534717E+03  0.17469858306E+04  0.20134488190E+04  0.12699999809E+01 0.  1.
       -4    1    3    3    0  502 -0.83533207634E+03  0.55157534717E+03 -0.10351307390E+04  0.14399695487E+04  0.12699999809E+01 0. -1.
</event>
<event>
 5   0  0.7822003E-07  0.3386611E+04  0.7818609E-02  0.8141200E-01
        2   -1    0    0  501    0  0.00000000000E+00  0.00000000000E+00  0.28598437099E+04  0.28598437099E+04  0.25500000920E-02 0.  1.
       -2   -1    0    0    0  501  0.00000000000E+00  0.00000000000E+00 -0.10026013212E+04  0.10026013212E+04  0.25500000920E-02 0. -1.
    10030    2    1    2    0    0  0.00000000000E+00  0.00000000000E+00  0.18572423887E+04  0.38624450311E+04  0.33866107435E+04 0.  0.
        5    1    3    3  502    0  0.64242405245E+03 -0.11746712954E+04  0.21109563118E+04  0.24997439780E+04  0.46999998093E+01 0.  1.
       -5    1    3    3    0  502 -0.64242405245E+03  0.11746712954E+04 -0.25371392310E+03  0.13627010531E+04  0.46999998093E+01 0. -1.
</event>
<event>
 5   0  0.2599367E-07  0.3404486E+04  0.7818609E-02  0.8136806E-01
       -1   -1    0    0    0  501  0.00000000000E+00  0.00000000000E+00  0.13105109136E+04  0.13105109136E+04  0.50400001928E-02 0.  1.
        1   -1    0    0  501    0  0.00000000000E+00  0.00000000000E+00 -0.22110695353E+04  0.22110695353E+04  0.50400001928E-02 0. -1.
    10030    2    1    2    0    0  0.00000000000E+00  0.00000000000E+00 -0.90055862173E+03  0.35215804489E+04  0.34044857214E+04 0.  0.
        2    1    3    3  502    0 -0.20847116368E+03 -0.14774647469E+04 -0.12977685951E+04  0.19775150140E+04  0.25500000920E-02 0. -1.
       -2    1    3    3    0  502  0.20847116368E+03  0.14774647469E+04  0.39720997332E+03  0.15440654349E+04  0.25500000920E-02 0.  1.
</event>
<event>
 5   0  0.7822003E-07  0.3438754E+04  0.7818609E-02  0.8128460E-01
       -2   -1    0    0    0  501  0.00000000000E+00  0.00000000000E+00  0.21418084851E+04  0.21418084851E+04  0.25500000920E-02 0. -1.
        2   -1    0    0  501    0  0.00000000000E+00  0.00000000000E+00 -0.13802618082E+04  0.13802618082E+04  0.25500000920E-02 0.  1.
    10030    2    1    2    0    0  0.00000000000E+00  0.00000000000E+00  0.76154667691E+03  0.35220702933E+04  0.34387535256E+04 0.  0.
        5    1    3    3  502    0 -0.25368771221E+03  0.16964901460E+04  0.50108465584E+03  0.17870490181E+04  0.46999998093E+01 0.  1.
       -5    1    3    3    0  502  0.25368771221E+03 -0.16964901460E+04  0.26046202107E+03  0.17350212752E+04  0.46999998093E+01 0. -1.
</event>
<event>
 5   0  0.2553250E-07  0.3398902E+04  0.7818609E-02  0.8138176E-01
       -1   -1    0    0    0  501  0.00000000000E+00  0.00000000000E+00  0.14078943122E+04  0.14078943122E+04  0.50400001928E-02 0.  1.
        1   -1    0    0  501    0  0.00000000000E+00  0.00000000000E+00 -0.20513848316E+04  0.20513848317E+04  0.50400001928E-02 0. -1.
    10030    2    1    2    0    0  0.00000000000E+00  0.00000000000E+00 -0.64349051945E+03  0.34592791439E+04  0.33989016088E+04 0.  0.
        5    1    3    3  502    0 -0.14257171113E+04 -0.91708740786E+03 -0.44384448133E+03  0.17523523072E+04  0.46999998093E+01 0.  1.
       -5    1    3    3    0  502  0.14257171113E+04  0.91708740786E+03 -0.19964603811E+03  0.17069268366E+04  0.46999998093E+01 0. -1.
</event>
<event>
 5   0  0.2599367E-07  0.3413975E+04  0.7818609E-02  0.8134485E-01
       -1   -1    0    0    0  501  0.00000000000E+00  0.00000000000E+00  0.15579395700E+04  0.15579395700E+04  0.50400001928E-02 0. -1.
        1   -1    0    0  501    0  0.00000000000E+00  0.00000000000E+00 -0.18702945371E+04  0.18702945371E+04  0.50400001928E-02 0.  1.
    10030    2    1    2    0    0  0.00000000000E+00  0.00000000000E+00 -0.31235496717E+03  0.34282341071E+04  0.34139747316E+04 0.  0.
        2    1    3    3  502    0 -0.39440832725E+03 -0.68675954978E+03 -0.16746472449E+04  0.18524686240E+04  0.25500000920E-02 0.  1.
       -2    1    3    3    0  502  0.39440832725E+03  0.68675954978E+03  0.13622922778E+04  0.15757654832E+04  0.25500000920E-02 0. -1.
</event>
<event>
 5   0  0.7838333E-07  0.3387866E+04  0.7818609E-02  0.8140891E-01
        2   -1    0    0  501    0  0.00000000000E+00  0.00000000000E+00  0.25159295024E+04  0.25159295024E+04  0.25500000920E-02 0.  1.
       -2   -1    0    0    0  501  0.00000000000E+00  0.00000000000E+00 -0.11404964128E+04  0.11404964128E+04  0.25500000920E-02 0. -1.
    10030    2    1    2    0    0  0.00000000000E+00  0.00000000000E+00  0.13754330896E+04  0.36564259152E+04  0.33878657426E+04 0.  0.
        1    1    3    3  502    0  0.45529516944E+03  0.15260156816E+04  0.13108879775E+04  0.20626305634E+04  0.50400001928E-02 0.  1.
       -1    1    3    3    0  502 -0.45529516944E+03 -0.15260156816E+04  0.64545112112E+02  0.15937953518E+04  0.50400001928E-02 0. -1.
</event>
<event>
 5   0  0.2592200E-07  0.3346005E+04  0.7818609E-02  0.8151287E-01
        1   -1    0    0  501    0  0.00000000000E+00  0.00000000000E+00  0.31930577672E+04  0.31930577673E+04  0.50400001928E-02 0. -1.
       -1   -1    0    0    0  501  0.00000000000E+00  0.00000000000E+00 -0.87656981725E+03  0.87656981727E+03  0.50400001928E-02 0.  1.
    10030    2    1    2    0    0  0.00000000000E+00  0.00000000000E+00  0.23164879500E+04  0.40696275845E+04  0.33460054175E+04 0.  0.
        4    1    3    3  502    0  0.76264605610E+03  0.86991026207E+03  0.26281455730E+04  0.28715019827E+04  0.12699999809E+01 0. -1.
       -4    1    3    3    0  502 -0.76264605610E+03 -0.86991026207E+03 -0.31165762297E+03  0.11981256018E+04  0.12699999809E+01 0.  1.
</event>
<event>
 5   0  0.8489228E-07  0.3396069E+04  0.7818609E-02  0.8138872E-01
        2   -1    0    0  501    0  0.00000000000E+00  0.00000000000E+00  0.16240798452E+04  0.16240798452E+04  0.25500000920E-02 0. -1.
       -2   -1    0    0    0  501  0.00000000000E+00  0.00000000000E+00 -0.17753565492E+04  0.17753565492E+04  0.25500000920E-02 0.  1.
    10030    2    1    2    0    0  0.00000000000E+00  0.00000000000E+00 -0.15127670403E+03  0.33994363943E+04  0.33960687799E+04 0.  0.
        3    1    3    3  502    0  0.11714485059E+04  0.35220751466E+03  0.11032302258E+04  0.16472579266E+04  0.10100000352E+00 0. -1.
       -3    1    3    3    0  502 -0.11714485059E+04 -0.35220751466E+03 -0.12545069299E+04  0.17521784677E+04  0.10100000352E+00 0.  1.
</event>
<event>
 5   0  0.2553250E-07  0.3397397E+04  0.7818609E-02  0.8138546E-01
        1   -1    0    0  501    0  0.00000000000E+00  0.00000000000E+00  0.19539798699E+04  0.19539798699E+04  0.50400001928E-02 0.  1.
       -1   -1    0    0    0  501  0.00000000000E+00  0.00000000000E+00 -0.14767686557E+04  0.14767686557E+04  0.50400001928E-02 0. -1.
    10030    2    1    2    0    0  0.00000000000E+00  0.00000000000E+00  0.47721121420E+03  0.34307485256E+04  0.33973967832E+04 0.  0.
        5    1    3    3  502    0 -0.15567984556E+04  0.66110379907E+03  0.79340901282E+02  0.16932208164E+04  0.46999998093E+01 0.  1.
       -5    1    3    3    0  502  0.15567984556E+04 -0.66110379907E+03  0.39787031292E+03  0.17375277092E+04  0.46999998093E+01 0. -1.
</event>
<event>
 5   0  0.2622205E-07  0.3355975E+04  0.7818609E-02  0.8148797E-01
       -1   -1    0    0    0  501  0.00000000000E+00  0.00000000000E+00  0.14056645598E+04  0.14056645598E+04  0.50400001928E-02 0.  1.
        1   -1    0    0  501    0  0.00000000000E+00  0.00000000000E+00 -0.20030687736E+04  0.20030687736E+04  0.50400001928E-02 0. -1.
    10030    2    1    2    0    0  0.00000000000E+00  0.00000000000E+00 -0.59740421377E+03  0.34087333334E+04  0.33559754385E+04 0.  0.
        3    1    3    3  502    0  0.80795009307E+03  0.70337362799E+03 -0.16105652917E+04  0.19342798098E+04  0.10100000352E+00 0. -1.
       -3    1    3    3    0  502 -0.80795009307E+03 -0.70337362799E+03  0.10131610779E+04  0.14744535237E+04  0.10100000352E+00 0.  1.
</event>
<event>
 5   0  0.2553250E-07  0.3424550E+04  0.7818609E-02  0.8131907E-01
       -3   -1    0    0    0  501  0.00000000000E+00  0.00000000000E+00  0.22244115850E+04  0.22244115873E+04  0.10100000352E+00 0. -1.
        3   -1    0    0  501    0  0.00000000000E+00  0.00000000000E+00 -0.13180500772E+04  0.13180500811E+04  0.10100000352E+00 0.  1.
    10030    2    1    2    0    0  0.00000000000E+00  0.00000000000E+00  0.90636150771E+03  0.35424616684E+04  0.34245501149E+04 0.  0.
        4    1    3    3  502    0 -0.13535509937E+04 -0.83119884393E+01 -0.63159928176E+03  0.14936829139E+04  0.12699999809E+01 0.  1.
       -4    1    3    3    0  502  0.13535509937E+04  0.83119884393E+01  0.15379607895E+04  0.20487787544E+04  0.12699999809E+01 0. -1.
</event>
<event>
 5   0  0.7899402E-07  0.3365923E+04  0.7818609E-02  0.8146321E-01
       -2   -1    0    0    0  501  0.00000000000E+00  0.00000000000E+00  0.18692239105E+04  0.18692239105E+04  0.25500000920E-02 0. -1.
        2   -1    0    0  501    0  0.00000000000E+00  0.00000000000E+00 -0.15152592809E+04  0.15152592809E+04  0.25500000920E-02 0.  1.
    10030    2    1    2    0    0  0.00000000000E+00  0.00000000000E+00  0.35396462956E+03  0.33844831914E+04  0.33659226839E+04 0.  0.
        2    1    3    3  502    0  0.83353180564E+03 -0.13810507098E+04  0.65950611046E+03  0.17427061266E+04  0.25500000920E-02 0.  1.
       -2    1    3    3    0  502 -0.83353180564E+03  0.13810507098E+04 -0.30554148090E+03  0.16417770648E+04  0.25500000920E-02 0. -1.
</event>
<event>
 5   0  0.7822003E-07  0.3390220E+04  0.7818609E-02  0.8140311E-01
       -2   -1    0    0    0  501  0.00000000000E+00  0.00000000000E+00  0.20827581639E+04  0.20827581639E+04  0.25500000920E-02 0. -1.
        2   -1    0    0  501    0  0.00000000000E+00  0.00000000000E+00 -0.13796115292E+04  0.13796115292E+04  0.25500000920E-02 0.  1.
    10030    2    1    2    0    0  0.00000000000E+00  0.00000000000E+00  0.70314663463E+03  0.34623696931E+04  0.33902195654E+04 0.  0.
        5    1    3    3  502    0  0.38403988181E+03 -0.28695588477E+03  0.20120735738E+04  0.20684033618E+04  0.46999998093E+01 0. -1.
       -5    1    3    3    0  502 -0.38403988181E+03  0.28695588477E+03 -0.13089269392E+04  0.13939663313E+04  0.46999998093E+01 0.  1.
</event>
<event>
 5   0  0.2592200E-07  0.3365913E+04  0.7818609E-02  0.8146323E-01
       -1   -1    0    0    0  501  0.00000000000E+00  0.00000000000E+00  0.18912803524E+04  0.18912803524E+04  0.50400001928E-02 0. -1.
        1   -1    0    0  501    0  0.00000000000E+00  0.00000000000E+00 -0.14975792731E+04  0.14975792731E+04  0.50400001928E-02 0.  1.
    10030    2    1    2    0    0  0.00000000000E+00  0.00000000000E+00  0.39370107929E+03  0.33888596255E+04  0.33659128066E+04 0.  0.
        4    1    3    3  502    0 -0.20582822131E+03 -0.11386061848E+04 -0.10335904672E+04  0.15514832154E+04  0.12699999809E+01 0.  1.
       -4    1    3    3    0  502  0.20582822131E+03  0.11386061848E+04  0.14272915465E+04  0.18373764101E+04  0.12699999809E+01 0. -1.
</event>
<event>
 5   0  0.7610412E-07  0.3239879E+04  0.7818609E-02  0.8178364E-01
       -2   -1    0    0    0  501  0.00000000000E+00  0.00000000000E+00  0.15902021805E+04  0.15902021805E+04  0.25500000920E-02 0.  1.
        2   -1    0    0  501    0  0.00000000000E+00  0.00000000000E+00 -0.16502328893E+04  0.16502328893E+04  0.25500000920E-02 0. -1.
    10030    2    1    2    0    0  0.00000000000E+00  0.00000000000E+00 -0.60030708844E+02  0.32404350698E+04  0.32398789723E+04 0.  0.
        4    1    3    3  502    0 -0.43350144453E+02 -0.14993949066E+04 -0.64178855685E+03  0.16315509448E+04  0.12699999809E+01 0. -1.
       -4    1    3    3    0  502  0.43350144453E+02  0.14993949066E+04  0.58175784801E+03  0.16088841250E+04  0.12699999809E+01 0.  1.
</event>
<event>
 5   0  0.2553250E-07  0.2986893E+04  0.7818609E-02  0.8247484E-01
       -1   -1    0    0    0  501  0.00000000000E+00  0.00000000000E+00  0.93481207397E+03  0.93481207398E+03  0.50400001928E-02 0. -1.
        1   -1    0    0  501    0  0.00000000000E+00  0.00000000000E+00 -0.23859155974E+04  0.23859155974E+04  0.50400001928E-02 0.  1.
    10030    2    1    2    0    0  0.00000000000E+00  0.00000000000E+00 -0.14511035234E+04  0.33207276713E+04  0.29868931738E+04 0.  0.
        5    1    3    3  502    0 -0.75060568172E+03 -0.49251856482E+03 -0.20524147384E+04  0.22401811923E+04  0.46999998093E+01 0.  1.
       -5    1    3    3    0  502  0.75060568172E+03  0.49251856482E+03  0.60131121497E+03  0.10805464790E+04  0.46999998093E+01 0. -1.
</event>
<event>
 5   0  0.7899402E-07  0.3392126E+04  0.7818609E-02  0.8139841E-01
        2   -1    0    0  501    0  0.00000000000E+00  0.00000000000E+00  0.20636652002E+04  0.20636652002E+04  0.25500000920E-02 0.  1.
       -2   -1    0    0    0  501  0.00000000000E+00  0.00000000000E+00 -0.13939424260E+04  0.13939424260E+04  0.25500000920E-02 0. -1.
    10030    2    1    2    0    0  0.00000000000E+00  0.00000000000E+00  0.66972277423E+03  0.34576076261E+04  0.33921264573E+04 0.  0.
        2    1    3    3  502    0  0.18243448230E+03  0.28207805078E+03 -0.13596926270E+04  0.14005764553E+04  0.25500000920E-02 0. -1.
       -2    1    3    3    0  502 -0.18243448230E+03 -0.28207805078E+03  0.20294154013E+04  0.20570311709E+04  0.25500000920E-02 0.  1.
</event>
<event>
 5   0  0.8489228E-07  0.3346687E+04  0.7818609E-02  0.8151116E-01
        2   -1    0    0  501    0  0.00000000000E+00  0.00000000000E+00  0.22762157083E+04  0.22762157083E+04  0.25500000920E-02 0.  1.
       -2   -1    0    0    0  501  0.00000000000E+00  0.00000000000E+00 -0.12301462172E+04  0.12301462172E+04  0.25500000920E-02 0. -1.
    10030    2    1    2    0    0  0.00000000000E+00  0.00000000000E+00  0.10460694911E+04  0.35063619256E+04  0.33466868053E+04 0.  0.
        3    1    3    3  502    0  0.96207106400E+03 -0.10793455393E+04  0.14055477562E+04  0.20164652316E+04  0.10100000352E+00 0.  1.
       -3    1    3    3    0  502 -0.96207106400E+03  0.10793455393E+04 -0.35947826504E+03  0.14898966939E+04  0.10100000352E+00 0. -1.
</event>
<event>
 5   0  0.2599367E-07  0.3408165E+04  0.7818609E-02  0.8135905E-01
        1   -1    0    0  501    0  0.00000000000E+00  0.00000000000E+00  0.17440644587E+04  0.17440644587E+04  0.50400001928E-02 0. -1.
       -1   -1    0    0    0  501  0.00000000000E+00  0.00000000000E+00 -0.16650174052E+04  0.16650174052E+04  0.50400001928E-02 0.  1.
    10030    2    1    2    0    0  0.00000000000E+00  0.00000000000E+00  0.79047053545E+02  0.34090818639E+04  0.34081653009E+04 0.  0.
        2    1    3    3  502    0 -0.61682107599E+03 -0.15185741320E+04 -0.42682288106E+03  0.16937276658E+04  0.25500000920E-02 0. -1.
       -2    1    3    3    0  502  0.61682107599E+03  0.15185741320E+04  0.50586993461E+03  0.17153541981E+04  0.25500000920E-02 0.  1.
</event>
<event>
 5   0  0.2553250E-07  0.3410305E+04  0.7818609E-02  0.8135382E-01
        1   -1    0    0  501    0  0.00000000000E+00  0.00000000000E+00  0.98933007846E+03  0.98933007848E+03  0.50400001928E-02 0.  1.
       -1   -1    0    0    0  501  0.00000000000E+00  0.00000000000E+00 -0.29389027285E+04  0.29389027285E+04  0.50400001928E-02 0. -1.
    10030    2    1    2    0    0  0.00000000000E+00  0.00000000000E+00 -0.19495726501E+04  0.39282328070E+04  0.34103048937E+04 0.  0.
        5    1    3    3  502    0 -0.72723780841E+03 -0.10037665178E+04  0.37398613691E+03  0.12947238211E+04  0.46999998093E+01 0.  1.
       -5    1    3    3    0  502  0.72723780841E+03  0.10037665178E+04 -0.23235587870E+04  0.26335089859E+04  0.46999998093E+01 0. -1.
</event>
<event>
 5   0  0.8489228E-07  0.3377126E+04  0.7818609E-02  0.8143543E-01
       -2   -1    0    0    0  501  0.00000000000E+00  0.00000000000E+00  0.14721326796E+04  0.14721326796E+04  0.25500000920E-02 0. -1.
        2   -1    0    0  501    0  0.00000000000E+00  0.00000000000E+00 -0.19368122809E+04  0.19368122809E+04  0.25500000920E-02 0.  1.
    10030    2    1    2    0    0  0.00000000000E+00  0.00000000000E+00 -0.46467960137E+03  0.34089449605E+04  0.33771257916E+04 0.  0.
        3    1    3    3  502    0  0.69836372118E+03  0.10168099987E+04 -0.13963001448E+04  0.18631340706E+04  0.10100000352E+00 0.  1.
       -3    1    3    3    0  502 -0.69836372118E+03 -0.10168099987E+04  0.93162054340E+03  0.15458108900E+04  0.10100000352E+00 0. -1.
</event>
<event>
 5   0  0.8489228E-07  0.3423022E+04  0.7818609E-02  0.8132279E-01
       -2   -1    0    0    0  501  0.00000000000E+00  0.00000000000E+00  0.17219144099E+04  0.17219144099E+04  0.25500000920E-02 0.  1.
        2   -1    0    0  501    0  0.00000000000E+00  0.00000000000E+00 -0.17011708681E+04  0.17011708681E+04  0.25500000920E-02 0. -1.
    10030    2    1    2    0    0  0.00000000000E+00  0.00000000000E+00  0.20743541820E+02  0.34230852780E+04  0.34230224255E+04 0.  0.
        3    1    3    3  502    0 -0.46375435715E+03  0.72146626125E+03 -0.14707661402E+04  0.17025670968E+04  0.10100000352E+00 0. -1.
       -3    1    3    3    0  502  0.46375435715E+03 -0.72146626125E+03  0.14915096820E+04  0.17205181811E+04  0.10100000352E+00 0.  1.
</event>
<event>
 5   0  0.7899402E-07  0.3417764E+04  0.7818609E-02  0.8133560E-01
        2   -1    0    0  501    0  0.00000000000E+00  0.00000000000E+00  0.29434762278E+04  0.29434762278E+04  0.25500000920E-02 0. -1.
       -2   -1    0    0    0  501  0.00000000000E+00  0.00000000000E+00 -0.99211884569E+03  0.99211884569E+03  0.25500000920E-02 0.  1.
    10030    2    1    2    0    0  0.00000000000E+00  0.00000000000E+00  0.19513573821E+04  0.39355950735E+04  0.34177643204E+04 0.  0.
        2    1    3    3  502    0  0.23705035205E+03  0.11430684275E+04 -0.46139661639E+03  0.12552629753E+04  0.25500000920E-02 0.  1.
       -2    1    3    3    0  502 -0.23705035205E+03 -0.11430684275E+04  0.24127539985E+04  0.26803320982E+04  0.25500000920E-02 0. -1.
</event>
<event>
 5   0  0.2641442E-07  0.3368133E+04  0.7818609E-02  0.8145772E-01
       -1   -1    0    0    0  501  0.00000000000E+00  0.00000000000E+00  0.25488485644E+04  0.25488485644E+04  0.50400001928E-02 0.  1.
        1   -1    0    0  501    0  0.00000000000E+00  0.00000000000E+00 -0.11126906075E+04  0.11126906075E+04  0.50400001928E-02 0. -1.
    10030    2    1    2    0    0  0.00000000000E+00  0.00000000000E+00  0.14361579569E+04  0.36615391718E+04  0.33681329294E+04 0.  0.
        1    1    3    3  502    0  0.13760495484E+04 -0.76104675663E+03  0.13733971066E+04  0.20878036636E+04  0.50400001928E-02 0.  1.
       -1    1    3    3    0  502 -0.13760495484E+04  0.76104675663E+03  0.62760850313E+02  0.15737355082E+04  0.50400001928E-02 0. -1.
</event>
<event>
 5   0  0.7610412E-07  0.3196320E+04  0.7818609E-02  0.8189790E-01
       -2   -1    0    0    0  501  0.00000000000E+00  0.00000000000E+00  0.11515964435E+04  0.11515964435E+04  0.25500000920E-02 0.  1.
        2   -1    0    0  501    0  0.00000000000E+00  0.00000000000E+00 -0.22178914904E+04  0.22178914904E+04  0.25500000920E-02 0. -1.
    10030    2    1    2    0    0  0.00000000000E+00  0.00000000000E+00 -0.10662950469E+04  0.33694879339E+04  0.31963203547E+04 0.  0.
        4    1    3    3  502    0 -0.55941751999E+03  0.69845332224E+03  0.86272370115E+03  0.12430119881E+04  0.12699999809E+01 0.  1.
       -4    1    3    3    0  502  0.55941751999E+03 -0.69845332224E+03 -0.19290187481E+04  0.21264759459E+04  0.12699999809E+01 0. -1.
</event>
<event>
 5   0  0.8489228E-07  0.3387972E+04  0.7818609E-02  0.8140865E-01
       -2   -1    0    0    0  501  0.00000000000E+00  0.00000000000E+00  0.13562294274E+04  0.13562294274E+04  0.25500000920E-02 0.  1.
        2   -1    0    0  501    0  0.00000000000E+00  0.00000000000E+00 -0.21158582137E+04  0.21158582137E+04  0.25500000920E-02 0. -1.
    10030    2    1    2    0    0  0.00000000000E+00  0.00000000000E+00 -0.75962878633E+03  0.34720876412E+04  0.33879723575E+04 0.  0.
        3    1    3    3  502    0 -0.79236453160E+03 -0.63323770151E+03  0.10106155918E+04  0.14318433651E+04  0.10100000352E+00 0.  1.
       -3    1    3    3    0  502  0.79236453160E+03  0.63323770151E+03 -0.17702443781E+04  0.20402442761E+04  0.10100000352E+00 0. -1.
</event>
<event>
 5   0  0.2599367E-07  0.3391326E+04  0.7818609E-02  0.8140038E-01
       -1   -1    0    0    0  501  0.00000000000E+00  0.00000000000E+00  0.20119197320E+04  0.20119197321E+04  0.50400001928E-02 0.  1.
        1   -1    0    0  501    0  0.00000000000E+00  0.00000000000E+00 -0.14291193762E+04  0.14291193762E+04  0.50400001928E-02 0. -1.
    10030    2    1    2    0    0  0.00000000000E+00  0.00000000000E+00  0.58280035583E+03  0.34410391083E+04  0.33913262730E+04 0.  0.
        2    1    3    3  502    0 -0.14314567963E+04 -0.75318758927E+03 -0.22489405179E+03  0.16330760665E+04  0.25500000920E-02 0. -1.
       -2    1    3    3    0  502  0.14314567963E+04  0.75318758927E+03  0.80769440762E+03  0.18079630418E+04  0.25500000920E-02 0.  1.
</event>
<event>
 5   0  0.2641442E-07  0.3463311E+04  0.7818609E-02  0.8122540E-01
        1   -1    0    0  501    0  0.00000000000E+00  0.00000000000E+00  0.21572609186E+04  0.21572609186E+04  0.50400001928E-02 0. -1.
       -1   -1    0    0    0  501  0.00000000000E+00  0.00000000000E+00 -0.13900176944E+04  0.13900176944E+04  0.50400001928E-02 0.  1.
    10030    2    1    2    0    0  0.00000000000E+00  0.00000000000E+00  0.76724322413E+03  0.35472786130E+04  0.34633110449E+04 0.  0.
        1    1    3    3  502    0  0.75241837846E+02 -0.74797316199E+02  0.21539289303E+04  0.21565402406E+04  0.50400001928E-02 0. -1.
       -1    1    3    3    0  502 -0.75241837846E+02  0.74797316199E+02 -0.13866857062E+04  0.13907383724E+04  0.50400001928E-02 0.  1.
</event>
<event>
 5   0  0.7838333E-07  0.3388130E+04  0.7818609E-02  0.8140826E-01
        2   -1    0    0  501    0  0.00000000000E+00  0.00000000000E+00  0.16232926783E+04  0.16232926783E+04  0.25500000920E-02 0. -1.
       -2   -1    0    0    0  501  0.00000000000E+00  0.00000000000E+00 -0.17679228964E+04  0.17679228964E+04  0.25500000920E-02 0.  1.
    10030    2    1    2    0    0  0.00000000000E+00  0.00000000000E+00 -0.14463021809E+03  0.33912155747E+04  0.33881300409E+04 0.  0.
        1    1    3    3  502    0 -0.43342647358E+03 -0.11025010891E+03  0.15631382555E+04  0.16258581735E+04  0.50400001928E-02 0. -1.
       -1    1    3    3    0  502  0.43342647358E+03  0.11025010891E+03 -0.17077684736E+04  0.17653574012E+04  0.50400001928E-02 0.  1.
</event>
<event>
 5   0  0.2553250E-07  0.3396387E+04  0.7818609E-02  0.8138794E-01
        1   -1    0    0  501    0  0.00000000000E+00  0.00000000000E+00  0.21505455833E+04  0.21505455833E+04  0.50400001928E-02 0.  1.
       -1   -1    0    0    0  501  0.00000000000E+00  0.00000000000E+00 -0.13409903043E+04  0.13409903043E+04  0.50400001928E-02 0. -1.
    10030    2    1    2    0    0  0.00000000000E+00  0.00000000000E+00  0.80955527905E+03  0.34915358876E+04  0.33963867719E+04 0.  0.
        5    1    3    3  502    0  0.16430711920E+04  0.10539148598E+03  0.83242238211E+03  0.18449226053E+04  0.46999998093E+01 0.  1.
       -5    1    3    3    0  502 -0.16430711920E+04 -0.10539148598E+03 -0.22867103067E+02  0.16466132823E+04  0.46999998093E+01 0. -1.
</event>
<event>
 5   0  0.2641442E-07  0.3422462E+04  0.7818609E-02  0.8132415E-01
        1   -1    0    0  501    0  0.00000000000E+00  0.00000000000E+00  0.15633219686E+04  0.15633219686E+04  0.50400001928E-02 0.  1.
       -1   -1    0    0    0  501  0.00000000000E+00  0.00000000000E+00 -0.18731340069E+04  0.18731340069E+04  0.50400001928E-02 0. -1.
    10030    2    1    2    0    0  0.00000000000E+00  0.00000000000E+00 -0.30981203829E+03  0.34364559756E+04  0.34224620046E+04 0.  0.
        1    1    3    3  502    0 -0.17101585065E+04 -0.24328419569E+02 -0.99203480622E+02  0.17132061522E+04  0.50400001928E-02 0.  1.
       -1    1    3    3    0  502  0.17101585065E+04  0.24328419569E+02 -0.21060855767E+03  0.17232498234E+04  0.50400001928E-02 0. -1.
</event>
<event>
 5   0  0.8489228E-07  0.3440855E+04  0.7818609E-02  0.8127951E-01
       -2   -1    0    0    0  501  0.00000000000E+00  0.00000000000E+00  0.15372895253E+04  0.15372895253E+04  0.25500000920E-02 0. -1.
        2   -1    0    0  501    0  0.00000000000E+00  0.00000000000E+00 -0.19253823368E+04  0.19253823368E+04  0.25500000920E-02 0.  1.
    10030    2    1    2    0    0  0.00000000000E+00  0.00000000000E+00 -0.38809281151E+03  0.34626718620E+04  0.34408546023E+04 0.  0.
        3    1    3    3  502    0 -0.12342659085E+03  0.81212293422E+03 -0.17152834425E+04  0.19018346621E+04  0.10100000352E+00 0.  1.
       -3    1    3    3    0  502  0.12342659085E+03 -0.81212293422E+03  0.13271906310E+04  0.15608372000E+04  0.10100000352E+00 0. -1.
</event>
<event>
 5   0  0.2641442E-07  0.3394415E+04  0.7818609E-02  0.8139278E-01
       -1   -1    0    0    0  501  0.00000000000E+00  0.00000000000E+00  0.12413866968E+04  0.12413866968E+04  0.50400001928E-02 0.  1.
        1   -1    0    0  501    0  0.00000000000E+00  0.00000000000E+00 -0.23203993042E+04  0.23203993042E+04  0.50400001928E-02 0. -1.
    10030    2    1    2    0    0  0.00000000000E+00  0.00000000000E+00 -0.10790126073E+04  0.35617860010E+04  0.33944147228E+04 0.  0.
        1    1    3    3  502    0 -0.99095604912E+03  0.13431914896E+03 -0.19784273609E+04  0.22168018286E+04  0.50400001928E-02 0. -1.
       -1    1    3    3    0  502  0.99095604912E+03 -0.13431914896E+03  0.89941475356E+03  0.13449841724E+04  0.50400001928E-02 0.  1.
</event>
<event>
 5   0  0.2641442E-07  0.3391097E+04  0.7818609E-02  0.8140095E-01
       -1   -1    0    0    0  501  0.00000000000E+00  0.00000000000E+00  0.13208060596E+04  0.13208060596E+04  0.50400001928E-02 0.  1.
        1   -1    0    0  501    0  0.00000000000E+00  0.00000000000E+00 -0.21766139933E+04  0.21766139933E+04  0.50400001928E-02 0. -1.
    10030    2    1    2    0    0  0.00000000000E+00  0.00000000000E+00 -0.85580793370E+03  0.34974200528E+04  0.33910971391E+04 0.  0.
        1    1    3    3  502    0  0.15861154894E+04 -0.55345195874E+03 -0.66492134230E+03  0.18067074495E+04  0.50400001928E-02 0. -1.
       -1    1    3    3    0  502 -0.15861154894E+04  0.55345195874E+03 -0.19088659140E+03  0.16907126034E+04  0.50400001928E-02 0.  1.
</event>
<event>
 5   0  0.2599367E-07  0.3395337E+04  0.7818609E-02  0.8139052E-01
        1   -1    0    0  501    0  0.00000000000E+00  0.00000000000E+00  0.25305318610E+04  0.25305318610E+04  0.50400001928E-02 0.  1.
       -1   -1    0    0    0  501  0.00000000000E+00  0.00000000000E+00 -0.11389220122E+04  0.11389220122E+04  0.50400001928E-02 0. -1.
    10030    2    1    2    0    0  0.00000000000E+00  0.00000000000E+00  0.13916098488E+04  0.36694538732E+04  0.33953370608E+04 0.  0.
        2    1    3    3  502    0  0.12351562587E+04 -0.11571289251E+04  0.83885461051E+03  0.18889773398E+04  0.25500000920E-02 0. -1.
       -2    1    3    3    0  502 -0.12351562587E+04  0.11571289251E+04  0.55275523827E+03  0.17804765334E+04  0.25500000920E-02 0.  1.
</event>
<event>
 5   0  0.7838333E-07  0.3365051E+04  0.7818609E-02  0.8146538E-01
       -2   -1    0    0    0  501  0.00000000000E+00  0.00000000000E+00  0.14509579104E+04  0.14509579104E+04  0.25500000920E-02 0.  1.
        2   -1    0    0  501    0  0.00000000000E+00  0.00000000000E+00 -0.19510502932E+04  0.19510502932E+04  0.25500000920E-02 0. -1.
    10030    2    1    2    0    0  0.00000000000E+00  0.00000000000E+00 -0.50009238282E+03  0.34020082035E+04  0.33650508801E+04 0.  0.
        1    1    3    3  502    0  0.13121777981E+04 -0.34463284626E+03 -0.12561184881E+04  0.18488958945E+04  0.50400001928E-02 0.  1.
       -1    1    3    3    0  502 -0.13121777981E+04  0.34463284626E+03  0.75602610531E+03  0.15531123090E+04  0.50400001928E-02 0. -1.
</event>
<event>
 5   0  0.2553250E-07  0.3424354E+04  0.7818609E-02  0.8131955E-01
       -3   -1    0    0    0  501  0.00000000000E+00  0.00000000000E+00  0.20539528839E+04  0.20539528864E+04  0.10100000352E+00 0. -1.
        3   -1    0    0  501    0  0.00000000000E+00  0.00000000000E+00 -0.14272720331E+04  0.14272720367E+04  0.10100000352E+00 0.  1.
    10030    2    1    2    0    0  0.00000000000E+00  0.00000000000E+00  0.62668085087E+03  0.34812249231E+04  0.34243536728E+04 0.  0.
        4    1    3    3  502    0  0.34586595440E+02  0.76630443913E+02 -0.14251718360E+04  0.14276501085E+04  0.12699999809E+01 0.  1.
       -4    1    3    3    0  502 -0.34586595440E+02 -0.76630443913E+02  0.20518526868E+04  0.20535748145E+04  0.12699999809E+01 0. -1.
</event>
<event>
 5   0  0.8489228E-07  0.3406666E+04  0.7818609E-02  0.8136272E-01
       -2   -1    0    0    0  501  0.00000000000E+00  0.00000000000E+00  0.13936301520E+04  0.13936301520E+04  0.25500000920E-02 0. -1.
        2   -1    0    0  501    0  0.00000000000E+00  0.00000000000E+00 -0.20818600472E+04  0.20818600472E+04  0.25500000920E-02 0.  1.
    10030    2    1    2    0    0  0.00000000000E+00  0.00000000000E+00 -0.68822989521E+03  0.34754901992E+04  0.34066657799E+04 0.  0.
        3    1    3    3  502    0 -0.11145484949E+04  0.84118198607E+03  0.65106010684E+03  0.15406767195E+04  0.10100000352E+00 0. -1.
       -3    1    3    3    0  502  0.11145484949E+04 -0.84118198607E+03 -0.13392900021E+04  0.19348134796E+04  0.10100000352E+00 0.  1.
</event>
<event>
 5   0  0.7899402E-07  0.3408717E+04  0.7818609E-02  0.8135770E-01
       -2   -1    0    0    0  501  0.00000000000E+00  0.00000000000E+00  0.21881978728E+04  0.21881978728E+04  0.25500000920E-02 0. -1.
        2   -1    0    0  501    0  0.00000000000E+00  0.00000000000E+00 -0.13275021042E+04  0.13275021042E+04  0.25500000920E-02 0.  1.
    10030    2    1    2    0    0  0.00000000000E+00  0.00000000000E+00  0.86069576866E+03  0.35156999770E+04  0.34087166386E+04 0.  0.
        2    1    3    3  502    0 -0.26093021626E+03 -0.53646382123E+03  0.20770018852E+04  0.21609754373E+04  0.25500000920E-02 0. -1.
       -2    1    3    3    0  502  0.26093021626E+03  0.53646382123E+03 -0.12163061166E+04  0.13547245397E+04  0.25500000920E-02 0.  1.
</event>
<event>
 5   0  0.7610412E-07  0.3393777E+04  0.7818609E-02  0.8139435E-01
        2   -1    0    0  501    0  0.00000000000E+00  0.00000000000E+00  0.12024342674E+04  0.12024342674E+04  0.25500000920E-02 0. -1.
       -2   -1    0    0    0  501  0.00000000000E+00  0.00000000000E+00 -0.23946678187E+04  0.23946678187E+04  0.25500000920E-02 0.  1.
    10030    2    1    2    0    0  0.00000000000E+00  0.00000000000E+00 -0.11922335514E+04  0.35971020861E+04  0.33937770370E+04 0.  0.
        4    1    3    3  502    0  0.66544913329E+03 -0.11135120886E+04  0.56335882502E+03  0.14142512150E+04  0.12699999809E+01 0. -1.
       -4    1    3    3    0  502 -0.66544913329E+03  0.11135120886E+04 -0.17555923764E+04  0.21828508711E+04  0.12699999809E+01 0.  1.
</event>
<event>
 5   0  0.8489228E-07  0.3386926E+04  0.7818609E-02  0.8141123E-01
       -2   -1    0    0    0  501  0.00000000000E+00  0.00000000000E+00  0.20823221903E+04  0.20823221903E+04  0.25500000920E-02 0. -1.
        2   -1    0    0  501    0  0.00000000000E+00  0.00000000000E+00 -0.13772206585E+04  0.13772206585E+04  0.25500000920E-02 0.  1.
    10030    2    1    2    0    0  0.00000000000E+00  0.00000000000E+00  0.70510153175E+03  0.34595428488E+04  0.33869261216E+04 0.  0.
        3    1    3    3  502    0  0.21260111504E+01 -0.37009876784E+03  0.20405066011E+04  0.20737996088E+04  0.10100000352E+00 0. -1.
       -3    1    3    3    0  502 -0.21260111504E+01  0.37009876784E+03 -0.13354050694E+04  0.13857432401E+04  0.10100000352E+00 0.  1.
</event>
<event>
 5   0  0.2641442E-07  0.3426068E+04  0.7818609E-02  0.8131538E-01
        1   -1    0    0  501    0  0.00000000000E+00  0.00000000000E+00  0.17409622649E+04  0.17409622649E+04  0.50400001928E-02 0. -1.
       -1   -1    0    0    0  501  0.00000000000E+00  0.00000000000E+00 -0.16855535979E+04  0.16855535979E+04  0.50400001928E-02 0.  1.
    10030    2    1    2    0    0  0.00000000000E+00  0.00000000000E+00  0.55408666966E+02  0.34265158627E+04  0.34260678390E+04 0.  0.
        1    1    3    3  502    0  0.55119444372E+03 -0.11358560862E+04  0.11856557405E+04  0.17319826496E+04  0.50400001928E-02 0. -1.
       -1    1    3    3    0  502 -0.55119444372E+03  0.11358560862E+04 -0.11302470735E+04  0.16945332132E+04  0.50400001928E-02 0.  1.
</event>
<event>
 5   0  0.2553250E-07  0.3356284E+04  0.7818609E-02  0.8148720E-01
       -3   -1    0    0    0  501  0.00000000000E+00  0.00000000000E+00  0.10874623702E+04  0.10874623749E+04  0.10100000352E+00 0. -1.
        3   -1    0    0  501    0  0.00000000000E+00  0.00000000000E+00 -0.25896624055E+04  0.25896624075E+04  0.10100000352E+00 0.  1.
    10030    2    1    2    0    0  0.00000000000E+00  0.00000000000E+00 -0.15022000353E+04  0.36771247824E+04  0.33562839151E+04 0.  0.
        4    1    3    3  502    0  0.26300430455E+03  0.10327708878E+04 -0.21713093903E+04  0.24187544423E+04  0.12699999809E+01 0.  1.
       -4    1    3    3    0  502 -0.26300430455E+03 -0.10327708878E+04  0.66910935494E+03  0.12583703401E+04  0.12699999809E+01 0. -1.
</event>
<event>
 5   0  0.7610412E-07  0.3418889E+04  0.7818609E-02  0.8133286E-01
        2   -1    0    0  501    0  0.00000000000E+00  0.00000000000E+00  0.18657745795E+04  0.18657745795E+04  0.25500000920E-02 0.  1.
       -2   -1    0    0    0  501  0.00000000000E+00  0.00000000000E+00 -0.15662126105E+04  0.15662126105E+04  0.25500000920E-02 0. -1.
    10030    2    1    2    0    0  0.00000000000E+00  0.00000000000E+00  0.29956196900E+03  0.34319871900E+04  0.34188885181E+04 0.  0.
        4    1    3    3  502    0 -0.76324329883E+02  0.13198949831E+03  0.18589349543E+04  0.18651775809E+04  0.12699999809E+01 0.  1.
       -4    1    3    3    0  502  0.76324329883E+02 -0.13198949831E+03 -0.15593729853E+04  0.15668096091E+04  0.12699999809E+01 0. -1.
</event>
<event>
 5   0  0.7899402E-07  0.3210289E+04  0.7818609E-02  0.8186105E-01
        2   -1    0    0  501    0  0.00000000000E+00  0.00000000000E+00  0.22816775402E+04  0.22816775402E+04  0.25500000920E-02 0. -1.
       -2   -1    0    0    0  501  0.00000000000E+00  0.00000000000E+00 -0.11292079806E+04  0.11292079806E+04  0.25500000920E-02 0.  1.
    10030    2    1    2    0    0  0.00000000000E+00  0.00000000000E+00  0.11524695596E+04  0.34108855208E+04  0.32102887643E+04 0.  0.
        2    1    3    3  502    0 -0.11495810118E+04 -0.33128594061E+03 -0.56077452750E+03  0.13212702024E+04  0.25500000920E-02 0.  1.
       -2    1    3    3    0  502  0.11495810118E+04  0.33128594061E+03  0.17132440871E+04  0.20896153184E+04  0.25500000920E-02 0. -1.
</event>
<event>
 5   0  0.2599367E-07  0.3436665E+04  0.7818609E-02  0.8128966E-01
       -1   -1    0    0    0  501  0.00000000000E+00  0.00000000000E+00  0.17661059824E+04  0.17661059824E+04  0.50400001928E-02 0.  1.
        1   -1    0    0  501    0  0.00000000000E+00  0.00000000000E+00 -0.16718515895E+04  0.16718515895E+04  0.50400001928E-02 0. -1.
    10030    2    1    2    0    0  0.00000000000E+00  0.00000000000E+00  0.94254392942E+02  0.34379575719E+04  0.34366652987E+04 0.  0.
        2    1    3    3  502    0  0.99844634980E+03 -0.53146594973E+03 -0.12469263494E+04  0.16835012593E+04  0.25500000920E-02 0. -1.
       -2    1    3    3    0  502 -0.99844634980E+03  0.53146594973E+03  0.13411807424E+04  0.17544563126E+04  0.25500000920E-02 0.  1.
</event>
<event>
 5   0  0.2599367E-07  0.3407202E+04  0.7818609E-02  0.8136141E-01
        1   -1    0    0  501    0  0.00000000000E+00  0.00000000000E+00  0.17706229253E+04  0.17706229253E+04  0.50400001928E-02 0. -1.
       -1   -1    0    0    0  501  0.00000000000E+00  0.00000000000E+00 -0.16391161151E+04  0.16391161151E+04  0.50400001928E-02 0.  1.
    10030    2    1    2    0    0  0.00000000000E+00  0.00000000000E+00  0.13150681023E+03  0.34097390404E+04  0.34072021194E+04 0.  0.
        2    1    3    3  502    0  0.99083587805E+03 -0.10014828072E+04 -0.89283924820E+03  0.16678985202E+04  0.25500000920E-02 0.  1.
       -2    1    3    3    0  502 -0.99083587805E+03  0.10014828072E+04  0.10243460584E+04  0.17418405202E+04  0.25500000920E-02 0. -1.
</event>
<event>
 5   0  0.7838333E-07  0.3425971E+04  0.7818609E-02  0.8131561E-01
        2   -1    0    0  501    0  0.00000000000E+00  0.00000000000E+00  0.21242208914E+04  0.21242208914E+04  0.25500000920E-02 0. -1.
       -2   -1    0    0    0  501  0.00000000000E+00  0.00000000000E+00 -0.13813629201E+04  0.13813629201E+04  0.25500000920E-02 0.  1.
    10030    2    1    2    0    0  0.00000000000E+00  0.00000000000E+00  0.74285797123E+03  0.35055838115E+04  0.34259713796E+04 0.  0.
        1    1    3    3  502    0 -0.36083763580E+02  0.12137496746E+04  0.16077399366E+04  0.20147749289E+04  0.50400001928E-02 0. -1.
       -1    1    3    3    0  502  0.36083763580E+02 -0.12137496746E+04 -0.86488196532E+03  0.14908088826E+04  0.50400001928E-02 0.  1.
</event>
<event>
 5   0  0.2641442E-07  0.3412279E+04  0.7818609E-02  0.8134899E-01
       -1   -1    0    0    0  501  0.00000000000E+00  0.00000000000E+00  0.10915324518E+04  0.10915324518E+04  0.50400001928E-02 0. -1.
        1   -1    0    0  501    0  0.00000000000E+00  0.00000000000E+00 -0.26668126669E+04  0.26668126669E+04  0.50400001928E-02 0.  1.
    10030    2    1    2    0    0  0.00000000000E+00  0.00000000000E+00 -0.15752802151E+04  0.37583451187E+04  0.34122793373E+04 0.  0.
        1    1    3    3  502    0  0.79705359219E+03  0.13143428377E+04  0.27796716882E+02  0.15373887541E+04  0.50400001928E-02 0. -1.
       -1    1    3    3    0  502 -0.79705359219E+03 -0.13143428377E+04 -0.16030769320E+04  0.22209563646E+04  0.50400001928E-02 0.  1.
</event>
<event>
 5   0  0.2553250E-07  0.3396123E+04  0.7818609E-02  0.8138858E-01
       -1   -1    0    0    0  501  0.00000000000E+00  0.00000000000E+00  0.14457428130E+04  0.14457428130E+04  0.50400001928E-02 0.  1.
        1   -1    0    0  501    0  0.00000000000E+00  0.00000000000E+00 -0.19944167070E+04  0.19944167070E+04  0.50400001928E-02 0. -1.
    10030    2    1    2    0    0  0.00000000000E+00  0.00000000000E+00 -0.54867389403E+03  0.34401595201E+04  0.33961234491E+04 0.  0.
        5    1    3    3  502    0 -0.15180610521E+03  0.86871312221E+02 -0.19852611163E+04  0.19929564743E+04  0.46999998093E+01 0. -1.
       -5    1    3    3    0  502  0.15180610521E+03 -0.86871312221E+02  0.14365872223E+04  0.14472030458E+04  0.46999998093E+01 0.  1.
</event>
<event>
 5   0  0.2641442E-07  0.3148789E+04  0.7818609E-02  0.8202474E-01
       -1   -1    0    0    0  501  0.00000000000E+00  0.00000000000E+00  0.12967955802E+04  0.12967955803E+04  0.50400001928E-02 0.  1.
        1   -1    0    0  501    0  0.00000000000E+00  0.00000000000E+00 -0.19114176756E+04  0.19114176756E+04  0.50400001928E-02 0. -1.
    10030    2    1    2    0    0  0.00000000000E+00  0.00000000000E+00 -0.61462209535E+03  0.32082132559E+04  0.31487889696E+04 0.  0.
        1    1    3    3  502    0 -0.30293200250E+03  0.96068654528E+03 -0.15401174825E+04  0.18402848411E+04  0.50400001928E-02 0. -1.
       -1    1    3    3    0  502  0.30293200250E+03 -0.96068654528E+03  0.92549538711E+03  0.13679284148E+04  0.50400001928E-02 0.  1.
</event>
<event>
 5   0  0.2622205E-07  0.3420870E+04  0.7818609E-02  0.8132803E-01
        1   -1    0    0  501    0  0.00000000000E+00  0.00000000000E+00  0.23562155440E+04  0.23562155440E+04  0.50400001928E-02 0. -1.
       -1   -1    0    0    0  501  0.00000000000E+00  0.00000000000E+00 -0.12416466162E+04  0.12416466162E+04  0.50400001928E-02 0.  1.
    10030    2    1    2    0    0  0.00000000000E+00  0.00000000000E+00  0.11145689278E+04  0.35978621602E+04  0.34208695136E+04 0.  0.
        3    1    3    3  502    0 -0.95598560040E+03 -0.24665215784E+03  0.20262749457E+04  0.22540044191E+04  0.10100000352E+00 0. -1.
       -3    1    3    3    0  502  0.95598560040E+03  0.24665215784E+03 -0.91170601791E+03  0.13438577411E+04  0.10100000352E+00 0.  1.
</event>
<event>
 5   0  0.7838333E-07  0.3392804E+04  0.7818609E-02  0.8139675E-01
       -2   -1    0    0    0  501  0.00000000000E+00  0.00000000000E+00  0.15098399854E+04  0.15098399854E+04  0.25500000920E-02 0.  1.
        2   -1    0    0  501    0  0.00000000000E+00  0.00000000000E+00 -0.19060161226E+04  0.19060161226E+04  0.25500000920E-02 0. -1.
    10030    2    1    2    0    0  0.00000000000E+00  0.00000000000E+00 -0.39617613721E+03  0.34158561080E+04  0.33928037696E+04 0.  0.
        1    1    3    3  502    0  0.58540579157E+03  0.96457992341E+03  0.10772725839E+04  0.15600098043E+04  0.50400001928E-02 0.  1.
       -1    1    3    3    0  502 -0.58540579157E+03 -0.96457992341E+03 -0.14734487211E+04  0.18558463037E+04  0.50400001928E-02 0. -1.
</event>
<event>
 5   0  0.7838333E-07  0.3395445E+04  0.7818609E-02  0.8139025E-01
        2   -1    0    0  501    0  0.00000000000E+00  0.00000000000E+00  0.20488381712E+04  0.20488381712E+04  0.25500000920E-02 0.  1.
       -2   -1    0    0    0  501  0.00000000000E+00  0.00000000000E+00 -0.14067789893E+04  0.14067789893E+04  0.25500000920E-02 0. -1.
    10030    2    1    2    0    0  0.00000000000E+00  0.00000000000E+00  0.64205918188E+03  0.34556171605E+04  0.33954454740E+04 0.  0.
        1    1    3    3  502    0 -0.48959441883E+02 -0.16740852197E+04  0.38066204981E+02  0.16752335317E+04  0.50400001928E-02 0. -1.
       -1    1    3    3    0  502  0.48959441883E+02  0.16740852197E+04  0.60399297690E+03  0.17803836288E+04  0.50400001928E-02 0.  1.
</event>
<event>
 5   0  0.2553250E-07  0.3402299E+04  0.7818609E-02  0.8137342E-01
       -3   -1    0    0    0  501  0.00000000000E+00  0.00000000000E+00  0.15975334568E+04  0.15975334599E+04  0.10100000352E+00 0.  1.
        3   -1    0    0  501    0  0.00000000000E+00  0.00000000000E+00 -0.18114861135E+04  0.18114861164E+04  0.10100000352E+00 0. -1.
    10030    2    1    2    0    0  0.00000000000E+00  0.00000000000E+00 -0.21395265678E+03  0.34090195763E+04  0.34022990363E+04 0.  0.
        1    1    3    3  502    0 -0.89251941224E+02  0.10386216031E+03  0.15920016588E+04  0.15978806398E+04  0.50400001928E-02 0.  1.
       -1    1    3    3    0  502  0.89251941224E+02 -0.10386216031E+03 -0.18059543156E+04  0.18111389365E+04  0.50400001928E-02 0. -1.
</event>
<event>
 5   0  0.7610412E-07  0.3401317E+04  0.7818609E-02  0.8137583E-01
        2   -1    0    0  501    0  0.00000000000E+00  0.00000000000E+00  0.15065410329E+04  0.15065410329E+04  0.25500000920E-02 0. -1.
       -2   -1    0    0    0  501  0.00000000000E+00  0.00000000000E+00 -0.19197877478E+04  0.19197877478E+04  0.25500000920E-02 0.  1.
    10030    2    1    2    0    0  0.00000000000E+00  0.00000000000E+00 -0.41324671486E+03  0.34263287807E+04  0.34013168135E+04 0.  0.
        4    1    3    3  502    0  0.26119315925E+01 -0.42373834904E+03 -0.18657553675E+04  0.19132709465E+04  0.12699999809E+01 0.  1.
       -4    1    3    3    0  502 -0.26119315925E+01  0.42373834904E+03  0.14525086526E+04  0.15130578341E+04  0.12699999809E+01 0. -1.
</event>
<event>
 5   0  0.2599367E-07  0.3383404E+04  0.7818609E-02  0.8141992E-01
       -1   -1    0    0    0  501  0.00000000000E+00  0.00000000000E+00  0.10053751671E+04  0.10053751671E+04  0.50400001928E-02 0. -1.
        1   -1    0    0  501    0  0.00000000000E+00  0.00000000000E+00 -0.28465550520E+04  0.28465550520E+04  0.50400001928E-02 0.  1.
    10030    2    1    2    0    0  0.00000000000E+00  0.00000000000E+00 -0.18411798849E+04  0.38519302192E+04  0.33834040617E+04 0.  0.
        2    1    3    3  502    0  0.81273379875E+03  0.22330699651E+02  0.76836044636E+03  0.11186655726E+04  0.25500000920E-02 0. -1.
       -2    1    3    3    0  502 -0.81273379875E+03 -0.22330699651E+02 -0.26095403312E+04  0.27332646466E+04  0.25500000920E-02 0.  1.
</event>
<event>
 5   0  0.7822003E-07  0.3392052E+04  0.7818609E-02  0.8139860E-01
        2   -1    0    0  501    0  0.00000000000E+00  0.00000000000E+00  0.22412218192E+04  0.22412218192E+04  0.25500000920E-02 0. -1.
       -2   -1    0    0    0  501  0.00000000000E+00  0.00000000000E+00 -0.12834534991E+04  0.12834534991E+04  0.25500000920E-02 0.  1.
    10030    2    1    2    0    0  0.00000000000E+00  0.00000000000E+00  0.95776832010E+03  0.35246753183E+04  0.33920518782E+04 0.  0.
        5    1    3    3  502    0  0.90704240140E+03 -0.34038264917E+03  0.19253954357E+04  0.21554015727E+04  0.46999998093E+01 0. -1.
       -5    1    3    3    0  502 -0.90704240140E+03  0.34038264917E+03 -0.96762711555E+03  0.13692737457E+04  0.46999998093E+01 0.  1.
</event>
<event>
 5   0  0.7822003E-07  0.3394888E+04  0.7818609E-02  0.8139162E-01
        2   -1    0    0  501    0  0.00000000000E+00  0.00000000000E+00  0.21211950266E+04  0.21211950266E+04  0.25500000920E-02 0.  1.
       -2   -1    0    0    0  501  0.00000000000E+00  0.00000000000E+00 -0.13583460281E+04  0.13583460281E+04  0.25500000920E-02 0. -1.
    10030    2    1    2    0    0  0.00000000000E+00  0.00000000000E+00  0.76284899849E+03  0.34795410547E+04  0.33948884159E+04 0.  0.
        5    1    3    3  502    0 -0.10375591086E+04  0.34571765568E+03 -0.94911570947E+03  0.14480650266E+04  0.46999998093E+01 0. -1.
       -5    1    3    3    0  502  0.10375591086E+04 -0.34571765568E+03  0.17119647080E+04  0.20314760281E+04  0.46999998093E+01 0.  1.
</event>
<event>
 5   0  0.8489228E-07  0.3391760E+04  0.7818609E-02  0.8139932E-01
       -2   -1    0    0    0  501  0.00000000000E+00  0.00000000000E+00  0.19137255586E+04  0.19137255586E+04  0.25500000920E-02 0. -1.
        2   -1    0    0  501    0  0.00000000000E+00  0.00000000000E+00 -0.15028324283E+04  0.15028324283E+04  0.25500000920E-02 0.  1.
    10030    2    1    2    0    0  0.00000000000E+00  0.00000000000E+00  0.41089313029E+03  0.34165579869E+04  0.33917599138E+04 0.  0.
        3    1    3    3  502    0  0.11142587220E+04  0.23932187417E+03  0.14704792807E+04  0.18604184433E+04  0.10100000352E+00 0. -1.
       -3    1    3    3    0  502 -0.11142587220E+04 -0.23932187417E+03 -0.10595861504E+04  0.15561395436E+04  0.10100000352E+00 0.  1.
</event>
<event>
 5   0  0.7822003E-07  0.3391874E+04  0.7818609E-02  0.8139904E-01
       -2   -1    0    0    0  501  0.00000000000E+00  0.00000000000E+00  0.18316311494E+04  0.18316311494E+04  0.25500000920E-02 0. -1.
        2   -1    0    0  501    0  0.00000000000E+00  0.00000000000E+00 -0.15702955961E+04  0.15702955961E+04  0.25500000920E-02 0.  1.
    10030    2    1    2    0    0  0.00000000000E+00  0.00000000000E+00  0.26133555336E+03  0.34019267455E+04  0.33918740116E+04 0.  0.
        5    1    3    3  502    0 -0.82116884297E+00  0.13401222837E+04 -0.91176426064E+03  0.16208838844E+04  0.46999998093E+01 0.  1.
       -5    1    3    3    0  502  0.82116884297E+00 -0.13401222837E+04  0.11730998140E+04  0.17810428611E+04  0.46999998093E+01 0. -1.
</event>
<event>
 5   0  0.7899402E-07  0.3400853E+04  0.7818609E-02  0.8137697E-01
        2   -1    0    0  501    0  0.00000000000E+00  0.00000000000E+00  0.20410289170E+04  0.20410289170E+04  0.25500000920E-02 0.  1.
       -2   -1    0    0    0  501  0.00000000000E+00  0.00000000000E+00 -0.14166628066E+04  0.14166628066E+04  0.25500000920E-02 0. -1.
    10030    2    1    2    0    0  0.00000000000E+00  0.00000000000E+00  0.62436611040E+03  0.34576917236E+04  0.34008526895E+04 0.  0.
        2    1    3    3  502    0 -0.70083281327E+03 -0.85687902772E+03  0.16245079014E+04  0.19658164264E+04  0.25500000920E-02 0.  1.
       -2    1    3    3    0  502  0.70083281327E+03  0.85687902772E+03 -0.10001417910E+04  0.14918752972E+04  0.25500000920E-02 0. -1.
</event>
<event>
 5   0  0.7822003E-07  0.3415681E+04  0.7818609E-02  0.8134068E-01
        2   -1    0    0  501    0  0.00000000000E+00  0.00000000000E+00  0.19725480112E+04  0.19725480112E+04  0.25500000920E-02 0.  1.
       -2   -1    0    0    0  501  0.00000000000E+00  0.00000000000E+00 -0.14786557622E+04  0.14786557622E+04  0.25500000920E-02 0. -1.
    10030    2    1    2    0    0  0.00000000000E+00  0.00000000000E+00  0.49389224902E+03  0.34512037734E+04  0.34156811812E+04 0.  0.
        5    1    3    3  502    0  0.12072676061E+03  0.11304637207E+04 -0.10407387127E+04  0.15413248628E+04  0.46999998093E+01 0. -1.
       -5    1    3    3    0  502 -0.12072676061E+03 -0.11304637207E+04  0.15346309617E+04  0.19098789106E+04  0.46999998093E+01 0.  1.
</event>
<event>
 5   0  0.7899402E-07  0.3390073E+04  0.7818609E-02  0.8140347E-01
        2   -1    0    0  501    0  0.00000000000E+00  0.00000000000E+00  0.25574115367E+04  0.25574115367E+04  0.25500000920E-02 0. -1.
       -2   -1    0    0    0  501  0.00000000000E+00  0.00000000000E+00 -0.11234597515E+04  0.11234597515E+04  0.25500000920E-02 0.  1.
    10030    2    1    2    0    0  0.00000000000E+00  0.00000000000E+00  0.14339517852E+04  0.36808712882E+04  0.33900731139E+04 0.  0.
        2    1    3    3  502    0  0.23722380815E+03 -0.14669219313E+04  0.16024113494E+04  0.21853734739E+04  0.25500000920E-02 0. -1.
       -2    1    3    3    0  502 -0.23722380815E+03  0.14669219313E+04 -0.16845956427E+03  0.14954978143E+04  0.25500000920E-02 0.  1.
</event>
<event>
 5   0  0.7610412E-07  0.3375184E+04  0.7818609E-02  0.8144024E-01
       -2   -1    0    0    0  501  0.00000000000E+00  0.00000000000E+00  0.16095231496E+04  0.16095231496E+04  0.25500000920E-02 0.  1.
        2   -1    0    0  501    0  0.00000000000E+00  0.00000000000E+00 -0.17694478126E+04  0.17694478126E+04  0.25500000920E-02 0. -1.
    10030    2    1    2    0    0  0.00000000000E+00  0.00000000000E+00 -0.15992466295E+03  0.33789709622E+04  0.33751842714E+04 0.  0.
        4    1    3    3  502    0 -0.11724713667E+03  0.10749718110E+04  0.12171201897E+04  0.16280953457E+04  0.12699999809E+01 0.  1.
       -4    1    3    3    0  502  0.11724713667E+03 -0.10749718110E+04 -0.13770448526E+04  0.17508756166E+04  0.12699999809E+01 0. -1.
</event>
<event>
 5   0  0.7838333E-07  0.3391952E+04  0.7818609E-02  0.8139884E-01
       -2   -1    0    0    0  501  0.00000000000E+00  0.00000000000E+00  0.17113437314E+04  0.17113437314E+04  0.25500000920E-02 0.  1.
        2   -1    0    0  501    0  0.00000000000E+00  0.00000000000E+00 -0.16807460539E+04  0.16807460539E+04  0.25500000920E-02 0. -1.
    10030    2    1    2    0    0  0.00000000000E+00  0.00000000000E+00  0.30597677480E+02  0.33920897853E+04  0.33919517824E+04 0.  0.
        1    1    3    3  502    0  0.31870410520E+02  0.16403758949E+04  0.44483397809E+03  0.16999194298E+04  0.50400001928E-02 0.  1.
       -1    1    3    3    0  502 -0.31870410520E+02 -0.16403758949E+04 -0.41423630061E+03  0.16921703556E+04  0.50400001928E-02 0. -1.
</event>
<event>
 5   0  0.2641442E-07  0.3391537E+04  0.7818609E-02  0.8139987E-01
        1   -1    0    0  501    0  0.00000000000E+00  0.00000000000E+00  0.23348311841E+04  0.23348311841E+04  0.50400001928E-02 0.  1.
       -1   -1    0    0    0  501  0.00000000000E+00  0.00000000000E+00 -0.12316225879E+04  0.12316225879E+04  0.50400001928E-02 0. -1.
    10030    2    1    2    0    0  0.00000000000E+00  0.00000000000E+00  0.11032085961E+04  0.35664537720E+04  0.33915370117E+04 0.  0.
        1    1    3    3  502    0 -0.36317776315E+03  0.16040531022E+03  0.22852685497E+04  0.23195000098E+04  0.50400001928E-02 0.  1.
       -1    1    3    3    0  502  0.36317776315E+03 -0.16040531022E+03 -0.11820599536E+04  0.12469537622E+04  0.50400001928E-02 0. -1.
</event>
<event>
 5   0  0.2553250E-07  0.3410064E+04  0.7818609E-02  0.8135441E-01
       -1   -1    0    0    0  501  0.00000000000E+00  0.00000000000E+00  0.29397724021E+04  0.29397724021E+04  0.50400001928E-02 0.  1.
        1   -1    0    0  501    0  0.00000000000E+00  0.00000000000E+00 -0.98889764508E+03  0.98889764510E+03  0.50400001928E-02 0. -1.
    10030    2    1    2    0    0  0.00000000000E+00  0.00000000000E+00  0.19508747570E+04  0.39286700472E+04  0.34100639323E+04 0.  0.
        5    1    3    3  502    0  0.76084607207E+03  0.12648494292E+04 -0.78090239872E+01  0.14760805855E+04  0.46999998093E+01 0. -1.
       -5    1    3    3    0  502 -0.76084607207E+03 -0.12648494292E+04  0.19586837810E+04  0.24525894618E+04  0.46999998093E+01 0.  1.
</event>
<event>
 5   0  0.2599367E-07  0.3353569E+04  0.7818609E-02  0.8149397E-01
       -1   -1    0    0    0  501  0.00000000000E+00  0.00000000000E+00  0.20332785196E+04  0.20332785197E+04  0.50400001928E-02 0. -1.
        1   -1    0    0  501    0  0.00000000000E+00  0.00000000000E+00 -0.13827946553E+04  0.13827946553E+04  0.50400001928E-02 0.  1.
    10030    2    1    2    0    0  0.00000000000E+00  0.00000000000E+00  0.65048386432E+03  0.34160731750E+04  0.33535692447E+04 0.  0.
        2    1    3    3  502    0 -0.21943473413E+03 -0.98975881554E+03 -0.10352530039E+04  0.14489730493E+04  0.25500000920E-02 0.  1.
       -2    1    3    3    0  502  0.21943473413E+03  0.98975881554E+03  0.16857368682E+04  0.19671001257E+04  0.25500000920E-02 0. -1.
</event>
<event>
 5   0  0.2553250E-07  0.3386283E+04  0.7818609E-02  0.8141281E-01
        1   -1    0    0  501    0  0.00000000000E+00  0.00000000000E+00  0.20509825661E+04  0.20509825661E+04  0.50400001928E-02 0. -1.
       -1   -1    0    0    0  501  0.00000000000E+00  0.00000000000E+00 -0.13977343970E+04  0.13977343970E+04  0.50400001928E-02 0.  1.
    10030    2    1    2    0    0  0.00000000000E+00  0.00000000000E+00  0.65324816905E+03  0.34487169631E+04  0.33862834379E+04 0.  0.
        5    1    3    3  502    0 -0.72665785737E+02 -0.55257951838E+03 -0.13016280922E+04  0.14159386360E+04  0.46999998093E+01 0.  1.
       -5    1    3    3    0  502  0.72665785737E+02  0.55257951838E+03  0.19548762612E+04  0.20327783271E+04  0.46999998093E+01 0. -1.
</event>
<event>
 5   0  0.7838333E-07  0.3402527E+04  0.7818609E-02  0.8137286E-01
        2   -1    0    0  501    0  0.00000000000E+00  0.00000000000E+00  0.22494545223E+04  0.22494545223E+04  0.25500000920E-02 0. -1.
       -2   -1    0    0    0  501  0.00000000000E+00  0.00000000000E+00 -0.12866663069E+04  0.12866663069E+04  0.25500000920E-02 0.  1.
    10030    2    1    2    0    0  0.00000000000E+00  0.00000000000E+00  0.96278821549E+03  0.35361208292E+04  0.34025269096E+04 0.  0.
        1    1    3    3  502    0 -0.14804898063E+04 -0.43421990693E+03 -0.26362083589E+03  0.15652133846E+04  0.50400001928E-02 0. -1.
       -1    1    3    3    0  502  0.14804898063E+04  0.43421990693E+03  0.12264090514E+04  0.19709074446E+04  0.50400001928E-02 0.  1.
</event>
<event>
 5   0  0.7610412E-07  0.3358274E+04  0.7818609E-02  0.8148224E-01
        2   -1    0    0  501    0  0.00000000000E+00  0.00000000000E+00  0.26483293365E+04  0.26483293365E+04  0.25500000920E-02 0.  1.
       -2   -1    0    0    0  501  0.00000000000E+00  0.00000000000E+00 -0.10646340951E+04  0.10646340951E+04  0.25500000920E-02 0. -1.
    10030    2    1    2    0    0  0.00000000000E+00  0.00000000000E+00  0.15836952414E+04  0.37129634315E+04  0.33582743822E+04 0.  0.
        4    1    3    3  502    0  0.59167580947E+02 -0.21074159567E+03  0.26324872762E+04  0.26415722014E+04  0.12699999809E+01 0.  1.
       -4    1    3    3    0  502 -0.59167580947E+02  0.21074159567E+03 -0.10487920348E+04  0.10713912301E+04  0.12699999809E+01 0. -1.
</event>
<event>
 5   0  0.2592200E-07  0.3416192E+04  0.7818609E-02  0.8133944E-01
       -1   -1    0    0    0  501  0.00000000000E+00  0.00000000000E+00  0.14135850525E+04  0.14135850525E+04  0.50400001928E-02 0. -1.
        1   -1    0    0  501    0  0.00000000000E+00  0.00000000000E+00 -0.20639662348E+04  0.20639662348E+04  0.50400001928E-02 0.  1.
    10030    2    1    2    0    0  0.00000000000E+00  0.00000000000E+00 -0.65038118233E+03  0.34775512873E+04  0.34161919257E+04 0.  0.
        4    1    3    3  502    0  0.21165341412E+03  0.16538806679E+04  0.52240828579E+02  0.16681873840E+04  0.12699999809E+01 0. -1.
       -4    1    3    3    0  502 -0.21165341412E+03 -0.16538806679E+04 -0.70262201091E+03  0.18093639032E+04  0.12699999809E+01 0.  1.
</event>
<event>
 5   0  0.2599367E-07  0.3374940E+04  0.7818609E-02  0.8144084E-01
       -1   -1    0    0    0  501  0.00000000000E+00  0.00000000000E+00  0.16962171633E+04  0.16962171633E+04  0.50400001928E-02 0. -1.
        1   -1    0    0  501    0  0.00000000000E+00  0.00000000000E+00 -0.16787679755E+04  0.16787679755E+04  0.50400001928E-02 0.  1.
    10030    2    1    2    0    0  0.00000000000E+00  0.00000000000E+00  0.17449187785E+02  0.33749851388E+04  0.33749400311E+04 0.  0.
        2    1    3    3  502    0  0.13007629777E+04  0.86302010788E+03 -0.63219506010E+03  0.16841789171E+04  0.25500000920E-02 0.  1.
       -2    1    3    3    0  502 -0.13007629777E+04 -0.86302010788E+03  0.64964424788E+03  0.16908062218E+04  0.25500000920E-02 0. -1.
</event>
<event>
 5   0  0.2599367E-07  0.3475411E+04  0.7818609E-02  0.8119642E-01
        1   -1    0    0  501    0  0.00000000000E+00  0.00000000000E+00  0.20600836995E+04  0.20600836995E+04  0.50400001928E-02 0. -1.
       -1   -1    0    0    0  501  0.00000000000E+00  0.00000000000E+00 -0.14657756390E+04  0.14657756390E+04  0.50400001928E-02 0.  1.
    10030    2    1    2    0    0  0.00000000000E+00  0.00000000000E+00  0.59430806053E+03  0.35258593386E+04  0.34754110555E+04 0.  0.
        2    1    3    3  502    0 -0.99225599442E+03  0.42847164808E+03 -0.10832812182E+04  0.15302477281E+04  0.25500000920E-02 0.  1.
       -2    1    3    3    0  502  0.99225599442E+03 -0.42847164808E+03  0.16775892787E+04  0.19956116105E+04  0.25500000920E-02 0. -1.
</event>
<event>
 5   0  0.7899402E-07  0.3410980E+04  0.7818609E-02  0.8135217E-01
       -2   -1    0    0    0  501  0.00000000000E+00  0.00000000000E+00  0.18596707777E+04  0.18596707777E+04  0.25500000920E-02 0. -1.
        2   -1    0    0  501    0  0.00000000000E+00  0.00000000000E+00 -0.15640921307E+04  0.15640921307E+04  0.25500000920E-02 0.  1.
    10030    2    1    2    0    0  0.00000000000E+00  0.00000000000E+00  0.29557864693E+03  0.34237629084E+04  0.34109801695E+04 0.  0.
        2    1    3    3  502    0  0.73014051022E+02 -0.15592308690E+04  0.83750665956E+03  0.17714257984E+04  0.25500000920E-02 0. -1.
       -2    1    3    3    0  502 -0.73014051022E+02  0.15592308690E+04 -0.54192801263E+03  0.16523371100E+04  0.25500000920E-02 0.  1.
</event>
<event>
 5   0  0.2641442E-07  0.3376836E+04  0.7818609E-02  0.8143615E-01
        1   -1    0    0  501    0  0.00000000000E+00  0.00000000000E+00  0.10120200825E+04  0.10120200825E+04  0.50400001928E-02 0. -1.
       -1   -1    0    0    0  501  0.00000000000E+00  0.00000000000E+00 -0.28168960747E+04  0.28168960747E+04  0.50400001928E-02 0.  1.
    10030    2    1    2    0    0  0.00000000000E+00  0.00000000000E+00 -0.18048759922E+04  0.38289161573E+04  0.33768360328E+04 0.  0.
        1    1    3    3  502    0 -0.49354041667E+03 -0.30759468779E+03  0.89487616906E+03  0.10672394262E+04  0.50400001928E-02 0. -1.
       -1    1    3    3    0  502  0.49354041667E+03  0.30759468779E+03 -0.26997521613E+04  0.27616767311E+04  0.50400001928E-02 0.  1.
</event>
<event>
 5   0  0.2592200E-07  0.3364274E+04  0.7818609E-02  0.8146731E-01
        1   -1    0    0  501    0  0.00000000000E+00  0.00000000000E+00  0.18897658909E+04  0.18897658909E+04  0.50400001928E-02 0.  1.
       -1   -1    0    0    0  501  0.00000000000E+00  0.00000000000E+00 -0.14973203941E+04  0.14973203941E+04  0.50400001928E-02 0. -1.
    10030    2    1    2    0    0  0.00000000000E+00  0.00000000000E+00  0.39244549678E+03  0.33870862851E+04  0.33642740724E+04 0.  0.
        4    1    3    3  502    0 -0.15379992371E+04  0.57911869700E+03 -0.16504642272E+03  0.16516846106E+04  0.12699999809E+01 0. -1.
       -4    1    3    3    0  502  0.15379992371E+04 -0.57911869700E+03  0.55749191950E+03  0.17354016744E+04  0.12699999809E+01 0.  1.
</event>
<event>
 5   0  0.2622205E-07  0.3421565E+04  0.7818609E-02  0.8132634E-01
       -1   -1    0    0    0  501  0.00000000000E+00  0.00000000000E+00  0.10818330441E+04  0.10818330442E+04  0.50400001928E-02 0.  1.
        1   -1    0    0  501    0  0.00000000000E+00  0.00000000000E+00 -0.27053864320E+04  0.27053864320E+04  0.50400001928E-02 0. -1.
    10030    2    1    2    0    0  0.00000000000E+00  0.00000000000E+00 -0.16235533878E+04  0.37872194761E+04  0.34215648112E+04 0.  0.
        3    1    3    3  502    0  0.12338858393E+04  0.45124813852E+03  0.40107821397E+03  0.13736676785E+04  0.10100000352E+00 0.  1.
       -3    1    3    3    0  502 -0.12338858393E+04 -0.45124813852E+03 -0.20246316018E+04  0.24135517977E+04  0.10100000352E+00 0. -1.
</event>
<event>
 5   0  0.2592200E-07  0.3482351E+04  0.7818609E-02  0.8117985E-01
       -1   -1    0    0    0  501  0.00000000000E+00  0.00000000000E+00  0.16007474350E+04  0.16007474350E+04  0.50400001928E-02 0. -1.
        1   -1    0    0  501    0  0.00000000000E+00  0.00000000000E+00 -0.18939228775E+04  0.18939228775E+04  0.50400001928E-02 0.  1.
    10030    2    1    2    0    0  0.00000000000E+00  0.00000000000E+00 -0.29317544252E+03  0.34946703125E+04  0.34823510382E+04 0.  0.
        4    1    3    3  502    0 -0.10121434010E+04 -0.11603737087E+04  0.66917737618E+03  0.16788988598E+04  0.12699999809E+01 0. -1.
       -4    1    3    3    0  502  0.10121434010E+04  0.11603737087E+04 -0.96235281870E+03  0.18157714527E+04  0.12699999809E+01 0.  1.
</event>
<event>
 5   0  0.7610412E-07  0.3407645E+04  0.7818609E-02  0.8136032E-01
       -2   -1    0    0    0  501  0.00000000000E+00  0.00000000000E+00  0.25405442092E+04  0.25405442092E+04  0.25500000920E-02 0. -1.
        2   -1    0    0  501    0  0.00000000000E+00  0.00000000000E+00 -0.11426731985E+04  0.11426731985E+04  0.25500000920E-02 0.  1.
    10030    2    1    2    0    0  0.00000000000E+00  0.00000000000E+00  0.13978710107E+04  0.36832174077E+04  0.34076453909E+04 0.  0.
        4    1    3    3  502    0 -0.15478532961E+03 -0.77911936489E+03  0.23281545663E+04  0.24599371497E+04  0.12699999809E+01 0. -1.
       -4    1    3    3    0  502  0.15478532961E+03  0.77911936489E+03 -0.93028355560E+03  0.12232802580E+04  0.12699999809E+01 0.  1.
</event>
<event>
 5   0  0.7899402E-07  0.3408921E+04  0.7818609E-02  0.8135720E-01
       -2   -1    0    0    0  501  0.00000000000E+00  0.00000000000E+00  0.19083591425E+04  0.19083591425E+04  0.25500000920E-02 0. -1.
        2   -1    0    0  501    0  0.00000000000E+00  0.00000000000E+00 -0.15223470214E+04  0.15223470214E+04  0.25500000920E-02 0.  1.
    10030    2    1    2    0    0  0.00000000000E+00  0.00000000000E+00  0.38601212111E+03  0.34307061638E+04  0.34089205660E+04 0.  0.
        2    1    3    3  502    0 -0.40521919779E+03  0.51772106630E+02 -0.14723507818E+04  0.15279724389E+04  0.25500000920E-02 0.  1.
       -2    1    3    3    0  502  0.40521919779E+03 -0.51772106630E+02  0.18583629029E+04  0.19027337250E+04  0.25500000920E-02 0. -1.
</event>
<event>
 5   0  0.7822003E-07  0.3387965E+04  0.7818609E-02  0.8140866E-01
        2   -1    0    0  501    0  0.00000000000E+00  0.00000000000E+00  0.90121016164E+03  0.90121016165E+03  0.25500000920E-02 0.  1.
       -2   -1    0    0    0  501  0.00000000000E+00  0.00000000000E+00 -0.31841367418E+04  0.31841367418E+04  0.25500000920E-02 0. -1.
    10030    2    1    2    0    0  0.00000000000E+00  0.00000000000E+00 -0.22829265802E+04  0.40853469034E+04  0.33879648096E+04 0.  0.
        5    1    3    3  502    0  0.35323285168E+03 -0.33170140809E+03  0.81584921268E+03  0.94891058560E+03  0.46999998093E+01 0.  1.
       -5    1    3    3    0  502 -0.35323285168E+03  0.33170140809E+03 -0.30987757928E+04  0.31364363178E+04  0.46999998093E+01 0. -1.
</event>
<event>
 5   0  0.8489228E-07  0.3403948E+04  0.7818609E-02  0.8136938E-01
       -2   -1    0    0    0  501  0.00000000000E+00  0.00000000000E+00  0.13516188710E+04  0.13516188710E+04  0.25500000920E-02 0. -1.
        2   -1    0    0  501    0  0.00000000000E+00  0.00000000000E+00 -0.21431454982E+04  0.21431454982E+04  0.25500000920E-02 0.  1.
    10030    2    1    2    0    0  0.00000000000E+00  0.00000000000E+00 -0.79152662724E+03  0.34947643691E+04  0.34039482361E+04 0.  0.
        3    1    3    3  502    0  0.15476205597E+04 -0.70811195198E+03 -0.38261720781E+03  0.17444047327E+04  0.10100000352E+00 0. -1.
       -3    1    3    3    0  502 -0.15476205597E+04  0.70811195198E+03 -0.40890941943E+03  0.17503596365E+04  0.10100000352E+00 0.  1.
</event>
<event>
 5   0  0.7838333E-07  0.3392514E+04  0.7818609E-02  0.8139746E-01
        2   -1    0    0  501    0  0.00000000000E+00  0.00000000000E+00  0.27477383922E+04  0.27477383922E+04  0.25500000920E-02 0.  1.
       -2   -1    0    0    0  501  0.00000000000E+00  0.00000000000E+00 -0.10471474806E+04  0.10471474806E+04  0.25500000920E-02 0. -1.
    10030    2    1    2    0    0  0.00000000000E+00  0.00000000000E+00  0.17005909116E+04  0.37948858728E+04  0.33925137198E+04 0.  0.
        1    1    3    3  502    0 -0.44701612608E+02  0.72452859420E+03 -0.86462167217E+03  0.11289422279E+04  0.50400001928E-02 0. -1.
       -1    1    3    3    0  502  0.44701612608E+02 -0.72452859420E+03  0.25652125837E+04  0.26659436449E+04  0.50400001928E-02 0.  1.
</event>
<event>
 5   0  0.2622205E-07  0.3337387E+04  0.7818609E-02  0.8153447E-01
        1   -1    0    0  501    0  0.00000000000E+00  0.00000000000E+00  0.26451083588E+04  0.26451083589E+04  0.50400001928E-02 0.  1.
       -1   -1    0    0    0  501  0.00000000000E+00  0.00000000000E+00 -0.10527122932E+04  0.10527122933E+04  0.50400001928E-02 0. -1.
    10030    2    1    2    0    0  0.00000000000E+00  0.00000000000E+00  0.15923960656E+04  0.36978206521E+04  0.33373870536E+04 0.  0.
        3    1    3    3  502    0  0.12966877603E+04 -0.83751389025E+03  0.93942336741E+02  0.15464972799E+04  0.10100000352E+00 0. -1.
       -3    1    3    3    0  502 -0.12966877603E+04  0.83751389025E+03  0.14984537289E+04  0.21513233722E+04  0.10100000352E+00 0.  1.
</event>
<event>
 5   0  0.2622205E-07  0.3396768E+04  0.7818609E-02  0.8138700E-01
        1   -1    0    0  501    0  0.00000000000E+00  0.00000000000E+00  0.17975821995E+04  0.17975821995E+04  0.50400001928E-02 0.  1.
       -1   -1    0    0    0  501  0.00000000000E+00  0.00000000000E+00 -0.16046595995E+04  0.16046595995E+04  0.50400001928E-02 0. -1.
    10030    2    1    2    0    0  0.00000000000E+00  0.00000000000E+00  0.19292260001E+03  0.34022417990E+04  0.33967676001E+04 0.  0.
        3    1    3    3  502    0  0.50157041077E+03  0.12894017882E+04 -0.89020373792E+03  0.16451724997E+04  0.10100000352E+00 0. -1.
       -3    1    3    3    0  502 -0.50157041077E+03 -0.12894017882E+04  0.10831263379E+04  0.17570692993E+04  0.10100000352E+00 0.  1.
</event>
<event>
 5   0  0.7822003E-07  0.3329717E+04  0.7818609E-02  0.8155375E-01
       -2   -1    0    0    0  501  0.00000000000E+00  0.00000000000E+00  0.21955986634E+04  0.21955986634E+04  0.25500000920E-02 0.  1.
        2   -1    0    0  501    0  0.00000000000E+00  0.00000000000E+00 -0.12624139391E+04  0.12624139391E+04  0.25500000920E-02 0. -1.
    10030    2    1    2    0    0  0.00000000000E+00  0.00000000000E+00  0.93318472432E+03  0.34580126025E+04  0.33297173197E+04 0.  0.
        5    1    3    3  502    0 -0.18056782805E+03  0.77934964185E+03 -0.10497123797E+04  0.13198139167E+04  0.46999998093E+01 0. -1.
       -5    1    3    3    0  502  0.18056782805E+03 -0.77934964185E+03  0.19828971040E+04  0.21381986858E+04  0.46999998093E+01 0.  1.
</event>
<event>
 5   0  0.2592200E-07  0.3430901E+04  0.7818609E-02  0.8130364E-01
        1   -1    0    0  501    0  0.00000000000E+00  0.00000000000E+00  0.29477404341E+04  0.29477404342E+04  0.50400001928E-02 0.  1.
       -1   -1    0    0    0  501  0.00000000000E+00  0.00000000000E+00 -0.99831391634E+03  0.99831391635E+03  0.50400001928E-02 0. -1.
    10030    2    1    2    0    0  0.00000000000E+00  0.00000000000E+00  0.19494265178E+04  0.39460543505E+04  0.34309009296E+04 0.  0.
        4    1    3    3  502    0 -0.11465597546E+04  0.74832880097E+03  0.21634228542E+04  0.25602725098E+04  0.12699999809E+01 0.  1.
       -4    1    3    3    0  502  0.11465597546E+04 -0.74832880097E+03 -0.21399633641E+03  0.13857818407E+04  0.12699999809E+01 0. -1.
</event>
<event>
 5   0  0.7838333E-07  0.3384349E+04  0.7818609E-02  0.8141758E-01
        2   -1    0    0  501    0  0.00000000000E+00  0.00000000000E+00  0.17993978682E+04  0.17993978682E+04  0.25500000920E-02 0.  1.
       -2   -1    0    0    0  501  0.00000000000E+00  0.00000000000E+00 -0.15913405806E+04  0.15913405806E+04  0.25500000920E-02 0. -1.
    10030    2    1    2    0    0  0.00000000000E+00  0.00000000000E+00  0.20805728755E+03  0.33907384488E+04  0.33843491831E+04 0.  0.
        1    1    3    3  502    0 -0.32452730373E+03 -0.11568850371E+04 -0.10897550953E+04  0.16221180992E+04  0.50400001928E-02 0. -1.
       -1    1    3    3    0  502  0.32452730373E+03  0.11568850371E+04  0.12978123829E+04  0.17686203496E+04  0.50400001928E-02 0.  1.
</event>
<event>
 5   0  0.8489228E-07  0.3394311E+04  0.7818609E-02  0.8139304E-01
       -2   -1    0    0    0  501  0.00000000000E+00  0.00000000000E+00  0.17614272347E+04  0.17614272347E+04  0.25500000920E-02 0. -1.
        2   -1    0    0  501    0  0.00000000000E+00  0.00000000000E+00 -0.16352292804E+04  0.16352292804E+04  0.25500000920E-02 0.  1.
    10030    2    1    2    0    0  0.00000000000E+00  0.00000000000E+00  0.12619795435E+03  0.33966565151E+04  0.33943113525E+04 0.  0.
        3    1    3    3  502    0  0.99030913220E+03 -0.13767547742E+04  0.12773070357E+03  0.17007295577E+04  0.10100000352E+00 0. -1.
       -3    1    3    3    0  502 -0.99030913220E+03  0.13767547742E+04 -0.15327492165E+01  0.16959269575E+04  0.10100000352E+00 0.  1.
</event>
<event>
 5   0  0.2622205E-07  0.3393918E+04  0.7818609E-02  0.8139401E-01
        1   -1    0    0  501    0  0.00000000000E+00  0.00000000000E+00  0.21905910406E+04  0.21905910406E+04  0.50400001928E-02 0.  1.
       -1   -1    0    0    0  501  0.00000000000E+00  0.00000000000E+00 -0.13145627695E+04  0.13145627695E+04  0.50400001928E-02 0. -1.
    10030    2    1    2    0    0  0.00000000000E+00  0.00000000000E+00  0.87602827101E+03  0.35051538101E+04  0.33939177510E+04 0.  0.
        3    1    3    3  502    0 -0.46646401802E+02  0.89916591337E+03 -0.10475294626E+04  0.13813012748E+04  0.10100000352E+00 0. -1.
       -3    1    3    3    0  502  0.46646401802E+02 -0.89916591337E+03  0.19235577337E+04  0.21238525353E+04  0.10100000352E+00 0.  1.
</event>
<event>
 5   0  0.8489228E-07  0.3435031E+04  0.7818609E-02  0.8129362E-01
       -2   -1    0    0    0  501  0.00000000000E+00  0.00000000000E+00  0.17897738155E+04  0.17897738155E+04  0.25500000920E-02 0.  1.
        2   -1    0    0  501    0  0.00000000000E+00  0.00000000000E+00 -0.16481745921E+04  0.16481745921E+04  0.25500000920E-02 0. -1.
    10030    2    1    2    0    0  0.00000000000E+00  0.00000000000E+00  0.14159922337E+03  0.34379484076E+04  0.34350311372E+04 0.  0.
        3    1    3    3  502    0  0.11754455810E+04 -0.22890996665E+03  0.13030184851E+04  0.17697257611E+04  0.10100000352E+00 0.  1.
       -3    1    3    3    0  502 -0.11754455810E+04  0.22890996665E+03 -0.11614192617E+04  0.16682226466E+04  0.10100000352E+00 0. -1.
</event>
<event>
 5   0  0.7838333E-07  0.3127189E+04  0.7818609E-02  0.8208315E-01
        2   -1    0    0  501    0  0.00000000000E+00  0.00000000000E+00  0.18019079691E+04  0.18019079691E+04  0.25500000920E-02 0.  1.
       -2   -1    0    0    0  501  0.00000000000E+00  0.00000000000E+00 -0.13567997312E+04  0.13567997312E+04  0.25500000920E-02 0. -1.
    10030    2    1    2    0    0  0.00000000000E+00  0.00000000000E+00  0.44510823784E+03  0.31587077003E+04  0.31271893119E+04 0.  0.
        1    1    3    3  502    0  0.15267911694E+03  0.99103906749E+03 -0.98927062254E+03  0.14085899725E+04  0.50400001928E-02 0. -1.
       -1    1    3    3    0  502 -0.15267911694E+03 -0.99103906749E+03  0.14343788604E+04  0.17501177278E+04  0.50400001928E-02 0.  1.
</event>
<event>
 5   0  0.2599367E-07  0.3403553E+04  0.7818609E-02  0.8137035E-01
       -1   -1    0    0    0  501  0.00000000000E+00  0.00000000000E+00  0.17371481469E+04  0.17371481469E+04  0.50400001928E-02 0.  1.
        1   -1    0    0  501    0  0.00000000000E+00  0.00000000000E+00 -0.16671254566E+04  0.16671254566E+04  0.50400001928E-02 0. -1.
    10030    2    1    2    0    0  0.00000000000E+00  0.00000000000E+00  0.70022690284E+02  0.34042736036E+04  0.34035533771E+04 0.  0.
        2    1    3    3  502    0 -0.10741894276E+04 -0.12851936109E+04  0.33580468508E+03  0.17083238365E+04  0.25500000920E-02 0. -1.
       -2    1    3    3    0  502  0.10741894276E+04  0.12851936109E+04 -0.26578199480E+03  0.16959497671E+04  0.25500000920E-02 0.  1.
</event>
<event>
 5   0  0.7610412E-07  0.3426678E+04  0.7818609E-02  0.8131390E-01
       -2   -1    0    0    0  501  0.00000000000E+00  0.00000000000E+00  0.11373746156E+04  0.11373746156E+04  0.25500000920E-02 0.  1.
        2   -1    0    0  501    0  0.00000000000E+00  0.00000000000E+00 -0.25809701859E+04  0.25809701859E+04  0.25500000920E-02 0. -1.
    10030    2    1    2    0    0  0.00000000000E+00  0.00000000000E+00 -0.14435955704E+04  0.37183448015E+04  0.34266776755E+04 0.  0.
        4    1    3    3  502    0  0.10177654498E+03  0.16475456433E+04 -0.12199635125E+04  0.20525783046E+04  0.12699999809E+01 0. -1.
       -4    1    3    3    0  502 -0.10177654498E+03 -0.16475456433E+04 -0.22363205784E+03  0.16657664969E+04  0.12699999809E+01 0.  1.
</event>
<event>
 5   0  0.7899402E-07  0.3390368E+04  0.7818609E-02  0.8140274E-01
       -2   -1    0    0    0  501  0.00000000000E+00  0.00000000000E+00  0.19839675833E+04  0.19839675833E+04  0.25500000920E-02 0.  1.
        2   -1    0    0  501    0  0.00000000000E+00  0.00000000000E+00 -0.14484351678E+04  0.14484351678E+04  0.25500000920E-02 0. -1.
    10030    2    1    2    0    0  0.00000000000E+00  0.00000000000E+00  0.53553241552E+03  0.34324027512E+04  0.33903677792E+04 0.  0.
        2    1    3    3  502    0  0.10632762882E+04  0.13196817484E+04  0.22813967207E+03  0.17100187403E+04  0.25500000920E-02 0.  1.
       -2    1    3    3    0  502 -0.10632762882E+04 -0.13196817484E+04  0.30739274345E+03  0.17223840109E+04  0.25500000920E-02 0. -1.
</event>
<event>
 5   0  0.2622205E-07  0.3379740E+04  0.7818609E-02  0.8142897E-01
        1   -1    0    0  501    0  0.00000000000E+00  0.00000000000E+00  0.15780733289E+04  0.15780733289E+04  0.50400001928E-02 0. -1.
       -1   -1    0    0    0  501  0.00000000000E+00  0.00000000000E+00 -0.18095869994E+04  0.18095869994E+04  0.50400001928E-02 0.  1.
    10030    2    1    2    0    0  0.00000000000E+00  0.00000000000E+00 -0.23151367048E+03  0.33876603284E+04  0.33797402150E+04 0.  0.
        3    1    3    3  502    0 -0.12327186711E+04 -0.68936955111E+03  0.81422949554E+03  0.16302746338E+04  0.10100000352E+00 0. -1.
       -3    1    3    3    0  502  0.12327186711E+04  0.68936955111E+03 -0.10457431660E+04  0.17573856946E+04  0.10100000352E+00 0.  1.
</event>
<event>
 5   0  0.2592200E-07  0.3379637E+04  0.7818609E-02  0.8142922E-01
        1   -1    0    0  501    0  0.00000000000E+00  0.00000000000E+00  0.16838249253E+04  0.16838249253E+04  0.50400001928E-02 0. -1.
       -1   -1    0    0    0  501  0.00000000000E+00  0.00000000000E+00 -0.16958338508E+04  0.16958338508E+04  0.50400001928E-02 0.  1.
    10030    2    1    2    0    0  0.00000000000E+00  0.00000000000E+00 -0.12008925454E+02  0.33796587761E+04  0.33796374404E+04 0.  0.
        4    1    3    3  502    0 -0.15669865900E+04  0.45517273612E+03  0.43315261197E+03  0.16882689333E+04  0.12699999809E+01 0. -1.
       -4    1    3    3    0  502  0.15669865900E+04 -0.45517273612E+03 -0.44516153742E+03  0.16913898428E+04  0.12699999809E+01 0.  1.
</event>
<event>
 5   0  0.2553250E-07  0.3482894E+04  0.7818609E-02  0.8117856E-01
       -1   -1    0    0    0  501  0.00000000000E+00  0.00000000000E+00  0.22882386826E+04  0.22882386826E+04  0.50400001928E-02 0.  1.
        1   -1    0    0  501    0  0.00000000000E+00  0.00000000000E+00 -0.13253153224E+04  0.13253153224E+04  0.50400001928E-02 0. -1.
    10030    2    1    2    0    0  0.00000000000E+00  0.00000000000E+00  0.96292336026E+03  0.36135540050E+04  0.34828940767E+04 0.  0.
        5    1    3    3  502    0  0.27089713427E+03 -0.11592631144E+04 -0.83717813788E+03  0.14553918889E+04  0.46999998093E+01 0. -1.
       -5    1    3    3    0  502 -0.27089713427E+03  0.11592631144E+04  0.18001014981E+04  0.21581621161E+04  0.46999998093E+01 0.  1.
</event>
<event>
 5   0  0.2592200E-07  0.3414643E+04  0.7818609E-02  0.8134322E-01
       -1   -1    0    0    0  501  0.00000000000E+00  0.00000000000E+00  0.12725144916E+04  0.12725144916E+04  0.50400001928E-02 0.  1.
        1   -1    0    0  501    0  0.00000000000E+00  0.00000000000E+00 -0.22906979499E+04  0.22906979499E+04  0.50400001928E-02 0. -1.
    10030    2    1    2    0    0  0.00000000000E+00  0.00000000000E+00 -0.10181834583E+04  0.35632124415E+04  0.34146427849E+04 0.  0.
        4    1    3    3  502    0 -0.92516034129E+03  0.86607428815E+03  0.68477552914E+03  0.14404601584E+04  0.12699999809E+01 0.  1.
       -4    1    3    3    0  502  0.92516034129E+03 -0.86607428815E+03 -0.17029589874E+04  0.21227522831E+04  0.12699999809E+01 0. -1.
</event>
<event>
 5   0  0.2641442E-07  0.3386332E+04  0.7818609E-02  0.8141269E-01
        1   -1    0    0  501    0  0.00000000000E+00  0.00000000000E+00  0.12318798927E+04  0.12318798927E+04  0.50400001928E-02 0.  1.
       -1   -1    0    0    0  501  0.00000000000E+00  0.00000000000E+00 -0.23271844169E+04  0.23271844169E+04  0.50400001928E-02 0. -1.
    10030    2    1    2    0    0  0.00000000000E+00  0.00000000000E+00 -0.10953045242E+04  0.35590643096E+04  0.33863323463E+04 0.  0.
        1    1    3    3  502    0  0.26024649543E+03  0.50696549960E+03  0.11280619798E+04  0.12638299278E+04  0.50400001928E-02 0.  1.
       -1    1    3    3    0  502 -0.26024649543E+03 -0.50696549960E+03 -0.22233665040E+04  0.22952343818E+04  0.50400001928E-02 0. -1.
</event>
<event>
 5   0  0.7822003E-07  0.3395545E+04  0.7818609E-02  0.8139001E-01
       -2   -1    0    0    0  501  0.00000000000E+00  0.00000000000E+00  0.10024688186E+04  0.10024688186E+04  0.25500000920E-02 0.  1.
        2   -1    0    0  501    0  0.00000000000E+00  0.00000000000E+00 -0.28753325243E+04  0.28753325243E+04  0.25500000920E-02 0. -1.
    10030    2    1    2    0    0  0.00000000000E+00  0.00000000000E+00 -0.18728637057E+04  0.38778013429E+04  0.33955448450E+04 0.  0.
        5    1    3    3  502    0 -0.15382220612E+04  0.20284968440E+03 -0.14923356153E+03  0.15587071085E+04  0.46999998093E+01 0.  1.
       -5    1    3    3    0  502  0.15382220612E+04 -0.20284968440E+03 -0.17236301442E+04  0.23190942344E+04  0.46999998093E+01 0. -1.
</event>
<event>
 5   0  0.2592200E-07  0.3396524E+04  0.7818609E-02  0.8138760E-01
       -1   -1    0    0    0  501  0.00000000000E+00  0.00000000000E+00  0.13445430593E+04  0.13445430593E+04  0.50400001928E-02 0.  1.
        1   -1    0    0  501    0  0.00000000000E+00  0.00000000000E+00 -0.21450365795E+04  0.21450365795E+04  0.50400001928E-02 0. -1.
    10030    2    1    2    0    0  0.00000000000E+00  0.00000000000E+00 -0.80049352013E+03  0.34895796388E+04  0.33965241321E+04 0.  0.
        4    1    3    3  502    0  0.48830770607E+03 -0.15947804485E+04 -0.72889079782E+03  0.18201792502E+04  0.12699999809E+01 0. -1.
       -4    1    3    3    0  502 -0.48830770607E+03  0.15947804485E+04 -0.71602722312E+02  0.16694003886E+04  0.12699999809E+01 0.  1.
</event>
<event>
 5   0  0.7822003E-07  0.3390906E+04  0.7818609E-02  0.8140142E-01
       -2   -1    0    0    0  501  0.00000000000E+00  0.00000000000E+00  0.11434404101E+04  0.11434404101E+04  0.25500000920E-02 0. -1.
        2   -1    0    0  501    0  0.00000000000E+00  0.00000000000E+00 -0.25139584131E+04  0.25139584131E+04  0.25500000920E-02 0.  1.
    10030    2    1    2    0    0  0.00000000000E+00  0.00000000000E+00 -0.13705180031E+04  0.36573988232E+04  0.33909064504E+04 0.  0.
        5    1    3    3  502    0  0.41559910209E+03  0.49274334607E+03  0.10061071110E+04  0.11949026017E+04  0.46999998093E+01 0. -1.
       -5    1    3    3    0  502 -0.41559910209E+03 -0.49274334607E+03 -0.23766251140E+04  0.24624962216E+04  0.46999998093E+01 0.  1.
</event>
<event>
 5   0  0.8489228E-07  0.3396656E+04  0.7818609E-02  0.8138728E-01
       -2   -1    0    0    0  501  0.00000000000E+00  0.00000000000E+00  0.10534504419E+04  0.10534504419E+04  0.25500000920E-02 0. -1.
        2   -1    0    0  501    0  0.00000000000E+00  0.00000000000E+00 -0.27379722089E+04  0.27379722089E+04  0.25500000920E-02 0.  1.
    10030    2    1    2    0    0  0.00000000000E+00  0.00000000000E+00 -0.16845217670E+04  0.37914226509E+04  0.33966560223E+04 0.  0.
        3    1    3    3  502    0 -0.41466826778E+03  0.81393284109E+03 -0.24404016084E+04  0.26057621654E+04  0.10100000352E+00 0.  1.
       -3    1    3    3    0  502  0.41466826778E+03 -0.81393284109E+03  0.75587984135E+03  0.11856604855E+04  0.10100000352E+00 0. -1.
</event>
<event>
 5   0  0.8489228E-07  0.3339822E+04  0.7818609E-02  0.8152836E-01
        2   -1    0    0  501    0  0.00000000000E+00  0.00000000000E+00  0.16782173378E+04  0.16782173378E+04  0.25500000920E-02 0.  1.
       -2   -1    0    0    0  501  0.00000000000E+00  0.00000000000E+00 -0.16616453048E+04  0.16616453048E+04  0.25500000920E-02 0. -1.
    10030    2    1    2    0    0  0.00000000000E+00  0.00000000000E+00  0.16572032955E+02  0.33398626426E+04  0.33398215280E+04 0.  0.
        3    1    3    3  502    0  0.97540058541E+03  0.97226201146E+03 -0.93613136375E+03  0.16652452256E+04  0.10100000352E+00 0. -1.
       -3    1    3    3    0  502 -0.97540058541E+03 -0.97226201146E+03  0.95270339670E+03  0.16746174170E+04  0.10100000352E+00 0.  1.
</event>
<event>
 5   0  0.2553250E-07  0.3462987E+04  0.7818609E-02  0.8122618E-01
        1   -1    0    0  501    0  0.00000000000E+00  0.00000000000E+00  0.20632541291E+04  0.20632541291E+04  0.50400001928E-02 0. -1.
       -1   -1    0    0    0  501  0.00000000000E+00  0.00000000000E+00 -0.14530778967E+04  0.14530778967E+04  0.50400001928E-02 0.  1.
    10030    2    1    2    0    0  0.00000000000E+00  0.00000000000E+00  0.61017623240E+03  0.35163320257E+04  0.34629865551E+04 0.  0.
        5    1    3    3  502    0  0.15108402408E+04 -0.78596689910E+03  0.62241570902E+03  0.18132307091E+04  0.46999998093E+01 0. -1.
       -5    1    3    3    0  502 -0.15108402408E+04  0.78596689910E+03 -0.12239476617E+02  0.17031013166E+04  0.46999998093E+01 0.  1.
</event>
<event>
 5   0  0.7822003E-07  0.3377421E+04  0.7818609E-02  0.8143470E-01
       -2   -1    0    0    0  501  0.00000000000E+00  0.00000000000E+00  0.16638357361E+04  0.16638357361E+04  0.25500000920E-02 0. -1.
        2   -1    0    0  501    0  0.00000000000E+00  0.00000000000E+00 -0.17139576004E+04  0.17139576004E+04  0.25500000920E-02 0.  1.
    10030    2    1    2    0    0  0.00000000000E+00  0.00000000000E+00 -0.50121864306E+02  0.33777933364E+04  0.33774214458E+04 0.  0.
        5    1    3    3  502    0  0.13769794918E+03  0.57867312512E+03  0.15555872343E+04  0.16654419968E+04  0.46999998093E+01 0. -1.
       -5    1    3    3    0  502 -0.13769794918E+03 -0.57867312512E+03 -0.16057090986E+04  0.17123513397E+04  0.46999998093E+01 0.  1.
</event>
<event>
 5   0  0.8489228E-07  0.3365935E+04  0.7818609E-02  0.8146318E-01
       -2   -1    0    0    0  501  0.00000000000E+00  0.00000000000E+00  0.18395163598E+04  0.18395163598E+04  0.25500000920E-02 0.  1.
        2   -1    0    0  501    0  0.00000000000E+00  0.00000000000E+00 -0.15397418097E+04  0.15397418097E+04  0.25500000920E-02 0. -1.
    10030    2    1    2    0    0  0.00000000000E+00  0.00000000000E+00  0.29977455012E+03  0.33792581696E+04  0.33659353820E+04 0.  0.
        3    1    3    3  502    0 -0.13910482616E+04 -0.43928753078E+03 -0.69271500955E+03  0.16148816970E+04  0.10100000352E+00 0. -1.
       -3    1    3    3    0  502  0.13910482616E+04  0.43928753078E+03  0.99248955966E+03  0.17643764726E+04  0.10100000352E+00 0.  1.
</event>
<event>
 5   0  0.2622205E-07  0.3395288E+04  0.7818609E-02  0.8139064E-01
       -1   -1    0    0    0  501  0.00000000000E+00  0.00000000000E+00  0.11238309559E+04  0.11238309559E+04  0.50400001928E-02 0.  1.
        1   -1    0    0  501    0  0.00000000000E+00  0.00000000000E+00 -0.25644381721E+04  0.25644381722E+04  0.50400001928E-02 0. -1.
    10030    2    1    2    0    0  0.00000000000E+00  0.00000000000E+00 -0.14406072163E+04  0.36882691280E+04  0.33952879126E+04 0.  0.
        3    1    3    3  502    0 -0.95707840468E+03  0.63411059731E+03 -0.20787748218E+04  0.23747421107E+04  0.10100000352E+00 0. -1.
       -3    1    3    3    0  502  0.95707840468E+03 -0.63411059731E+03  0.63816760552E+03  0.13135270173E+04  0.10100000352E+00 0.  1.
</event>
<event>
 5   0  0.2622205E-07  0.3395615E+04  0.7818609E-02  0.8138983E-01
        1   -1    0    0  501    0  0.00000000000E+00  0.00000000000E+00  0.25960349487E+04  0.25960349487E+04  0.50400001928E-02 0. -1.
       -1   -1    0    0    0  501  0.00000000000E+00  0.00000000000E+00 -0.11103666891E+04  0.11103666891E+04  0.50400001928E-02 0.  1.
    10030    2    1    2    0    0  0.00000000000E+00  0.00000000000E+00  0.14856682596E+04  0.37064016378E+04  0.33956152496E+04 0.  0.
        3    1    3    3  502    0 -0.16843269423E+04 -0.13704806133E+03  0.92156227520E+03  0.19248419303E+04  0.10100000352E+00 0.  1.
       -3    1    3    3    0  502  0.16843269423E+04  0.13704806133E+03  0.56410598443E+03  0.17815597075E+04  0.10100000352E+00 0. -1.
</event>
<event>
 5   0  0.2592200E-07  0.3339897E+04  0.7818609E-02  0.8152817E-01
        1   -1    0    0  501    0  0.00000000000E+00  0.00000000000E+00  0.21142898636E+04  0.21142898636E+04  0.50400001928E-02 0. -1.
       -1   -1    0    0    0  501  0.00000000000E+00  0.00000000000E+00 -0.13189906423E+04  0.13189906423E+04  0.50400001928E-02 0.  1.
    10030    2    1    2    0    0  0.00000000000E+00  0.00000000000E+00  0.79529922133E+03  0.34332805059E+04  0.33398973309E+04 0.  0.
        4    1    3    3  502    0 -0.16582591378E+04 -0.44875523888E+02  0.59508683507E+03  0.17623754239E+04  0.12699999809E+01 0. -1.
       -4    1    3    3    0  502  0.16582591378E+04  0.44875523888E+02  0.20021238625E+03  0.16709050820E+04  0.12699999809E+01 0.  1.
</event>
<event>
 5   0  0.7838333E-07  0.3337676E+04  0.7818609E-02  0.8153374E-01
       -2   -1    0    0    0  501  0.00000000000E+00  0.00000000000E+00  0.16708897262E+04  0.16708897262E+04  0.25500000920E-02 0. -1.
        2   -1    0    0  501    0  0.00000000000E+00  0.00000000000E+00 -0.16667888474E+04  0.16667888474E+04  0.25500000920E-02 0.  1.
    10030    2    1    2    0    0  0.00000000000E+00  0.00000000000E+00  0.41008788174E+01  0.33376785737E+04  0.33376760544E+04 0.  0.
        1    1    3    3  502    0  0.65261486349E+01 -0.92227879954E+03  0.13928712425E+04  0.16705481355E+04  0.50400001928E-02 0. -1.
       -1    1    3    3    0  502 -0.65261486349E+01  0.92227879954E+03 -0.13887703637E+04  0.16671304382E+04  0.50400001928E-02 0.  1.
</event>
<event>
 5   0  0.7822003E-07  0.3394642E+04  0.7818609E-02  0.8139223E-01
       -2   -1    0    0    0  501  0.00000000000E+00  0.00000000000E+00  0.11670946606E+04  0.11670946606E+04  0.25500000920E-02 0.  1.
        2   -1    0    0  501    0  0.00000000000E+00  0.00000000000E+00 -0.24684364405E+04  0.24684364405E+04  0.25500000920E-02 0. -1.
    10030    2    1    2    0    0  0.00000000000E+00  0.00000000000E+00 -0.13013417800E+04  0.36355311011E+04  0.33946422431E+04 0.  0.
        5    1    3    3  502    0  0.45927999426E+03  0.12677699227E+04 -0.17546956856E+04  0.22129522654E+04  0.46999998093E+01 0. -1.
       -5    1    3    3    0  502 -0.45927999426E+03 -0.12677699227E+04  0.45335390561E+03  0.14225788357E+04  0.46999998093E+01 0.  1.
</event>
<event>
 5   0  0.7899402E-07  0.3396020E+04  0.7818609E-02  0.8138884E-01
        2   -1    0    0  501    0  0.00000000000E+00  0.00000000000E+00  0.12965374048E+04  0.12965374048E+04  0.25500000920E-02 0. -1.
       -2   -1    0    0    0  501  0.00000000000E+00  0.00000000000E+00 -0.22237979226E+04  0.22237979226E+04  0.25500000920E-02 0.  1.
    10030    2    1    2    0    0  0.00000000000E+00  0.00000000000E+00 -0.92726051779E+03  0.35203353274E+04  0.33960195450E+04 0.  0.
        2    1    3    3  502    0 -0.48307972948E+03  0.10682141284E+04  0.80966233692E+03  0.14247808776E+04  0.25500000920E-02 0. -1.
       -2    1    3    3    0  502  0.48307972948E+03 -0.10682141284E+04 -0.17369228547E+04  0.20955544499E+04  0.25500000920E-02 0.  1.
</event>
<event>
 5   0  0.8489228E-07  0.3197726E+04  0.7818609E-02  0.8189418E-01
       -2   -1    0    0    0  501  0.00000000000E+00  0.00000000000E+00  0.10599020469E+04  0.10599020469E+04  0.25500000920E-02 0. -1.
        2   -1    0    0  501    0  0.00000000000E+00  0.00000000000E+00 -0.24118862969E+04  0.24118862969E+04  0.25500000920E-02 0.  1.
    10030    2    1    2    0    0  0.00000000000E+00  0.00000000000E+00 -0.13519842500E+04  0.34717883438E+04  0.31977262065E+04 0.  0.
        3    1    3    3  502    0  0.25514635656E+03  0.14177893391E+04  0.77096894104E+02  0.14426261521E+04  0.10100000352E+00 0.  1.
       -3    1    3    3    0  502 -0.25514635656E+03 -0.14177893391E+04 -0.14290811442E+04  0.20291621917E+04  0.10100000352E+00 0. -1.
</event>
<event>
 5   0  0.2599367E-07  0.3401174E+04  0.7818609E-02  0.8137618E-01
       -1   -1    0    0    0  501  0.00000000000E+00  0.00000000000E+00  0.11780224646E+04  0.11780224646E+04  0.50400001928E-02 0. -1.
        1   -1    0    0  501    0  0.00000000000E+00  0.00000000000E+00 -0.24549583347E+04  0.24549583347E+04  0.50400001928E-02 0.  1.
    10030    2    1    2    0    0  0.00000000000E+00  0.00000000000E+00 -0.12769358701E+04  0.36329807994E+04  0.34011739550E+04 0.  0.
        2    1    3    3  502    0  0.16550335157E+04  0.37734089550E+03 -0.74778553668E+03  0.18549138251E+04  0.25500000920E-02 0.  1.
       -2    1    3    3    0  502 -0.16550335157E+04 -0.37734089550E+03 -0.52915033338E+03  0.17780669743E+04  0.25500000920E-02 0. -1.
</event>
<event>
 5   0  0.2641442E-07  0.3378509E+04  0.7818609E-02  0.8143201E-01
        1   -1    0    0  501    0  0.00000000000E+00  0.00000000000E+00  0.11667894757E+04  0.11667894758E+04  0.50400001928E-02 0. -1.
       -1   -1    0    0    0  501  0.00000000000E+00  0.00000000000E+00 -0.24456694866E+04  0.24456694866E+04  0.50400001928E-02 0.  1.
    10030    2    1    2    0    0  0.00000000000E+00  0.00000000000E+00 -0.12788800109E+04  0.36124589623E+04  0.33785093862E+04 0.  0.
        1    1    3    3  502    0  0.25060978361E+03 -0.34038406862E+03  0.11093303090E+04  0.11871311268E+04  0.50400001928E-02 0. -1.
       -1    1    3    3    0  502 -0.25060978361E+03  0.34038406862E+03 -0.23882103199E+04  0.24253278355E+04  0.50400001928E-02 0.  1.
</event>
<event>
 5   0  0.8489228E-07  0.3425354E+04  0.7818609E-02  0.8131712E-01
        2   -1    0    0  501    0  0.00000000000E+00  0.00000000000E+00  0.21301285954E+04  0.21301285954E+04  0.25500000920E-02 0.  1.
       -2   -1    0    0    0  501  0.00000000000E+00  0.00000000000E+00 -0.13770354259E+04  0.13770354259E+04  0.25500000920E-02 0. -1.
    10030    2    1    2    0    0  0.00000000000E+00  0.00000000000E+00  0.75309316951E+03  0.35071640214E+04  0.34253540183E+04 0.  0.
        3    1    3    3  502    0  0.37710629933E+03  0.48398632202E+03 -0.12606464690E+04  0.14020276213E+04  0.10100000352E+00 0. -1.
       -3    1    3    3    0  502 -0.37710629933E+03 -0.48398632202E+03  0.20137396385E+04  0.21051364001E+04  0.10100000352E+00 0.  1.
</event>
<event>
 5   0  0.7822003E-07  0.3410618E+04  0.7818609E-02  0.8135305E-01
        2   -1    0    0  501    0  0.00000000000E+00  0.00000000000E+00  0.23012623812E+04  0.23012623812E+04  0.25500000920E-02 0. -1.
       -2   -1    0    0    0  501  0.00000000000E+00  0.00000000000E+00 -0.12636884492E+04  0.12636884492E+04  0.25500000920E-02 0.  1.
    10030    2    1    2    0    0  0.00000000000E+00  0.00000000000E+00  0.10375739319E+04  0.35649508304E+04  0.34106179439E+04 0.  0.
        5    1    3    3  502    0 -0.39027632448E+02  0.26836816903E+03  0.22785719971E+04  0.22946583768E+04  0.46999998093E+01 0. -1.
       -5    1    3    3    0  502  0.39027632448E+02 -0.26836816903E+03 -0.12409980651E+04  0.12702924537E+04  0.46999998093E+01 0.  1.
</event>
<event>
 5   0  0.2622205E-07  0.3380364E+04  0.7818609E-02  0.8142742E-01
       -1   -1    0    0    0  501  0.00000000000E+00  0.00000000000E+00  0.17056030646E+04  0.17056030646E+04  0.50400001928E-02 0.  1.
        1   -1    0    0  501    0  0.00000000000E+00  0.00000000000E+00 -0.16749006308E+04  0.16749006308E+04  0.50400001928E-02 0. -1.
    10030    2    1    2    0    0  0.00000000000E+00  0.00000000000E+00  0.30702433852E+02  0.33805036954E+04  0.33803642696E+04 0.  0.
        3    1    3    3  502    0  0.66712739849E+03  0.10573553162E+04  0.11527883036E+04  0.17005822866E+04  0.10100000352E+00 0.  1.
       -3    1    3    3    0  502 -0.66712739849E+03 -0.10573553162E+04 -0.11220858697E+04  0.16799214088E+04  0.10100000352E+00 0. -1.
</event>
<event>
 5   0  0.2592200E-07  0.3391092E+04  0.7818609E-02  0.8140096E-01
       -1   -1    0    0    0  501  0.00000000000E+00  0.00000000000E+00  0.16946858875E+04  0.16946858875E+04  0.50400001928E-02 0. -1.
        1   -1    0    0  501    0  0.00000000000E+00  0.00000000000E+00 -0.16964069238E+04  0.16964069238E+04  0.50400001928E-02 0.  1.
    10030    2    1    2    0    0  0.00000000000E+00  0.00000000000E+00 -0.17210362587E+01  0.33910928114E+04  0.33910923746E+04 0.  0.
        4    1    3    3  502    0  0.11410053960E+04  0.56080050730E+03 -0.11226827241E+04  0.16961157492E+04  0.12699999809E+01 0.  1.
       -4    1    3    3    0  502 -0.11410053960E+04 -0.56080050730E+03  0.11209616879E+04  0.16949770622E+04  0.12699999809E+01 0. -1.
</event>
<event>
 5   0  0.2599367E-07  0.3398005E+04  0.7818609E-02  0.8138396E-01
       -1   -1    0    0    0  501  0.00000000000E+00  0.00000000000E+00  0.11774393615E+04  0.11774393615E+04  0.50400001928E-02 0.  1.
        1   -1    0    0  501    0  0.00000000000E+00  0.00000000000E+00 -0.24515995993E+04  0.24515995993E+04  0.50400001928E-02 0. -1.
    10030    2    1    2    0    0  0.00000000000E+00  0.00000000000E+00 -0.12741602378E+04  0.36290389607E+04  0.33980052188E+04 0.  0.
        2    1    3    3  502    0  0.14943967396E+04 -0.40397749778E+03  0.11065883234E+03  0.15519873747E+04  0.25500000920E-02 0.  1.
       -2    1    3    3    0  502 -0.14943967396E+04  0.40397749778E+03 -0.13848190701E+04  0.20770515860E+04  0.25500000920E-02 0. -1.
</event>
<event>
 5   0  0.7610412E-07  0.3390707E+04  0.7818609E-02  0.8140191E-01
        2   -1    0    0  501    0  0.00000000000E+00  0.00000000000E+00  0.23048228704E+04  0.23048228704E+04  0.25500000920E-02 0. -1.
       -2   -1    0    0    0  501  0.00000000000E+00  0.00000000000E+00 -0.12470475481E+04  0.12470475481E+04  0.25500000920E-02 0.  1.
    10030    2    1    2    0    0  0.00000000000E+00  0.00000000000E+00  0.10577753223E+04  0.35518704185E+04  0.33907071294E+04 0.  0.
        4    1    3    3  502    0 -0.12982380643E+04 -0.56778218957E+03  0.15039489680E+04  0.20663162386E+04  0.12699999809E+01 0. -1.
       -4    1    3    3    0  502  0.12982380643E+04  0.56778218957E+03 -0.44617364571E+03  0.14855541799E+04  0.12699999809E+01 0.  1.
</event>
<event>
 5   0  0.2553250E-07  0.3281282E+04  0.7818609E-02  0.8167675E-01
       -1   -1    0    0    0  501  0.00000000000E+00  0.00000000000E+00  0.14160144190E+04  0.14160144190E+04  0.50400001928E-02 0.  1.
        1   -1    0    0  501    0  0.00000000000E+00  0.00000000000E+00 -0.19009004225E+04  0.19009004225E+04  0.50400001928E-02 0. -1.
    10030    2    1    2    0    0  0.00000000000E+00  0.00000000000E+00 -0.48488600352E+03  0.33169148415E+04  0.32812817053E+04 0.  0.
        5    1    3    3  502    0  0.10783635719E+03  0.78533746800E+02 -0.18954020452E+04  0.19000966376E+04  0.46999998093E+01 0. -1.
       -5    1    3    3    0  502 -0.10783635719E+03 -0.78533746800E+02  0.14105160417E+04  0.14168182040E+04  0.46999998093E+01 0.  1.
</event>
<event>
 5   0  0.7822003E-07  0.3409265E+04  0.7818609E-02  0.8135636E-01
       -2   -1    0    0    0  501  0.00000000000E+00  0.00000000000E+00  0.15815343933E+04  0.15815343933E+04  0.25500000920E-02 0. -1.
        2   -1    0    0  501    0  0.00000000000E+00  0.00000000000E+00 -0.18373121609E+04  0.18373121609E+04  0.25500000920E-02 0.  1.
    10030    2    1    2    0    0  0.00000000000E+00  0.00000000000E+00 -0.25577776760E+03  0.34188465542E+04  0.34092652426E+04 0.  0.
        5    1    3    3  502    0  0.65895526720E+03  0.78967347661E+03  0.12353225687E+04  0.16074359031E+04  0.46999998093E+01 0. -1.
       -5    1    3    3    0  502 -0.65895526720E+03 -0.78967347661E+03 -0.14911003363E+04  0.18114106511E+04  0.46999998093E+01 0.  1.
</event>
<event>
 5   0  0.2599367E-07  0.3409976E+04  0.7818609E-02  0.8135462E-01
        1   -1    0    0  501    0  0.00000000000E+00  0.00000000000E+00  0.17589068180E+04  0.17589068180E+04  0.50400001928E-02 0.  1.
       -1   -1    0    0    0  501  0.00000000000E+00  0.00000000000E+00 -0.16527220717E+04  0.16527220718E+04  0.50400001928E-02 0. -1.
    10030    2    1    2    0    0  0.00000000000E+00  0.00000000000E+00  0.10618474628E+03  0.34116288898E+04  0.34099760236E+04 0.  0.
        2    1    3    3  502    0 -0.13363446881E+04 -0.10252058366E+04  0.31802251572E+03  0.17140602245E+04  0.25500000920E-02 0.  1.
       -2    1    3    3    0  502  0.13363446881E+04  0.10252058366E+04 -0.21183776944E+03  0.16975686653E+04  0.25500000920E-02 0. -1.
</event>
<event>
 5   0  0.7838333E-07  0.3405696E+04  0.7818609E-02  0.8136510E-01
       -2   -1    0    0    0  501  0.00000000000E+00  0.00000000000E+00  0.17070368511E+04  0.17070368511E+04  0.25500000920E-02 0. -1.
        2   -1    0    0  501    0  0.00000000000E+00  0.00000000000E+00 -0.16986697024E+04  0.16986697024E+04  0.25500000920E-02 0.  1.
    10030    2    1    2    0    0  0.00000000000E+00  0.00000000000E+00  0.83671487193E+01  0.34057065535E+04  0.34056962753E+04 0.  0.
        1    1    3    3  502    0 -0.16848160776E+04  0.22047792279E+03 -0.10751300253E+03  0.17025788603E+04  0.50400001928E-02 0. -1.
       -1    1    3    3    0  502  0.16848160776E+04 -0.22047792279E+03  0.11588015125E+03  0.17031276932E+04  0.50400001928E-02 0.  1.
</event>
<event>
 5   0  0.2553250E-07  0.3385613E+04  0.7818609E-02  0.8141446E-01
       -1   -1    0    0    0  501  0.00000000000E+00  0.00000000000E+00  0.18717810111E+04  0.18717810111E+04  0.50400001928E-02 0.  1.
        1   -1    0    0  501    0  0.00000000000E+00  0.00000000000E+00 -0.15309453408E+04  0.15309453408E+04  0.50400001928E-02 0. -1.
    10030    2    1    2    0    0  0.00000000000E+00  0.00000000000E+00  0.34083567029E+03  0.34027263519E+04  0.33856133376E+04 0.  0.
        5    1    3    3  502    0 -0.13738244449E+04 -0.40180081670E+03  0.10787196978E+04  0.17923436552E+04  0.46999998093E+01 0.  1.
       -5    1    3    3    0  502  0.13738244449E+04  0.40180081670E+03 -0.73788402752E+03  0.16103826967E+04  0.46999998093E+01 0. -1.
</event>
<event>
 5   0  0.2599367E-07  0.3410052E+04  0.7818609E-02  0.8135444E-01
        1   -1    0    0  501    0  0.00000000000E+00  0.00000000000E+00  0.20049206105E+04  0.20049206105E+04  0.50400001928E-02 0. -1.
       -1   -1    0    0    0  501  0.00000000000E+00  0.00000000000E+00 -0.14499892872E+04  0.14499892872E+04  0.50400001928E-02 0.  1.
    10030    2    1    2    0    0  0.00000000000E+00  0.00000000000E+00  0.55493132332E+03  0.34549098976E+04  0.34100518511E+04 0.  0.
        2    1    3    3  502    0 -0.14956672456E+04  0.81238322848E+03  0.37941936595E+03  0.17438308619E+04  0.25500000920E-02 0. -1.
       -2    1    3    3    0  502  0.14956672456E+04 -0.81238322848E+03  0.17551195737E+03  0.17110790358E+04  0.25500000920E-02 0.  1.
</event>
<event>
 5   0  0.7899402E-07  0.3404459E+04  0.7818609E-02  0.8136813E-01
        2   -1    0    0  501    0  0.00000000000E+00  0.00000000000E+00  0.19399567321E+04  0.19399567321E+04  0.25500000920E-02 0. -1.
       -2   -1    0    0    0  501  0.00000000000E+00  0.00000000000E+00 -0.14936343753E+04  0.14936343753E+04  0.25500000920E-02 0.  1.
    10030    2    1    2    0    0  0.00000000000E+00  0.00000000000E+00  0.44632235677E+03  0.34335911074E+04  0.34044594647E+04 0.  0.
        2    1    3    3  502    0 -0.10739230927E+03  0.53431082216E+03 -0.14032646261E+04  0.15053812719E+04  0.25500000920E-02 0.  1.
       -2    1    3    3    0  502  0.10739230927E+03 -0.53431082216E+03  0.18495869829E+04  0.19282098356E+04  0.25500000920E-02 0. -1.
</event>
<event>
 5   0  0.7899402E-07  0.3404391E+04  0.7818609E-02  0.8136829E-01
       -2   -1    0    0    0  501  0.00000000000E+00  0.00000000000E+00  0.23466863830E+04  0.23466863830E+04  0.25500000920E-02 0. -1.
        2   -1    0    0  501    0  0.00000000000E+00  0.00000000000E+00 -0.12347069985E+04  0.12347069985E+04  0.25500000920E-02 0.  1.
    10030    2    1    2    0    0  0.00000000000E+00  0.00000000000E+00  0.11119793845E+04  0.35813933816E+04  0.34043913409E+04 0.  0.
        2    1    3    3  502    0  0.91906910647E+03 -0.10245408516E+04 -0.49763091951E+03  0.14635602178E+04  0.25500000920E-02 0.  1.
       -2    1    3    3    0  502 -0.91906910647E+03  0.10245408516E+04  0.16096103040E+04  0.21178331638E+04  0.25500000920E-02 0. -1.
</event>
<event>
 5   0  0.7610412E-07  0.3330752E+04  0.7818609E-02  0.8155114E-01
        2   -1    0    0  501    0  0.00000000000E+00  0.00000000000E+00  0.19814514440E+04  0.19814514440E+04  0.25500000920E-02 0. -1.
       -2   -1    0    0    0  501  0.00000000000E+00  0.00000000000E+00 -0.13997203914E+04  0.13997203914E+04  0.25500000920E-02 0.  1.
    10030    2    1    2    0    0  0.00000000000E+00  0.00000000000E+00  0.58173105252E+03  0.33811718354E+04  0.33307524620E+04 0.  0.
        4    1    3    3  502    0 -0.64294604118E+03 -0.14701306286E+04 -0.16176823887E+03  0.16127102197E+04  0.12699999809E+01 0.  1.
       -4    1    3    3    0  502  0.64294604118E+03  0.14701306286E+04  0.74349929139E+03  0.17684616157E+04  0.12699999809E+01 0. -1.
</event>
<event>
 5   0  0.7899402E-07  0.3438159E+04  0.7818609E-02  0.8128604E-01
        2   -1    0    0  501    0  0.00000000000E+00  0.00000000000E+00  0.15190466128E+04  0.15190466128E+04  0.25500000920E-02 0.  1.
       -2   -1    0    0    0  501  0.00000000000E+00  0.00000000000E+00 -0.19454537336E+04  0.19454537336E+04  0.25500000920E-02 0. -1.
    10030    2    1    2    0    0  0.00000000000E+00  0.00000000000E+00 -0.42640712075E+03  0.34645003464E+04  0.34381593357E+04 0.  0.
        2    1    3    3  502    0 -0.63009245118E+03 -0.69239924223E+02  0.13969826317E+04  0.15340701214E+04  0.25500000920E-02 0.  1.
       -2    1    3    3    0  502  0.63009245118E+03  0.69239924223E+02 -0.18233897525E+04  0.19304302250E+04  0.25500000920E-02 0. -1.
</event>
<event>
 5   0  0.7899402E-07  0.3342548E+04  0.7818609E-02  0.8152153E-01
       -2   -1    0    0    0  501  0.00000000000E+00  0.00000000000E+00  0.12428956882E+04  0.12428956882E+04  0.25500000920E-02 0.  1.
        2   -1    0    0  501    0  0.00000000000E+00  0.00000000000E+00 -0.22472979884E+04  0.22472979884E+04  0.25500000920E-02 0. -1.
    10030    2    1    2    0    0  0.00000000000E+00  0.00000000000E+00 -0.10044023003E+04  0.34901936766E+04  0.33425481177E+04 0.  0.
        2    1    3    3  502    0  0.11499185972E+03  0.33158054829E+02  0.12384157358E+04  0.12441849216E+04  0.25500000920E-02 0.  1.
       -2    1    3    3    0  502 -0.11499185972E+03 -0.33158054829E+02 -0.22428180361E+04  0.22460087550E+04  0.25500000920E-02 0. -1.
</event>
<event>
 5   0  0.8489228E-07  0.3379423E+04  0.7818609E-02  0.8142975E-01
       -2   -1    0    0    0  501  0.00000000000E+00  0.00000000000E+00  0.32179937801E+04  0.32179937801E+04  0.25500000920E-02 0. -1.
        2   -1    0    0  501    0  0.00000000000E+00  0.00000000000E+00 -0.88723747249E+03  0.88723747250E+03  0.25500000920E-02 0.  1.
    10030    2    1    2    0    0  0.00000000000E+00  0.00000000000E+00  0.23307563077E+04  0.41052312526E+04  0.33794228312E+04 0.  0.
        3    1    3    3  502    0 -0.22789427073E+03 -0.13054749898E+04  0.24388193757E+04  0.27756153741E+04  0.10100000352E+00 0. -1.
       -3    1    3    3    0  502  0.22789427073E+03  0.13054749898E+04 -0.10806306800E+03  0.13296158786E+04  0.10100000352E+00 0.  1.
</event>
<event>
 5   0  0.2592200E-07  0.3387965E+04  0.7818609E-02  0.8140866E-01
        1   -1    0    0  501    0  0.00000000000E+00  0.00000000000E+00  0.21614966556E+04  0.21614966556E+04  0.50400001928E-02 0. -1.
       -1   -1    0    0    0  501  0.00000000000E+00  0.00000000000E+00 -0.13275877599E+04  0.13275877599E+04  0.50400001928E-02 0.  1.
    10030    2    1    2    0    0  0.00000000000E+00  0.00000000000E+00  0.83390889574E+03  0.34890844155E+04  0.33879648777E+04 0.  0.
        4    1    3    3  502    0 -0.31267364790E+02  0.22409172161E+03 -0.13119554582E+04  0.13313239594E+04  0.12699999809E+01 0.  1.
       -4    1    3    3    0  502  0.31267364790E+02 -0.22409172161E+03  0.21458643539E+04  0.21577604561E+04  0.12699999809E+01 0. -1.
</event>
<event>
 5   0  0.2641442E-07  0.3400794E+04  0.7818609E-02  0.8137712E-01
        1   -1    0    0  501    0  0.00000000000E+00  0.00000000000E+00  0.22687896570E+04  0.22687896570E+04  0.50400001928E-02 0. -1.
       -1   -1    0    0    0  501  0.00000000000E+00  0.00000000000E+00 -0.12744018470E+04  0.12744018470E+04  0.50400001928E-02 0.  1.
    10030    2    1    2    0    0  0.00000000000E+00  0.00000000000E+00  0.99438781005E+03  0.35431915040E+04  0.34007938657E+04 0.  0.
        1    1    3    3  502    0  0.13572041046E+04 -0.62596950960E+03 -0.34762795358E+03  0.15344986160E+04  0.50400001928E-02 0.  1.
       -1    1    3    3    0  502 -0.13572041046E+04  0.62596950960E+03  0.13420157636E+04  0.20086928880E+04  0.50400001928E-02 0. -1.
</event>
<event>
 5   0  0.2622205E-07  0.3419153E+04  0.7818609E-02  0.8133221E-01
        1   -1    0    0  501    0  0.00000000000E+00  0.00000000000E+00  0.24249877664E+04  0.24249877664E+04  0.50400001928E-02 0. -1.
       -1   -1    0    0    0  501  0.00000000000E+00  0.00000000000E+00 -0.12052234553E+04  0.12052234553E+04  0.50400001928E-02 0.  1.
    10030    2    1    2    0    0  0.00000000000E+00  0.00000000000E+00  0.12197643111E+04  0.36302112217E+04  0.34191531904E+04 0.  0.
        3    1    3    3  502    0 -0.11881533964E+04  0.70767982360E+03  0.16769759481E+04  0.21736530466E+04  0.10100000352E+00 0. -1.
       -3    1    3    3    0  502  0.11881533964E+04 -0.70767982360E+03 -0.45721163702E+03  0.14565581751E+04  0.10100000352E+00 0.  1.
</event>
<event>
 5   0  0.2599367E-07  0.3417910E+04  0.7818609E-02  0.8133524E-01
       -1   -1    0    0    0  501  0.00000000000E+00  0.00000000000E+00  0.14911702166E+04  0.14911702167E+04  0.50400001928E-02 0. -1.
        1   -1    0    0  501    0  0.00000000000E+00  0.00000000000E+00 -0.19585475059E+04  0.19585475059E+04  0.50400001928E-02 0.  1.
    10030    2    1    2    0    0  0.00000000000E+00  0.00000000000E+00 -0.46737728927E+03  0.34497177226E+04  0.34179103024E+04 0.  0.
        2    1    3    3  502    0 -0.94609044417E+03 -0.12670485853E+04  0.42043863163E+03  0.16362358904E+04  0.25500000920E-02 0. -1.
       -2    1    3    3    0  502  0.94609044417E+03  0.12670485853E+04 -0.88781592089E+03  0.18134818322E+04  0.25500000920E-02 0.  1.
</event>
<event>
 5   0  0.2622205E-07  0.3404773E+04  0.7818609E-02  0.8136736E-01
       -1   -1    0    0    0  501  0.00000000000E+00  0.00000000000E+00  0.12192679731E+04  0.12192679731E+04  0.50400001928E-02 0.  1.
        1   -1    0    0  501    0  0.00000000000E+00  0.00000000000E+00 -0.23769336880E+04  0.23769336880E+04  0.50400001928E-02 0. -1.
    10030    2    1    2    0    0  0.00000000000E+00  0.00000000000E+00 -0.11576657150E+04  0.35962016611E+04  0.34047726032E+04 0.  0.
        3    1    3    3  502    0 -0.59244752177E+03 -0.12795055340E+04  0.42873518973E+03  0.14737511156E+04  0.10100000352E+00 0.  1.
       -3    1    3    3    0  502  0.59244752177E+03  0.12795055340E+04 -0.15864009047E+04  0.21224505455E+04  0.10100000352E+00 0. -1.
</event>
<event>
 5   0  0.7610412E-07  0.3394139E+04  0.7818609E-02  0.8139346E-01
       -2   -1    0    0    0  501  0.00000000000E+00  0.00000000000E+00  0.14363442747E+04  0.14363442747E+04  0.25500000920E-02 0.  1.
        2   -1    0    0  501    0  0.00000000000E+00  0.00000000000E+00 -0.20051219253E+04  0.20051219253E+04  0.25500000920E-02 0. -1.
    10030    2    1    2    0    0  0.00000000000E+00  0.00000000000E+00 -0.56877765057E+03  0.34414661999E+04  0.33941393003E+04 0.  0.
        4    1    3    3  502    0  0.52042394978E+03  0.55165849542E+03  0.12549619382E+04  0.14663216777E+04  0.12699999809E+01 0.  1.
       -4    1    3    3    0  502 -0.52042394978E+03 -0.55165849542E+03 -0.18237395888E+04  0.19751445223E+04  0.12699999809E+01 0. -1.
</event>
<event>
 5   0  0.7610412E-07  0.3255231E+04  0.7818609E-02  0.8174381E-01
       -2   -1    0    0    0  501  0.00000000000E+00  0.00000000000E+00  0.14337216825E+04  0.14337216825E+04  0.25500000920E-02 0. -1.
        2   -1    0    0  501    0  0.00000000000E+00  0.00000000000E+00 -0.18477311308E+04  0.18477311308E+04  0.25500000920E-02 0.  1.
    10030    2    1    2    0    0  0.00000000000E+00  0.00000000000E+00 -0.41400944831E+03  0.32814528134E+04  0.32552309815E+04 0.  0.
        4    1    3    3  502    0  0.90691471148E+03 -0.24769548899E+03 -0.15463469164E+04  0.18097065364E+04  0.12699999809E+01 0.  1.
       -4    1    3    3    0  502 -0.90691471148E+03  0.24769548899E+03  0.11323374681E+04  0.14717462769E+04  0.12699999809E+01 0. -1.
</event>
<event>
 5   0  0.7899402E-07  0.3392731E+04  0.7818609E-02  0.8139693E-01
       -2   -1    0    0    0  501  0.00000000000E+00  0.00000000000E+00  0.13154809240E+04  0.13154809240E+04  0.25500000920E-02 0. -1.
        2   -1    0    0  501    0  0.00000000000E+00  0.00000000000E+00 -0.21875315275E+04  0.21875315275E+04  0.25500000920E-02 0.  1.
    10030    2    1    2    0    0  0.00000000000E+00  0.00000000000E+00 -0.87205060350E+03  0.35030124515E+04  0.33927310504E+04 0.  0.
        2    1    3    3  502    0 -0.22141455721E+03 -0.16350478790E+04 -0.29199880186E+02  0.16502298646E+04  0.25500000920E-02 0. -1.
       -2    1    3    3    0  502  0.22141455721E+03  0.16350478790E+04 -0.84285072331E+03  0.18527825870E+04  0.25500000920E-02 0.  1.
</event>
<event>
 5   0  0.2553250E-07  0.3412978E+04  0.7818609E-02  0.8134728E-01
        3   -1    0    0  501    0  0.00000000000E+00  0.00000000000E+00  0.17710355748E+04  0.17710355777E+04  0.10100000352E+00 0. -1.
       -3   -1    0    0    0  501  0.00000000000E+00  0.00000000000E+00 -0.16442948940E+04  0.16442948971E+04  0.10100000352E+00 0.  1.
    10030    2    1    2    0    0  0.00000000000E+00  0.00000000000E+00  0.12674068074E+03  0.34153304748E+04  0.34129780327E+04 0.  0.
        4    1    3    3  502    0  0.12473383763E+04 -0.13614721093E+03 -0.10940227533E+04  0.16647151365E+04  0.12699999809E+01 0.  1.
       -4    1    3    3    0  502 -0.12473383763E+04  0.13614721093E+03  0.12207634340E+04  0.17506153383E+04  0.12699999809E+01 0. -1.
</event>
<event>
 5   0  0.2592200E-07  0.2974537E+04  0.7818609E-02  0.8251039E-01
        1   -1    0    0  501    0  0.00000000000E+00  0.00000000000E+00  0.25690287162E+04  0.25690287162E+04  0.50400001928E-02 0.  1.
       -1   -1    0    0    0  501  0.00000000000E+00  0.00000000000E+00 -0.86101342033E+03  0.86101342035E+03  0.50400001928E-02 0. -1.
    10030    2    1    2    0    0  0.00000000000E+00  0.00000000000E+00  0.17080152959E+04  0.34300421366E+04  0.29745374107E+04 0.  0.
        4    1    3    3  502    0 -0.40194029456E+03  0.51878487978E+02  0.25041264854E+04  0.25367101620E+04  0.12699999809E+01 0.  1.
       -4    1    3    3    0  502  0.40194029456E+03 -0.51878487978E+02 -0.79611118952E+03  0.89333197462E+03  0.12699999809E+01 0. -1.
</event>
<event>
 5   0  0.2622205E-07  0.3388441E+04  0.7818609E-02  0.8140749E-01
       -1   -1    0    0    0  501  0.00000000000E+00  0.00000000000E+00  0.10137224190E+04  0.10137224190E+04  0.50400001928E-02 0.  1.
        1   -1    0    0  501    0  0.00000000000E+00  0.00000000000E+00 -0.28315269718E+04  0.28315269718E+04  0.50400001928E-02 0. -1.
    10030    2    1    2    0    0  0.00000000000E+00  0.00000000000E+00 -0.18178045529E+04  0.38452493908E+04  0.33884405683E+04 0.  0.
        3    1    3    3  502    0 -0.12337197861E+04 -0.22678434104E+03  0.38343437023E+03  0.13116850134E+04  0.10100000352E+00 0.  1.
       -3    1    3    3    0  502  0.12337197861E+04  0.22678434104E+03 -0.22012389231E+04  0.25335643774E+04  0.10100000352E+00 0. -1.
</event>
<event>
 5   0  0.2592200E-07  0.3336795E+04  0.7818609E-02  0.8153595E-01
        1   -1    0    0  501    0  0.00000000000E+00  0.00000000000E+00  0.22889373715E+04  0.22889373715E+04  0.50400001928E-02 0.  1.
       -1   -1    0    0    0  501  0.00000000000E+00  0.00000000000E+00 -0.12160885028E+04  0.12160885028E+04  0.50400001928E-02 0. -1.
    10030    2    1    2    0    0  0.00000000000E+00  0.00000000000E+00  0.10728488687E+04  0.35050258743E+04  0.33367951217E+04 0.  0.
        4    1    3    3  502    0 -0.93747712083E+02  0.15339310080E+04  0.12186423611E+04  0.19613321462E+04  0.12699999809E+01 0.  1.
       -4    1    3    3    0  502  0.93747712083E+02 -0.15339310080E+04 -0.14579349237E+03  0.15436937281E+04  0.12699999809E+01 0. -1.
</event>
<event>
 5   0  0.2592200E-07  0.3326808E+04  0.7818609E-02  0.8156107E-01
        1   -1    0    0  501    0  0.00000000000E+00  0.00000000000E+00  0.20377282572E+04  0.20377282572E+04  0.50400001928E-02 0.  1.
       -1   -1    0    0    0  501  0.00000000000E+00  0.00000000000E+00 -0.13578420312E+04  0.13578420313E+04  0.50400001928E-02 0. -1.
    10030    2    1    2    0    0  0.00000000000E+00  0.00000000000E+00  0.67988622598E+03  0.33955702885E+04  0.33268081255E+04 0.  0.
        4    1    3    3  502    0  0.12158355058E+04 -0.86324354607E+03  0.10923819218E+04  0.18484440140E+04  0.12699999809E+01 0. -1.
       -4    1    3    3    0  502 -0.12158355058E+04  0.86324354607E+03 -0.41249569580E+03  0.15471262744E+04  0.12699999809E+01 0.  1.
</event>
<event>
 5   0  0.7838333E-07  0.3346901E+04  0.7818609E-02  0.8151063E-01
        2   -1    0    0  501    0  0.00000000000E+00  0.00000000000E+00  0.21670307554E+04  0.21670307554E+04  0.25500000920E-02 0. -1.
       -2   -1    0    0    0  501  0.00000000000E+00  0.00000000000E+00 -0.12922923611E+04  0.12922923611E+04  0.25500000920E-02 0.  1.
    10030    2    1    2    0    0  0.00000000000E+00  0.00000000000E+00  0.87473839427E+03  0.34593231165E+04  0.33469014276E+04 0.  0.
        1    1    3    3  502    0  0.72318764294E+03  0.11616996307E+04 -0.55825779751E+03  0.14779033011E+04  0.50400001928E-02 0.  1.
       -1    1    3    3    0  502 -0.72318764294E+03 -0.11616996307E+04  0.14329961918E+04  0.19814198154E+04  0.50400001928E-02 0. -1.
</event>
<event>
 5   0  0.7899402E-07  0.3385844E+04  0.7818609E-02  0.8141390E-01
        2   -1    0    0  501    0  0.00000000000E+00  0.00000000000E+00  0.30494625191E+04  0.30494625191E+04  0.25500000920E-02 0.  1.
       -2   -1    0    0    0  501  0.00000000000E+00  0.00000000000E+00 -0.93983258217E+03  0.93983258217E+03  0.25500000920E-02 0. -1.
    10030    2    1    2    0    0  0.00000000000E+00  0.00000000000E+00  0.21096299370E+04  0.39892951013E+04  0.33858436075E+04 0.  0.
        2    1    3    3  502    0  0.86816128370E+03 -0.14465648595E+04  0.88931557573E+03  0.19071277095E+04  0.25500000920E-02 0.  1.
       -2    1    3    3    0  502 -0.86816128370E+03  0.14465648595E+04  0.12203143612E+04  0.20821673918E+04  0.25500000920E-02 0. -1.
</event>
<event>
 5   0  0.8489228E-07  0.3403223E+04  0.7818609E-02  0.8137116E-01
       -2   -1    0    0    0  501  0.00000000000E+00  0.00000000000E+00  0.13279827709E+04  0.13279827709E+04  0.25500000920E-02 0. -1.
        2   -1    0    0  501    0  0.00000000000E+00  0.00000000000E+00 -0.21803605072E+04  0.21803605072E+04  0.25500000920E-02 0.  1.
    10030    2    1    2    0    0  0.00000000000E+00  0.00000000000E+00 -0.85237773628E+03  0.35083432782E+04  0.34032227009E+04 0.  0.
        3    1    3    3  502    0  0.17004351158E+04 -0.59000179726E+02 -0.44970970760E+03  0.17598861996E+04  0.10100000352E+00 0. -1.
       -3    1    3    3    0  502 -0.17004351158E+04  0.59000179726E+02 -0.40266802869E+03  0.17484570786E+04  0.10100000352E+00 0.  1.
</event>
<event>
 5   0  0.7822003E-07  0.3383431E+04  0.7818609E-02  0.8141985E-01
        2   -1    0    0  501    0  0.00000000000E+00  0.00000000000E+00  0.13108348169E+04  0.13108348169E+04  0.25500000920E-02 0. -1.
       -2   -1    0    0    0  501  0.00000000000E+00  0.00000000000E+00 -0.21832660035E+04  0.21832660035E+04  0.25500000920E-02 0.  1.
    10030    2    1    2    0    0  0.00000000000E+00  0.00000000000E+00 -0.87243118668E+03  0.34941008204E+04  0.33834308575E+04 0.  0.
        5    1    3    3  502    0 -0.14129286175E+04  0.35257612057E+03  0.45287570512E+03  0.15250559640E+04  0.46999998093E+01 0. -1.
       -5    1    3    3    0  502  0.14129286175E+04 -0.35257612057E+03 -0.13253068918E+04  0.19690448564E+04  0.46999998093E+01 0.  1.
</event>
<event>
 5   0  0.2553250E-07  0.3368531E+04  0.7818609E-02  0.8145673E-01
        1   -1    0    0  501    0  0.00000000000E+00  0.00000000000E+00  0.19652682119E+04  0.19652682119E+04  0.50400001928E-02 0. -1.
       -1   -1    0    0    0  501  0.00000000000E+00  0.00000000000E+00 -0.14434415391E+04  0.14434415391E+04  0.50400001928E-02 0.  1.
    10030    2    1    2    0    0  0.00000000000E+00  0.00000000000E+00  0.52182667282E+03  0.34087097511E+04  0.33685307021E+04 0.  0.
        5    1    3    3  502    0 -0.49575740542E+03  0.37014859206E+03 -0.13242779856E+04  0.14616838435E+04  0.46999998093E+01 0.  1.
       -5    1    3    3    0  502  0.49575740542E+03 -0.37014859206E+03  0.18461046584E+04  0.19470259076E+04  0.46999998093E+01 0. -1.
</event>
<event>
 5   0  0.2599367E-07  0.3390372E+04  0.7818609E-02  0.8140273E-01
        1   -1    0    0  501    0  0.00000000000E+00  0.00000000000E+00  0.21515061263E+04  0.21515061263E+04  0.50400001928E-02 0.  1.
       -1   -1    0    0    0  501  0.00000000000E+00  0.00000000000E+00 -0.13356486756E+04  0.13356486756E+04  0.50400001928E-02 0. -1.
    10030    2    1    2    0    0  0.00000000000E+00  0.00000000000E+00  0.81585745069E+03  0.34871548019E+04  0.33903724328E+04 0.  0.
        2    1    3    3  502    0 -0.16575083635E+04 -0.33023850932E+03  0.54307539624E+03  0.17751964212E+04  0.25500000920E-02 0. -1.
       -2    1    3    3    0  502  0.16575083635E+04  0.33023850932E+03  0.27278205445E+03  0.17119583807E+04  0.25500000920E-02 0.  1.
</event>
<event>
 5   0  0.2553250E-07  0.3400323E+04  0.7818609E-02  0.8137827E-01
       -1   -1    0    0    0  501  0.00000000000E+00  0.00000000000E+00  0.20360229393E+04  0.20360229394E+04  0.50400001928E-02 0.  1.
        1   -1    0    0  501    0  0.00000000000E+00  0.00000000000E+00 -0.14197035214E+04  0.14197035214E+04  0.50400001928E-02 0. -1.
    10030    2    1    2    0    0  0.00000000000E+00  0.00000000000E+00  0.61631941795E+03  0.34557264608E+04  0.34003228886E+04 0.  0.
        5    1    3    3  502    0  0.28605485117E+03  0.90581869402E+03 -0.11248474383E+04  0.14722903021E+04  0.46999998093E+01 0.  1.
       -5    1    3    3    0  502 -0.28605485117E+03 -0.90581869402E+03  0.17411668562E+04  0.19834361587E+04  0.46999998093E+01 0. -1.
</event>
<event>
 5   0  0.7899402E-07  0.3371210E+04  0.7818609E-02  0.8145009E-01
        2   -1    0    0  501    0  0.00000000000E+00  0.00000000000E+00  0.25545782103E+04  0.25545782103E+04  0.25500000920E-02 0.  1.
       -2   -1    0    0    0  501  0.00000000000E+00  0.00000000000E+00 -0.11122242027E+04  0.11122242027E+04  0.25500000920E-02 0. -1.
    10030    2    1    2    0    0  0.00000000000E+00  0.00000000000E+00  0.14423540075E+04  0.36668024130E+04  0.33712097017E+04 0.  0.
        2    1    3    3  502    0  0.13307418793E+04  0.14492875911E+03  0.18353926510E+04  0.22716831816E+04  0.25500000920E-02 0.  1.
       -2    1    3    3    0  502 -0.13307418793E+04 -0.14492875911E+03 -0.39303864346E+03  0.13951192314E+04  0.25500000920E-02 0. -1.
</event>
<event>
 5   0  0.7838333E-07  0.3341149E+04  0.7818609E-02  0.8152503E-01
        2   -1    0    0  501    0  0.00000000000E+00  0.00000000000E+00  0.23556027963E+04  0.23556027963E+04  0.25500000920E-02 0.  1.
       -2   -1    0    0    0  501  0.00000000000E+00  0.00000000000E+00 -0.11847582614E+04  0.11847582614E+04  0.25500000920E-02 0. -1.
    10030    2    1    2    0    0  0.00000000000E+00  0.00000000000E+00  0.11708445349E+04  0.35403610577E+04  0.33411494271E+04 0.  0.
        1    1    3    3  502    0 -0.13556485042E+03 -0.16500901594E+04  0.34932700452E+03  0.16921006823E+04  0.50400001928E-02 0.  1.
       -1    1    3    3    0  502  0.13556485042E+03  0.16500901594E+04  0.82151753036E+03  0.18482603755E+04  0.50400001928E-02 0. -1.
</event>
<event>
 5   0  0.7838333E-07  0.3385718E+04  0.7818609E-02  0.8141421E-01
        2   -1    0    0  501    0  0.00000000000E+00  0.00000000000E+00  0.19200401759E+04  0.19200401759E+04  0.25500000920E-02 0. -1.
       -2   -1    0    0    0  501  0.00000000000E+00  0.00000000000E+00 -0.14925578089E+04  0.14925578089E+04  0.25500000920E-02 0.  1.
    10030    2    1    2    0    0  0.00000000000E+00  0.00000000000E+00  0.42748236697E+03  0.34125979849E+04  0.33857176244E+04 0.  0.
        1    1    3    3  502    0  0.11719674457E+04  0.12040021996E+04  0.56023991890E+01  0.16802262875E+04  0.50400001928E-02 0.  1.
       -1    1    3    3    0  502 -0.11719674457E+04 -0.12040021996E+04  0.42187996778E+03  0.17323716973E+04  0.50400001928E-02 0. -1.
</event>
<event>
 5   0  0.8489228E-07  0.3437944E+04  0.7818609E-02  0.8128656E-01
       -2   -1    0    0    0  501  0.00000000000E+00  0.00000000000E+00  0.14299344820E+04  0.14299344820E+04  0.25500000920E-02 0. -1.
        2   -1    0    0  501    0  0.00000000000E+00  0.00000000000E+00 -0.20664336075E+04  0.20664336075E+04  0.25500000920E-02 0.  1.
    10030    2    1    2    0    0  0.00000000000E+00  0.00000000000E+00 -0.63649912549E+03  0.34963680895E+04  0.34379439612E+04 0.  0.
        3    1    3    3  502    0 -0.10056126905E+04  0.92035205934E+03 -0.13832125824E+04  0.19420560895E+04  0.10100000352E+00 0.  1.
       -3    1    3    3    0  502  0.10056126905E+04 -0.92035205934E+03  0.74671345694E+03  0.15543120000E+04  0.10100000352E+00 0. -1.
</event>
<event>
 5   0  0.2592200E-07  0.3383655E+04  0.7818609E-02  0.8141930E-01
       -1   -1    0    0    0  501  0.00000000000E+00  0.00000000000E+00  0.12279768586E+04  0.12279768586E+04  0.50400001928E-02 0. -1.
        1   -1    0    0  501    0  0.00000000000E+00  0.00000000000E+00 -0.23308912710E+04  0.23308912710E+04  0.50400001928E-02 0.  1.
    10030    2    1    2    0    0  0.00000000000E+00  0.00000000000E+00 -0.11029144124E+04  0.35588681297E+04  0.33836551484E+04 0.  0.
        4    1    3    3  502    0 -0.12711127251E+04  0.45530751127E+03  0.52076568189E+03  0.14471458110E+04  0.12699999809E+01 0. -1.
       -4    1    3    3    0  502  0.12711127251E+04 -0.45530751127E+03 -0.16236800943E+04  0.21117223187E+04  0.12699999809E+01 0.  1.
</event>
<event>
 5   0  0.7838333E-07  0.3375960E+04  0.7818609E-02  0.8143832E-01
        2   -1    0    0  501    0  0.00000000000E+00  0.00000000000E+00  0.19299670519E+04  0.19299670519E+04  0.25500000920E-02 0. -1.
       -2   -1    0    0    0  501  0.00000000000E+00  0.00000000000E+00 -0.14763344195E+04  0.14763344195E+04  0.25500000920E-02 0.  1.
    10030    2    1    2    0    0  0.00000000000E+00  0.00000000000E+00  0.45363263237E+03  0.34063014714E+04  0.33759601818E+04 0.  0.
        1    1    3    3  502    0  0.16121053232E+04  0.49667711938E+03  0.28823252217E+03  0.17113298107E+04  0.50400001928E-02 0.  1.
       -1    1    3    3    0  502 -0.16121053232E+04 -0.49667711938E+03  0.16540011020E+03  0.16949716607E+04  0.50400001928E-02 0. -1.
</event>
<event>
 5   0  0.2599367E-07  0.3386426E+04  0.7818609E-02  0.8141246E-01
       -1   -1    0    0    0  501  0.00000000000E+00  0.00000000000E+00  0.12382300459E+04  0.12382300459E+04  0.50400001928E-02 0.  1.
        1   -1    0    0  501    0  0.00000000000E+00  0.00000000000E+00 -0.23153777444E+04  0.23153777444E+04  0.50400001928E-02 0. -1.
    10030    2    1    2    0    0  0.00000000000E+00  0.00000000000E+00 -0.10771476985E+04  0.35536077903E+04  0.33864260162E+04 0.  0.
        2    1    3    3  502    0 -0.11212314245E+04 -0.11755640198E+04 -0.37661677535E+02  0.16249704840E+04  0.25500000920E-02 0. -1.
       -2    1    3    3    0  502  0.11212314245E+04  0.11755640198E+04 -0.10394860209E+04  0.19286373064E+04  0.25500000920E-02 0.  1.
</event>
<event>
 5   0  0.7822003E-07  0.3337171E+04  0.7818609E-02  0.8153501E-01
       -2   -1    0    0    0  501  0.00000000000E+00  0.00000000000E+00  0.19859230398E+04  0.19859230398E+04  0.25500000920E-02 0.  1.
        2   -1    0    0  501    0  0.00000000000E+00  0.00000000000E+00 -0.14019565925E+04  0.14019565925E+04  0.25500000920E-02 0. -1.
    10030    2    1    2    0    0  0.00000000000E+00  0.00000000000E+00  0.58396644733E+03  0.33878796323E+04  0.33371711960E+04 0.  0.
        5    1    3    3  502    0  0.10217602089E+04  0.11861563013E+04  0.87798481648E+03  0.17949485016E+04  0.46999998093E+01 0.  1.
       -5    1    3    3    0  502 -0.10217602089E+04 -0.11861563013E+04 -0.29401836914E+03  0.15929311307E+04  0.46999998093E+01 0. -1.
</event>
<event>
 5   0  0.8489228E-07  0.3401447E+04  0.7818609E-02  0.8137551E-01
       -2   -1    0    0    0  501  0.00000000000E+00  0.00000000000E+00  0.13629421115E+04  0.13629421115E+04  0.25500000920E-02 0.  1.
        2   -1    0    0  501    0  0.00000000000E+00  0.00000000000E+00 -0.21222180999E+04  0.21222180999E+04  0.25500000920E-02 0. -1.
    10030    2    1    2    0    0  0.00000000000E+00  0.00000000000E+00 -0.75927598847E+03  0.34851602114E+04  0.34014469968E+04 0.  0.
        3    1    3    3  502    0  0.56667750850E+03  0.15520424797E+04  0.33397390705E+02  0.16525963370E+04  0.10100000352E+00 0.  1.
       -3    1    3    3    0  502 -0.56667750850E+03 -0.15520424797E+04 -0.79267337918E+03  0.18325638743E+04  0.10100000352E+00 0. -1.
</event>
<event>
 5   0  0.2599367E-07  0.3414736E+04  0.7818609E-02  0.8134299E-01
       -1   -1    0    0    0  501  0.00000000000E+00  0.00000000000E+00  0.12002391264E+04  0.12002391264E+04  0.50400001928E-02 0.  1.
        1   -1    0    0  501    0  0.00000000000E+00  0.00000000000E+00 -0.24287706195E+04  0.24287706195E+04  0.50400001928E-02 0. -1.
    10030    2    1    2    0    0  0.00000000000E+00  0.00000000000E+00 -0.12285314932E+04  0.36290097459E+04  0.34147360229E+04 0.  0.
        2    1    3    3  502    0 -0.66044515511E+03  0.57132782684E+03  0.94493776527E+03  0.12866664948E+04  0.25500000920E-02 0.  1.
       -2    1    3    3    0  502  0.66044515511E+03 -0.57132782684E+03 -0.21734692584E+04  0.23423432511E+04  0.25500000920E-02 0. -1.
</event>
<event>
 5   0  0.2599367E-07  0.3414927E+04  0.7818609E-02  0.8134252E-01
        1   -1    0    0  501    0  0.00000000000E+00  0.00000000000E+00  0.25972938691E+04  0.25972938691E+04  0.50400001928E-02 0. -1.
       -1   -1    0    0    0  501  0.00000000000E+00  0.00000000000E+00 -0.11224884025E+04  0.11224884026E+04  0.50400001928E-02 0.  1.
    10030    2    1    2    0    0  0.00000000000E+00  0.00000000000E+00  0.14748054666E+04  0.37197822717E+04  0.34149273762E+04 0.  0.
        2    1    3    3  502    0  0.13524848610E+04  0.82859591182E+03  0.48792212207E+02  0.15868733927E+04  0.25500000920E-02 0.  1.
       -2    1    3    3    0  502 -0.13524848610E+04 -0.82859591182E+03  0.14260132544E+04  0.21329088790E+04  0.25500000920E-02 0. -1.
</event>
<event>
 5   0  0.2553250E-07  0.3415759E+04  0.7818609E-02  0.8134049E-01
       -1   -1    0    0    0  501  0.00000000000E+00  0.00000000000E+00  0.20137718369E+04  0.20137718369E+04  0.50400001928E-02 0. -1.
        1   -1    0    0  501    0  0.00000000000E+00  0.00000000000E+00 -0.14484523892E+04  0.14484523892E+04  0.50400001928E-02 0.  1.
    10030    2    1    2    0    0  0.00000000000E+00  0.00000000000E+00  0.56531944775E+03  0.34622242261E+04  0.34157591417E+04 0.  0.
        5    1    3    3  502    0  0.93461234524E+03  0.24442963967E+03 -0.11448967556E+04  0.14980176085E+04  0.46999998093E+01 0.  1.
       -5    1    3    3    0  502 -0.93461234524E+03 -0.24442963967E+03  0.17102162033E+04  0.19642066176E+04  0.46999998093E+01 0. -1.
</event>
<event>
 5   0  0.7899402E-07  0.3366317E+04  0.7818609E-02  0.8146223E-01
       -2   -1    0    0    0  501  0.00000000000E+00  0.00000000000E+00  0.10737565352E+04  0.10737565352E+04  0.25500000920E-02 0. -1.
        2   -1    0    0  501    0  0.00000000000E+00  0.00000000000E+00 -0.26384210852E+04  0.26384210852E+04  0.25500000920E-02 0.  1.
    10030    2    1    2    0    0  0.00000000000E+00  0.00000000000E+00 -0.15646645501E+04  0.37121776204E+04  0.33663166118E+04 0.  0.
        2    1    3    3  502    0 -0.16365199457E+04 -0.24501679952E+03 -0.11218462154E+04  0.19991922608E+04  0.25500000920E-02 0. -1.
       -2    1    3    3    0  502  0.16365199457E+04  0.24501679952E+03 -0.44281833466E+03  0.17129853596E+04  0.25500000920E-02 0.  1.
</event>
<event>
 5   0  0.7899402E-07  0.3375379E+04  0.7818609E-02  0.8143976E-01
        2   -1    0    0  501    0  0.00000000000E+00  0.00000000000E+00  0.19990096888E+04  0.19990096888E+04  0.25500000920E-02 0. -1.
       -2   -1    0    0    0  501  0.00000000000E+00  0.00000000000E+00 -0.14248531883E+04  0.14248531883E+04  0.25500000920E-02 0.  1.
    10030    2    1    2    0    0  0.00000000000E+00  0.00000000000E+00  0.57415650047E+03  0.34238628772E+04  0.33753786920E+04 0.  0.
        2    1    3    3  502    0 -0.99311821537E+03 -0.21204953792E+03  0.16544193981E+04  0.19412244438E+04  0.25500000920E-02 0. -1.
       -2    1    3    3    0  502  0.99311821537E+03  0.21204953792E+03 -0.10802628976E+04  0.14826384334E+04  0.25500000920E-02 0.  1.
</event>
<event>
 5   0  0.2622205E-07  0.3474086E+04  0.7818609E-02  0.8119959E-01
        1   -1    0    0  501    0  0.00000000000E+00  0.00000000000E+00  0.26064658881E+04  0.26064658881E+04  0.50400001928E-02 0. -1.
       -1   -1    0    0    0  501  0.00000000000E+00  0.00000000000E+00 -0.11576282566E+04  0.11576282566E+04  0.50400001928E-02 0.  1.
    10030    2    1    2    0    0  0.00000000000E+00  0.00000000000E+00  0.14488376315E+04  0.37640941447E+04  0.34740861025E+04 0.  0.
        3    1    3    3  502    0  0.17858964833E+03  0.15029933780E+04  0.16478793457E+04  0.22374963028E+04  0.10100000352E+00 0. -1.
       -3    1    3    3    0  502 -0.17858964833E+03 -0.15029933780E+04 -0.19904171421E+03  0.15265978419E+04  0.10100000352E+00 0.  1.
</event>
<event>
 5   0  0.7610412E-07  0.3407637E+04  0.7818609E-02  0.8136035E-01
       -2   -1    0    0    0  501  0.00000000000E+00  0.00000000000E+00  0.14471646524E+04  0.14471646524E+04  0.25500000920E-02 0. -1.
        2   -1    0    0  501    0  0.00000000000E+00  0.00000000000E+00 -0.20059893969E+04  0.20059893969E+04  0.25500000920E-02 0.  1.
    10030    2    1    2    0    0  0.00000000000E+00  0.00000000000E+00 -0.55882474456E+03  0.34531540493E+04  0.34076366874E+04 0.  0.
        4    1    3    3  502    0  0.12691522192E+04  0.32269240001E+03 -0.13839801797E+04  0.19053294967E+04  0.12699999809E+01 0.  1.
       -4    1    3    3    0  502 -0.12691522192E+04 -0.32269240001E+03  0.82515543513E+03  0.15478245526E+04  0.12699999809E+01 0. -1.
</event>
<event>
 5   0  0.2641442E-07  0.3385146E+04  0.7818609E-02  0.8141562E-01
       -1   -1    0    0    0  501  0.00000000000E+00  0.00000000000E+00  0.13309918371E+04  0.13309918371E+04  0.50400001928E-02 0. -1.
        1   -1    0    0  501    0  0.00000000000E+00  0.00000000000E+00 -0.21523825671E+04  0.21523825671E+04  0.50400001928E-02 0.  1.
    10030    2    1    2    0    0  0.00000000000E+00  0.00000000000E+00 -0.82139073001E+03  0.34833744042E+04  0.33851461577E+04 0.  0.
        1    1    3    3  502    0 -0.42202723147E+03  0.14990577226E+04 -0.10928979034E+04  0.19025527239E+04  0.50400001928E-02 0.  1.
       -1    1    3    3    0  502  0.42202723147E+03 -0.14990577226E+04  0.27150717344E+03  0.15808216804E+04  0.50400001928E-02 0. -1.
</event>
<event>
 5   0  0.7899402E-07  0.3365575E+04  0.7818609E-02  0.8146407E-01
       -2   -1    0    0    0  501  0.00000000000E+00  0.00000000000E+00  0.20864360277E+04  0.20864360277E+04  0.25500000920E-02 0.  1.
        2   -1    0    0  501    0  0.00000000000E+00  0.00000000000E+00 -0.13572300596E+04  0.13572300596E+04  0.25500000920E-02 0. -1.
    10030    2    1    2    0    0  0.00000000000E+00  0.00000000000E+00  0.72920596813E+03  0.34436660874E+04  0.33655749549E+04 0.  0.
        2    1    3    3  502    0 -0.16777146355E+04  0.47873970774E+02  0.24031276574E+03  0.16955142408E+04  0.25500000920E-02 0.  1.
       -2    1    3    3    0  502  0.16777146355E+04 -0.47873970774E+02  0.48889320240E+03  0.17481518466E+04  0.25500000920E-02 0. -1.
</event>
<event>
 5   0  0.2622205E-07  0.3382824E+04  0.7818609E-02  0.8142135E-01
       -1   -1    0    0    0  501  0.00000000000E+00  0.00000000000E+00  0.12562169267E+04  0.12562169267E+04  0.50400001928E-02 0. -1.
        1   -1    0    0  501    0  0.00000000000E+00  0.00000000000E+00 -0.22773732406E+04  0.22773732406E+04  0.50400001928E-02 0.  1.
    10030    2    1    2    0    0  0.00000000000E+00  0.00000000000E+00 -0.10211563140E+04  0.35335901673E+04  0.33828241534E+04 0.  0.
        3    1    3    3  502    0  0.66332232602E+03 -0.13877925987E+04  0.22427382290E+03  0.15544335184E+04  0.10100000352E+00 0. -1.
       -3    1    3    3    0  502 -0.66332232602E+03  0.13877925987E+04 -0.12454301369E+04  0.19791566490E+04  0.10100000352E+00 0.  1.
</event>
<event>
 5   0  0.7838333E-07  0.3382322E+04  0.7818609E-02  0.8142259E-01
        2   -1    0    0  501    0  0.00000000000E+00  0.00000000000E+00  0.18100922752E+04  0.18100922752E+04  0.25500000920E-02 0.  1.
       -2   -1    0    0    0  501  0.00000000000E+00  0.00000000000E+00 -0.15800438728E+04  0.15800438728E+04  0.25500000920E-02 0. -1.
    10030    2    1    2    0    0  0.00000000000E+00  0.00000000000E+00  0.23004840239E+03  0.33901361479E+04  0.33823218111E+04 0.  0.
        1    1    3    3  502    0  0.13812343969E+04 -0.61744902074E+03 -0.64234941693E+03  0.16436740935E+04  0.50400001928E-02 0. -1.
       -1    1    3    3    0  502 -0.13812343969E+04  0.61744902074E+03  0.87239781932E+03  0.17464620544E+04  0.50400001928E-02 0.  1.
</event>
<event>
 5   0  0.7822003E-07  0.3383015E+04  0.7818609E-02  0.8142088E-01
        2   -1    0    0  501    0  0.00000000000E+00  0.00000000000E+00  0.15599929137E+04  0.15599929137E+04  0.25500000920E-02 0.  1.
       -2   -1    0    0    0  501  0.00000000000E+00  0.00000000000E+00 -0.18341096965E+04  0.18341096965E+04  0.25500000920E-02 0. -1.
    10030    2    1    2    0    0  0.00000000000E+00  0.00000000000E+00 -0.27411678275E+03  0.33941026102E+04  0.33830152997E+04 0.  0.
        5    1    3    3  502    0 -0.70756098886E+03 -0.13407413501E+04  0.61569794579E+03  0.16362566948E+04  0.46999998093E+01 0.  1.
       -5    1    3    3    0  502  0.70756098886E+03  0.13407413501E+04 -0.88981472854E+03  0.17578459153E+04  0.46999998093E+01 0. -1.
</event>
<event>
 5   0  0.2641442E-07  0.3392551E+04  0.7818609E-02  0.8139737E-01
        1   -1    0    0  501    0  0.00000000000E+00  0.00000000000E+00  0.21114411574E+04  0.21114411574E+04  0.50400001928E-02 0. -1.
       -1   -1    0    0    0  501  0.00000000000E+00  0.00000000000E+00 -0.13627421965E+04  0.13627421965E+04  0.50400001928E-02 0.  1.
    10030    2    1    2    0    0  0.00000000000E+00  0.00000000000E+00  0.74869896095E+03  0.34741833539E+04  0.33925506396E+04 0.  0.
        1    1    3    3  502    0 -0.23680171488E+03  0.41873550312E+03  0.20401232597E+04  0.20960718949E+04  0.50400001928E-02 0. -1.
       -1    1    3    3    0  502  0.23680171488E+03 -0.41873550312E+03 -0.12914242988E+04  0.13781114589E+04  0.50400001928E-02 0.  1.
</event>
<event>
 5   0  0.2592200E-07  0.3358190E+04  0.7818609E-02  0.8148245E-01
        1   -1    0    0  501    0  0.00000000000E+00  0.00000000000E+00  0.27037326297E+04  0.27037326297E+04  0.50400001928E-02 0.  1.
       -1   -1    0    0    0  501  0.00000000000E+00  0.00000000000E+00 -0.10427658445E+04  0.10427658445E+04  0.50400001928E-02 0. -1.
    10030    2    1    2    0    0  0.00000000000E+00  0.00000000000E+00  0.16609667851E+04  0.37464984742E+04  0.33581900119E+04 0.  0.
        4    1    3    3  502    0 -0.95137457160E+03  0.11846558379E+04  0.33111751616E+02  0.15197437385E+04  0.12699999809E+01 0. -1.
       -4    1    3    3    0  502  0.95137457160E+03 -0.11846558379E+04  0.16278550335E+04  0.22267547357E+04  0.12699999809E+01 0.  1.
</event>
<event>
 5   0  0.2592200E-07  0.3397231E+04  0.7818609E-02  0.8138586E-01
        1   -1    0    0  501    0  0.00000000000E+00  0.00000000000E+00  0.23795518830E+04  0.23795518830E+04  0.50400001928E-02 0. -1.
       -1   -1    0    0    0  501  0.00000000000E+00  0.00000000000E+00 -0.12125369500E+04  0.12125369500E+04  0.50400001928E-02 0.  1.
    10030    2    1    2    0    0  0.00000000000E+00  0.00000000000E+00  0.11670149330E+04  0.35920888330E+04  0.33972309798E+04 0.  0.
        4    1    3    3  502    0 -0.50743672080E+03  0.75202099888E+03 -0.93492075199E+03  0.13027302229E+04  0.12699999809E+01 0.  1.
       -4    1    3    3    0  502  0.50743672080E+03 -0.75202099888E+03  0.21019356850E+04  0.22893586100E+04  0.12699999809E+01 0. -1.
</event>
<event>
 5   0  0.7899402E-07  0.3386462E+04  0.7818609E-02  0.8141237E-01
       -2   -1    0    0    0  501  0.00000000000E+00  0.00000000000E+00  0.27453064557E+04  0.27453064557E+04  0.25500000920E-02 0.  1.
        2   -1    0    0  501    0  0.00000000000E+00  0.00000000000E+00 -0.10443391239E+04  0.10443391240E+04  0.25500000920E-02 0. -1.
    10030    2    1    2    0    0  0.00000000000E+00  0.00000000000E+00  0.17009673317E+04  0.37896455796E+04  0.33864618344E+04 0.  0.
        2    1    3    3  502    0  0.34933695114E+03  0.11703955906E+04 -0.46180813141E+03  0.13058058409E+04  0.25500000920E-02 0. -1.
       -2    1    3    3    0  502 -0.34933695114E+03 -0.11703955906E+04  0.21627754632E+04  0.24838397388E+04  0.25500000920E-02 0.  1.
</event>
<event>
 5   0  0.7899402E-07  0.3360950E+04  0.7818609E-02  0.8147557E-01
       -2   -1    0    0    0  501  0.00000000000E+00  0.00000000000E+00  0.12183601186E+04  0.12183601186E+04  0.25500000920E-02 0. -1.
        2   -1    0    0  501    0  0.00000000000E+00  0.00000000000E+00 -0.23178668900E+04  0.23178668900E+04  0.25500000920E-02 0.  1.
    10030    2    1    2    0    0  0.00000000000E+00  0.00000000000E+00 -0.10995067714E+04  0.35362270086E+04  0.33609502103E+04 0.  0.
        2    1    3    3  502    0  0.39221914427E+03 -0.92049653304E+03  0.87078557549E+03  0.13264302631E+04  0.25500000920E-02 0. -1.
       -2    1    3    3    0  502 -0.39221914427E+03  0.92049653304E+03 -0.19702923468E+04  0.22097967455E+04  0.25500000920E-02 0.  1.
</event>
<event>
 5   0  0.7610412E-07  0.3387892E+04  0.7818609E-02  0.8140884E-01
        2   -1    0    0  501    0  0.00000000000E+00  0.00000000000E+00  0.21961281350E+04  0.21961281350E+04  0.25500000920E-02 0. -1.
       -2   -1    0    0    0  501  0.00000000000E+00  0.00000000000E+00 -0.13065967420E+04  0.13065967420E+04  0.25500000920E-02 0.  1.
    10030    2    1    2    0    0  0.00000000000E+00  0.00000000000E+00  0.88953139299E+03  0.35027248770E+04  0.33878924813E+04 0.  0.
        4    1    3    3  502    0 -0.15034023754E+04 -0.81328203307E+02 -0.35783201462E+03  0.15475394478E+04  0.12699999809E+01 0.  1.
       -4    1    3    3    0  502  0.15034023754E+04  0.81328203307E+02  0.12473634076E+04  0.19551854292E+04  0.12699999809E+01 0. -1.
</event>
<event>
 5   0  0.7822003E-07  0.3381754E+04  0.7818609E-02  0.8142399E-01
       -2   -1    0    0    0  501  0.00000000000E+00  0.00000000000E+00  0.17563288716E+04  0.17563288716E+04  0.25500000920E-02 0. -1.
        2   -1    0    0  501    0  0.00000000000E+00  0.00000000000E+00 -0.16278638127E+04  0.16278638127E+04  0.25500000920E-02 0.  1.
    10030    2    1    2    0    0  0.00000000000E+00  0.00000000000E+00  0.12846505891E+03  0.33841926843E+04  0.33817535175E+04 0.  0.
        5    1    3    3  502    0 -0.43176301788E+03  0.18528322651E+03 -0.15612213075E+04  0.16303935840E+04  0.46999998093E+01 0.  1.
       -5    1    3    3    0  502  0.43176301788E+03 -0.18528322651E+03  0.16896863664E+04  0.17537991004E+04  0.46999998093E+01 0. -1.
</event>
<event>
 5   0  0.7899402E-07  0.3396951E+04  0.7818609E-02  0.8138655E-01
       -2   -1    0    0    0  501  0.00000000000E+00  0.00000000000E+00  0.19159865231E+04  0.19159865231E+04  0.25500000920E-02 0.  1.
        2   -1    0    0  501    0  0.00000000000E+00  0.00000000000E+00 -0.15056576827E+04  0.15056576827E+04  0.25500000920E-02 0. -1.
    10030    2    1    2    0    0  0.00000000000E+00  0.00000000000E+00  0.41032884044E+03  0.34216442058E+04  0.33969514735E+04 0.  0.
        2    1    3    3  502    0 -0.16812929570E+04  0.80019660786E+02  0.43412861514E+03  0.17382798416E+04  0.25500000920E-02 0.  1.
       -2    1    3    3    0  502  0.16812929570E+04 -0.80019660786E+02 -0.23799774695E+02  0.16833643642E+04  0.25500000920E-02 0. -1.
</event>
<event>
 5   0  0.7838333E-07  0.3408643E+04  0.7818609E-02  0.8135788E-01
        2   -1    0    0  501    0  0.00000000000E+00  0.00000000000E+00  0.88605305669E+03  0.88605305670E+03  0.25500000920E-02 0.  1.
       -2   -1    0    0    0  501  0.00000000000E+00  0.00000000000E+00 -0.32782588073E+04  0.32782588073E+04  0.25500000920E-02 0. -1.
    10030    2    1    2    0    0  0.00000000000E+00  0.00000000000E+00 -0.23922057506E+04  0.41643118639E+04  0.34086426840E+04 0.  0.
        1    1    3    3  502    0  0.31248598287E+03 -0.84836653505E+03 -0.29611575176E+04  0.30960986921E+04  0.50400001928E-02 0. -1.
       -1    1    3    3    0  502 -0.31248598287E+03  0.84836653505E+03  0.56895176702E+03  0.10682131718E+04  0.50400001928E-02 0.  1.
</event>
<event>
 5   0  0.7610412E-07  0.3399677E+04  0.7818609E-02  0.8137985E-01
        2   -1    0    0  501    0  0.00000000000E+00  0.00000000000E+00  0.79548766613E+03  0.79548766613E+03  0.25500000920E-02 0.  1.
       -2   -1    0    0    0  501  0.00000000000E+00  0.00000000000E+00 -0.36323021891E+04  0.36323021891E+04  0.25500000920E-02 0. -1.
    10030    2    1    2    0    0  0.00000000000E+00  0.00000000000E+00 -0.28368145229E+04  0.44277898552E+04  0.33996773912E+04 0.  0.
        4    1    3    3  502    0 -0.43084497366E+03  0.11770749641E+04 -0.29138136755E+04  0.31719780281E+04  0.12699999809E+01 0. -1.
       -4    1    3    3    0  502  0.43084497366E+03 -0.11770749641E+04  0.76999152592E+02  0.12558118270E+04  0.12699999809E+01 0.  1.
</event>
<event>
 5   0  0.7610412E-07  0.3397484E+04  0.7818609E-02  0.8138524E-01
        2   -1    0    0  501    0  0.00000000000E+00  0.00000000000E+00  0.27152783664E+04  0.27152783664E+04  0.25500000920E-02 0.  1.
       -2   -1    0    0    0  501  0.00000000000E+00  0.00000000000E+00 -0.10627732368E+04  0.10627732368E+04  0.25500000920E-02 0. -1.
    10030    2    1    2    0    0  0.00000000000E+00  0.00000000000E+00  0.16525051296E+04  0.37780516032E+04  0.33974844684E+04 0.  0.
        4    1    3    3  502    0  0.90051947045E+02  0.95776914369E+03  0.23831888578E+04  0.25700237023E+04  0.12699999809E+01 0.  1.
       -4    1    3    3    0  502 -0.90051947045E+02 -0.95776914369E+03 -0.73068372816E+03  0.12080279009E+04  0.12699999809E+01 0. -1.
</event>
<event>
 5   0  0.7822003E-07  0.3405678E+04  0.7818609E-02  0.8136514E-01
       -2   -1    0    0    0  501  0.00000000000E+00  0.00000000000E+00  0.11229348178E+04  0.11229348178E+04  0.25500000920E-02 0. -1.
        2   -1    0    0  501    0  0.00000000000E+00  0.00000000000E+00 -0.25822158556E+04  0.25822158556E+04  0.25500000920E-02 0.  1.
    10030    2    1    2    0    0  0.00000000000E+00  0.00000000000E+00 -0.14592810378E+04  0.37051506734E+04  0.34056776661E+04 0.  0.
        5    1    3    3  502    0  0.25596923137E+03  0.14063307842E+04  0.27712505953E+03  0.14560586907E+04  0.46999998093E+01 0. -1.
       -5    1    3    3    0  502 -0.25596923137E+03 -0.14063307842E+04 -0.17364060973E+04  0.22490919828E+04  0.46999998093E+01 0.  1.
</event>
<event>
 5   0  0.2592200E-07  0.3395453E+04  0.7818609E-02  0.8139023E-01
        1   -1    0    0  501    0  0.00000000000E+00  0.00000000000E+00  0.25923245158E+04  0.25923245158E+04  0.50400001928E-02 0.  1.
       -1   -1    0    0    0  501  0.00000000000E+00  0.00000000000E+00 -0.11118496203E+04  0.11118496203E+04  0.50400001928E-02 0. -1.
    10030    2    1    2    0    0  0.00000000000E+00  0.00000000000E+00  0.14804748955E+04  0.37041741361E+04  0.33954528585E+04 0.  0.
        4    1    3    3  502    0 -0.52721839225E+03  0.16033753268E+04  0.93991415091E+03  0.19318933448E+04  0.12699999809E+01 0.  1.
       -4    1    3    3    0  502  0.52721839225E+03 -0.16033753268E+04  0.54056074459E+03  0.17722807913E+04  0.12699999809E+01 0. -1.
</event>
<event>
 5   0  0.7822003E-07  0.3384444E+04  0.7818609E-02  0.8141735E-01
        2   -1    0    0  501    0  0.00000000000E+00  0.00000000000E+00  0.98979528954E+03  0.98979528954E+03  0.25500000920E-02 0.  1.
       -2   -1    0    0    0  501  0.00000000000E+00  0.00000000000E+00 -0.28931386843E+04  0.28931386843E+04  0.25500000920E-02 0. -1.
    10030    2    1    2    0    0  0.00000000000E+00  0.00000000000E+00 -0.19033433948E+04  0.38829339738E+04  0.33844438490E+04 0.  0.
        5    1    3    3  502    0  0.20360794359E+03  0.42420482571E+03 -0.28165670652E+04  0.28556046736E+04  0.46999998093E+01 0. -1.
       -5    1    3    3    0  502 -0.20360794359E+03 -0.42420482571E+03  0.91322367047E+03  0.10273293003E+04  0.46999998093E+01 0.  1.
</event>
<event>
 5   0  0.8489228E-07  0.3376606E+04  0.7818609E-02  0.8143672E-01
        2   -1    0    0  501    0  0.00000000000E+00  0.00000000000E+00  0.23958400393E+04  0.23958400393E+04  0.25500000920E-02 0.  1.
       -2   -1    0    0    0  501  0.00000000000E+00  0.00000000000E+00 -0.11897151892E+04  0.11897151892E+04  0.25500000920E-02 0. -1.
    10030    2    1    2    0    0  0.00000000000E+00  0.00000000000E+00  0.12061248501E+04  0.35855552286E+04  0.33766061575E+04 0.  0.
        3    1    3    3  502    0  0.78353122013E+03 -0.12938171505E+04  0.13994616311E+04  0.20606738847E+04  0.10100000352E+00 0. -1.
       -3    1    3    3    0  502 -0.78353122013E+03  0.12938171505E+04 -0.19333678101E+03  0.15248813439E+04  0.10100000352E+00 0.  1.
</event>
<event>
 5   0  0.7822003E-07  0.3373791E+04  0.7818609E-02  0.8144369E-01
        2   -1    0    0  501    0  0.00000000000E+00  0.00000000000E+00  0.16946390926E+04  0.16946390926E+04  0.25500000920E-02 0. -1.
       -2   -1    0    0    0  501  0.00000000000E+00  0.00000000000E+00 -0.16791868148E+04  0.16791868148E+04  0.25500000920E-02 0.  1.
    10030    2    1    2    0    0  0.00000000000E+00  0.00000000000E+00  0.15452277800E+02  0.33738259075E+04  0.33737905212E+04 0.  0.
        5    1    3    3  502    0 -0.16365984948E+04 -0.37004538424E+03 -0.16607243496E+03  0.16861169483E+04  0.46999998093E+01 0. -1.
       -5    1    3    3    0  502  0.16365984948E+04  0.37004538424E+03  0.18152471276E+03  0.16877089592E+04  0.46999998093E+01 0.  1.
</event>
<event>
 5   0  0.2641442E-07  0.3283985E+04  0.7818609E-02  0.8166982E-01
       -1   -1    0    0    0  501  0.00000000000E+00  0.00000000000E+00  0.10910240538E+04  0.10910240538E+04  0.50400001928E-02 0.  1.
        1   -1    0    0  501    0  0.00000000000E+00  0.00000000000E+00 -0.24712011264E+04  0.24712011264E+04  0.50400001928E-02 0. -1.
    10030    2    1    2    0    0  0.00000000000E+00  0.00000000000E+00 -0.13801770726E+04  0.35622251803E+04  0.32839853050E+04 0.  0.
        1    1    3    3  502    0  0.15244398051E+04  0.53426452902E+03 -0.37053663331E+03  0.16573028399E+04  0.50400001928E-02 0. -1.
       -1    1    3    3    0  502 -0.15244398051E+04 -0.53426452902E+03 -0.10096404393E+04  0.19049223404E+04  0.50400001928E-02 0.  1.
</event>
<event>
 5   0  0.2553250E-07  0.3380618E+04  0.7818609E-02  0.8142680E-01
       -1   -1    0    0    0  501  0.00000000000E+00  0.00000000000E+00  0.11321175106E+04  0.11321175106E+04  0.50400001928E-02 0. -1.
        1   -1    0    0  501    0  0.00000000000E+00  0.00000000000E+00 -0.25237179033E+04  0.25237179033E+04  0.50400001928E-02 0.  1.
    10030    2    1    2    0    0  0.00000000000E+00  0.00000000000E+00 -0.13916003927E+04  0.36558354139E+04  0.33806184228E+04 0.  0.
        5    1    3    3  502    0 -0.15193182306E+04  0.57220798034E+03 -0.18699318985E+03  0.16342393955E+04  0.46999998093E+01 0. -1.
       -5    1    3    3    0  502  0.15193182306E+04 -0.57220798034E+03 -0.12046072029E+04  0.20215960185E+04  0.46999998093E+01 0.  1.
</event>
<event>
 5   0  0.2553250E-07  0.3260740E+04  0.7818609E-02  0.8172957E-01
        1   -1    0    0  501    0  0.00000000000E+00  0.00000000000E+00  0.23997115304E+04  0.23997115304E+04  0.50400001928E-02 0. -1.
       -1   -1    0    0    0  501  0.00000000000E+00  0.00000000000E+00 -0.11076776312E+04  0.11076776312E+04  0.50400001928E-02 0.  1.
    10030    2    1    2    0    0  0.00000000000E+00  0.00000000000E+00  0.12920338991E+04  0.35073891616E+04  0.32607402740E+04 0.  0.
        5    1    3    3  502    0 -0.40856559093E+03  0.50585415217E+03 -0.96215611704E+03  0.11612840948E+04  0.46999998093E+01 0.  1.
       -5    1    3    3    0  502  0.40856559093E+03 -0.50585415217E+03  0.22541900162E+04  0.23461050668E+04  0.46999998093E+01 0. -1.
</event>
<event>
 5   0  0.7838333E-07  0.3409895E+04  0.7818609E-02  0.8135482E-01
        2   -1    0    0  501    0  0.00000000000E+00  0.00000000000E+00  0.25105816933E+04  0.25105816933E+04  0.25500000920E-02 0.  1.
       -2   -1    0    0    0  501  0.00000000000E+00  0.00000000000E+00 -0.11578379520E+04  0.11578379520E+04  0.25500000920E-02 0. -1.
    10030    2    1    2    0    0  0.00000000000E+00  0.00000000000E+00  0.13527437414E+04  0.36684196453E+04  0.34098954623E+04 0.  0.
        1    1    3    3  502    0  0.68102035115E+02 -0.14786838228E+04 -0.23376010729E+03  0.14985951831E+04  0.50400001928E-02 0. -1.
       -1    1    3    3    0  502 -0.68102035115E+02  0.14786838228E+04  0.15865038487E+04  0.21698244622E+04  0.50400001928E-02 0.  1.
</event>
<event>
 5   0  0.7838333E-07  0.3308137E+04  0.7818609E-02  0.8160828E-01
       -2   -1    0    0    0  501  0.00000000000E+00  0.00000000000E+00  0.94286466361E+03  0.94286466362E+03  0.25500000920E-02 0. -1.
        2   -1    0    0  501    0  0.00000000000E+00  0.00000000000E+00 -0.29017341686E+04  0.29017341686E+04  0.25500000920E-02 0.  1.
    10030    2    1    2    0    0  0.00000000000E+00  0.00000000000E+00 -0.19588695050E+04  0.38445988322E+04  0.33081370049E+04 0.  0.
        1    1    3    3  502    0 -0.62022245831E+03 -0.48599171391E+03 -0.26696064112E+04  0.27834622747E+04  0.50400001928E-02 0.  1.
       -1    1    3    3    0  502  0.62022245831E+03  0.48599171391E+03  0.71073690624E+03  0.10611365575E+04  0.50400001928E-02 0. -1.
</event>
<event>
 5   0  0.2592200E-07  0.3426405E+04  0.7818609E-02  0.8131456E-01
       -1   -1    0    0    0  501  0.00000000000E+00  0.00000000000E+00  0.19095599656E+04  0.19095599656E+04  0.50400001928E-02 0. -1.
        1   -1    0    0  501    0  0.00000000000E+00  0.00000000000E+00 -0.15370361622E+04  0.15370361622E+04  0.50400001928E-02 0.  1.
    10030    2    1    2    0    0  0.00000000000E+00  0.00000000000E+00  0.37252380336E+03  0.34465961278E+04  0.34264049504E+04 0.  0.
        4    1    3    3  502    0  0.67802141395E+03 -0.73861303850E+03 -0.12110962362E+04  0.15722652336E+04  0.12699999809E+01 0.  1.
       -4    1    3    3    0  502 -0.67802141395E+03  0.73861303850E+03  0.15836200396E+04  0.18743308942E+04  0.12699999809E+01 0. -1.
</event>
<event>
 5   0  0.7899402E-07  0.3158719E+04  0.7818609E-02  0.8199805E-01
        2   -1    0    0  501    0  0.00000000000E+00  0.00000000000E+00  0.16661910067E+04  0.16661910067E+04  0.25500000920E-02 0. -1.
       -2   -1    0    0    0  501  0.00000000000E+00  0.00000000000E+00 -0.14970531845E+04  0.14970531845E+04  0.25500000920E-02 0.  1.
    10030    2    1    2    0    0  0.00000000000E+00  0.00000000000E+00  0.16913782223E+03  0.31632441913E+04  0.31587190775E+04 0.  0.
        2    1    3    3  502    0  0.12465409968E+04 -0.35171657580E+03 -0.82049987348E+03  0.15332283094E+04  0.25500000920E-02 0.  1.
       -2    1    3    3    0  502 -0.12465409968E+04  0.35171657580E+03  0.98963769571E+03  0.16300158819E+04  0.25500000920E-02 0. -1.
</event>
<event>
 5   0  0.2553250E-07  0.3393775E+04  0.7818609E-02  0.8139436E-01
       -3   -1    0    0    0  501  0.00000000000E+00  0.00000000000E+00  0.18714469067E+04  0.18714469095E+04  0.10100000352E+00 0.  1.
        3   -1    0    0  501    0  0.00000000000E+00  0.00000000000E+00 -0.15386097303E+04  0.15386097336E+04  0.10100000352E+00 0. -1.
    10030    2    1    2    0    0  0.00000000000E+00  0.00000000000E+00  0.33283717643E+03  0.34100566431E+04  0.33937745539E+04 0.  0.
        3    1    3    3  502    0  0.14695547175E+04 -0.36245323203E+03 -0.60437516673E+03  0.16297953140E+04  0.10100000352E+00 0. -1.
       -3    1    3    3    0  502 -0.14695547175E+04  0.36245323203E+03  0.93721234316E+03  0.17802613290E+04  0.10100000352E+00 0.  1.
</event>
<event>
 5   0  0.7822003E-07  0.3414622E+04  0.7818609E-02  0.8134327E-01
       -2   -1    0    0    0  501  0.00000000000E+00  0.00000000000E+00  0.19206762658E+04  0.19206762658E+04  0.25500000920E-02 0. -1.
        2   -1    0    0  501    0  0.00000000000E+00  0.00000000000E+00 -0.15176483502E+04  0.15176483502E+04  0.25500000920E-02 0.  1.
    10030    2    1    2    0    0  0.00000000000E+00  0.00000000000E+00  0.40302791555E+03  0.34383246160E+04  0.34146221847E+04 0.  0.
        5    1    3    3  502    0 -0.52135751445E+03 -0.16083198237E+04 -0.37584841837E+02  0.16911360157E+04  0.46999998093E+01 0.  1.
       -5    1    3    3    0  502  0.52135751445E+03  0.16083198237E+04  0.44061275739E+03  0.17471886003E+04  0.46999998093E+01 0. -1.
</event>
<event>
 5   0  0.7822003E-07  0.3378760E+04  0.7818609E-02  0.8143139E-01
        2   -1    0    0  501    0  0.00000000000E+00  0.00000000000E+00  0.15077830205E+04  0.15077830205E+04  0.25500000920E-02 0.  1.
       -2   -1    0    0    0  501  0.00000000000E+00  0.00000000000E+00 -0.18928488132E+04  0.18928488132E+04  0.25500000920E-02 0. -1.
    10030    2    1    2    0    0  0.00000000000E+00  0.00000000000E+00 -0.38506579271E+03  0.34006318336E+04  0.33787603057E+04 0.  0.
        5    1    3    3  502    0  0.86550373941E+02 -0.15863769986E+04  0.38555458247E+03  0.16348569891E+04  0.46999998093E+01 0.  1.
       -5    1    3    3    0  502 -0.86550373941E+02  0.15863769986E+04 -0.77062037518E+03  0.17657748445E+04  0.46999998093E+01 0. -1.
</event>
<event>
 5   0  0.2641442E-07  0.3412818E+04  0.7818609E-02  0.8134768E-01
       -1   -1    0    0    0  501  0.00000000000E+00  0.00000000000E+00  0.10554248500E+04  0.10554248500E+04  0.50400001928E-02 0. -1.
        1   -1    0    0  501    0  0.00000000000E+00  0.00000000000E+00 -0.27589183180E+04  0.27589183181E+04  0.50400001928E-02 0.  1.
    10030    2    1    2    0    0  0.00000000000E+00  0.00000000000E+00 -0.17034934681E+04  0.38143431681E+04  0.34128175761E+04 0.  0.
        1    1    3    3  502    0  0.13313321397E+04  0.86056852234E+03 -0.15575576146E+04  0.22223881683E+04  0.50400001928E-02 0.  1.
       -1    1    3    3    0  502 -0.13313321397E+04 -0.86056852234E+03 -0.14593585341E+03  0.15919549997E+04  0.50400001928E-02 0. -1.
</event>
<event>
 5   0  0.2592200E-07  0.3364352E+04  0.7818609E-02  0.8146711E-01
       -1   -1    0    0    0  501  0.00000000000E+00  0.00000000000E+00  0.14030042069E+04  0.14030042069E+04  0.50400001928E-02 0. -1.
        1   -1    0    0  501    0  0.00000000000E+00  0.00000000000E+00 -0.20168975653E+04  0.20168975653E+04  0.50400001928E-02 0.  1.
    10030    2    1    2    0    0  0.00000000000E+00  0.00000000000E+00 -0.61389335835E+03  0.34199017722E+04  0.33643518062E+04 0.  0.
        4    1    3    3  502    0  0.98844053859E+03 -0.82833293319E+03  0.79096275241E+03  0.15128694045E+04  0.12699999809E+01 0. -1.
       -4    1    3    3    0  502 -0.98844053859E+03  0.82833293319E+03 -0.14048561108E+04  0.19070323677E+04  0.12699999809E+01 0.  1.
</event>
<event>
 5   0  0.8489228E-07  0.3352792E+04  0.7818609E-02  0.8149591E-01
       -2   -1    0    0    0  501  0.00000000000E+00  0.00000000000E+00  0.17704290898E+04  0.17704290898E+04  0.25500000920E-02 0.  1.
        2   -1    0    0  501    0  0.00000000000E+00  0.00000000000E+00 -0.15873569067E+04  0.15873569067E+04  0.25500000920E-02 0. -1.
    10030    2    1    2    0    0  0.00000000000E+00  0.00000000000E+00  0.18307218304E+03  0.33577859965E+04  0.33527915793E+04 0.  0.
        3    1    3    3  502    0  0.13391942271E+04 -0.36448624956E+03 -0.85008330608E+03  0.16275543129E+04  0.10100000352E+00 0. -1.
       -3    1    3    3    0  502 -0.13391942271E+04  0.36448624956E+03  0.10331554891E+04  0.17302316836E+04  0.10100000352E+00 0.  1.
</event>
<event>
 5   0  0.7838333E-07  0.3397263E+04  0.7818609E-02  0.8138578E-01
       -2   -1    0    0    0  501  0.00000000000E+00  0.00000000000E+00  0.31410050655E+04  0.31410050655E+04  0.25500000920E-02 0.  1.
        2   -1    0    0  501    0  0.00000000000E+00  0.00000000000E+00 -0.91860674078E+03  0.91860674078E+03  0.25500000920E-02 0. -1.
    10030    2    1    2    0    0  0.00000000000E+00  0.00000000000E+00  0.22223983247E+04  0.40596118063E+04  0.33972626781E+04 0.  0.
        1    1    3    3  502    0  0.12667695979E+04 -0.10946987637E+04  0.14539644148E+04  0.22174496876E+04  0.50400001928E-02 0.  1.
       -1    1    3    3    0  502 -0.12667695979E+04  0.10946987637E+04  0.76843390998E+03  0.18421621187E+04  0.50400001928E-02 0. -1.
</event>
<event>
 5   0  0.7822003E-07  0.3444602E+04  0.7818609E-02  0.8127045E-01
        2   -1    0    0  501    0  0.00000000000E+00  0.00000000000E+00  0.15428145113E+04  0.15428145113E+04  0.25500000920E-02 0.  1.
       -2   -1    0    0    0  501  0.00000000000E+00  0.00000000000E+00 -0.19226686664E+04  0.19226686664E+04  0.25500000920E-02 0. -1.
    10030    2    1    2    0    0  0.00000000000E+00  0.00000000000E+00 -0.37985415503E+03  0.34654831777E+04  0.34446022232E+04 0.  0.
        5    1    3    3  502    0  0.50416963878E+03  0.47922857565E+03  0.13952038710E+04  0.15589942220E+04  0.46999998093E+01 0.  1.
       -5    1    3    3    0  502 -0.50416963878E+03 -0.47922857565E+03 -0.17750580261E+04  0.19064889557E+04  0.46999998093E+01 0. -1.
</event>
<event>
 5   0  0.2553250E-07  0.3404561E+04  0.7818609E-02  0.8136788E-01
        4   -1    0    0  501    0  0.00000000000E+00  0.00000000000E+00  0.17167103235E+04  0.17167107933E+04  0.12699999809E+01 0.  1.
       -4   -1    0    0    0  501  0.00000000000E+00  0.00000000000E+00 -0.16879708984E+04  0.16879713762E+04  0.12699999809E+01 0. -1.
    10030    2    1    2    0    0  0.00000000000E+00  0.00000000000E+00  0.28739425084E+02  0.34046821695E+04  0.34045608704E+04 0.  0.
        3    1    3    3  502    0 -0.46887568231E+03 -0.27291498455E+03 -0.15992030906E+04  0.16887206784E+04  0.10100000352E+00 0. -1.
       -3    1    3    3    0  502  0.46887568231E+03  0.27291498455E+03  0.16279425157E+04  0.17159614911E+04  0.10100000352E+00 0.  1.
</event>
<event>
 5   0  0.8489228E-07  0.3418223E+04  0.7818609E-02  0.8133448E-01
        2   -1    0    0  501    0  0.00000000000E+00  0.00000000000E+00  0.17054708856E+04  0.17054708856E+04  0.25500000920E-02 0. -1.
       -2   -1    0    0    0  501  0.00000000000E+00  0.00000000000E+00 -0.17127595415E+04  0.17127595415E+04  0.25500000920E-02 0.  1.
    10030    2    1    2    0    0  0.00000000000E+00  0.00000000000E+00 -0.72886559191E+01  0.34182304270E+04  0.34182226563E+04 0.  0.
        3    1    3    3  502    0  0.56636230826E+03 -0.15747413415E+04 -0.35075455921E+03  0.17098553529E+04  0.10100000352E+00 0. -1.
       -3    1    3    3    0  502 -0.56636230826E+03  0.15747413415E+04  0.34346590329E+03  0.17083750741E+04  0.10100000352E+00 0.  1.
</event>
<event>
 5   0  0.7610412E-07  0.3402187E+04  0.7818609E-02  0.8137370E-01
       -2   -1    0    0    0  501  0.00000000000E+00  0.00000000000E+00  0.13568034480E+04  0.13568034480E+04  0.25500000920E-02 0. -1.
        2   -1    0    0  501    0  0.00000000000E+00  0.00000000000E+00 -0.21327477862E+04  0.21327477862E+04  0.25500000920E-02 0.  1.
    10030    2    1    2    0    0  0.00000000000E+00  0.00000000000E+00 -0.77594433821E+03  0.34895512342E+04  0.34021872670E+04 0.  0.
        4    1    3    3  502    0  0.11320287357E+04  0.53092980708E+03 -0.15709948846E+04  0.20078351673E+04  0.12699999809E+01 0.  1.
       -4    1    3    3    0  502 -0.11320287357E+04 -0.53092980708E+03  0.79505054642E+03  0.14817160669E+04  0.12699999809E+01 0. -1.
</event>
<event>
 5   0  0.2553250E-07  0.3435936E+04  0.7818609E-02  0.8129142E-01
        3   -1    0    0  501    0  0.00000000000E+00  0.00000000000E+00  0.17841249374E+04  0.17841249402E+04  0.10100000352E+00 0.  1.
       -3   -1    0    0    0  501  0.00000000000E+00  0.00000000000E+00 -0.16542641347E+04  0.16542641378E+04  0.10100000352E+00 0. -1.
    10030    2    1    2    0    0  0.00000000000E+00  0.00000000000E+00  0.12986080263E+03  0.34383890781E+04  0.34359359168E+04 0.  0.
        2    1    3    3  502    0  0.41490822103E+03  0.12835637404E+04 -0.99965675851E+03  0.16789872967E+04  0.25500000920E-02 0. -1.
       -2    1    3    3    0  502 -0.41490822103E+03 -0.12835637404E+04  0.11295175611E+04  0.17594017814E+04  0.25500000920E-02 0.  1.
</event>
<event>
 5   0  0.8489228E-07  0.3425161E+04  0.7818609E-02  0.8131759E-01
       -2   -1    0    0    0  501  0.00000000000E+00  0.00000000000E+00  0.19021487275E+04  0.19021487275E+04  0.25500000920E-02 0.  1.
        2   -1    0    0  501    0  0.00000000000E+00  0.00000000000E+00 -0.15419042814E+04  0.15419042814E+04  0.25500000920E-02 0. -1.
    10030    2    1    2    0    0  0.00000000000E+00  0.00000000000E+00  0.36024444612E+03  0.34440530089E+04  0.34251605899E+04 0.  0.
        3    1    3    3  502    0  0.65646005110E+03 -0.13055804152E+04  0.10780490707E+04  0.18159487405E+04  0.10100000352E+00 0.  1.
       -3    1    3    3    0  502 -0.65646005110E+03  0.13055804152E+04 -0.71780462462E+03  0.16281042683E+04  0.10100000352E+00 0. -1.
</event>
<event>
 5   0  0.7610412E-07  0.3408976E+04  0.7818609E-02  0.8135707E-01
       -2   -1    0    0    0  501  0.00000000000E+00  0.00000000000E+00  0.14874742790E+04  0.14874742790E+04  0.25500000920E-02 0. -1.
        2   -1    0    0  501    0  0.00000000000E+00  0.00000000000E+00 -0.19531622684E+04  0.19531622684E+04  0.25500000920E-02 0.  1.
    10030    2    1    2    0    0  0.00000000000E+00  0.00000000000E+00 -0.46568798942E+03  0.34406365475E+04  0.34089755863E+04 0.  0.
        4    1    3    3  502    0 -0.50131814827E+03  0.30862191838E+03  0.13816090216E+04  0.15018030749E+04  0.12699999809E+01 0. -1.
       -4    1    3    3    0  502  0.50131814827E+03 -0.30862191838E+03 -0.18472970111E+04  0.19388334725E+04  0.12699999809E+01 0.  1.
</event>
<event>
 5   0  0.7838333E-07  0.3366570E+04  0.7818609E-02  0.8146160E-01
       -2   -1    0    0    0  501  0.00000000000E+00  0.00000000000E+00  0.13206472652E+04  0.13206472652E+04  0.25500000920E-02 0.  1.
        2   -1    0    0  501    0  0.00000000000E+00  0.00000000000E+00 -0.21454998531E+04  0.21454998531E+04  0.25500000920E-02 0. -1.
    10030    2    1    2    0    0  0.00000000000E+00  0.00000000000E+00 -0.82485258787E+03  0.34661471184E+04  0.33665700727E+04 0.  0.
        1    1    3    3  502    0  0.15782172772E+04  0.48871867738E+03 -0.74418826567E+03  0.18120242533E+04  0.50400001928E-02 0.  1.
       -1    1    3    3    0  502 -0.15782172772E+04 -0.48871867738E+03 -0.80664322196E+02  0.16541228651E+04  0.50400001928E-02 0. -1.
</event>
<event>
 5   0  0.2592200E-07  0.3403465E+04  0.7818609E-02  0.8137056E-01
       -1   -1    0    0    0  501  0.00000000000E+00  0.00000000000E+00  0.14392136898E+04  0.14392136898E+04  0.50400001928E-02 0. -1.
        1   -1    0    0  501    0  0.00000000000E+00  0.00000000000E+00 -0.20121359570E+04  0.20121359571E+04  0.50400001928E-02 0.  1.
    10030    2    1    2    0    0  0.00000000000E+00  0.00000000000E+00 -0.57292226725E+03  0.34513496469E+04  0.34034650668E+04 0.  0.
        4    1    3    3  502    0 -0.15677658428E+04  0.62680609076E+03 -0.50185574153E+03  0.17614302176E+04  0.12699999809E+01 0.  1.
       -4    1    3    3    0  502  0.15677658428E+04 -0.62680609076E+03 -0.71066525712E+02  0.16899194292E+04  0.12699999809E+01 0. -1.
</event>
<event>
 5   0  0.8489228E-07  0.3391261E+04  0.7818609E-02  0.8140055E-01
       -2   -1    0    0    0  501  0.00000000000E+00  0.00000000000E+00  0.16819505552E+04  0.16819505553E+04  0.25500000920E-02 0.  1.
        2   -1    0    0  501    0  0.00000000000E+00  0.00000000000E+00 -0.17094212792E+04  0.17094212792E+04  0.25500000920E-02 0. -1.
    10030    2    1    2    0    0  0.00000000000E+00  0.00000000000E+00 -0.27470723958E+02  0.33913718345E+04  0.33912605737E+04 0.  0.
        3    1    3    3  502    0 -0.10102077245E+03  0.82646817323E+03 -0.14909118553E+04  0.17076513134E+04  0.10100000352E+00 0. -1.
       -3    1    3    3    0  502  0.10102077245E+03 -0.82646817323E+03  0.14634411313E+04  0.16837205210E+04  0.10100000352E+00 0.  1.
</event>
<event>
 5   0  0.7822003E-07  0.3379861E+04  0.7818609E-02  0.8142867E-01
       -2   -1    0    0    0  501  0.00000000000E+00  0.00000000000E+00  0.87880867573E+03  0.87880867573E+03  0.25500000920E-02 0.  1.
        2   -1    0    0  501    0  0.00000000000E+00  0.00000000000E+00 -0.32497003948E+04  0.32497003948E+04  0.25500000920E-02 0. -1.
    10030    2    1    2    0    0  0.00000000000E+00  0.00000000000E+00 -0.23708917190E+04  0.41285090705E+04  0.33798608850E+04 0.  0.
        5    1    3    3  502    0  0.92618975737E+03 -0.10800693355E+04 -0.22992698153E+04  0.27038936757E+04  0.46999998093E+01 0. -1.
       -5    1    3    3    0  502 -0.92618975737E+03  0.10800693355E+04 -0.71621903790E+02  0.14246153948E+04  0.46999998093E+01 0.  1.
</event>
<event>
 5   0  0.2622205E-07  0.3182769E+04  0.7818609E-02  0.8193383E-01
       -1   -1    0    0    0  501  0.00000000000E+00  0.00000000000E+00  0.12308150144E+04  0.12308150144E+04  0.50400001928E-02 0.  1.
        1   -1    0    0  501    0  0.00000000000E+00  0.00000000000E+00 -0.20575837836E+04  0.20575837836E+04  0.50400001928E-02 0. -1.
    10030    2    1    2    0    0  0.00000000000E+00  0.00000000000E+00 -0.82676876915E+03  0.32883987980E+04  0.31827692434E+04 0.  0.
        3    1    3    3  502    0 -0.65576860258E+03 -0.16623620531E+03  0.10748503344E+04  0.12700276326E+04  0.10100000352E+00 0.  1.
       -3    1    3    3    0  502  0.65576860258E+03  0.16623620531E+03 -0.19016191035E+04  0.20183711654E+04  0.10100000352E+00 0. -1.
</event>
<event>
 5   0  0.2592200E-07  0.3397372E+04  0.7818609E-02  0.8138552E-01
       -1   -1    0    0    0  501  0.00000000000E+00  0.00000000000E+00  0.17871574034E+04  0.17871574034E+04  0.50400001928E-02 0.  1.
        1   -1    0    0  501    0  0.00000000000E+00  0.00000000000E+00 -0.16145939712E+04  0.16145939713E+04  0.50400001928E-02 0. -1.
    10030    2    1    2    0    0  0.00000000000E+00  0.00000000000E+00  0.17256343217E+03  0.34017513747E+04  0.33973716719E+04 0.  0.
        4    1    3    3  502    0 -0.47616830486E+03  0.73647185784E+03  0.15429440396E+04  0.17747689918E+04  0.12699999809E+01 0.  1.
       -4    1    3    3    0  502  0.47616830486E+03 -0.73647185784E+03 -0.13703806075E+04  0.16269823829E+04  0.12699999809E+01 0. -1.
</event>
<event>
 5   0  0.7610412E-07  0.3368224E+04  0.7818609E-02  0.8145749E-01
        2   -1    0    0  501    0  0.00000000000E+00  0.00000000000E+00  0.20633965858E+04  0.20633965858E+04  0.25500000920E-02 0. -1.
       -2   -1    0    0    0  501  0.00000000000E+00  0.00000000000E+00 -0.13745461772E+04  0.13745461772E+04  0.25500000920E-02 0.  1.
    10030    2    1    2    0    0  0.00000000000E+00  0.00000000000E+00  0.68885040867E+03  0.34379427630E+04  0.33682243922E+04 0.  0.
        4    1    3    3  502    0 -0.40509981385E+03 -0.87166630368E+03 -0.10670667080E+04  0.14361549277E+04  0.12699999809E+01 0.  1.
       -4    1    3    3    0  502  0.40509981385E+03  0.87166630368E+03  0.17559171166E+04  0.20017878353E+04  0.12699999809E+01 0. -1.
</event>
<event>
 5   0  0.2622205E-07  0.3403080E+04  0.7818609E-02  0.8137151E-01
        1   -1    0    0  501    0  0.00000000000E+00  0.00000000000E+00  0.18259871951E+04  0.18259871951E+04  0.50400001928E-02 0. -1.
       -1   -1    0    0    0  501  0.00000000000E+00  0.00000000000E+00 -0.15855745702E+04  0.15855745702E+04  0.50400001928E-02 0.  1.
    10030    2    1    2    0    0  0.00000000000E+00  0.00000000000E+00  0.24041262489E+03  0.34115617654E+04  0.34030802883E+04 0.  0.
        3    1    3    3  502    0 -0.39554729827E+03 -0.10084963138E+04  0.14356184583E+04  0.17984779254E+04  0.10100000352E+00 0. -1.
       -3    1    3    3    0  502  0.39554729827E+03  0.10084963138E+04 -0.11952058334E+04  0.16130838399E+04  0.10100000352E+00 0.  1.
</event>
<event>
 5   0  0.7822003E-07  0.3384383E+04  0.7818609E-02  0.8141750E-01
       -2   -1    0    0    0  501  0.00000000000E+00  0.00000000000E+00  0.11247422016E+04  0.11247422016E+04  0.25500000920E-02 0. -1.
        2   -1    0    0  501    0  0.00000000000E+00  0.00000000000E+00 -0.25459279892E+04  0.25459279892E+04  0.25500000920E-02 0.  1.
    10030    2    1    2    0    0  0.00000000000E+00  0.00000000000E+00 -0.14211857876E+04  0.36706701908E+04  0.33843833422E+04 0.  0.
        5    1    3    3  502    0 -0.70078817130E+03 -0.10227776222E+04 -0.19596685293E+04  0.23189439321E+04  0.46999998093E+01 0.  1.
       -5    1    3    3    0  502  0.70078817130E+03  0.10227776222E+04  0.53848274169E+03  0.13517262587E+04  0.46999998093E+01 0. -1.
</event>
<event>
 5   0  0.7899402E-07  0.3438197E+04  0.7818609E-02  0.8128595E-01
       -2   -1    0    0    0  501  0.00000000000E+00  0.00000000000E+00  0.22938810014E+04  0.22938810014E+04  0.25500000920E-02 0. -1.
        2   -1    0    0  501    0  0.00000000000E+00  0.00000000000E+00 -0.12883400909E+04  0.12883400909E+04  0.25500000920E-02 0.  1.
    10030    2    1    2    0    0  0.00000000000E+00  0.00000000000E+00  0.10055409104E+04  0.35822210923E+04  0.34381965377E+04 0.  0.
        2    1    3    3  502    0  0.63614024885E+03  0.69797739063E+02  0.21651485061E+04  0.22577453785E+04  0.25500000920E-02 0. -1.
       -2    1    3    3    0  502 -0.63614024885E+03 -0.69797739063E+02 -0.11596075957E+04  0.13244757138E+04  0.25500000920E-02 0.  1.
</event>
<event>
 5   0  0.7822003E-07  0.3380283E+04  0.7818609E-02  0.8142763E-01
       -2   -1    0    0    0  501  0.00000000000E+00  0.00000000000E+00  0.13284010872E+04  0.13284010872E+04  0.25500000920E-02 0. -1.
        2   -1    0    0  501    0  0.00000000000E+00  0.00000000000E+00 -0.21503879794E+04  0.21503879794E+04  0.25500000920E-02 0.  1.
    10030    2    1    2    0    0  0.00000000000E+00  0.00000000000E+00 -0.82198689219E+03  0.34787890667E+04  0.33802826686E+04 0.  0.
        5    1    3    3  502    0  0.49669186348E+03  0.48405264821E+02  0.12508421200E+04  0.13467271350E+04  0.46999998093E+01 0. -1.
       -5    1    3    3    0  502 -0.49669186348E+03 -0.48405264821E+02 -0.20728290122E+04  0.21320619317E+04  0.46999998093E+01 0.  1.
</event>
<event>
 5   0  0.2553250E-07  0.3370565E+04  0.7818609E-02  0.8145169E-01
       -1   -1    0    0    0  501  0.00000000000E+00  0.00000000000E+00  0.13025381430E+04  0.13025381430E+04  0.50400001928E-02 0. -1.
        1   -1    0    0  501    0  0.00000000000E+00  0.00000000000E+00 -0.21804946099E+04  0.21804946099E+04  0.50400001928E-02 0.  1.
    10030    2    1    2    0    0  0.00000000000E+00  0.00000000000E+00 -0.87795646684E+03  0.34830327529E+04  0.33705651752E+04 0.  0.
        5    1    3    3  502    0  0.95295359217E+03  0.11386385524E+04  0.38482833741E+03  0.15338621976E+04  0.46999998093E+01 0. -1.
       -5    1    3    3    0  502 -0.95295359217E+03 -0.11386385524E+04 -0.12627848043E+04  0.19491705553E+04  0.46999998093E+01 0.  1.
</event>
<event>
 5   0  0.2592200E-07  0.3335864E+04  0.7818609E-02  0.8153829E-01
       -1   -1    0    0    0  501  0.00000000000E+00  0.00000000000E+00  0.19302185457E+04  0.19302185457E+04  0.50400001928E-02 0.  1.
        1   -1    0    0  501    0  0.00000000000E+00  0.00000000000E+00 -0.14412857448E+04  0.14412857448E+04  0.50400001928E-02 0. -1.
    10030    2    1    2    0    0  0.00000000000E+00  0.00000000000E+00  0.48893280093E+03  0.33715042905E+04  0.33358635909E+04 0.  0.
        4    1    3    3  502    0  0.51938877047E+03  0.10756100956E+04  0.14210750732E+04  0.18563829748E+04  0.12699999809E+01 0.  1.
       -4    1    3    3    0  502 -0.51938877047E+03 -0.10756100956E+04 -0.93214227225E+03  0.15151213157E+04  0.12699999809E+01 0. -1.
</event>
<event>
 5   0  0.8489228E-07  0.3380736E+04  0.7818609E-02  0.8142651E-01
       -2   -1    0    0    0  501  0.00000000000E+00  0.00000000000E+00  0.14178586308E+04  0.14178586308E+04  0.25500000920E-02 0. -1.
        2   -1    0    0  501    0  0.00000000000E+00  0.00000000000E+00 -0.20152533831E+04  0.20152533831E+04  0.25500000920E-02 0.  1.
    10030    2    1    2    0    0  0.00000000000E+00  0.00000000000E+00 -0.59739475226E+03  0.34331120139E+04  0.33807362526E+04 0.  0.
        3    1    3    3  502    0 -0.13860525396E+04  0.92625653115E+03 -0.58276599723E+03  0.17659866992E+04  0.10100000352E+00 0.  1.
       -3    1    3    3    0  502  0.13860525396E+04 -0.92625653115E+03 -0.14628755027E+02  0.16671253147E+04  0.10100000352E+00 0. -1.
</event>
<event>
 5   0  0.2599367E-07  0.3411383E+04  0.7818609E-02  0.8135118E-01
       -1   -1    0    0    0  501  0.00000000000E+00  0.00000000000E+00  0.98869144411E+03  0.98869144412E+03  0.50400001928E-02 0. -1.
        1   -1    0    0  501    0  0.00000000000E+00  0.00000000000E+00 -0.29426612353E+04  0.29426612353E+04  0.50400001928E-02 0.  1.
    10030    2    1    2    0    0  0.00000000000E+00  0.00000000000E+00 -0.19539697912E+04  0.39313526794E+04  0.34113832891E+04 0.  0.
        2    1    3    3  502    0 -0.29411648920E+03  0.95194224255E+03 -0.25724485329E+04  0.27586572815E+04  0.25500000920E-02 0.  1.
       -2    1    3    3    0  502  0.29411648920E+03 -0.95194224255E+03  0.61847874170E+03  0.11726953979E+04  0.25500000920E-02 0. -1.
</event>
<event>
 5   0  0.7610412E-07  0.3402134E+04  0.7818609E-02  0.8137383E-01
       -2   -1    0    0    0  501  0.00000000000E+00  0.00000000000E+00  0.22473190523E+04  0.22473190524E+04  0.25500000920E-02 0. -1.
        2   -1    0    0  501    0  0.00000000000E+00  0.00000000000E+00 -0.12875916927E+04  0.12875916927E+04  0.25500000920E-02 0.  1.
    10030    2    1    2    0    0  0.00000000000E+00  0.00000000000E+00  0.95972735966E+03  0.35349107450E+04  0.34021342376E+04 0.  0.
        4    1    3    3  502    0  0.12169755068E+04  0.11500406073E+04  0.16814688842E+03  0.16828243437E+04  0.12699999809E+01 0. -1.
       -4    1    3    3    0  502 -0.12169755068E+04 -0.11500406073E+04  0.79158047123E+03  0.18520864014E+04  0.12699999809E+01 0.  1.
</event>
<event>
 5   0  0.2592200E-07  0.3389909E+04  0.7818609E-02  0.8140388E-01
        1   -1    0    0  501    0  0.00000000000E+00  0.00000000000E+00  0.25428911555E+04  0.25428911555E+04  0.50400001928E-02 0.  1.
       -1   -1    0    0    0  501  0.00000000000E+00  0.00000000000E+00 -0.11297652377E+04  0.11297652377E+04  0.50400001928E-02 0. -1.
    10030    2    1    2    0    0  0.00000000000E+00  0.00000000000E+00  0.14131259177E+04  0.36726563932E+04  0.33899085715E+04 0.  0.
        4    1    3    3  502    0  0.83596395713E+03 -0.13411017128E+04  0.13704360536E+04  0.20917662708E+04  0.12699999809E+01 0. -1.
       -4    1    3    3    0  502 -0.83596395713E+03  0.13411017128E+04  0.42689864153E+02  0.15808901224E+04  0.12699999809E+01 0.  1.
</event>
<event>
 5   0  0.2641442E-07  0.3293109E+04  0.7818609E-02  0.8164651E-01
        1   -1    0    0  501    0  0.00000000000E+00  0.00000000000E+00  0.14446955327E+04  0.14446955327E+04  0.50400001928E-02 0. -1.
       -1   -1    0    0    0  501  0.00000000000E+00  0.00000000000E+00 -0.18766179037E+04  0.18766179037E+04  0.50400001928E-02 0.  1.
    10030    2    1    2    0    0  0.00000000000E+00  0.00000000000E+00 -0.43192237099E+03  0.33213134364E+04  0.32931088668E+04 0.  0.
        1    1    3    3  502    0  0.82825394728E+03 -0.47474284820E+03 -0.15690010886E+04  0.18366136744E+04  0.50400001928E-02 0.  1.
       -1    1    3    3    0  502 -0.82825394728E+03  0.47474284820E+03  0.11370787176E+04  0.14846997620E+04  0.50400001928E-02 0. -1.
</event>
<event>
 5   0  0.2553250E-07  0.3522577E+04  0.7818609E-02  0.8108460E-01
        1   -1    0    0  501    0  0.00000000000E+00  0.00000000000E+00  0.17549179688E+04  0.17549179688E+04  0.50400001928E-02 0. -1.
       -1   -1    0    0    0  501  0.00000000000E+00  0.00000000000E+00 -0.17676820494E+04  0.17676820494E+04  0.50400001928E-02 0.  1.
    10030    2    1    2    0    0  0.00000000000E+00  0.00000000000E+00 -0.12764080594E+02  0.35226000183E+04  0.35225768930E+04 0.  0.
        5    1    3    3  502    0 -0.92367187252E+03 -0.14944670257E+04 -0.13093599045E+03  0.17617513282E+04  0.46999998093E+01 0.  1.
       -5    1    3    3    0  502  0.92367187252E+03  0.14944670257E+04  0.11817190986E+03  0.17608486900E+04  0.46999998093E+01 0. -1.
</event>
<event>
 5   0  0.2622205E-07  0.3386010E+04  0.7818609E-02  0.8141349E-01
        1   -1    0    0  501    0  0.00000000000E+00  0.00000000000E+00  0.19262861180E+04  0.19262861180E+04  0.50400001928E-02 0.  1.
       -1   -1    0    0    0  501  0.00000000000E+00  0.00000000000E+00 -0.14879750339E+04  0.14879750339E+04  0.50400001928E-02 0. -1.
    10030    2    1    2    0    0  0.00000000000E+00  0.00000000000E+00  0.43831108409E+03  0.34142611519E+04  0.33860098357E+04 0.  0.
        3    1    3    3  502    0  0.27184734864E+02  0.12087640259E+04  0.14141239688E+04  0.18605365058E+04  0.10100000352E+00 0.  1.
       -3    1    3    3    0  502 -0.27184734864E+02 -0.12087640259E+04 -0.97581288468E+03  0.15537246462E+04  0.10100000352E+00 0. -1.
</event>
<event>
 5   0  0.7899402E-07  0.3433852E+04  0.7818609E-02  0.8129648E-01
       -2   -1    0    0    0  501  0.00000000000E+00  0.00000000000E+00  0.10630393577E+04  0.10630393577E+04  0.25500000920E-02 0.  1.
        2   -1    0    0  501    0  0.00000000000E+00  0.00000000000E+00 -0.27730245991E+04  0.27730245991E+04  0.25500000920E-02 0. -1.
    10030    2    1    2    0    0  0.00000000000E+00  0.00000000000E+00 -0.17099852415E+04  0.38360639568E+04  0.34338516500E+04 0.  0.
        2    1    3    3  502    0 -0.72238708687E+03  0.37783335954E+03 -0.25430198196E+04  0.26704963872E+04  0.25500000920E-02 0. -1.
       -2    1    3    3    0  502  0.72238708687E+03 -0.37783335954E+03  0.83303457817E+03  0.11655675696E+04  0.25500000920E-02 0.  1.
</event>
<event>
 5   0  0.2592200E-07  0.3401560E+04  0.7818609E-02  0.8137523E-01
        1   -1    0    0  501    0  0.00000000000E+00  0.00000000000E+00  0.23162184619E+04  0.23162184619E+04  0.50400001928E-02 0.  1.
       -1   -1    0    0    0  501  0.00000000000E+00  0.00000000000E+00 -0.12488688837E+04  0.12488688837E+04  0.50400001928E-02 0. -1.
    10030    2    1    2    0    0  0.00000000000E+00  0.00000000000E+00  0.10673495782E+04  0.35650873456E+04  0.34015603272E+04 0.  0.
        4    1    3    3  502    0  0.12227277753E+04 -0.28559801009E+03  0.17360045325E+04  0.21425085264E+04  0.12699999809E+01 0.  1.
       -4    1    3    3    0  502 -0.12227277753E+04  0.28559801009E+03 -0.66865495428E+03  0.14225788192E+04  0.12699999809E+01 0. -1.
</event>
<event>
 5   0  0.8489228E-07  0.3400915E+04  0.7818609E-02  0.8137682E-01
       -2   -1    0    0    0  501  0.00000000000E+00  0.00000000000E+00  0.14757709020E+04  0.14757709020E+04  0.25500000920E-02 0. -1.
        2   -1    0    0  501    0  0.00000000000E+00  0.00000000000E+00 -0.19593524057E+04  0.19593524057E+04  0.25500000920E-02 0.  1.
    10030    2    1    2    0    0  0.00000000000E+00  0.00000000000E+00 -0.48358150374E+03  0.34351233077E+04  0.34009147399E+04 0.  0.
        3    1    3    3  502    0 -0.49738957447E+03 -0.85820945126E+03  0.11532737048E+04  0.15211706345E+04  0.10100000352E+00 0. -1.
       -3    1    3    3    0  502  0.49738957447E+03  0.85820945126E+03 -0.16368552085E+04  0.19139526731E+04  0.10100000352E+00 0.  1.
</event>
<event>
 5   0  0.7610412E-07  0.3409566E+04  0.7818609E-02  0.8135563E-01
       -2   -1    0    0    0  501  0.00000000000E+00  0.00000000000E+00  0.13515436071E+04  0.13515436071E+04  0.25500000920E-02 0.  1.
        2   -1    0    0  501    0  0.00000000000E+00  0.00000000000E+00 -0.21503447606E+04  0.21503447606E+04  0.25500000920E-02 0. -1.
    10030    2    1    2    0    0  0.00000000000E+00  0.00000000000E+00 -0.79880115350E+03  0.35018883676E+04  0.34095657871E+04 0.  0.
        4    1    3    3  502    0 -0.77164965003E+01 -0.16712432201E+04 -0.74491662299E+03  0.18297584084E+04  0.12699999809E+01 0. -1.
       -4    1    3    3    0  502  0.77164965003E+01  0.16712432201E+04 -0.53884530516E+02  0.16721299592E+04  0.12699999809E+01 0.  1.
</event>
<event>
 5   0  0.2641442E-07  0.3399602E+04  0.7818609E-02  0.8138004E-01
       -1   -1    0    0    0  501  0.00000000000E+00  0.00000000000E+00  0.10730758005E+04  0.10730758005E+04  0.50400001928E-02 0.  1.
        1   -1    0    0  501    0  0.00000000000E+00  0.00000000000E+00 -0.26925620302E+04  0.26925620302E+04  0.50400001928E-02 0. -1.
    10030    2    1    2    0    0  0.00000000000E+00  0.00000000000E+00 -0.16194862296E+04  0.37656378307E+04  0.33996018332E+04 0.  0.
        1    1    3    3  502    0 -0.60522708272E+03  0.57612295677E+03 -0.24493591435E+04  0.25879678701E+04  0.50400001928E-02 0. -1.
       -1    1    3    3    0  502  0.60522708272E+03 -0.57612295677E+03  0.82987291383E+03  0.11776699606E+04  0.50400001928E-02 0.  1.
</event>
<event>
 5   0  0.7822003E-07  0.3400550E+04  0.7818609E-02  0.8137771E-01
        2   -1    0    0  501    0  0.00000000000E+00  0.00000000000E+00  0.15738788493E+04  0.15738788493E+04  0.25500000920E-02 0.  1.
       -2   -1    0    0    0  501  0.00000000000E+00  0.00000000000E+00 -0.18368222958E+04  0.18368222958E+04  0.25500000920E-02 0. -1.
    10030    2    1    2    0    0  0.00000000000E+00  0.00000000000E+00 -0.26294344658E+03  0.34107011451E+04  0.34005504033E+04 0.  0.
        5    1    3    3  502    0 -0.17299718396E+03 -0.13404474795E+04  0.90320162430E+03  0.16255838136E+04  0.46999998093E+01 0.  1.
       -5    1    3    3    0  502  0.17299718396E+03  0.13404474795E+04 -0.11661450709E+04  0.17851173315E+04  0.46999998093E+01 0. -1.
</event>
<event>
 5   0  0.7838333E-07  0.3478383E+04  0.7818609E-02  0.8118932E-01
        2   -1    0    0  501    0  0.00000000000E+00  0.00000000000E+00  0.20502743175E+04  0.20502743175E+04  0.25500000920E-02 0. -1.
       -2   -1    0    0    0  501  0.00000000000E+00  0.00000000000E+00 -0.14753088784E+04  0.14753088784E+04  0.25500000920E-02 0.  1.
    10030    2    1    2    0    0  0.00000000000E+00  0.00000000000E+00  0.57496543918E+03  0.35255831959E+04  0.34783834773E+04 0.  0.
        1    1    3    3  502    0  0.13092705319E+04 -0.62846153569E+03  0.12573551714E+04  0.19209620648E+04  0.50400001928E-02 0. -1.
       -1    1    3    3    0  502 -0.13092705319E+04  0.62846153569E+03 -0.68238973218E+03  0.16046211310E+04  0.50400001928E-02 0.  1.
</event>
<event>
 5   0  0.8489228E-07  0.3414001E+04  0.7818609E-02  0.8134479E-01
       -2   -1    0    0    0  501  0.00000000000E+00  0.00000000000E+00  0.28859976675E+04  0.28859976675E+04  0.25500000920E-02 0. -1.
        2   -1    0    0  501    0  0.00000000000E+00  0.00000000000E+00 -0.10096511316E+04  0.10096511316E+04  0.25500000920E-02 0.  1.
    10030    2    1    2    0    0  0.00000000000E+00  0.00000000000E+00  0.18763465359E+04  0.38956487991E+04  0.34140010607E+04 0.  0.
        3    1    3    3  502    0  0.45555854007E+03  0.82250915446E+03  0.25638804786E+04  0.27308493205E+04  0.10100000352E+00 0.  1.
       -3    1    3    3    0  502 -0.45555854007E+03 -0.82250915446E+03 -0.68753394271E+03  0.11647994785E+04  0.10100000352E+00 0. -1.
</event>
<event>
 5   0  0.2641442E-07  0.3426441E+04  0.7818609E-02  0.8131447E-01
       -1   -1    0    0    0  501  0.00000000000E+00  0.00000000000E+00  0.17750167456E+04  0.17750167456E+04  0.50400001928E-02 0. -1.
        1   -1    0    0  501    0  0.00000000000E+00  0.00000000000E+00 -0.16535760309E+04  0.16535760309E+04  0.50400001928E-02 0.  1.
    10030    2    1    2    0    0  0.00000000000E+00  0.00000000000E+00  0.12144071470E+03  0.34285927764E+04  0.34264413871E+04 0.  0.
        1    1    3    3  502    0 -0.55429885913E+03  0.12178059340E+04  0.11313578788E+04  0.17522183563E+04  0.50400001928E-02 0. -1.
       -1    1    3    3    0  502  0.55429885913E+03 -0.12178059340E+04 -0.10099171641E+04  0.16763744201E+04  0.50400001928E-02 0.  1.
</event>
<event>
 5   0  0.2599367E-07  0.3385312E+04  0.7818609E-02  0.8141521E-01
       -1   -1    0    0    0  501  0.00000000000E+00  0.00000000000E+00  0.13755623273E+04  0.13755623273E+04  0.50400001928E-02 0. -1.
        1   -1    0    0  501    0  0.00000000000E+00  0.00000000000E+00 -0.20828455504E+04  0.20828455504E+04  0.50400001928E-02 0.  1.
    10030    2    1    2    0    0  0.00000000000E+00  0.00000000000E+00 -0.70728322313E+03  0.34584078778E+04  0.33853117273E+04 0.  0.
        2    1    3    3  502    0 -0.11380012816E+04 -0.18846750466E+01 -0.16337065209E+04  0.19909915784E+04  0.25500000920E-02 0.  1.
       -2    1    3    3    0  502  0.11380012816E+04  0.18846750466E+01  0.92642329774E+03  0.14674162993E+04  0.25500000920E-02 0. -1.
</event>
<event>
 5   0  0.7838333E-07  0.3407188E+04  0.7818609E-02  0.8136144E-01
       -2   -1    0    0    0  501  0.00000000000E+00  0.00000000000E+00  0.12718265325E+04  0.12718265326E+04  0.25500000920E-02 0. -1.
        2   -1    0    0  501    0  0.00000000000E+00  0.00000000000E+00 -0.22819402430E+04  0.22819402430E+04  0.25500000920E-02 0.  1.
    10030    2    1    2    0    0  0.00000000000E+00  0.00000000000E+00 -0.10101137104E+04  0.35537667755E+04  0.34071877827E+04 0.  0.
        1    1    3    3  502    0 -0.26666898391E+03 -0.15687072665E+04 -0.11397391802E+04  0.19572838920E+04  0.50400001928E-02 0.  1.
       -1    1    3    3    0  502  0.26666898391E+03  0.15687072665E+04  0.12962546976E+03  0.15964828835E+04  0.50400001928E-02 0. -1.
</event>
<event>
 5   0  0.8489228E-07  0.3395394E+04  0.7818609E-02  0.8139038E-01
        2   -1    0    0  501    0  0.00000000000E+00  0.00000000000E+00  0.23986198015E+04  0.23986198015E+04  0.25500000920E-02 0.  1.
       -2   -1    0    0    0  501  0.00000000000E+00  0.00000000000E+00 -0.12015971591E+04  0.12015971591E+04  0.25500000920E-02 0. -1.
    10030    2    1    2    0    0  0.00000000000E+00  0.00000000000E+00  0.11970226425E+04  0.36002169606E+04  0.33953937852E+04 0.  0.
        3    1    3    3  502    0  0.16530093223E+04  0.31896584953E+03  0.36621642266E+03  0.17228736202E+04  0.10100000352E+00 0. -1.
       -3    1    3    3    0  502 -0.16530093223E+04 -0.31896584953E+03  0.83080621982E+03  0.18773433404E+04  0.10100000352E+00 0.  1.
</event>
<event>
 5   0  0.2553250E-07  0.3410684E+04  0.7818609E-02  0.8135289E-01
       -1   -1    0    0    0  501  0.00000000000E+00  0.00000000000E+00  0.23865866758E+04  0.23865866758E+04  0.50400001928E-02 0.  1.
        1   -1    0    0  501    0  0.00000000000E+00  0.00000000000E+00 -0.12185567432E+04  0.12185567433E+04  0.50400001928E-02 0. -1.
    10030    2    1    2    0    0  0.00000000000E+00  0.00000000000E+00  0.11680299325E+04  0.36051434190E+04  0.34106839708E+04 0.  0.
        5    1    3    3  502    0  0.84481276483E+02  0.93660634223E+03  0.20877278959E+04  0.22897594598E+04  0.46999998093E+01 0.  1.
       -5    1    3    3    0  502 -0.84481276483E+02 -0.93660634223E+03 -0.91969796338E+03  0.13153839592E+04  0.46999998093E+01 0. -1.
</event>
<event>
 5   0  0.8489228E-07  0.3363483E+04  0.7818609E-02  0.8146927E-01
       -2   -1    0    0    0  501  0.00000000000E+00  0.00000000000E+00  0.30022320754E+04  0.30022320754E+04  0.25500000920E-02 0.  1.
        2   -1    0    0  501    0  0.00000000000E+00  0.00000000000E+00 -0.94205063555E+03  0.94205063555E+03  0.25500000920E-02 0. -1.
    10030    2    1    2    0    0  0.00000000000E+00  0.00000000000E+00  0.20601814398E+04  0.39442827109E+04  0.33634830962E+04 0.  0.
        3    1    3    3  502    0  0.26087545297E+03 -0.62689600687E+03  0.28343388520E+04  0.29145379297E+04  0.10100000352E+00 0.  1.
       -3    1    3    3    0  502 -0.26087545297E+03  0.62689600687E+03 -0.77415741219E+03  0.10297447812E+04  0.10100000352E+00 0. -1.
</event>
<event>
 5   0  0.2592200E-07  0.3534999E+04  0.7818609E-02  0.8105545E-01
       -1   -1    0    0    0  501  0.00000000000E+00  0.00000000000E+00  0.12321237705E+04  0.12321237705E+04  0.50400001928E-02 0.  1.
        1   -1    0    0  501    0  0.00000000000E+00  0.00000000000E+00 -0.25355038471E+04  0.25355038471E+04  0.50400001928E-02 0. -1.
    10030    2    1    2    0    0  0.00000000000E+00  0.00000000000E+00 -0.13033800766E+04  0.37676276176E+04  0.35349990439E+04 0.  0.
        4    1    3    3  502    0  0.10540707906E+04  0.90491734351E+03  0.51297559355E+03  0.14809072228E+04  0.12699999809E+01 0.  1.
       -4    1    3    3    0  502 -0.10540707906E+04 -0.90491734351E+03 -0.18163556702E+04  0.22867203947E+04  0.12699999809E+01 0. -1.
</event>
<event>
 5   0  0.2592200E-07  0.3398795E+04  0.7818609E-02  0.8138202E-01
        1   -1    0    0  501    0  0.00000000000E+00  0.00000000000E+00  0.21191646279E+04  0.21191646279E+04  0.50400001928E-02 0. -1.
       -1   -1    0    0    0  501  0.00000000000E+00  0.00000000000E+00 -0.13627784885E+04  0.13627784886E+04  0.50400001928E-02 0.  1.
    10030    2    1    2    0    0  0.00000000000E+00  0.00000000000E+00  0.75638613939E+03  0.34819431165E+04  0.33987950622E+04 0.  0.
        4    1    3    3  502    0  0.46587868876E+02  0.15059010453E+04  0.11835820381E+04  0.19159270449E+04  0.12699999809E+01 0. -1.
       -4    1    3    3    0  502 -0.46587868876E+02 -0.15059010453E+04 -0.42719589867E+03  0.15660160716E+04  0.12699999809E+01 0.  1.
</event>
<event>
 5   0  0.8489228E-07  0.3398602E+04  0.7818609E-02  0.8138249E-01
        2   -1    0    0  501    0  0.00000000000E+00  0.00000000000E+00  0.20364425174E+04  0.20364425174E+04  0.25500000920E-02 0. -1.
       -2   -1    0    0    0  501  0.00000000000E+00  0.00000000000E+00 -0.14179749251E+04  0.14179749251E+04  0.25500000920E-02 0.  1.
    10030    2    1    2    0    0  0.00000000000E+00  0.00000000000E+00  0.61846759224E+03  0.34544174425E+04  0.33986023163E+04 0.  0.
        3    1    3    3  502    0  0.90069976051E+03 -0.13705616230E+04 -0.14296042652E+03  0.16462493477E+04  0.10100000352E+00 0. -1.
       -3    1    3    3    0  502 -0.90069976051E+03  0.13705616230E+04  0.76142801876E+03  0.18081680948E+04  0.10100000352E+00 0.  1.
</event>
<event>
 5   0  0.2622205E-07  0.3410862E+04  0.7818609E-02  0.8135246E-01
       -1   -1    0    0    0  501  0.00000000000E+00  0.00000000000E+00  0.21056830469E+04  0.21056830470E+04  0.50400001928E-02 0.  1.
        1   -1    0    0  501    0  0.00000000000E+00  0.00000000000E+00 -0.13812592013E+04  0.13812592013E+04  0.50400001928E-02 0. -1.
    10030    2    1    2    0    0  0.00000000000E+00  0.00000000000E+00  0.72442384566E+03  0.34869422483E+04  0.34108615238E+04 0.  0.
        3    1    3    3  502    0 -0.94055926687E+03  0.11493801046E+03 -0.10873838625E+04  0.14423127800E+04  0.10100000352E+00 0. -1.
       -3    1    3    3    0  502  0.94055926687E+03 -0.11493801046E+03  0.18118077082E+04  0.20446294682E+04  0.10100000352E+00 0.  1.
</event>
<event>
 5   0  0.2641442E-07  0.3395319E+04  0.7818609E-02  0.8139056E-01
        1   -1    0    0  501    0  0.00000000000E+00  0.00000000000E+00  0.16333069429E+04  0.16333069429E+04  0.50400001928E-02 0.  1.
       -1   -1    0    0    0  501  0.00000000000E+00  0.00000000000E+00 -0.17645473060E+04  0.17645473060E+04  0.50400001928E-02 0. -1.
    10030    2    1    2    0    0  0.00000000000E+00  0.00000000000E+00 -0.13124036310E+03  0.33978542490E+04  0.33953187574E+04 0.  0.
        1    1    3    3  502    0 -0.62006078243E+03  0.15633183363E+04 -0.29732660294E+03  0.17078766652E+04  0.50400001928E-02 0. -1.
       -1    1    3    3    0  502  0.62006078243E+03 -0.15633183363E+04  0.16608623984E+03  0.16899775838E+04  0.50400001928E-02 0.  1.
</event>
<event>
 5   0  0.2592200E-07  0.3429268E+04  0.7818609E-02  0.8130760E-01
       -1   -1    0    0    0  501  0.00000000000E+00  0.00000000000E+00  0.18160773339E+04  0.18160773339E+04  0.50400001928E-02 0. -1.
        1   -1    0    0  501    0  0.00000000000E+00  0.00000000000E+00 -0.16188568986E+04  0.16188568986E+04  0.50400001928E-02 0.  1.
    10030    2    1    2    0    0  0.00000000000E+00  0.00000000000E+00  0.19722043529E+03  0.34349342326E+04  0.34292677472E+04 0.  0.
        4    1    3    3  502    0 -0.35039902525E+03  0.16502272945E+04 -0.20838947024E+03  0.16998403997E+04  0.12699999809E+01 0.  1.
       -4    1    3    3    0  502  0.35039902525E+03 -0.16502272945E+04  0.40560990553E+03  0.17350938328E+04  0.12699999809E+01 0. -1.
</event>
<event>
 5   0  0.7899402E-07  0.3372216E+04  0.7818609E-02  0.8144759E-01
        2   -1    0    0  501    0  0.00000000000E+00  0.00000000000E+00  0.16768474147E+04  0.16768474147E+04  0.25500000920E-02 0. -1.
       -2   -1    0    0    0  501  0.00000000000E+00  0.00000000000E+00 -0.16954199817E+04  0.16954199817E+04  0.25500000920E-02 0.  1.
    10030    2    1    2    0    0  0.00000000000E+00  0.00000000000E+00 -0.18572566982E+02  0.33722673965E+04  0.33722162524E+04 0.  0.
        2    1    3    3  502    0  0.15648215320E+04 -0.10050452131E+03 -0.62912874819E+03  0.16895474446E+04  0.25500000920E-02 0.  1.
       -2    1    3    3    0  502 -0.15648215320E+04  0.10050452131E+03  0.61055618120E+03  0.16827199518E+04  0.25500000920E-02 0. -1.
</event>
<event>
 5   0  0.7899402E-07  0.3421526E+04  0.7818609E-02  0.8132643E-01
        2   -1    0    0  501    0  0.00000000000E+00  0.00000000000E+00  0.26411862809E+04  0.26411862809E+04  0.25500000920E-02 0.  1.
       -2   -1    0    0    0  501  0.00000000000E+00  0.00000000000E+00 -0.11081046020E+04  0.11081046020E+04  0.25500000920E-02 0. -1.
    10030    2    1    2    0    0  0.00000000000E+00  0.00000000000E+00  0.15330816789E+04  0.37492908829E+04  0.34215263685E+04 0.  0.
        2    1    3    3  502    0 -0.13654393763E+04  0.89143799627E+02  0.18917142364E+04  0.23347278342E+04  0.25500000920E-02 0.  1.
       -2    1    3    3    0  502  0.13654393763E+04 -0.89143799627E+02 -0.35863255750E+03  0.14145630487E+04  0.25500000920E-02 0. -1.
</event>
<event>
 5   0  0.7899402E-07  0.3399641E+04  0.7818609E-02  0.8137994E-01
        2   -1    0    0  501    0  0.00000000000E+00  0.00000000000E+00  0.97275334177E+03  0.97275334178E+03  0.25500000920E-02 0. -1.
       -2   -1    0    0    0  501  0.00000000000E+00  0.00000000000E+00 -0.29703208390E+04  0.29703208390E+04  0.25500000920E-02 0.  1.
    10030    2    1    2    0    0  0.00000000000E+00  0.00000000000E+00 -0.19975674972E+04  0.39430741807E+04  0.33996408765E+04 0.  0.
        2    1    3    3  502    0 -0.13993039929E+04 -0.95082658907E+03 -0.80726211478E+03  0.18745119336E+04  0.25500000920E-02 0.  1.
       -2    1    3    3    0  502  0.13993039929E+04  0.95082658907E+03 -0.11903053824E+04  0.20685622472E+04  0.25500000920E-02 0. -1.
</event>
<event>
 5   0  0.2599367E-07  0.3396844E+04  0.7818609E-02  0.8138681E-01
       -1   -1    0    0    0  501  0.00000000000E+00  0.00000000000E+00  0.13803194840E+04  0.13803194840E+04  0.50400001928E-02 0.  1.
        1   -1    0    0  501    0  0.00000000000E+00  0.00000000000E+00 -0.20898335561E+04  0.20898335561E+04  0.50400001928E-02 0. -1.
    10030    2    1    2    0    0  0.00000000000E+00  0.00000000000E+00 -0.70951407217E+03  0.34701530401E+04  0.33968444038E+04 0.  0.
        2    1    3    3  502    0  0.10160766597E+04  0.13593160065E+04 -0.28633249352E+03  0.17210863083E+04  0.25500000920E-02 0. -1.
       -2    1    3    3    0  502 -0.10160766597E+04 -0.13593160065E+04 -0.42318157865E+03  0.17490667318E+04  0.25500000920E-02 0.  1.
</event>
<event>
 5   0  0.2592200E-07  0.3414652E+04  0.7818609E-02  0.8134320E-01
        1   -1    0    0  501    0  0.00000000000E+00  0.00000000000E+00  0.17879943270E+04  0.17879943270E+04  0.50400001928E-02 0. -1.
       -1   -1    0    0    0  501  0.00000000000E+00  0.00000000000E+00 -0.16302967175E+04  0.16302967175E+04  0.50400001928E-02 0.  1.
    10030    2    1    2    0    0  0.00000000000E+00  0.00000000000E+00  0.15769760951E+03  0.34182910445E+04  0.34146515385E+04 0.  0.
        4    1    3    3  502    0 -0.11868013525E+04  0.91026039872E+03  0.90306603949E+03  0.17471695190E+04  0.12699999809E+01 0. -1.
       -4    1    3    3    0  502  0.11868013525E+04 -0.91026039872E+03 -0.74536842997E+03  0.16711215255E+04  0.12699999809E+01 0.  1.
</event>
<event>
 5   0  0.2622205E-07  0.3410028E+04  0.7818609E-02  0.8135449E-01
        1   -1    0    0  501    0  0.00000000000E+00  0.00000000000E+00  0.22029074813E+04  0.22029074813E+04  0.50400001928E-02 0.  1.
       -1   -1    0    0    0  501  0.00000000000E+00  0.00000000000E+00 -0.13196528656E+04  0.13196528656E+04  0.50400001928E-02 0. -1.
    10030    2    1    2    0    0  0.00000000000E+00  0.00000000000E+00  0.88325461563E+03  0.35225603469E+04  0.34100282523E+04 0.  0.
        3    1    3    3  502    0 -0.15364396346E+02  0.83742059348E+03  0.19757506637E+04  0.21459496756E+04  0.10100000352E+00 0.  1.
       -3    1    3    3    0  502  0.15364396346E+02 -0.83742059348E+03 -0.10924960480E+04  0.13766106713E+04  0.10100000352E+00 0. -1.
</event>
<event>
 5   0  0.7822003E-07  0.3409927E+04  0.7818609E-02  0.8135474E-01
        2   -1    0    0  501    0  0.00000000000E+00  0.00000000000E+00  0.20546506098E+04  0.20546506098E+04  0.25500000920E-02 0.  1.
       -2   -1    0    0    0  501  0.00000000000E+00  0.00000000000E+00 -0.14147910245E+04  0.14147910245E+04  0.25500000920E-02 0. -1.
    10030    2    1    2    0    0  0.00000000000E+00  0.00000000000E+00  0.63985958530E+03  0.34694416343E+04  0.34099274134E+04 0.  0.
        5    1    3    3  502    0  0.19711519968E+03 -0.16932681215E+04  0.34990269221E+03  0.17402486366E+04  0.46999998093E+01 0. -1.
       -5    1    3    3    0  502 -0.19711519968E+03  0.16932681215E+04  0.28995689310E+03  0.17291929976E+04  0.46999998093E+01 0.  1.
</event>
<event>
 5   0  0.2592200E-07  0.3378224E+04  0.7818609E-02  0.8143272E-01
       -1   -1    0    0    0  501  0.00000000000E+00  0.00000000000E+00  0.13616904070E+04  0.13616904070E+04  0.50400001928E-02 0.  1.
        1   -1    0    0  501    0  0.00000000000E+00  0.00000000000E+00 -0.20952624243E+04  0.20952624243E+04  0.50400001928E-02 0. -1.
    10030    2    1    2    0    0  0.00000000000E+00  0.00000000000E+00 -0.73357201733E+03  0.34569528313E+04  0.33782236417E+04 0.  0.
        4    1    3    3  502    0  0.24653765676E+03  0.11258858641E+04  0.89677692520E+03  0.14603459390E+04  0.12699999809E+01 0.  1.
       -4    1    3    3    0  502 -0.24653765676E+03 -0.11258858641E+04 -0.16303489425E+04  0.19966068923E+04  0.12699999809E+01 0. -1.
</event>
<event>
 5   0  0.7822003E-07  0.3425869E+04  0.7818609E-02  0.8131586E-01
        2   -1    0    0  501    0  0.00000000000E+00  0.00000000000E+00  0.18701694658E+04  0.18701694658E+04  0.25500000920E-02 0.  1.
       -2   -1    0    0    0  501  0.00000000000E+00  0.00000000000E+00 -0.15689189585E+04  0.15689189585E+04  0.25500000920E-02 0. -1.
    10030    2    1    2    0    0  0.00000000000E+00  0.00000000000E+00  0.30125050732E+03  0.34390884243E+04  0.34258688419E+04 0.  0.
        5    1    3    3  502    0 -0.16101746576E+04  0.32320794650E+02  0.73632774124E+03  0.17708494273E+04  0.46999998093E+01 0.  1.
       -5    1    3    3    0  502  0.16101746576E+04 -0.32320794650E+02 -0.43507723392E+03  0.16682389970E+04  0.46999998093E+01 0. -1.
</event>
<event>
 5   0  0.2592200E-07  0.3184192E+04  0.7818609E-02  0.8193004E-01
       -1   -1    0    0    0  501  0.00000000000E+00  0.00000000000E+00  0.10720484337E+04  0.10720484338E+04  0.50400001928E-02 0.  1.
        1   -1    0    0  501    0  0.00000000000E+00  0.00000000000E+00 -0.23644178089E+04  0.23644178089E+04  0.50400001928E-02 0. -1.
    10030    2    1    2    0    0  0.00000000000E+00  0.00000000000E+00 -0.12923693752E+04  0.34364662427E+04  0.31841924620E+04 0.  0.
        4    1    3    3  502    0 -0.89705801199E+03 -0.14282078388E+03  0.76494648680E+03  0.11875418282E+04  0.12699999809E+01 0.  1.
       -4    1    3    3    0  502  0.89705801199E+03  0.14282078388E+03 -0.20573158620E+04  0.22489244145E+04  0.12699999809E+01 0. -1.
</event>
<event>
 5   0  0.2553250E-07  0.3340470E+04  0.7818609E-02  0.8152673E-01
        1   -1    0    0  501    0  0.00000000000E+00  0.00000000000E+00  0.13569421502E+04  0.13569421502E+04  0.50400001928E-02 0.  1.
       -1   -1    0    0    0  501  0.00000000000E+00  0.00000000000E+00 -0.20558618237E+04  0.20558618237E+04  0.50400001928E-02 0. -1.
    10030    2    1    2    0    0  0.00000000000E+00  0.00000000000E+00 -0.69891967359E+03  0.34128039739E+04  0.33404703642E+04 0.  0.
        5    1    3    3  502    0  0.11644105945E+04  0.42545546108E+03  0.79406192938E+03  0.14722162952E+04  0.46999998093E+01 0.  1.
       -5    1    3    3    0  502 -0.11644105945E+04 -0.42545546108E+03 -0.14929816030E+04  0.19405876787E+04  0.46999998093E+01 0. -1.
</event>
<event>
 5   0  0.2622205E-07  0.3381364E+04  0.7818609E-02  0.8142495E-01
        1   -1    0    0  501    0  0.00000000000E+00  0.00000000000E+00  0.29435805705E+04  0.29435805705E+04  0.50400001928E-02 0.  1.
       -1   -1    0    0    0  501  0.00000000000E+00  0.00000000000E+00 -0.97106443308E+03  0.97106443309E+03  0.50400001928E-02 0. -1.
    10030    2    1    2    0    0  0.00000000000E+00  0.00000000000E+00  0.19725161374E+04  0.39146450036E+04  0.33813644571E+04 0.  0.
        3    1    3    3  502    0 -0.36645241889E+03 -0.73588291377E+03  0.26966160319E+04  0.28191397752E+04  0.10100000352E+00 0.  1.
       -3    1    3    3    0  502  0.36645241889E+03  0.73588291377E+03 -0.72409989451E+03  0.10955052284E+04  0.10100000352E+00 0. -1.
</event>
<event>
 5   0  0.2622205E-07  0.3391835E+04  0.7818609E-02  0.8139913E-01
       -1   -1    0    0    0  501  0.00000000000E+00  0.00000000000E+00  0.12443932059E+04  0.12443932059E+04  0.50400001928E-02 0. -1.
        1   -1    0    0  501    0  0.00000000000E+00  0.00000000000E+00 -0.23112759507E+04  0.23112759507E+04  0.50400001928E-02 0.  1.
    10030    2    1    2    0    0  0.00000000000E+00  0.00000000000E+00 -0.10668827448E+04  0.35556691566E+04  0.33918349548E+04 0.  0.
        3    1    3    3  502    0 -0.99782539277E+03 -0.76965630650E+03  0.65632876529E+03  0.14208426383E+04  0.10100000352E+00 0. -1.
       -3    1    3    3    0  502  0.99782539277E+03  0.76965630650E+03 -0.17232115100E+04  0.21348265183E+04  0.10100000352E+00 0.  1.
</event>
<event>
 5   0  0.7610412E-07  0.3253808E+04  0.7818609E-02  0.8174749E-01
        2   -1    0    0  501    0  0.00000000000E+00  0.00000000000E+00  0.17801075470E+04  0.17801075470E+04  0.25500000920E-02 0. -1.
       -2   -1    0    0    0  501  0.00000000000E+00  0.00000000000E+00 -0.14868858383E+04  0.14868858383E+04  0.25500000920E-02 0.  1.
    10030    2    1    2    0    0  0.00000000000E+00  0.00000000000E+00  0.29322170870E+03  0.32669933854E+04  0.32538080475E+04 0.  0.
        4    1    3    3  502    0  0.70481209527E+02 -0.10836744632E+04  0.13629227633E+04  0.17426640567E+04  0.12699999809E+01 0. -1.
       -4    1    3    3    0  502 -0.70481209527E+02  0.10836744632E+04 -0.10697010546E+04  0.15243293286E+04  0.12699999809E+01 0.  1.
</event>
<event>
 5   0  0.7899402E-07  0.3389805E+04  0.7818609E-02  0.8140413E-01
        2   -1    0    0  501    0  0.00000000000E+00  0.00000000000E+00  0.15944117636E+04  0.15944117636E+04  0.25500000920E-02 0. -1.
       -2   -1    0    0    0  501  0.00000000000E+00  0.00000000000E+00 -0.18017266105E+04  0.18017266105E+04  0.25500000920E-02 0.  1.
    10030    2    1    2    0    0  0.00000000000E+00  0.00000000000E+00 -0.20731484691E+03  0.33961383741E+04  0.33898047747E+04 0.  0.
        2    1    3    3  502    0  0.42431243507E+03 -0.13046980235E+04 -0.11007134016E+04  0.17589337587E+04  0.25500000920E-02 0.  1.
       -2    1    3    3    0  502 -0.42431243507E+03  0.13046980235E+04  0.89339855467E+03  0.16372046154E+04  0.25500000920E-02 0. -1.
</event>
<event>
 5   0  0.2622205E-07  0.3445234E+04  0.7818609E-02  0.8126893E-01
       -1   -1    0    0    0  501  0.00000000000E+00  0.00000000000E+00  0.10600991211E+04  0.10600991211E+04  0.50400001928E-02 0.  1.
        1   -1    0    0  501    0  0.00000000000E+00  0.00000000000E+00 -0.27991808864E+04  0.27991808864E+04  0.50400001928E-02 0. -1.
    10030    2    1    2    0    0  0.00000000000E+00  0.00000000000E+00 -0.17390817654E+04  0.38592800075E+04  0.34452339238E+04 0.  0.
        3    1    3    3  502    0 -0.10777573652E+04 -0.12922653571E+04 -0.12824884385E+04  0.21157238233E+04  0.10100000352E+00 0. -1.
       -3    1    3    3    0  502  0.10777573652E+04  0.12922653571E+04 -0.45659332689E+03  0.17435561843E+04  0.10100000352E+00 0.  1.
</event>
<event>
 5   0  0.8489228E-07  0.3376233E+04  0.7818609E-02  0.8143764E-01
       -2   -1    0    0    0  501  0.00000000000E+00  0.00000000000E+00  0.11630070566E+04  0.11630070566E+04  0.25500000920E-02 0.  1.
        2   -1    0    0  501    0  0.00000000000E+00  0.00000000000E+00 -0.24503178115E+04  0.24503178115E+04  0.25500000920E-02 0. -1.
    10030    2    1    2    0    0  0.00000000000E+00  0.00000000000E+00 -0.12873107549E+04  0.36133248682E+04  0.33762327561E+04 0.  0.
        3    1    3    3  502    0  0.13953208071E+04  0.29670445277E+00  0.37323564125E+03  0.14443770618E+04  0.10100000352E+00 0.  1.
       -3    1    3    3    0  502 -0.13953208071E+04 -0.29670445277E+00 -0.16605463961E+04  0.21689478063E+04  0.10100000352E+00 0. -1.
</event>
<event>
 5   0  0.2641442E-07  0.3514543E+04  0.7818609E-02  0.8110352E-01
        1   -1    0    0  501    0  0.00000000000E+00  0.00000000000E+00  0.12485375906E+04  0.12485375906E+04  0.50400001928E-02 0.  1.
       -1   -1    0    0    0  501  0.00000000000E+00  0.00000000000E+00 -0.24732960210E+04  0.24732960210E+04  0.50400001928E-02 0. -1.
    10030    2    1    2    0    0  0.00000000000E+00  0.00000000000E+00 -0.12247584305E+04  0.37218336116E+04  0.35145429603E+04 0.  0.
        1    1    3    3  502    0  0.59678911086E+03  0.14592699261E+04 -0.14342855394E+04  0.21313847538E+04  0.50400001928E-02 0. -1.
       -1    1    3    3    0  502 -0.59678911086E+03 -0.14592699261E+04  0.20952710892E+03  0.15904488579E+04  0.50400001928E-02 0.  1.
</event>
<event>
 5   0  0.2592200E-07  0.3398580E+04  0.7818609E-02  0.8138255E-01
       -1   -1    0    0    0  501  0.00000000000E+00  0.00000000000E+00  0.19336379257E+04  0.19336379257E+04  0.50400001928E-02 0. -1.
        1   -1    0    0  501    0  0.00000000000E+00  0.00000000000E+00 -0.14933437471E+04  0.14933437471E+04  0.50400001928E-02 0.  1.
    10030    2    1    2    0    0  0.00000000000E+00  0.00000000000E+00  0.44029417864E+03  0.34269816728E+04  0.33985797655E+04 0.  0.
        4    1    3    3  502    0  0.18584396168E+03  0.93037807795E+03  0.16416955568E+04  0.18961295473E+04  0.12699999809E+01 0. -1.
       -4    1    3    3    0  502 -0.18584396168E+03 -0.93037807795E+03 -0.12014013781E+04  0.15308521256E+04  0.12699999809E+01 0.  1.
</event>
<event>
 5   0  0.2553250E-07  0.3407356E+04  0.7818609E-02  0.8136103E-01
        1   -1    0    0  501    0  0.00000000000E+00  0.00000000000E+00  0.15393620265E+04  0.15393620265E+04  0.50400001928E-02 0.  1.
       -1   -1    0    0    0  501  0.00000000000E+00  0.00000000000E+00 -0.18855330507E+04  0.18855330507E+04  0.50400001928E-02 0. -1.
    10030    2    1    2    0    0  0.00000000000E+00  0.00000000000E+00 -0.34617102417E+03  0.34248950772E+04  0.34073555600E+04 0.  0.
        5    1    3    3  502    0 -0.13051335100E+04  0.10739051691E+04 -0.38831409462E+03  0.17342017521E+04  0.46999998093E+01 0.  1.
       -5    1    3    3    0  502  0.13051335100E+04 -0.10739051691E+04  0.42143070453E+02  0.16906933251E+04  0.46999998093E+01 0. -1.
</event>
<event>
 5   0  0.8489228E-07  0.3198351E+04  0.7818609E-02  0.8189253E-01
       -2   -1    0    0    0  501  0.00000000000E+00  0.00000000000E+00  0.93500495688E+03  0.93500495689E+03  0.25500000920E-02 0.  1.
        2   -1    0    0  501    0  0.00000000000E+00  0.00000000000E+00 -0.27351322333E+04  0.27351322333E+04  0.25500000920E-02 0. -1.
    10030    2    1    2    0    0  0.00000000000E+00  0.00000000000E+00 -0.18001272765E+04  0.36701371902E+04  0.31983509475E+04 0.  0.
        3    1    3    3  502    0 -0.80014192931E+03  0.13621379024E+04 -0.61499266103E+03  0.16952471075E+04  0.10100000352E+00 0. -1.
       -3    1    3    3    0  502  0.80014192931E+03 -0.13621379024E+04 -0.11851346154E+04  0.19748900827E+04  0.10100000352E+00 0.  1.
</event>
<event>
 5   0  0.2641442E-07  0.3402684E+04  0.7818609E-02  0.8137248E-01
        1   -1    0    0  501    0  0.00000000000E+00  0.00000000000E+00  0.16061738312E+04  0.16061738312E+04  0.50400001928E-02 0. -1.
       -1   -1    0    0    0  501  0.00000000000E+00  0.00000000000E+00 -0.18021489947E+04  0.18021489947E+04  0.50400001928E-02 0.  1.
    10030    2    1    2    0    0  0.00000000000E+00  0.00000000000E+00 -0.19597516348E+03  0.34083228259E+04  0.34026839731E+04 0.  0.
        1    1    3    3  502    0 -0.63641594388E+03 -0.11732265562E+04  0.95878625651E+03  0.16433979711E+04  0.50400001928E-02 0. -1.
       -1    1    3    3    0  502  0.63641594388E+03  0.11732265562E+04 -0.11547614200E+04  0.17649248548E+04  0.50400001928E-02 0.  1.
</event>
<event>
 5   0  0.7838333E-07  0.3399669E+04  0.7818609E-02  0.8137987E-01
        2   -1    0    0  501    0  0.00000000000E+00  0.00000000000E+00  0.15761107746E+04  0.15761107746E+04  0.25500000920E-02 0.  1.
       -2   -1    0    0    0  501  0.00000000000E+00  0.00000000000E+00 -0.18332707933E+04  0.18332707933E+04  0.25500000920E-02 0. -1.
    10030    2    1    2    0    0  0.00000000000E+00  0.00000000000E+00 -0.25716001876E+03  0.34093815679E+04  0.33996693075E+04 0.  0.
        1    1    3    3  502    0  0.12943741175E+04  0.38245079034E+03  0.90769912111E+03  0.16265271770E+04  0.50400001928E-02 0.  1.
       -1    1    3    3    0  502 -0.12943741175E+04 -0.38245079034E+03 -0.11648591399E+04  0.17828543908E+04  0.50400001928E-02 0. -1.
</event>
<event>
 5   0  0.2592200E-07  0.3427924E+04  0.7818609E-02  0.8131087E-01
        1   -1    0    0  501    0  0.00000000000E+00  0.00000000000E+00  0.27905051998E+04  0.27905051998E+04  0.50400001928E-02 0. -1.
       -1   -1    0    0    0  501  0.00000000000E+00  0.00000000000E+00 -0.10527360755E+04  0.10527360755E+04  0.50400001928E-02 0.  1.
    10030    2    1    2    0    0  0.00000000000E+00  0.00000000000E+00  0.17377691243E+04  0.38432412753E+04  0.34279238572E+04 0.  0.
        4    1    3    3  502    0  0.62981236674E+03  0.26801822323E+03 -0.89285485330E+03  0.11250283495E+04  0.12699999809E+01 0.  1.
       -4    1    3    3    0  502 -0.62981236674E+03 -0.26801822323E+03  0.26306239776E+04  0.27182129258E+04  0.12699999809E+01 0. -1.
</event>
<event>
 5   0  0.2553250E-07  0.3051094E+04  0.7818609E-02  0.8229289E-01
       -1   -1    0    0    0  501  0.00000000000E+00  0.00000000000E+00  0.16013328305E+04  0.16013328305E+04  0.50400001928E-02 0. -1.
        1   -1    0    0  501    0  0.00000000000E+00  0.00000000000E+00 -0.14533481652E+04  0.14533481652E+04  0.50400001928E-02 0.  1.
    10030    2    1    2    0    0  0.00000000000E+00  0.00000000000E+00  0.14798466539E+03  0.30546809957E+04  0.30510943159E+04 0.  0.
        5    1    3    3  502    0  0.13280446691E+04  0.31097703826E+03  0.75806904997E+03  0.15604807388E+04  0.46999998093E+01 0. -1.
       -5    1    3    3    0  502 -0.13280446691E+04 -0.31097703826E+03 -0.61008438459E+03  0.14942002569E+04  0.46999998093E+01 0.  1.
</event>
<event>
 5   0  0.2599367E-07  0.3440414E+04  0.7818609E-02  0.8128058E-01
       -1   -1    0    0    0  501  0.00000000000E+00  0.00000000000E+00  0.11558854163E+04  0.11558854164E+04  0.50400001928E-02 0.  1.
        1   -1    0    0  501    0  0.00000000000E+00  0.00000000000E+00 -0.25600393196E+04  0.25600393196E+04  0.50400001928E-02 0. -1.
    10030    2    1    2    0    0  0.00000000000E+00  0.00000000000E+00 -0.14041539032E+04  0.37159247359E+04  0.34404139953E+04 0.  0.
        2    1    3    3  502    0  0.72530481824E+03 -0.15582671897E+04 -0.77728346762E+03  0.18863810068E+04  0.25500000920E-02 0. -1.
       -2    1    3    3    0  502 -0.72530481824E+03  0.15582671897E+04 -0.62687043559E+03  0.18295437291E+04  0.25500000920E-02 0.  1.
</event>
<event>
 5   0  0.2592200E-07  0.3296996E+04  0.7818609E-02  0.8163660E-01
        1   -1    0    0  501    0  0.00000000000E+00  0.00000000000E+00  0.21759141693E+04  0.21759141693E+04  0.50400001928E-02 0.  1.
       -1   -1    0    0    0  501  0.00000000000E+00  0.00000000000E+00 -0.12489214220E+04  0.12489214220E+04  0.50400001928E-02 0. -1.
    10030    2    1    2    0    0  0.00000000000E+00  0.00000000000E+00  0.92699274736E+03  0.34248355913E+04  0.32969960986E+04 0.  0.
        4    1    3    3  502    0  0.74032634034E+03 -0.22246733396E+03  0.19759640123E+04  0.21217940983E+04  0.12699999809E+01 0.  1.
       -4    1    3    3    0  502 -0.74032634034E+03  0.22246733396E+03 -0.10489712649E+04  0.13030414930E+04  0.12699999809E+01 0. -1.
</event>
<event>
 5   0  0.2553250E-07  0.3414294E+04  0.7818609E-02  0.8134407E-01
       -1   -1    0    0    0  501  0.00000000000E+00  0.00000000000E+00  0.18650431065E+04  0.18650431065E+04  0.50400001928E-02 0. -1.
        1   -1    0    0  501    0  0.00000000000E+00  0.00000000000E+00 -0.15626181484E+04  0.15626181484E+04  0.50400001928E-02 0.  1.
    10030    2    1    2    0    0  0.00000000000E+00  0.00000000000E+00  0.30242495807E+03  0.34276612549E+04  0.34142936053E+04 0.  0.
        5    1    3    3  502    0  0.11879765849E+04 -0.12257368597E+04  0.17598499397E+03  0.17160163238E+04  0.46999998093E+01 0.  1.
       -5    1    3    3    0  502 -0.11879765849E+04  0.12257368597E+04  0.12643996410E+03  0.17116449311E+04  0.46999998093E+01 0. -1.
</event>
<event>
 5   0  0.7899402E-07  0.3397916E+04  0.7818609E-02  0.8138418E-01
        2   -1    0    0  501    0  0.00000000000E+00  0.00000000000E+00  0.18839915155E+04  0.18839915155E+04  0.25500000920E-02 0.  1.
       -2   -1    0    0    0  501  0.00000000000E+00  0.00000000000E+00 -0.15320969363E+04  0.15320969363E+04  0.25500000920E-02 0. -1.
    10030    2    1    2    0    0  0.00000000000E+00  0.00000000000E+00  0.35189457919E+03  0.34160884519E+04  0.33979156135E+04 0.  0.
        2    1    3    3  502    0  0.10791031778E+03  0.10353648339E+04  0.15258243775E+04  0.18470963718E+04  0.25500000920E-02 0.  1.
       -2    1    3    3    0  502 -0.10791031778E+03 -0.10353648339E+04 -0.11739297983E+04  0.15689920800E+04  0.25500000920E-02 0. -1.
</event>
<event>
 5   0  0.2641442E-07  0.3378414E+04  0.7818609E-02  0.8143225E-01
        1   -1    0    0  501    0  0.00000000000E+00  0.00000000000E+00  0.14700187652E+04  0.14700187652E+04  0.50400001928E-02 0.  1.
       -1   -1    0    0    0  501  0.00000000000E+00  0.00000000000E+00 -0.19410777268E+04  0.19410777268E+04  0.50400001928E-02 0. -1.
    10030    2    1    2    0    0  0.00000000000E+00  0.00000000000E+00 -0.47105896164E+03  0.34110964920E+04  0.33784142334E+04 0.  0.
        1    1    3    3  502    0  0.81780761652E+03 -0.14464831761E+04 -0.54227398963E+03  0.17479084519E+04  0.50400001928E-02 0.  1.
       -1    1    3    3    0  502 -0.81780761652E+03  0.14464831761E+04  0.71215027992E+02  0.16631880401E+04  0.50400001928E-02 0. -1.
</event>
<event>
 5   0  0.2641442E-07  0.3358793E+04  0.7818609E-02  0.8148095E-01
       -1   -1    0    0    0  501  0.00000000000E+00  0.00000000000E+00  0.12017168389E+04  0.12017168389E+04  0.50400001928E-02 0. -1.
        1   -1    0    0  501    0  0.00000000000E+00  0.00000000000E+00 -0.23469520889E+04  0.23469520889E+04  0.50400001928E-02 0.  1.
    10030    2    1    2    0    0  0.00000000000E+00  0.00000000000E+00 -0.11452352500E+04  0.35486689278E+04  0.33587925481E+04 0.  0.
        1    1    3    3  502    0 -0.30991599695E+03  0.16457266945E+04 -0.43936241863E+03  0.17313300128E+04  0.50400001928E-02 0.  1.
       -1    1    3    3    0  502  0.30991599695E+03 -0.16457266945E+04 -0.70587283136E+03  0.18173389151E+04  0.50400001928E-02 0. -1.
</event>
<event>
 5   0  0.2641442E-07  0.3395175E+04  0.7818609E-02  0.8139092E-01
        1   -1    0    0  501    0  0.00000000000E+00  0.00000000000E+00  0.17273656648E+04  0.17273656648E+04  0.50400001928E-02 0.  1.
       -1   -1    0    0    0  501  0.00000000000E+00  0.00000000000E+00 -0.16683227845E+04  0.16683227845E+04  0.50400001928E-02 0. -1.
    10030    2    1    2    0    0  0.00000000000E+00  0.00000000000E+00  0.59042880307E+02  0.33956884493E+04  0.33951751034E+04 0.  0.
        1    1    3    3  502    0 -0.26904135989E+03 -0.35278284606E+02 -0.16464931582E+04  0.16687023494E+04  0.50400001928E-02 0. -1.
       -1    1    3    3    0  502  0.26904135989E+03  0.35278284606E+02  0.17055360385E+04  0.17269860999E+04  0.50400001928E-02 0.  1.
</event>
<event>
 5   0  0.7610412E-07  0.3388042E+04  0.7818609E-02  0.8140848E-01
       -2   -1    0    0    0  501  0.00000000000E+00  0.00000000000E+00  0.29024850721E+04  0.29024850721E+04  0.25500000920E-02 0.  1.
        2   -1    0    0  501    0  0.00000000000E+00  0.00000000000E+00 -0.98870681056E+03  0.98870681057E+03  0.25500000920E-02 0. -1.
    10030    2    1    2    0    0  0.00000000000E+00  0.00000000000E+00  0.19137782615E+04  0.38911918826E+04  0.33880417697E+04 0.  0.
        4    1    3    3  502    0  0.92230067548E+03 -0.13198945835E+04  0.15612976480E+04  0.22428580441E+04  0.12699999809E+01 0. -1.
       -4    1    3    3    0  502 -0.92230067548E+03  0.13198945835E+04  0.35248061349E+03  0.16483338385E+04  0.12699999809E+01 0.  1.
</event>
<event>
 5   0  0.2622205E-07  0.3401935E+04  0.7818609E-02  0.8137432E-01
       -1   -1    0    0    0  501  0.00000000000E+00  0.00000000000E+00  0.12896338726E+04  0.12896338726E+04  0.50400001928E-02 0. -1.
        1   -1    0    0  501    0  0.00000000000E+00  0.00000000000E+00 -0.22434978465E+04  0.22434978465E+04  0.50400001928E-02 0.  1.
    10030    2    1    2    0    0  0.00000000000E+00  0.00000000000E+00 -0.95386397390E+03  0.35331317191E+04  0.34019352233E+04 0.  0.
        3    1    3    3  502    0 -0.16614657425E+04  0.36433665977E+03 -0.46757391185E+03  0.17640393954E+04  0.10100000352E+00 0. -1.
       -3    1    3    3    0  502  0.16614657425E+04 -0.36433665977E+03 -0.48629006204E+03  0.17690923237E+04  0.10100000352E+00 0.  1.
</event>
<event>
 5   0  0.7610412E-07  0.3403144E+04  0.7818609E-02  0.8137135E-01
        2   -1    0    0  501    0  0.00000000000E+00  0.00000000000E+00  0.16739173350E+04  0.16739173350E+04  0.25500000920E-02 0.  1.
       -2   -1    0    0    0  501  0.00000000000E+00  0.00000000000E+00 -0.17296830553E+04  0.17296830553E+04  0.25500000920E-02 0. -1.
    10030    2    1    2    0    0  0.00000000000E+00  0.00000000000E+00 -0.55765720346E+02  0.34036003903E+04  0.34031435176E+04 0.  0.
        4    1    3    3  502    0  0.14558233392E+04 -0.67918316306E+03  0.53311442899E+03  0.16926086291E+04  0.12699999809E+01 0.  1.
       -4    1    3    3    0  502 -0.14558233392E+04  0.67918316306E+03 -0.58888014933E+03  0.17109917612E+04  0.12699999809E+01 0. -1.
</event>
<event>
 5   0  0.8489228E-07  0.3176558E+04  0.7818609E-02  0.8195036E-01
        2   -1    0    0  501    0  0.00000000000E+00  0.00000000000E+00  0.30515136377E+04  0.30515136377E+04  0.25500000920E-02 0. -1.
       -2   -1    0    0    0  501  0.00000000000E+00  0.00000000000E+00 -0.82668139116E+03  0.82668139116E+03  0.25500000920E-02 0.  1.
    10030    2    1    2    0    0  0.00000000000E+00  0.00000000000E+00  0.22248322466E+04  0.38781950289E+04  0.31765575954E+04 0.  0.
        3    1    3    3  502    0  0.34364540548E+03 -0.12321089099E+04  0.22618892124E+04  0.25985240714E+04  0.10100000352E+00 0.  1.
       -3    1    3    3    0  502 -0.34364540548E+03  0.12321089099E+04 -0.37056965817E+02  0.12796709575E+04  0.10100000352E+00 0. -1.
</event>
<event>
 5   0  0.7838333E-07  0.3386822E+04  0.7818609E-02  0.8141148E-01
       -2   -1    0    0    0  501  0.00000000000E+00  0.00000000000E+00  0.13363794843E+04  0.13363794843E+04  0.25500000920E-02 0. -1.
        2   -1    0    0  501    0  0.00000000000E+00  0.00000000000E+00 -0.21458281544E+04  0.21458281544E+04  0.25500000920E-02 0.  1.
    10030    2    1    2    0    0  0.00000000000E+00  0.00000000000E+00 -0.80944867012E+03  0.34822076388E+04  0.33868219454E+04 0.  0.
        1    1    3    3  502    0 -0.15429493109E+04 -0.25951156009E+03  0.26128607894E+03  0.15862878808E+04  0.50400001928E-02 0. -1.
       -1    1    3    3    0  502  0.15429493109E+04  0.25951156009E+03 -0.10707347491E+04  0.18959197580E+04  0.50400001928E-02 0.  1.
</event>
<event>
 5   0  0.7610412E-07  0.3440919E+04  0.7818609E-02  0.8127936E-01
       -2   -1    0    0    0  501  0.00000000000E+00  0.00000000000E+00  0.15883356375E+04  0.15883356375E+04  0.25500000920E-02 0. -1.
        2   -1    0    0  501    0  0.00000000000E+00  0.00000000000E+00 -0.18635737416E+04  0.18635737416E+04  0.25500000920E-02 0.  1.
    10030    2    1    2    0    0  0.00000000000E+00  0.00000000000E+00 -0.27523810413E+03  0.34519093791E+04  0.34409188232E+04 0.  0.
        4    1    3    3  502    0 -0.69697008785E+03 -0.33327420698E+03 -0.16797799320E+04  0.18489189364E+04  0.12699999809E+01 0.  1.
       -4    1    3    3    0  502  0.69697008785E+03  0.33327420698E+03  0.14045418279E+04  0.16029904428E+04  0.12699999809E+01 0. -1.
</event>
<event>
 5   0  0.2622205E-07  0.3291177E+04  0.7818609E-02  0.8165144E-01
       -1   -1    0    0    0  501  0.00000000000E+00  0.00000000000E+00  0.10450529445E+04  0.10450529445E+04  0.50400001928E-02 0. -1.
        1   -1    0    0  501    0  0.00000000000E+00  0.00000000000E+00 -0.25912189885E+04  0.25912189885E+04  0.50400001928E-02 0.  1.
    10030    2    1    2    0    0  0.00000000000E+00  0.00000000000E+00 -0.15461660440E+04  0.36362719330E+04  0.32911767099E+04 0.  0.
        3    1    3    3  502    0 -0.54127067593E+03 -0.19445211001E+03  0.93039200644E+03  0.10938075075E+04  0.10100000352E+00 0. -1.
       -3    1    3    3    0  502  0.54127067593E+03  0.19445211001E+03 -0.24765580504E+04  0.25424644255E+04  0.10100000352E+00 0.  1.
</event>
<event>
 5   0  0.8489228E-07  0.3480122E+04  0.7818609E-02  0.8118517E-01
       -2   -1    0    0    0  501  0.00000000000E+00  0.00000000000E+00  0.23836326612E+04  0.23836326612E+04  0.25500000920E-02 0. -1.
        2   -1    0    0  501    0  0.00000000000E+00  0.00000000000E+00 -0.12702509273E+04  0.12702509273E+04  0.25500000920E-02 0.  1.
    10030    2    1    2    0    0  0.00000000000E+00  0.00000000000E+00  0.11133817340E+04  0.36538835885E+04  0.34801216060E+04 0.  0.
        3    1    3    3  502    0  0.33134418698E+03 -0.17077132577E+04  0.60046233077E+03  0.18402794792E+04  0.10100000352E+00 0. -1.
       -3    1    3    3    0  502 -0.33134418698E+03  0.17077132577E+04  0.51291940318E+03  0.18136041093E+04  0.10100000352E+00 0.  1.
</event>
<event>
 5   0  0.2622205E-07  0.3396582E+04  0.7818609E-02  0.8138746E-01
        1   -1    0    0  501    0  0.00000000000E+00  0.00000000000E+00  0.11953173963E+04  0.11953173963E+04  0.50400001928E-02 0. -1.
       -1   -1    0    0    0  501  0.00000000000E+00  0.00000000000E+00 -0.24129092515E+04  0.24129092515E+04  0.50400001928E-02 0.  1.
    10030    2    1    2    0    0  0.00000000000E+00  0.00000000000E+00 -0.12175918552E+04  0.36082266478E+04  0.33965820490E+04 0.  0.
        3    1    3    3  502    0 -0.11326598880E+04  0.98152674499E+03 -0.14572355208E+04  0.20904182706E+04  0.10100000352E+00 0.  1.
       -3    1    3    3    0  502  0.11326598880E+04 -0.98152674499E+03  0.23964366560E+03  0.15178083771E+04  0.10100000352E+00 0. -1.
</event>
<event>
 5   0  0.7610412E-07  0.3400355E+04  0.7818609E-02  0.8137819E-01
        2   -1    0    0  501    0  0.00000000000E+00  0.00000000000E+00  0.24651858653E+04  0.24651858653E+04  0.25500000920E-02 0. -1.
       -2   -1    0    0    0  501  0.00000000000E+00  0.00000000000E+00 -0.11725700027E+04  0.11725700027E+04  0.25500000920E-02 0.  1.
    10030    2    1    2    0    0  0.00000000000E+00  0.00000000000E+00  0.12926158626E+04  0.36377558680E+04  0.34003546855E+04 0.  0.
        4    1    3    3  502    0  0.46365659466E+03 -0.52159875426E+03 -0.10122731038E+04  0.12295288316E+04  0.12699999809E+01 0.  1.
       -4    1    3    3    0  502 -0.46365659466E+03  0.52159875426E+03  0.23048889664E+04  0.24082270364E+04  0.12699999809E+01 0. -1.
</event>
<event>
 5   0  0.7899402E-07  0.3476489E+04  0.7818609E-02  0.8119384E-01
       -2   -1    0    0    0  501  0.00000000000E+00  0.00000000000E+00  0.13793700175E+04  0.13793700175E+04  0.25500000920E-02 0. -1.
        2   -1    0    0  501    0  0.00000000000E+00  0.00000000000E+00 -0.21904887476E+04  0.21904887476E+04  0.25500000920E-02 0.  1.
    10030    2    1    2    0    0  0.00000000000E+00  0.00000000000E+00 -0.81111873003E+03  0.35698587651E+04  0.34764893224E+04 0.  0.
        2    1    3    3  502    0 -0.14201962651E+04  0.91647081325E+03 -0.82218809630E+03  0.18795928944E+04  0.25500000920E-02 0.  1.
       -2    1    3    3    0  502  0.14201962651E+04 -0.91647081325E+03  0.11069366272E+02  0.16902658707E+04  0.25500000920E-02 0. -1.
</event>
<event>
 5   0  0.7838333E-07  0.3416001E+04  0.7818609E-02  0.8133990E-01
        2   -1    0    0  501    0  0.00000000000E+00  0.00000000000E+00  0.19711955763E+04  0.19711955763E+04  0.25500000920E-02 0.  1.
       -2   -1    0    0    0  501  0.00000000000E+00  0.00000000000E+00 -0.14799473626E+04  0.14799473626E+04  0.25500000920E-02 0. -1.
    10030    2    1    2    0    0  0.00000000000E+00  0.00000000000E+00  0.49124821372E+03  0.34511429390E+04  0.34160009920E+04 0.  0.
        1    1    3    3  502    0 -0.16801905668E+04 -0.15936666967E+03 -0.19424990459E+02  0.16878434188E+04  0.50400001928E-02 0. -1.
       -1    1    3    3    0  502  0.16801905668E+04  0.15936666967E+03  0.51067320418E+03  0.17632995201E+04  0.50400001928E-02 0.  1.
</event>
<event>
 5   0  0.7838333E-07  0.3396802E+04  0.7818609E-02  0.8138692E-01
        2   -1    0    0  501    0  0.00000000000E+00  0.00000000000E+00  0.19543376897E+04  0.19543376897E+04  0.25500000920E-02 0. -1.
       -2   -1    0    0    0  501  0.00000000000E+00  0.00000000000E+00 -0.14759814089E+04  0.14759814089E+04  0.25500000920E-02 0.  1.
    10030    2    1    2    0    0  0.00000000000E+00  0.00000000000E+00  0.47835628082E+03  0.34303190986E+04  0.33968020824E+04 0.  0.
        1    1    3    3  502    0  0.13581890789E+04 -0.49740089868E+03 -0.65981974776E+03  0.15897947439E+04  0.50400001928E-02 0.  1.
       -1    1    3    3    0  502 -0.13581890789E+04  0.49740089868E+03  0.11381760286E+04  0.18405243547E+04  0.50400001928E-02 0. -1.
</event>
<event>
 5   0  0.7899402E-07  0.3371179E+04  0.7818609E-02  0.8145016E-01
        2   -1    0    0  501    0  0.00000000000E+00  0.00000000000E+00  0.22122421803E+04  0.22122421803E+04  0.25500000920E-02 0. -1.
       -2   -1    0    0    0  501  0.00000000000E+00  0.00000000000E+00 -0.12843132998E+04  0.12843132998E+04  0.25500000920E-02 0.  1.
    10030    2    1    2    0    0  0.00000000000E+00  0.00000000000E+00  0.92792888055E+03  0.34965554801E+04  0.33711790545E+04 0.  0.
        2    1    3    3  502    0 -0.32224341184E+01  0.97560753872E+03  0.18896363537E+04  0.21266278478E+04  0.25500000920E-02 0. -1.
       -2    1    3    3    0  502  0.32224341184E+01 -0.97560753872E+03 -0.96170747317E+03  0.13699276323E+04  0.25500000920E-02 0.  1.
</event>
<event>
 5   0  0.2599367E-07  0.3398425E+04  0.7818609E-02  0.8138293E-01
       -1   -1    0    0    0  501  0.00000000000E+00  0.00000000000E+00  0.18448171430E+04  0.18448171430E+04  0.50400001928E-02 0.  1.
        1   -1    0    0  501    0  0.00000000000E+00  0.00000000000E+00 -0.15651000228E+04  0.15651000228E+04  0.50400001928E-02 0. -1.
    10030    2    1    2    0    0  0.00000000000E+00  0.00000000000E+00  0.27971712021E+03  0.34099171659E+04  0.33984251369E+04 0.  0.
        2    1    3    3  502    0 -0.11534004387E+04 -0.10839349200E+03 -0.11074224837E+04  0.16026435282E+04  0.25500000920E-02 0. -1.
       -2    1    3    3    0  502  0.11534004387E+04  0.10839349200E+03  0.13871396039E+04  0.18072736377E+04  0.25500000920E-02 0.  1.
</event>
<event>
 5   0  0.2599367E-07  0.3391592E+04  0.7818609E-02  0.8139973E-01
        1   -1    0    0  501    0  0.00000000000E+00  0.00000000000E+00  0.12838241321E+04  0.12838241321E+04  0.50400001928E-02 0. -1.
       -1   -1    0    0    0  501  0.00000000000E+00  0.00000000000E+00 -0.22399678136E+04  0.22399678136E+04  0.50400001928E-02 0.  1.
    10030    2    1    2    0    0  0.00000000000E+00  0.00000000000E+00 -0.95614368154E+03  0.35237919457E+04  0.33915923896E+04 0.  0.
        2    1    3    3  502    0 -0.67002033800E+03 -0.73708944952E+03  0.94782802976E+03  0.13749931214E+04  0.25500000920E-02 0. -1.
       -2    1    3    3    0  502  0.67002033800E+03  0.73708944952E+03 -0.19039717113E+04  0.21487988243E+04  0.25500000920E-02 0.  1.
</event>
<event>
 5   0  0.2592200E-07  0.3399486E+04  0.7818609E-02  0.8138032E-01
        1   -1    0    0  501    0  0.00000000000E+00  0.00000000000E+00  0.15208229072E+04  0.15208229072E+04  0.50400001928E-02 0. -1.
       -1   -1    0    0    0  501  0.00000000000E+00  0.00000000000E+00 -0.18997123968E+04  0.18997123968E+04  0.50400001928E-02 0.  1.
    10030    2    1    2    0    0  0.00000000000E+00  0.00000000000E+00 -0.37888948963E+03  0.34205353041E+04  0.33994859201E+04 0.  0.
        4    1    3    3  502    0 -0.97299061846E+03 -0.13452663142E+04 -0.55594222120E+03  0.17508642340E+04  0.12699999809E+01 0.  1.
       -4    1    3    3    0  502  0.97299061846E+03  0.13452663142E+04  0.17705273157E+03  0.16696710701E+04  0.12699999809E+01 0. -1.
</event>
<event>
 5   0  0.2553250E-07  0.3383237E+04  0.7818609E-02  0.8142033E-01
       -1   -1    0    0    0  501  0.00000000000E+00  0.00000000000E+00  0.13202220568E+04  0.13202220568E+04  0.50400001928E-02 0.  1.
        1   -1    0    0  501    0  0.00000000000E+00  0.00000000000E+00 -0.21674944231E+04  0.21674944231E+04  0.50400001928E-02 0. -1.
    10030    2    1    2    0    0  0.00000000000E+00  0.00000000000E+00 -0.84727236629E+03  0.34877164798E+04  0.33832374704E+04 0.  0.
        5    1    3    3  502    0 -0.11570805107E+03  0.94211284051E+03 -0.18670861649E+04  0.20945161242E+04  0.46999998093E+01 0. -1.
       -5    1    3    3    0  502  0.11570805107E+03 -0.94211284051E+03  0.10198137986E+04  0.13932003557E+04  0.46999998093E+01 0.  1.
</event>
<event>
 5   0  0.2553250E-07  0.3400612E+04  0.7818609E-02  0.8137756E-01
       -1   -1    0    0    0  501  0.00000000000E+00  0.00000000000E+00  0.11515204741E+04  0.11515204741E+04  0.50400001928E-02 0. -1.
        1   -1    0    0  501    0  0.00000000000E+00  0.00000000000E+00 -0.25106290264E+04  0.25106290264E+04  0.50400001928E-02 0.  1.
    10030    2    1    2    0    0  0.00000000000E+00  0.00000000000E+00 -0.13591085524E+04  0.36621495005E+04  0.34006121371E+04 0.  0.
        5    1    3    3  502    0 -0.14292667429E+04 -0.17314780416E+03  0.29457817045E+03  0.14695516231E+04  0.46999998093E+01 0. -1.
       -5    1    3    3    0  502  0.14292667429E+04  0.17314780416E+03 -0.16536867228E+04  0.21925978774E+04  0.46999998093E+01 0.  1.
</event>
<event>
 5   0  0.8489228E-07  0.3378895E+04  0.7818609E-02  0.8143106E-01
        2   -1    0    0  501    0  0.00000000000E+00  0.00000000000E+00  0.13529282863E+04  0.13529282863E+04  0.25500000920E-02 0.  1.
       -2   -1    0    0    0  501  0.00000000000E+00  0.00000000000E+00 -0.21096707182E+04  0.21096707182E+04  0.25500000920E-02 0. -1.
    10030    2    1    2    0    0  0.00000000000E+00  0.00000000000E+00 -0.75674243197E+03  0.34625990045E+04  0.33788951978E+04 0.  0.
        3    1    3    3  502    0  0.74792306314E+03 -0.89279461600E+02 -0.19280744678E+04  0.20699833077E+04  0.10100000352E+00 0. -1.
       -3    1    3    3    0  502 -0.74792306314E+03  0.89279461600E+02  0.11713320358E+04  0.13926156968E+04  0.10100000352E+00 0.  1.
</event>
<event>
 5   0  0.8489228E-07  0.3405390E+04  0.7818609E-02  0.8136585E-01
        2   -1    0    0  501    0  0.00000000000E+00  0.00000000000E+00  0.25264102137E+04  0.25264102137E+04  0.25500000920E-02 0. -1.
       -2   -1    0    0    0  501  0.00000000000E+00  0.00000000000E+00 -0.11475452700E+04  0.11475452701E+04  0.25500000920E-02 0.  1.
    10030    2    1    2    0    0  0.00000000000E+00  0.00000000000E+00  0.13788649436E+04  0.36739554837E+04  0.34053898989E+04 0.  0.
        3    1    3    3  502    0 -0.16799022388E+04 -0.26729924848E+03  0.60834043134E+03  0.18065432490E+04  0.10100000352E+00 0. -1.
       -3    1    3    3    0  502  0.16799022388E+04  0.26729924848E+03  0.77052451231E+03  0.18674122347E+04  0.10100000352E+00 0.  1.
</event>
<event>
 5   0  0.2553250E-07  0.3382340E+04  0.7818609E-02  0.8142254E-01
        1   -1    0    0  501    0  0.00000000000E+00  0.00000000000E+00  0.10345364534E+04  0.10345364534E+04  0.50400001928E-02 0. -1.
       -1   -1    0    0    0  501  0.00000000000E+00  0.00000000000E+00 -0.27645777691E+04  0.27645777691E+04  0.50400001928E-02 0.  1.
    10030    2    1    2    0    0  0.00000000000E+00  0.00000000000E+00 -0.17300413157E+04  0.37991142224E+04  0.33823403024E+04 0.  0.
        5    1    3    3  502    0 -0.50636484365E+03  0.15887669612E+04 -0.54842269542E+03  0.17553846743E+04  0.46999998093E+01 0.  1.
       -5    1    3    3    0  502  0.50636484365E+03 -0.15887669612E+04 -0.11816186203E+04  0.20437295481E+04  0.46999998093E+01 0. -1.
</event>
<event>
 5   0  0.7838333E-07  0.3412363E+04  0.7818609E-02  0.8134879E-01
       -2   -1    0    0    0  501  0.00000000000E+00  0.00000000000E+00  0.16946736659E+04  0.16946736659E+04  0.25500000920E-02 0.  1.
        2   -1    0    0  501    0  0.00000000000E+00  0.00000000000E+00 -0.17177674586E+04  0.17177674586E+04  0.25500000920E-02 0. -1.
    10030    2    1    2    0    0  0.00000000000E+00  0.00000000000E+00 -0.23093792697E+02  0.34124411245E+04  0.34123629796E+04 0.  0.
        1    1    3    3  502    0  0.23342401514E+01 -0.16478168017E+04 -0.45399303001E+03  0.17092148291E+04  0.50400001928E-02 0. -1.
       -1    1    3    3    0  502 -0.23342401514E+01  0.16478168017E+04  0.43089923731E+03  0.17032262954E+04  0.50400001928E-02 0.  1.
</event>
<event>
 5   0  0.2599367E-07  0.3392485E+04  0.7818609E-02  0.8139753E-01
       -1   -1    0    0    0  501  0.00000000000E+00  0.00000000000E+00  0.20161837713E+04  0.20161837713E+04  0.50400001928E-02 0.  1.
        1   -1    0    0  501    0  0.00000000000E+00  0.00000000000E+00 -0.14270715677E+04  0.14270715677E+04  0.50400001928E-02 0. -1.
    10030    2    1    2    0    0  0.00000000000E+00  0.00000000000E+00  0.58911220361E+03  0.34432553391E+04  0.33924849508E+04 0.  0.
        2    1    3    3  502    0  0.16608891420E+04  0.16935763655E+03  0.59905216712E+03  0.17737244008E+04  0.25500000920E-02 0.  1.
       -2    1    3    3    0  502 -0.16608891420E+04 -0.16935763655E+03 -0.99399635154E+01  0.16695309383E+04  0.25500000920E-02 0. -1.
</event>
<event>
 5   0  0.8489228E-07  0.3412540E+04  0.7818609E-02  0.8134835E-01
        2   -1    0    0  501    0  0.00000000000E+00  0.00000000000E+00  0.15730255934E+04  0.15730255934E+04  0.25500000920E-02 0.  1.
       -2   -1    0    0    0  501  0.00000000000E+00  0.00000000000E+00 -0.18508013082E+04  0.18508013082E+04  0.25500000920E-02 0. -1.
    10030    2    1    2    0    0  0.00000000000E+00  0.00000000000E+00 -0.27777571487E+03  0.34238269016E+04  0.34125403008E+04 0.  0.
        3    1    3    3  502    0 -0.93337997300E+03 -0.48035143351E+03 -0.14884844133E+04  0.18214064710E+04  0.10100000352E+00 0. -1.
       -3    1    3    3    0  502  0.93337997300E+03  0.48035143351E+03  0.12107086985E+04  0.16024204306E+04  0.10100000352E+00 0.  1.
</event>
<event>
 5   0  0.7610412E-07  0.3074478E+04  0.7818609E-02  0.8222777E-01
        2   -1    0    0  501    0  0.00000000000E+00  0.00000000000E+00  0.16114576655E+04  0.16114576655E+04  0.25500000920E-02 0. -1.
       -2   -1    0    0    0  501  0.00000000000E+00  0.00000000000E+00 -0.14664385227E+04  0.14664385227E+04  0.25500000920E-02 0.  1.
    10030    2    1    2    0    0  0.00000000000E+00  0.00000000000E+00  0.14501914277E+03  0.30778961883E+04  0.30744779059E+04 0.  0.
        4    1    3    3  502    0 -0.81767273331E+03 -0.45851223132E+02 -0.12298637909E+04  0.14775850536E+04  0.12699999809E+01 0.  1.
       -4    1    3    3    0  502  0.81767273331E+03  0.45851223132E+02  0.13748829337E+04  0.16003111347E+04  0.12699999809E+01 0. -1.
</event>
<event>
 5   0  0.7822003E-07  0.3397734E+04  0.7818609E-02  0.8138463E-01
       -2   -1    0    0    0  501  0.00000000000E+00  0.00000000000E+00  0.21734615194E+04  0.21734615194E+04  0.25500000920E-02 0. -1.
        2   -1    0    0  501    0  0.00000000000E+00  0.00000000000E+00 -0.13279041843E+04  0.13279041843E+04  0.25500000920E-02 0.  1.
    10030    2    1    2    0    0  0.00000000000E+00  0.00000000000E+00  0.84555733517E+03  0.35013657037E+04  0.33977337424E+04 0.  0.
        5    1    3    3  502    0  0.67525711440E+03 -0.29422259335E+03  0.20003489342E+04  0.21316559417E+04  0.46999998093E+01 0. -1.
       -5    1    3    3    0  502 -0.67525711440E+03  0.29422259335E+03 -0.11547915990E+04  0.13697097620E+04  0.46999998093E+01 0.  1.
</event>
<event>
 5   0  0.2641442E-07  0.3413538E+04  0.7818609E-02  0.8134592E-01
        1   -1    0    0  501    0  0.00000000000E+00  0.00000000000E+00  0.21194974851E+04  0.21194974851E+04  0.50400001928E-02 0. -1.
       -1   -1    0    0    0  501  0.00000000000E+00  0.00000000000E+00 -0.13744109107E+04  0.13744109107E+04  0.50400001928E-02 0.  1.
    10030    2    1    2    0    0  0.00000000000E+00  0.00000000000E+00  0.74508657441E+03  0.34939083958E+04  0.34135380290E+04 0.  0.
        1    1    3    3  502    0 -0.12928868148E+04  0.97340713634E+03 -0.18242434713E+03  0.16286056648E+04  0.50400001928E-02 0. -1.
       -1    1    3    3    0  502  0.12928868148E+04 -0.97340713634E+03  0.92751092154E+03  0.18653027311E+04  0.50400001928E-02 0.  1.
</event>
<event>
 5   0  0.2622205E-07  0.3371239E+04  0.7818609E-02  0.8145001E-01
        1   -1    0    0  501    0  0.00000000000E+00  0.00000000000E+00  0.11962256614E+04  0.11962256614E+04  0.50400001928E-02 0.  1.
       -1   -1    0    0    0  501  0.00000000000E+00  0.00000000000E+00 -0.23752317279E+04  0.23752317279E+04  0.50400001928E-02 0. -1.
    10030    2    1    2    0    0  0.00000000000E+00  0.00000000000E+00 -0.11790060665E+04  0.35714573894E+04  0.33712390273E+04 0.  0.
        3    1    3    3  502    0  0.45994178941E+03 -0.69517407121E+03 -0.21416089078E+04  0.22981083880E+04  0.10100000352E+00 0. -1.
       -3    1    3    3    0  502 -0.45994178941E+03  0.69517407121E+03  0.96260284129E+03  0.12733490013E+04  0.10100000352E+00 0.  1.
</event>
<event>
 5   0  0.2592200E-07  0.3390645E+04  0.7818609E-02  0.8140206E-01
       -1   -1    0    0    0  501  0.00000000000E+00  0.00000000000E+00  0.13638880505E+04  0.13638880505E+04  0.50400001928E-02 0. -1.
        1   -1    0    0  501    0  0.00000000000E+00  0.00000000000E+00 -0.21072980303E+04  0.21072980303E+04  0.50400001928E-02 0.  1.
    10030    2    1    2    0    0  0.00000000000E+00  0.00000000000E+00 -0.74340997985E+03  0.34711860808E+04  0.33906451318E+04 0.  0.
        4    1    3    3  502    0 -0.15259915305E+04 -0.14672106696E+03  0.36932577453E+03  0.15768894582E+04  0.12699999809E+01 0. -1.
       -4    1    3    3    0  502  0.15259915305E+04  0.14672106696E+03 -0.11127357544E+04  0.18942966227E+04  0.12699999809E+01 0.  1.
</event>
<event>
 5   0  0.2553250E-07  0.3437572E+04  0.7818609E-02  0.8128746E-01
       -1   -1    0    0    0  501  0.00000000000E+00  0.00000000000E+00  0.26709607991E+04  0.26709607991E+04  0.50400001928E-02 0. -1.
        1   -1    0    0  501    0  0.00000000000E+00  0.00000000000E+00 -0.11060534321E+04  0.11060534321E+04  0.50400001928E-02 0.  1.
    10030    2    1    2    0    0  0.00000000000E+00  0.00000000000E+00  0.15649073670E+04  0.37770142313E+04  0.34375720263E+04 0.  0.
        5    1    3    3  502    0 -0.12760306887E+04  0.59900586203E+03  0.18629957917E+04  0.23362015647E+04  0.46999998093E+01 0. -1.
       -5    1    3    3    0  502  0.12760306887E+04 -0.59900586203E+03 -0.29808842467E+03  0.14408126665E+04  0.46999998093E+01 0.  1.
</event>
<event>
 5   0  0.8489228E-07  0.3399872E+04  0.7818609E-02  0.8137938E-01
       -2   -1    0    0    0  501  0.00000000000E+00  0.00000000000E+00  0.14551070751E+04  0.14551070751E+04  0.25500000920E-02 0.  1.
        2   -1    0    0  501    0  0.00000000000E+00  0.00000000000E+00 -0.19859582269E+04  0.19859582269E+04  0.25500000920E-02 0. -1.
    10030    2    1    2    0    0  0.00000000000E+00  0.00000000000E+00 -0.53085115177E+03  0.34410653019E+04  0.33998716839E+04 0.  0.
        3    1    3    3  502    0  0.63558821656E+03 -0.67500596671E+03  0.11766807358E+04  0.14980597452E+04  0.10100000352E+00 0.  1.
       -3    1    3    3    0  502 -0.63558821656E+03  0.67500596671E+03 -0.17075318876E+04  0.19430055567E+04  0.10100000352E+00 0. -1.
</event>
<event>
 5   0  0.2599367E-07  0.3447255E+04  0.7818609E-02  0.8126405E-01
       -1   -1    0    0    0  501  0.00000000000E+00  0.00000000000E+00  0.17020388151E+04  0.17020388151E+04  0.50400001928E-02 0. -1.
        1   -1    0    0  501    0  0.00000000000E+00  0.00000000000E+00 -0.17454904092E+04  0.17454904092E+04  0.50400001928E-02 0.  1.
    10030    2    1    2    0    0  0.00000000000E+00  0.00000000000E+00 -0.43451594150E+02  0.34475292243E+04  0.34472553882E+04 0.  0.
        2    1    3    3  502    0  0.12655628892E+04  0.91882309449E+03  0.70290551237E+03  0.17146315828E+04  0.25500000920E-02 0. -1.
       -2    1    3    3    0  502 -0.12655628892E+04 -0.91882309449E+03 -0.74635710652E+03  0.17328976415E+04  0.25500000920E-02 0.  1.
</event>
<event>
 5   0  0.2592200E-07  0.3481479E+04  0.7818609E-02  0.8118193E-01
       -1   -1    0    0    0  501  0.00000000000E+00  0.00000000000E+00  0.11346721092E+04  0.11346721092E+04  0.50400001928E-02 0. -1.
        1   -1    0    0  501    0  0.00000000000E+00  0.00000000000E+00 -0.26705288124E+04  0.26705288124E+04  0.50400001928E-02 0.  1.
    10030    2    1    2    0    0  0.00000000000E+00  0.00000000000E+00 -0.15358567032E+04  0.38052009215E+04  0.34814793178E+04 0.  0.
        4    1    3    3  502    0  0.62847403501E+03  0.13134614683E+04  0.27471890853E+03  0.14817667607E+04  0.12699999809E+01 0. -1.
       -4    1    3    3    0  502 -0.62847403501E+03 -0.13134614683E+04 -0.18105756117E+04  0.23234341609E+04  0.12699999809E+01 0.  1.
</event>
<event>
 5   0  0.2622205E-07  0.3412958E+04  0.7818609E-02  0.8134733E-01
       -1   -1    0    0    0  501  0.00000000000E+00  0.00000000000E+00  0.12810313904E+04  0.12810313904E+04  0.50400001928E-02 0.  1.
        1   -1    0    0  501    0  0.00000000000E+00  0.00000000000E+00 -0.22732238060E+04  0.22732238060E+04  0.50400001928E-02 0. -1.
    10030    2    1    2    0    0  0.00000000000E+00  0.00000000000E+00 -0.99219241564E+03  0.35542551964E+04  0.34129582786E+04 0.  0.
        3    1    3    3  502    0 -0.55704526121E+03  0.36583586318E+03  0.11399085090E+04  0.13204267193E+04  0.10100000352E+00 0.  1.
       -3    1    3    3    0  502  0.55704526121E+03 -0.36583586318E+03 -0.21321009247E+04  0.22338284771E+04  0.10100000352E+00 0. -1.
</event>
<event>
 5   0  0.2592200E-07  0.3409249E+04  0.7818609E-02  0.8135640E-01
       -1   -1    0    0    0  501  0.00000000000E+00  0.00000000000E+00  0.13663074207E+04  0.13663074207E+04  0.50400001928E-02 0.  1.
        1   -1    0    0  501    0  0.00000000000E+00  0.00000000000E+00 -0.21267140188E+04  0.21267140188E+04  0.50400001928E-02 0. -1.
    10030    2    1    2    0    0  0.00000000000E+00  0.00000000000E+00 -0.76040659814E+03  0.34930214395E+04  0.34092492696E+04 0.  0.
        4    1    3    3  502    0 -0.40045145856E+03  0.61556980153E+03 -0.19563321194E+04  0.20896230583E+04  0.12699999809E+01 0. -1.
       -4    1    3    3    0  502  0.40045145856E+03 -0.61556980153E+03  0.11959255213E+04  0.14033983813E+04  0.12699999809E+01 0.  1.
</event>
<event>
 5   0  0.7899402E-07  0.3282885E+04  0.7818609E-02  0.8167264E-01
       -2   -1    0    0    0  501  0.00000000000E+00  0.00000000000E+00  0.18034098488E+04  0.18034098488E+04  0.25500000920E-02 0.  1.
        2   -1    0    0  501    0  0.00000000000E+00  0.00000000000E+00 -0.14940218802E+04  0.14940218802E+04  0.25500000920E-02 0. -1.
    10030    2    1    2    0    0  0.00000000000E+00  0.00000000000E+00  0.30938796858E+03  0.32974317289E+04  0.32828851780E+04 0.  0.
        2    1    3    3  502    0 -0.15279717627E+04  0.30211917701E+02 -0.44689505595E+03  0.15922705985E+04  0.25500000920E-02 0. -1.
       -2    1    3    3    0  502  0.15279717627E+04 -0.30211917701E+02  0.75628302454E+03  0.17051611305E+04  0.25500000920E-02 0.  1.
</event>
<event>
 5   0  0.7822003E-07  0.3365150E+04  0.7818609E-02  0.8146513E-01
       -2   -1    0    0    0  501  0.00000000000E+00  0.00000000000E+00  0.14591592250E+04  0.14591592250E+04  0.25500000920E-02 0. -1.
        2   -1    0    0  501    0  0.00000000000E+00  0.00000000000E+00 -0.19401987750E+04  0.19401987750E+04  0.25500000920E-02 0.  1.
    10030    2    1    2    0    0  0.00000000000E+00  0.00000000000E+00 -0.48103955000E+03  0.33993580001E+04  0.33651501844E+04 0.  0.
        5    1    3    3  502    0  0.22922052012E+03  0.60204645139E+03  0.13296407420E+04  0.14774872484E+04  0.46999998093E+01 0. -1.
       -5    1    3    3    0  502 -0.22922052012E+03 -0.60204645139E+03 -0.18106802920E+04  0.19218707517E+04  0.46999998093E+01 0.  1.
</event>
<event>
 5   0  0.8489228E-07  0.3397340E+04  0.7818609E-02  0.8138559E-01
       -2   -1    0    0    0  501  0.00000000000E+00  0.00000000000E+00  0.23338672090E+04  0.23338672090E+04  0.25500000920E-02 0.  1.
        2   -1    0    0  501    0  0.00000000000E+00  0.00000000000E+00 -0.12363514019E+04  0.12363514019E+04  0.25500000920E-02 0. -1.
    10030    2    1    2    0    0  0.00000000000E+00  0.00000000000E+00  0.10975158071E+04  0.35702186109E+04  0.33973401335E+04 0.  0.
        3    1    3    3  502    0 -0.46825058916E+02 -0.72962915359E+03  0.21600545703E+04  0.22804357138E+04  0.10100000352E+00 0.  1.
       -3    1    3    3    0  502  0.46825058916E+02  0.72962915359E+03 -0.10625387633E+04  0.12897828971E+04  0.10100000352E+00 0. -1.
</event>
<event>
 5   0  0.7822003E-07  0.3401133E+04  0.7818609E-02  0.8137628E-01
       -2   -1    0    0    0  501  0.00000000000E+00  0.00000000000E+00  0.13115770960E+04  0.13115770960E+04  0.25500000920E-02 0. -1.
        2   -1    0    0  501    0  0.00000000000E+00  0.00000000000E+00 -0.22049233722E+04  0.22049233722E+04  0.25500000920E-02 0.  1.
    10030    2    1    2    0    0  0.00000000000E+00  0.00000000000E+00 -0.89334627622E+03  0.35165004682E+04  0.34011333367E+04 0.  0.
        5    1    3    3  502    0 -0.13317901875E+04  0.28571245756E+03  0.60600193612E+03  0.14908243185E+04  0.46999998093E+01 0. -1.
       -5    1    3    3    0  502  0.13317901875E+04 -0.28571245756E+03 -0.14993482123E+04  0.20256761498E+04  0.46999998093E+01 0.  1.
</event>
<event>
 5   0  0.2592200E-07  0.3403640E+04  0.7818609E-02  0.8137014E-01
       -1   -1    0    0    0  501  0.00000000000E+00  0.00000000000E+00  0.13343700765E+04  0.13343700765E+04  0.50400001928E-02 0. -1.
        1   -1    0    0  501    0  0.00000000000E+00  0.00000000000E+00 -0.21704554579E+04  0.21704554579E+04  0.50400001928E-02 0.  1.
    10030    2    1    2    0    0  0.00000000000E+00  0.00000000000E+00 -0.83608538137E+03  0.35048255344E+04  0.34036397080E+04 0.  0.
        4    1    3    3  502    0  0.19248496415E+03 -0.14826652038E+04 -0.12551321042E+04  0.19521026561E+04  0.12699999809E+01 0.  1.
       -4    1    3    3    0  502 -0.19248496415E+03  0.14826652038E+04  0.41904672282E+03  0.15527228783E+04  0.12699999809E+01 0. -1.
</event>
<event>
 5   0  0.2553250E-07  0.3073005E+04  0.7818609E-02  0.8223186E-01
        1   -1    0    0  501    0  0.00000000000E+00  0.00000000000E+00  0.20942159313E+04  0.20942159314E+04  0.50400001928E-02 0. -1.
       -1   -1    0    0    0  501  0.00000000000E+00  0.00000000000E+00 -0.11273147958E+04  0.11273147958E+04  0.50400001928E-02 0.  1.
    10030    2    1    2    0    0  0.00000000000E+00  0.00000000000E+00  0.96690113557E+03  0.32215307271E+04  0.30730054377E+04 0.  0.
        5    1    3    3  502    0  0.37599841194E+03  0.13972799699E+04  0.10251984070E+04  0.17733640302E+04  0.46999998093E+01 0. -1.
       -5    1    3    3    0  502 -0.37599841194E+03 -0.13972799699E+04 -0.58297271398E+02  0.14481666969E+04  0.46999998093E+01 0.  1.
</event>
<event>
 5   0  0.2622205E-07  0.3407260E+04  0.7818609E-02  0.8136127E-01
       -1   -1    0    0    0  501  0.00000000000E+00  0.00000000000E+00  0.23141121729E+04  0.23141121729E+04  0.50400001928E-02 0.  1.
        1   -1    0    0  501    0  0.00000000000E+00  0.00000000000E+00 -0.12541978430E+04  0.12541978430E+04  0.50400001928E-02 0. -1.
    10030    2    1    2    0    0  0.00000000000E+00  0.00000000000E+00  0.10599143300E+04  0.35683100159E+04  0.34072596001E+04 0.  0.
        3    1    3    3  502    0  0.95056200663E+02 -0.65282489831E+03 -0.11149981942E+04  0.12955450638E+04  0.10100000352E+00 0. -1.
       -3    1    3    3    0  502 -0.95056200663E+02  0.65282489831E+03  0.21749125242E+04  0.22727649520E+04  0.10100000352E+00 0.  1.
</event>
<event>
 5   0  0.2553250E-07  0.3384535E+04  0.7818609E-02  0.8141712E-01
       -1   -1    0    0    0  501  0.00000000000E+00  0.00000000000E+00  0.17217105684E+04  0.17217105684E+04  0.50400001928E-02 0.  1.
        1   -1    0    0  501    0  0.00000000000E+00  0.00000000000E+00 -0.16633283119E+04  0.16633283119E+04  0.50400001928E-02 0. -1.
    10030    2    1    2    0    0  0.00000000000E+00  0.00000000000E+00  0.58382256552E+02  0.33850388803E+04  0.33845353793E+04 0.  0.
        5    1    3    3  502    0  0.14638685133E+03  0.22695578393E+03 -0.16416290948E+04  0.16637025614E+04  0.46999998093E+01 0. -1.
       -5    1    3    3    0  502 -0.14638685133E+03 -0.22695578393E+03  0.17000113513E+04  0.17213363189E+04  0.46999998093E+01 0.  1.
</event>
<event>
 5   0  0.7899402E-07  0.3357059E+04  0.7818609E-02  0.8148527E-01
       -2   -1    0    0    0  501  0.00000000000E+00  0.00000000000E+00  0.10758897556E+04  0.10758897556E+04  0.25500000920E-02 0.  1.
        2   -1    0    0  501    0  0.00000000000E+00  0.00000000000E+00 -0.26187271259E+04  0.26187271259E+04  0.25500000920E-02 0. -1.
    10030    2    1    2    0    0  0.00000000000E+00  0.00000000000E+00 -0.15428373703E+04  0.36946168815E+04  0.33570592413E+04 0.  0.
        2    1    3    3  502    0 -0.14078230621E+04 -0.90448503169E+03 -0.91660284324E+03  0.19079359839E+04  0.25500000920E-02 0. -1.
       -2    1    3    3    0  502  0.14078230621E+04  0.90448503169E+03 -0.62623452708E+03  0.17866808975E+04  0.25500000920E-02 0.  1.
</event>
<event>
 5   0  0.8489228E-07  0.3402107E+04  0.7818609E-02  0.8137389E-01
        2   -1    0    0  501    0  0.00000000000E+00  0.00000000000E+00  0.21244700964E+04  0.21244700964E+04  0.25500000920E-02 0.  1.
       -2   -1    0    0    0  501  0.00000000000E+00  0.00000000000E+00 -0.13620261220E+04  0.13620261220E+04  0.25500000920E-02 0. -1.
    10030    2    1    2    0    0  0.00000000000E+00  0.00000000000E+00  0.76244397441E+03  0.34864962185E+04  0.34021074450E+04 0.  0.
        3    1    3    3  502    0  0.10507327107E+04  0.95916230561E+03 -0.57440631163E+03  0.15342666584E+04  0.10100000352E+00 0.  1.
       -3    1    3    3    0  502 -0.10507327107E+04 -0.95916230561E+03  0.13368502860E+04  0.19522295601E+04  0.10100000352E+00 0. -1.
</event>
<event>
 5   0  0.8489228E-07  0.3370443E+04  0.7818609E-02  0.8145199E-01
        2   -1    0    0  501    0  0.00000000000E+00  0.00000000000E+00  0.20444671467E+04  0.20444671467E+04  0.25500000920E-02 0.  1.
       -2   -1    0    0    0  501  0.00000000000E+00  0.00000000000E+00 -0.13891014554E+04  0.13891014554E+04  0.25500000920E-02 0. -1.
    10030    2    1    2    0    0  0.00000000000E+00  0.00000000000E+00  0.65536569135E+03  0.34335686021E+04  0.33704434658E+04 0.  0.
        3    1    3    3  502    0 -0.75968071580E+03  0.21159605142E+03 -0.11895342770E+04  0.14271928690E+04  0.10100000352E+00 0. -1.
       -3    1    3    3    0  502  0.75968071580E+03 -0.21159605142E+03  0.18448999684E+04  0.20063757331E+04  0.10100000352E+00 0.  1.
</event>
<event>
 5   0  0.2599367E-07  0.3394616E+04  0.7818609E-02  0.8139229E-01
       -1   -1    0    0    0  501  0.00000000000E+00  0.00000000000E+00  0.11653955928E+04  0.11653955928E+04  0.50400001928E-02 0. -1.
        1   -1    0    0  501    0  0.00000000000E+00  0.00000000000E+00 -0.24719964985E+04  0.24719964986E+04  0.50400001928E-02 0.  1.
    10030    2    1    2    0    0  0.00000000000E+00  0.00000000000E+00 -0.13066009057E+04  0.36373920914E+04  0.33946156336E+04 0.  0.
        2    1    3    3  502    0  0.84984858875E+03 -0.16183954601E+03  0.91141654161E+03  0.12566283360E+04  0.25500000920E-02 0. -1.
       -2    1    3    3    0  502 -0.84984858875E+03  0.16183954601E+03 -0.22180174473E+04  0.23807637554E+04  0.25500000920E-02 0.  1.
</event>
<event>
 5   0  0.7610412E-07  0.3355862E+04  0.7818609E-02  0.8148825E-01
        2   -1    0    0  501    0  0.00000000000E+00  0.00000000000E+00  0.21614370363E+04  0.21614370363E+04  0.25500000920E-02 0. -1.
       -2   -1    0    0    0  501  0.00000000000E+00  0.00000000000E+00 -0.13025832669E+04  0.13025832669E+04  0.25500000920E-02 0.  1.
    10030    2    1    2    0    0  0.00000000000E+00  0.00000000000E+00  0.85885376939E+03  0.34640203031E+04  0.33558615680E+04 0.  0.
        4    1    3    3  502    0  0.15198488472E+04 -0.38561642610E+03  0.10460142626E+04  0.18848840805E+04  0.12699999809E+01 0. -1.
       -4    1    3    3    0  502 -0.15198488472E+04  0.38561642610E+03 -0.18716049323E+03  0.15791362226E+04  0.12699999809E+01 0.  1.
</event>
<event>
 5   0  0.8489228E-07  0.3459682E+04  0.7818609E-02  0.8123412E-01
        2   -1    0    0  501    0  0.00000000000E+00  0.00000000000E+00  0.19796639519E+04  0.19796639519E+04  0.25500000920E-02 0.  1.
       -2   -1    0    0    0  501  0.00000000000E+00  0.00000000000E+00 -0.15115446445E+04  0.15115446445E+04  0.25500000920E-02 0. -1.
    10030    2    1    2    0    0  0.00000000000E+00  0.00000000000E+00  0.46811930741E+03  0.34912085965E+04  0.34596823233E+04 0.  0.
        3    1    3    3  502    0 -0.10125417892E+04 -0.54658644550E+03  0.15374770863E+04  0.19203732497E+04  0.10100000352E+00 0.  1.
       -3    1    3    3    0  502  0.10125417892E+04  0.54658644550E+03 -0.10693577788E+04  0.15708353468E+04  0.10100000352E+00 0. -1.
</event>
<event>
 5   0  0.8489228E-07  0.3417618E+04  0.7818609E-02  0.8133596E-01
       -2   -1    0    0    0  501  0.00000000000E+00  0.00000000000E+00  0.13598284197E+04  0.13598284197E+04  0.25500000920E-02 0. -1.
        2   -1    0    0  501    0  0.00000000000E+00  0.00000000000E+00 -0.21473506111E+04  0.21473506111E+04  0.25500000920E-02 0.  1.
    10030    2    1    2    0    0  0.00000000000E+00  0.00000000000E+00 -0.78752219137E+03  0.35071790309E+04  0.34176181110E+04 0.  0.
        3    1    3    3  502    0  0.11828685518E+04 -0.44279397379E+03 -0.15749161651E+04  0.20188128817E+04  0.10100000352E+00 0.  1.
       -3    1    3    3    0  502 -0.11828685518E+04  0.44279397379E+03  0.78739397372E+03  0.14883661492E+04  0.10100000352E+00 0. -1.
</event>
<event>
 5   0  0.8489228E-07  0.3394659E+04  0.7818609E-02  0.8139218E-01
        2   -1    0    0  501    0  0.00000000000E+00  0.00000000000E+00  0.85773695847E+03  0.85773695848E+03  0.25500000920E-02 0. -1.
       -2   -1    0    0    0  501  0.00000000000E+00  0.00000000000E+00 -0.33587535214E+04  0.33587535214E+04  0.25500000920E-02 0.  1.
    10030    2    1    2    0    0  0.00000000000E+00  0.00000000000E+00 -0.25010165629E+04  0.42164904799E+04  0.33946587633E+04 0.  0.
        3    1    3    3  502    0  0.13585393084E+03 -0.16596162652E+04 -0.16589756630E+04  0.23505281744E+04  0.10100000352E+00 0. -1.
       -3    1    3    3    0  502 -0.13585393084E+03  0.16596162652E+04 -0.84204089992E+03  0.18659623055E+04  0.10100000352E+00 0.  1.
</event>
<event>
 5   0  0.7822003E-07  0.3425949E+04  0.7818609E-02  0.8131567E-01
       -2   -1    0    0    0  501  0.00000000000E+00  0.00000000000E+00  0.13587936400E+04  0.13587936400E+04  0.25500000920E-02 0.  1.
        2   -1    0    0  501    0  0.00000000000E+00  0.00000000000E+00 -0.21594756440E+04  0.21594756440E+04  0.25500000920E-02 0. -1.
    10030    2    1    2    0    0  0.00000000000E+00  0.00000000000E+00 -0.80068200397E+03  0.35182692840E+04  0.34259490777E+04 0.  0.
        5    1    3    3  502    0 -0.15782396218E+04 -0.26535367857E+03 -0.10275417233E+04  0.19018719625E+04  0.46999998093E+01 0. -1.
       -5    1    3    3    0  502  0.15782396218E+04  0.26535367857E+03  0.22685971933E+03  0.16163973215E+04  0.46999998093E+01 0.  1.
</event>
<event>
 5   0  0.2622205E-07  0.3341854E+04  0.7818609E-02  0.8152326E-01
       -1   -1    0    0    0  501  0.00000000000E+00  0.00000000000E+00  0.13877372446E+04  0.13877372446E+04  0.50400001928E-02 0. -1.
        1   -1    0    0  501    0  0.00000000000E+00  0.00000000000E+00 -0.20119066775E+04  0.20119066775E+04  0.50400001928E-02 0.  1.
    10030    2    1    2    0    0  0.00000000000E+00  0.00000000000E+00 -0.62416943289E+03  0.33996439220E+04  0.33418544725E+04 0.  0.
        3    1    3    3  502    0 -0.91697926357E+02  0.98021873932E+03  0.10613584912E+04  0.14476598853E+04  0.10100000352E+00 0. -1.
       -3    1    3    3    0  502  0.91697926357E+02 -0.98021873932E+03 -0.16855279241E+04  0.19519840367E+04  0.10100000352E+00 0.  1.
</event>
<event>
 5   0  0.2599367E-07  0.3102708E+04  0.7818609E-02  0.8214995E-01
        1   -1    0    0  501    0  0.00000000000E+00  0.00000000000E+00  0.24527877142E+04  0.24527877142E+04  0.50400001928E-02 0.  1.
       -1   -1    0    0    0  501  0.00000000000E+00  0.00000000000E+00 -0.98120989710E+03  0.98120989711E+03  0.50400001928E-02 0. -1.
    10030    2    1    2    0    0  0.00000000000E+00  0.00000000000E+00  0.14715778171E+04  0.34339976113E+04  0.31027082239E+04 0.  0.
        2    1    3    3  502    0 -0.66812885272E+02  0.15483495804E+04  0.81286042830E+03  0.17500264171E+04  0.25500000920E-02 0.  1.
       -2    1    3    3    0  502  0.66812885272E+02 -0.15483495804E+04  0.65871738879E+03  0.16839711942E+04  0.25500000920E-02 0. -1.
</event>
<event>
 5   0  0.2592200E-07  0.3400328E+04  0.7818609E-02  0.8137826E-01
        1   -1    0    0  501    0  0.00000000000E+00  0.00000000000E+00  0.32911888295E+04  0.32911888296E+04  0.50400001928E-02 0.  1.
       -1   -1    0    0    0  501  0.00000000000E+00  0.00000000000E+00 -0.87827151623E+03  0.87827151624E+03  0.50400001928E-02 0. -1.
    10030    2    1    2    0    0  0.00000000000E+00  0.00000000000E+00  0.24129173133E+04  0.41694603458E+04  0.34003278686E+04 0.  0.
        4    1    3    3  502    0 -0.14904230171E+04  0.66007974595E+03  0.61395237010E+03  0.17418395927E+04  0.12699999809E+01 0. -1.
       -4    1    3    3    0  502  0.14904230171E+04 -0.66007974595E+03  0.17989649432E+04  0.24276207531E+04  0.12699999809E+01 0.  1.
</event>
<event>
 5   0  0.8489228E-07  0.3393799E+04  0.7818609E-02  0.8139430E-01
       -2   -1    0    0    0  501  0.00000000000E+00  0.00000000000E+00  0.13116352960E+04  0.13116352960E+04  0.25500000920E-02 0. -1.
        2   -1    0    0  501    0  0.00000000000E+00  0.00000000000E+00 -0.21953270989E+04  0.21953270989E+04  0.25500000920E-02 0.  1.
    10030    2    1    2    0    0  0.00000000000E+00  0.00000000000E+00 -0.88369180296E+03  0.35069623949E+04  0.33937993512E+04 0.  0.
        3    1    3    3  502    0  0.11681730408E+04 -0.30130028158E+03  0.79128404436E+03  0.14427545051E+04  0.10100000352E+00 0. -1.
       -3    1    3    3    0  502 -0.11681730408E+04  0.30130028158E+03 -0.16749758473E+04  0.20642078898E+04  0.10100000352E+00 0.  1.
</event>
<event>
 5   0  0.8489228E-07  0.3386393E+04  0.7818609E-02  0.8141254E-01
        2   -1    0    0  501    0  0.00000000000E+00  0.00000000000E+00  0.21279853232E+04  0.21279853232E+04  0.25500000920E-02 0. -1.
       -2   -1    0    0    0  501  0.00000000000E+00  0.00000000000E+00 -0.13472437652E+04  0.13472437652E+04  0.25500000920E-02 0.  1.
    10030    2    1    2    0    0  0.00000000000E+00  0.00000000000E+00  0.78074155798E+03  0.34752290885E+04  0.33863933376E+04 0.  0.
        3    1    3    3  502    0  0.52027691658E+03  0.10618343026E+04  0.16340767782E+04  0.20170243140E+04  0.10100000352E+00 0. -1.
       -3    1    3    3    0  502 -0.52027691658E+03 -0.10618343026E+04 -0.85333522021E+03  0.14582047745E+04  0.10100000352E+00 0.  1.
</event>
<event>
 5   0  0.7838333E-07  0.3385276E+04  0.7818609E-02  0.8141529E-01
       -2   -1    0    0    0  501  0.00000000000E+00  0.00000000000E+00  0.18236478427E+04  0.18236478427E+04  0.25500000920E-02 0.  1.
        2   -1    0    0  501    0  0.00000000000E+00  0.00000000000E+00 -0.15710400989E+04  0.15710400989E+04  0.25500000920E-02 0. -1.
    10030    2    1    2    0    0  0.00000000000E+00  0.00000000000E+00  0.25260774387E+03  0.33946879416E+04  0.33852762884E+04 0.  0.
        1    1    3    3  502    0  0.81400930227E+03  0.93864476206E+03  0.12790033897E+04  0.17831194028E+04  0.50400001928E-02 0.  1.
       -1    1    3    3    0  502 -0.81400930227E+03 -0.93864476206E+03 -0.10263956459E+04  0.16115685388E+04  0.50400001928E-02 0. -1.
</event>
<event>
 5   0  0.2641442E-07  0.3378823E+04  0.7818609E-02  0.8143124E-01
       -1   -1    0    0    0  501  0.00000000000E+00  0.00000000000E+00  0.19329461955E+04  0.19329461955E+04  0.50400001928E-02 0. -1.
        1   -1    0    0  501    0  0.00000000000E+00  0.00000000000E+00 -0.14765598220E+04  0.14765598220E+04  0.50400001928E-02 0.  1.
    10030    2    1    2    0    0  0.00000000000E+00  0.00000000000E+00  0.45638637344E+03  0.34095060175E+04  0.33788226887E+04 0.  0.
        1    1    3    3  502    0  0.12318588330E+04 -0.93425051111E+03 -0.45902768680E+03  0.16127636588E+04  0.50400001928E-02 0.  1.
       -1    1    3    3    0  502 -0.12318588330E+04  0.93425051111E+03  0.91541406024E+03  0.17967423587E+04  0.50400001928E-02 0. -1.
</event>
<event>
 5   0  0.7899402E-07  0.3403332E+04  0.7818609E-02  0.8137089E-01
        2   -1    0    0  501    0  0.00000000000E+00  0.00000000000E+00  0.12904516418E+04  0.12904516418E+04  0.25500000920E-02 0. -1.
       -2   -1    0    0    0  501  0.00000000000E+00  0.00000000000E+00 -0.22439172813E+04  0.22439172813E+04  0.25500000920E-02 0.  1.
    10030    2    1    2    0    0  0.00000000000E+00  0.00000000000E+00 -0.95346563945E+03  0.35343689231E+04  0.34033317439E+04 0.  0.
        2    1    3    3  502    0 -0.12844454734E+04 -0.60101885125E+03  0.50003556657E+03  0.15036819483E+04  0.25500000920E-02 0. -1.
       -2    1    3    3    0  502  0.12844454734E+04  0.60101885125E+03 -0.14535012060E+04  0.20306869748E+04  0.25500000920E-02 0.  1.
</event>
<event>
 5   0  0.8489228E-07  0.3429581E+04  0.7818609E-02  0.8130684E-01
       -2   -1    0    0    0  501  0.00000000000E+00  0.00000000000E+00  0.12185180253E+04  0.12185180253E+04  0.25500000920E-02 0. -1.
        2   -1    0    0  501    0  0.00000000000E+00  0.00000000000E+00 -0.24131828183E+04  0.24131828183E+04  0.25500000920E-02 0.  1.
    10030    2    1    2    0    0  0.00000000000E+00  0.00000000000E+00 -0.11946647930E+04  0.36317008436E+04  0.34295811770E+04 0.  0.
        3    1    3    3  502    0  0.16964477048E+03  0.14853982819E+04 -0.14866602178E+04  0.21083989227E+04  0.10100000352E+00 0.  1.
       -3    1    3    3    0  502 -0.16964477048E+03 -0.14853982819E+04  0.29199542480E+03  0.15233019209E+04  0.10100000352E+00 0. -1.
</event>
<event>
 5   0  0.2641442E-07  0.3410039E+04  0.7818609E-02  0.8135447E-01
        1   -1    0    0  501    0  0.00000000000E+00  0.00000000000E+00  0.12523794334E+04  0.12523794334E+04  0.50400001928E-02 0.  1.
       -1   -1    0    0    0  501  0.00000000000E+00  0.00000000000E+00 -0.23212551284E+04  0.23212551285E+04  0.50400001928E-02 0. -1.
    10030    2    1    2    0    0  0.00000000000E+00  0.00000000000E+00 -0.10688756951E+04  0.35736345619E+04  0.34100394030E+04 0.  0.
        1    1    3    3  502    0  0.91956225383E+03  0.13339959565E+04  0.22027994423E+02  0.16203780988E+04  0.50400001928E-02 0.  1.
       -1    1    3    3    0  502 -0.91956225383E+03 -0.13339959565E+04 -0.10909036895E+04  0.19532564630E+04  0.50400001928E-02 0. -1.
</event>
<event>
 5   0  0.7610412E-07  0.3378665E+04  0.7818609E-02  0.8143163E-01
        2   -1    0    0  501    0  0.00000000000E+00  0.00000000000E+00  0.18436959675E+04  0.18436959675E+04  0.25500000920E-02 0. -1.
       -2   -1    0    0    0  501  0.00000000000E+00  0.00000000000E+00 -0.15478926933E+04  0.15478926933E+04  0.25500000920E-02 0.  1.
    10030    2    1    2    0    0  0.00000000000E+00  0.00000000000E+00  0.29580327418E+03  0.33915886608E+04  0.33786645390E+04 0.  0.
        4    1    3    3  502    0 -0.37674186504E+03  0.54646492697E+01 -0.15051755919E+04  0.15516183392E+04  0.12699999809E+01 0.  1.
       -4    1    3    3    0  502  0.37674186504E+03 -0.54646492697E+01  0.18009788661E+04  0.18399703216E+04  0.12699999809E+01 0. -1.
</event>
<event>
 5   0  0.2553250E-07  0.3357215E+04  0.7818609E-02  0.8148488E-01
       -1   -1    0    0    0  501  0.00000000000E+00  0.00000000000E+00  0.16488683266E+04  0.16488683266E+04  0.50400001928E-02 0.  1.
        1   -1    0    0  501    0  0.00000000000E+00  0.00000000000E+00 -0.17088826850E+04  0.17088826850E+04  0.50400001928E-02 0. -1.
    10030    2    1    2    0    0  0.00000000000E+00  0.00000000000E+00 -0.60014358341E+02  0.33577510116E+04  0.33572146391E+04 0.  0.
        5    1    3    3  502    0  0.24423272419E+03  0.16256294860E+04 -0.36973716668E+03  0.16849476288E+04  0.46999998093E+01 0. -1.
       -5    1    3    3    0  502 -0.24423272419E+03 -0.16256294860E+04  0.30972280834E+03  0.16728033828E+04  0.46999998093E+01 0.  1.
</event>
<event>
 5   0  0.7822003E-07  0.3487285E+04  0.7818609E-02  0.8116810E-01
       -2   -1    0    0    0  501  0.00000000000E+00  0.00000000000E+00  0.17558157227E+04  0.17558157227E+04  0.25500000920E-02 0.  1.
        2   -1    0    0  501    0  0.00000000000E+00  0.00000000000E+00 -0.17315537342E+04  0.17315537342E+04  0.25500000920E-02 0. -1.
    10030    2    1    2    0    0  0.00000000000E+00  0.00000000000E+00  0.24261988482E+02  0.34873694568E+04  0.34872850593E+04 0.  0.
        5    1    3    3  502    0  0.74134614830E+03  0.12695322705E+04 -0.92542083295E+03  0.17371620838E+04  0.46999998093E+01 0. -1.
       -5    1    3    3    0  502 -0.74134614830E+03 -0.12695322705E+04  0.94968282143E+03  0.17502073730E+04  0.46999998093E+01 0.  1.
</event>
<event>
 5   0  0.7610412E-07  0.3439148E+04  0.7818609E-02  0.8128364E-01
        2   -1    0    0  501    0  0.00000000000E+00  0.00000000000E+00  0.28596093763E+04  0.28596093763E+04  0.25500000920E-02 0.  1.
       -2   -1    0    0    0  501  0.00000000000E+00  0.00000000000E+00 -0.10340345653E+04  0.10340345653E+04  0.25500000920E-02 0. -1.
    10030    2    1    2    0    0  0.00000000000E+00  0.00000000000E+00  0.18255748110E+04  0.38936439416E+04  0.34391481145E+04 0.  0.
        4    1    3    3  502    0 -0.93083215202E+03  0.11655568016E+00  0.25497127134E+04  0.27143111543E+04  0.12699999809E+01 0.  1.
       -4    1    3    3    0  502  0.93083215202E+03 -0.11655568016E+00 -0.72413790234E+03  0.11793327874E+04  0.12699999809E+01 0. -1.
</event>
<event>
 5   0  0.8489228E-07  0.3402902E+04  0.7818609E-02  0.8137194E-01
       -2   -1    0    0    0  501  0.00000000000E+00  0.00000000000E+00  0.15578882022E+04  0.15578882022E+04  0.25500000920E-02 0.  1.
        2   -1    0    0  501    0  0.00000000000E+00  0.00000000000E+00 -0.18582436554E+04  0.18582436554E+04  0.25500000920E-02 0. -1.
    10030    2    1    2    0    0  0.00000000000E+00  0.00000000000E+00 -0.30035545318E+03  0.34161318576E+04  0.34029022129E+04 0.  0.
        3    1    3    3  502    0 -0.14361949273E+04  0.28107295240E+03 -0.10214678547E+04  0.17846720881E+04  0.10100000352E+00 0. -1.
       -3    1    3    3    0  502  0.14361949273E+04 -0.28107295240E+03  0.72111240152E+03  0.16314597695E+04  0.10100000352E+00 0.  1.
</event>
<event>
 5   0  0.8489228E-07  0.3324202E+04  0.7818609E-02  0.8156764E-01
        2   -1    0    0  501    0  0.00000000000E+00  0.00000000000E+00  0.20699908310E+04  0.20699908310E+04  0.25500000920E-02 0.  1.
       -2   -1    0    0    0  501  0.00000000000E+00  0.00000000000E+00 -0.13345852079E+04  0.13345852079E+04  0.25500000920E-02 0. -1.
    10030    2    1    2    0    0  0.00000000000E+00  0.00000000000E+00  0.73540562310E+03  0.34045760388E+04  0.33242016446E+04 0.  0.
        3    1    3    3  502    0  0.60597098213E+03 -0.28048962078E+03 -0.11911709269E+04  0.13655634170E+04  0.10100000352E+00 0. -1.
       -3    1    3    3    0  502 -0.60597098213E+03  0.28048962078E+03  0.19265765500E+04  0.20390126218E+04  0.10100000352E+00 0.  1.
</event>
<event>
 5   0  0.7610412E-07  0.3437678E+04  0.7818609E-02  0.8128720E-01
        2   -1    0    0  501    0  0.00000000000E+00  0.00000000000E+00  0.21755085020E+04  0.21755085020E+04  0.25500000920E-02 0. -1.
       -2   -1    0    0    0  501  0.00000000000E+00  0.00000000000E+00 -0.13580309366E+04  0.13580309366E+04  0.25500000920E-02 0.  1.
    10030    2    1    2    0    0  0.00000000000E+00  0.00000000000E+00  0.81747756540E+03  0.35335394385E+04  0.34376781981E+04 0.  0.
        4    1    3    3  502    0 -0.76211793655E+02  0.14658120500E+04  0.13281034842E+04  0.19794629780E+04  0.12699999809E+01 0. -1.
       -4    1    3    3    0  502  0.76211793655E+02 -0.14658120500E+04 -0.51062591881E+03  0.15540764606E+04  0.12699999809E+01 0.  1.
</event>
<event>
 5   0  0.8489228E-07  0.3380233E+04  0.7818609E-02  0.8142775E-01
       -2   -1    0    0    0  501  0.00000000000E+00  0.00000000000E+00  0.20658784991E+04  0.20658784991E+04  0.25500000920E-02 0.  1.
        2   -1    0    0  501    0  0.00000000000E+00  0.00000000000E+00 -0.13827017672E+04  0.13827017672E+04  0.25500000920E-02 0. -1.
    10030    2    1    2    0    0  0.00000000000E+00  0.00000000000E+00  0.68317673188E+03  0.34485802663E+04  0.33802330402E+04 0.  0.
        3    1    3    3  502    0  0.13593053727E+04  0.97099082547E+03  0.60360724100E+03  0.17761970586E+04  0.10100000352E+00 0. -1.
       -3    1    3    3    0  502 -0.13593053727E+04 -0.97099082547E+03  0.79569490878E+02  0.16723832077E+04  0.10100000352E+00 0.  1.
</event>
<event>
 5   0  0.2553250E-07  0.3398832E+04  0.7818609E-02  0.8138193E-01
       -1   -1    0    0    0  501  0.00000000000E+00  0.00000000000E+00  0.10190754899E+04  0.10190754899E+04  0.50400001928E-02 0. -1.
        1   -1    0    0  501    0  0.00000000000E+00  0.00000000000E+00 -0.28339560834E+04  0.28339560834E+04  0.50400001928E-02 0.  1.
    10030    2    1    2    0    0  0.00000000000E+00  0.00000000000E+00 -0.18148805936E+04  0.38530315733E+04  0.33988322606E+04 0.  0.
        5    1    3    3  502    0 -0.91484928863E+03 -0.94032747761E+03 -0.21319896047E+04  0.25033111574E+04  0.46999998093E+01 0.  1.
       -5    1    3    3    0  502  0.91484928863E+03  0.94032747761E+03  0.31710901119E+03  0.13497204159E+04  0.46999998093E+01 0. -1.
</event>
<event>
 5   0  0.7838333E-07  0.3392842E+04  0.7818609E-02  0.8139665E-01
        2   -1    0    0  501    0  0.00000000000E+00  0.00000000000E+00  0.16998297874E+04  0.16998297874E+04  0.25500000920E-02 0.  1.
       -2   -1    0    0    0  501  0.00000000000E+00  0.00000000000E+00 -0.16930193626E+04  0.16930193626E+04  0.25500000920E-02 0. -1.
    10030    2    1    2    0    0  0.00000000000E+00  0.00000000000E+00  0.68104247951E+01  0.33928491501E+04  0.33928423148E+04 0.  0.
        1    1    3    3  502    0 -0.78173775961E+03  0.52403889700E+03  0.14148307611E+04  0.16992577124E+04  0.50400001928E-02 0.  1.
       -1    1    3    3    0  502  0.78173775961E+03 -0.52403889700E+03 -0.14080203363E+04  0.16935914377E+04  0.50400001928E-02 0. -1.
</event>
<event>
 5   0  0.2622205E-07  0.3407901E+04  0.7818609E-02  0.8135970E-01
       -1   -1    0    0    0  501  0.00000000000E+00  0.00000000000E+00  0.15153098198E+04  0.15153098198E+04  0.50400001928E-02 0. -1.
        1   -1    0    0  501    0  0.00000000000E+00  0.00000000000E+00 -0.19160751858E+04  0.19160751858E+04  0.50400001928E-02 0.  1.
    10030    2    1    2    0    0  0.00000000000E+00  0.00000000000E+00 -0.40076536599E+03  0.34313850057E+04  0.34079011398E+04 0.  0.
        3    1    3    3  502    0 -0.10204856241E+04  0.52744615901E+03  0.10668036187E+04  0.15676926774E+04  0.10100000352E+00 0. -1.
       -3    1    3    3    0  502  0.10204856241E+04 -0.52744615901E+03 -0.14675689846E+04  0.18636923283E+04  0.10100000352E+00 0.  1.
</event>
<event>
 5   0  0.7610412E-07  0.3440821E+04  0.7818609E-02  0.8127960E-01
        2   -1    0    0  501    0  0.00000000000E+00  0.00000000000E+00  0.20939134478E+04  0.20939134478E+04  0.25500000920E-02 0.  1.
       -2   -1    0    0    0  501  0.00000000000E+00  0.00000000000E+00 -0.14135311414E+04  0.14135311414E+04  0.25500000920E-02 0. -1.
    10030    2    1    2    0    0  0.00000000000E+00  0.00000000000E+00  0.68038230646E+03  0.35074445892E+04  0.34408207543E+04 0.  0.
        4    1    3    3  502    0  0.16075178910E+03  0.54829765166E+03  0.19943687654E+04  0.20746035375E+04  0.12699999809E+01 0.  1.
       -4    1    3    3    0  502 -0.16075178910E+03 -0.54829765166E+03 -0.13139864589E+04  0.14328410517E+04  0.12699999809E+01 0. -1.
</event>
<event>
 5   0  0.7610412E-07  0.3400287E+04  0.7818609E-02  0.8137836E-01
       -2   -1    0    0    0  501  0.00000000000E+00  0.00000000000E+00  0.21610070641E+04  0.21610070641E+04  0.25500000920E-02 0.  1.
        2   -1    0    0  501    0  0.00000000000E+00  0.00000000000E+00 -0.13375656251E+04  0.13375656251E+04  0.25500000920E-02 0. -1.
    10030    2    1    2    0    0  0.00000000000E+00  0.00000000000E+00  0.82344143908E+03  0.34985726892E+04  0.34002874964E+04 0.  0.
        4    1    3    3  502    0 -0.57073843677E+03  0.90960029872E+03  0.17679142952E+04  0.20684867983E+04  0.12699999809E+01 0.  1.
       -4    1    3    3    0  502  0.57073843677E+03 -0.90960029872E+03 -0.94447285610E+03  0.14300858909E+04  0.12699999809E+01 0. -1.
</event>
<event>
 5   0  0.2553250E-07  0.3439285E+04  0.7818609E-02  0.8128331E-01
       -3   -1    0    0    0  501  0.00000000000E+00  0.00000000000E+00  0.19862046284E+04  0.19862046310E+04  0.10100000352E+00 0. -1.
        3   -1    0    0  501    0  0.00000000000E+00  0.00000000000E+00 -0.14888549405E+04  0.14888549439E+04  0.10100000352E+00 0.  1.
    10030    2    1    2    0    0  0.00000000000E+00  0.00000000000E+00  0.49734968792E+03  0.34750595749E+04  0.34392851491E+04 0.  0.
        5    1    3    3  502    0  0.54585267059E+01  0.39792411483E+03 -0.14416807316E+04  0.14956065053E+04  0.46999998093E+01 0.  1.
       -5    1    3    3    0  502 -0.54585267059E+01 -0.39792411483E+03  0.19390304196E+04  0.19794530696E+04  0.46999998093E+01 0. -1.
</event>
<event>
 5   0  0.7610412E-07  0.3388826E+04  0.7818609E-02  0.8140654E-01
       -2   -1    0    0    0  501  0.00000000000E+00  0.00000000000E+00  0.20086381348E+04  0.20086381348E+04  0.25500000920E-02 0. -1.
        2   -1    0    0  501    0  0.00000000000E+00  0.00000000000E+00 -0.14293441413E+04  0.14293441413E+04  0.25500000920E-02 0.  1.
    10030    2    1    2    0    0  0.00000000000E+00  0.00000000000E+00  0.57929399348E+03  0.34379822761E+04  0.33888258438E+04 0.  0.
        4    1    3    3  502    0  0.62148408968E+03  0.13653585174E+04  0.10888475642E+04  0.18536550342E+04  0.12699999809E+01 0. -1.
       -4    1    3    3    0  502 -0.62148408968E+03 -0.13653585174E+04 -0.50955357077E+03  0.15843272418E+04  0.12699999809E+01 0.  1.
</event>
<event>
 5   0  0.7838333E-07  0.3376388E+04  0.7818609E-02  0.8143726E-01
        2   -1    0    0  501    0  0.00000000000E+00  0.00000000000E+00  0.14853292857E+04  0.14853292857E+04  0.25500000920E-02 0. -1.
       -2   -1    0    0    0  501  0.00000000000E+00  0.00000000000E+00 -0.19187661591E+04  0.19187661591E+04  0.25500000920E-02 0.  1.
    10030    2    1    2    0    0  0.00000000000E+00  0.00000000000E+00 -0.43343687344E+03  0.34040954448E+04  0.33763883476E+04 0.  0.
        1    1    3    3  502    0  0.15810331339E+02  0.16758279351E+04 -0.11701922247E+02  0.16759433671E+04  0.50400001928E-02 0. -1.
       -1    1    3    3    0  502 -0.15810331339E+02 -0.16758279351E+04 -0.42173495119E+03  0.17281520777E+04  0.50400001928E-02 0.  1.
</event>
<event>
 5   0  0.2592200E-07  0.3399703E+04  0.7818609E-02  0.8137979E-01
        1   -1    0    0  501    0  0.00000000000E+00  0.00000000000E+00  0.15818214946E+04  0.15818214946E+04  0.50400001928E-02 0. -1.
       -1   -1    0    0    0  501  0.00000000000E+00  0.00000000000E+00 -0.18266884996E+04  0.18266884996E+04  0.50400001928E-02 0.  1.
    10030    2    1    2    0    0  0.00000000000E+00  0.00000000000E+00 -0.24486700496E+03  0.34085099942E+04  0.33997030062E+04 0.  0.
        4    1    3    3  502    0  0.69084939099E+03 -0.66814918076E+03  0.12832675202E+04  0.16032695812E+04  0.12699999809E+01 0. -1.
       -4    1    3    3    0  502 -0.69084939099E+03  0.66814918076E+03 -0.15281345252E+04  0.18052404130E+04  0.12699999809E+01 0.  1.
</event>
<event>
 5   0  0.2553250E-07  0.3380116E+04  0.7818609E-02  0.8142804E-01
       -1   -1    0    0    0  501  0.00000000000E+00  0.00000000000E+00  0.10691338534E+04  0.10691338535E+04  0.50400001928E-02 0.  1.
        1   -1    0    0  501    0  0.00000000000E+00  0.00000000000E+00 -0.26715981249E+04  0.26715981249E+04  0.50400001928E-02 0. -1.
    10030    2    1    2    0    0  0.00000000000E+00  0.00000000000E+00 -0.16024642714E+04  0.37407319783E+04  0.33801159732E+04 0.  0.
        5    1    3    3  502    0  0.11182041515E+04  0.97234477885E+03 -0.17006082542E+04  0.22556430165E+04  0.46999998093E+01 0. -1.
       -5    1    3    3    0  502 -0.11182041515E+04 -0.97234477885E+03  0.98143982803E+02  0.14850889619E+04  0.46999998093E+01 0.  1.
</event>
<event>
 5   0  0.7610412E-07  0.3429842E+04  0.7818609E-02  0.8130621E-01
       -2   -1    0    0    0  501  0.00000000000E+00  0.00000000000E+00  0.90537284569E+03  0.90537284570E+03  0.25500000920E-02 0.  1.
        2   -1    0    0  501    0  0.00000000000E+00  0.00000000000E+00 -0.32483345318E+04  0.32483345318E+04  0.25500000920E-02 0. -1.
    10030    2    1    2    0    0  0.00000000000E+00  0.00000000000E+00 -0.23429616862E+04  0.41537073775E+04  0.34298419082E+04 0.  0.
        4    1    3    3  502    0 -0.30569616085E+03 -0.11267956895E+03  0.86754825721E+03  0.92670837889E+03  0.12699999809E+01 0.  1.
       -4    1    3    3    0  502  0.30569616085E+03  0.11267956895E+03 -0.32105099434E+04  0.32269989987E+04  0.12699999809E+01 0. -1.
</event>
<event>
 5   0  0.7838333E-07  0.3423224E+04  0.7818609E-02  0.8132230E-01
       -2   -1    0    0    0  501  0.00000000000E+00  0.00000000000E+00  0.11728115581E+04  0.11728115581E+04  0.25500000920E-02 0. -1.
        2   -1    0    0  501    0  0.00000000000E+00  0.00000000000E+00 -0.24979418059E+04  0.24979418059E+04  0.25500000920E-02 0.  1.
    10030    2    1    2    0    0  0.00000000000E+00  0.00000000000E+00 -0.13251302478E+04  0.36707533640E+04  0.34232236395E+04 0.  0.
        1    1    3    3  502    0  0.41493854602E+03  0.15761116535E+04 -0.10196893485E+03  0.16330032471E+04  0.50400001928E-02 0. -1.
       -1    1    3    3    0  502 -0.41493854602E+03 -0.15761116535E+04 -0.12231613130E+04  0.20377501169E+04  0.50400001928E-02 0.  1.
</event>
<event>
 5   0  0.7899402E-07  0.3323607E+04  0.7818609E-02  0.8156914E-01
       -2   -1    0    0    0  501  0.00000000000E+00  0.00000000000E+00  0.12861100344E+04  0.12861100344E+04  0.25500000920E-02 0.  1.
        2   -1    0    0  501    0  0.00000000000E+00  0.00000000000E+00 -0.21472432578E+04  0.21472432578E+04  0.25500000920E-02 0. -1.
    10030    2    1    2    0    0  0.00000000000E+00  0.00000000000E+00 -0.86113322343E+03  0.34333532922E+04  0.33236071369E+04 0.  0.
        2    1    3    3  502    0 -0.15877787067E+04 -0.13627873782E+03 -0.91726932047E+03  0.18387485207E+04  0.25500000920E-02 0. -1.
       -2    1    3    3    0  502  0.15877787067E+04  0.13627873782E+03  0.56136097040E+02  0.15946047715E+04  0.25500000920E-02 0.  1.
</event>
<event>
 5   0  0.7822003E-07  0.3408251E+04  0.7818609E-02  0.8135884E-01
       -2   -1    0    0    0  501  0.00000000000E+00  0.00000000000E+00  0.21283006817E+04  0.21283006817E+04  0.25500000920E-02 0. -1.
        2   -1    0    0  501    0  0.00000000000E+00  0.00000000000E+00 -0.13644891800E+04  0.13644891800E+04  0.25500000920E-02 0.  1.
    10030    2    1    2    0    0  0.00000000000E+00  0.00000000000E+00  0.76381150166E+03  0.34927898617E+04  0.34082507255E+04 0.  0.
        5    1    3    3  502    0 -0.16578727034E+04  0.19154850377E+03  0.28699812451E+02  0.16691550255E+04  0.46999998093E+01 0.  1.
       -5    1    3    3    0  502  0.16578727034E+04 -0.19154850377E+03  0.73511168921E+03  0.18236348361E+04  0.46999998093E+01 0. -1.
</event>
<event>
 5   0  0.7899402E-07  0.3388177E+04  0.7818609E-02  0.8140814E-01
       -2   -1    0    0    0  501  0.00000000000E+00  0.00000000000E+00  0.13753237753E+04  0.13753237753E+04  0.25500000920E-02 0. -1.
        2   -1    0    0  501    0  0.00000000000E+00  0.00000000000E+00 -0.20867342526E+04  0.20867342526E+04  0.25500000920E-02 0.  1.
    10030    2    1    2    0    0  0.00000000000E+00  0.00000000000E+00 -0.71141047737E+03  0.34620580279E+04  0.33881766367E+04 0.  0.
        2    1    3    3  502    0 -0.70776261527E+03  0.90108443957E+03  0.91932403723E+03  0.14690261305E+04  0.25500000920E-02 0. -1.
       -2    1    3    3    0  502  0.70776261527E+03 -0.90108443957E+03 -0.16307345146E+04  0.19930318974E+04  0.25500000920E-02 0.  1.
</event>
<event>
 5   0  0.2622205E-07  0.3424520E+04  0.7818609E-02  0.8131914E-01
        1   -1    0    0  501    0  0.00000000000E+00  0.00000000000E+00  0.18364454348E+04  0.18364454348E+04  0.50400001928E-02 0. -1.
       -1   -1    0    0    0  501  0.00000000000E+00  0.00000000000E+00 -0.15964727079E+04  0.15964727079E+04  0.50400001928E-02 0.  1.
    10030    2    1    2    0    0  0.00000000000E+00  0.00000000000E+00  0.23997272689E+03  0.34329181428E+04  0.34245204139E+04 0.  0.
        3    1    3    3  502    0 -0.10328220739E+04 -0.17023327127E+02 -0.12489478799E+04  0.16207658828E+04  0.10100000352E+00 0.  1.
       -3    1    3    3    0  502  0.10328220739E+04  0.17023327127E+02  0.14889206067E+04  0.18121522600E+04  0.10100000352E+00 0. -1.
</event>
<event>
 5   0  0.7838333E-07  0.3406412E+04  0.7818609E-02  0.8136334E-01
       -2   -1    0    0    0  501  0.00000000000E+00  0.00000000000E+00  0.12506198567E+04  0.12506198567E+04  0.25500000920E-02 0. -1.
        2   -1    0    0  501    0  0.00000000000E+00  0.00000000000E+00 -0.23195788386E+04  0.23195788386E+04  0.25500000920E-02 0.  1.
    10030    2    1    2    0    0  0.00000000000E+00  0.00000000000E+00 -0.10689589820E+04  0.35701986953E+04  0.34064123971E+04 0.  0.
        1    1    3    3  502    0  0.92375749248E+02  0.75708182767E+03  0.10616376025E+04  0.13072033399E+04  0.50400001928E-02 0. -1.
       -1    1    3    3    0  502 -0.92375749248E+02 -0.75708182767E+03 -0.21305965845E+04  0.22629953554E+04  0.50400001928E-02 0.  1.
</event>
<event>
 5   0  0.2599367E-07  0.3414648E+04  0.7818609E-02  0.8134320E-01
        1   -1    0    0  501    0  0.00000000000E+00  0.00000000000E+00  0.10544933545E+04  0.10544933545E+04  0.50400001928E-02 0.  1.
       -1   -1    0    0    0  501  0.00000000000E+00  0.00000000000E+00 -0.27643189853E+04  0.27643189853E+04  0.50400001928E-02 0. -1.
    10030    2    1    2    0    0  0.00000000000E+00  0.00000000000E+00 -0.17098256308E+04  0.38188123398E+04  0.34146484444E+04 0.  0.
        2    1    3    3  502    0 -0.24510465684E+02  0.38790152151E+03 -0.27141830307E+04  0.27418712365E+04  0.25500000920E-02 0. -1.
       -2    1    3    3    0  502  0.24510465684E+02 -0.38790152151E+03  0.10043573999E+04  0.10769411033E+04  0.25500000920E-02 0.  1.
</event>
<event>
 5   0  0.2592200E-07  0.3405425E+04  0.7818609E-02  0.8136576E-01
       -1   -1    0    0    0  501  0.00000000000E+00  0.00000000000E+00  0.18497998098E+04  0.18497998098E+04  0.50400001928E-02 0.  1.
        1   -1    0    0  501    0  0.00000000000E+00  0.00000000000E+00 -0.15673204538E+04  0.15673204538E+04  0.50400001928E-02 0. -1.
    10030    2    1    2    0    0  0.00000000000E+00  0.00000000000E+00  0.28247935601E+03  0.34171202636E+04  0.34054245418E+04 0.  0.
        4    1    3    3  502    0 -0.10200573069E+04 -0.13612204484E+04  0.21758940858E+03  0.17148716518E+04  0.12699999809E+01 0.  1.
       -4    1    3    3    0  502  0.10200573069E+04  0.13612204484E+04  0.64889947432E+02  0.17022486119E+04  0.12699999809E+01 0. -1.
</event>
<event>
 5   0  0.8489228E-07  0.3439966E+04  0.7818609E-02  0.8128167E-01
       -2   -1    0    0    0  501  0.00000000000E+00  0.00000000000E+00  0.16761382059E+04  0.16761382059E+04  0.25500000920E-02 0. -1.
        2   -1    0    0  501    0  0.00000000000E+00  0.00000000000E+00 -0.17649742388E+04  0.17649742388E+04  0.25500000920E-02 0.  1.
    10030    2    1    2    0    0  0.00000000000E+00  0.00000000000E+00 -0.88836032832E+02  0.34411124447E+04  0.34399655545E+04 0.  0.
        3    1    3    3  502    0 -0.62291144903E+03 -0.26674856509E+03 -0.16258205598E+04  0.17613818363E+04  0.10100000352E+00 0.  1.
       -3    1    3    3    0  502  0.62291144903E+03  0.26674856509E+03  0.15369845270E+04  0.16797306084E+04  0.10100000352E+00 0. -1.
</event>
<event>
 5   0  0.7822003E-07  0.3424186E+04  0.7818609E-02  0.8131996E-01
       -2   -1    0    0    0  501  0.00000000000E+00  0.00000000000E+00  0.13748291384E+04  0.13748291384E+04  0.25500000920E-02 0.  1.
        2   -1    0    0  501    0  0.00000000000E+00  0.00000000000E+00 -0.21320920125E+04  0.21320920125E+04  0.25500000920E-02 0. -1.
    10030    2    1    2    0    0  0.00000000000E+00  0.00000000000E+00 -0.75726287410E+03  0.35069211509E+04  0.34241858738E+04 0.  0.
        5    1    3    3  502    0  0.50624431036E+03  0.13209570822E+04 -0.13663130454E+04  0.19667344363E+04  0.46999998093E+01 0. -1.
       -5    1    3    3    0  502 -0.50624431036E+03 -0.13209570822E+04  0.60905017132E+03  0.15401867146E+04  0.46999998093E+01 0.  1.
</event>
<event>
 5   0  0.2553250E-07  0.3359495E+04  0.7818609E-02  0.8147920E-01
        3   -1    0    0  501    0  0.00000000000E+00  0.00000000000E+00  0.17891350782E+04  0.17891350810E+04  0.10100000352E+00 0. -1.
       -3   -1    0    0    0  501  0.00000000000E+00  0.00000000000E+00 -0.15770476285E+04  0.15770476317E+04  0.10100000352E+00 0.  1.
    10030    2    1    2    0    0  0.00000000000E+00  0.00000000000E+00  0.21208744971E+03  0.33661827127E+04  0.33594947491E+04 0.  0.
        5    1    3    3  502    0  0.29763987015E+02  0.24168593387E+03 -0.15592610576E+04  0.15781682804E+04  0.46999998093E+01 0.  1.
       -5    1    3    3    0  502 -0.29763987015E+02 -0.24168593387E+03  0.17713485073E+04  0.17880144323E+04  0.46999998093E+01 0. -1.
</event>
<event>
 5   0  0.7822003E-07  0.3403150E+04  0.7818609E-02  0.8137134E-01
        2   -1    0    0  501    0  0.00000000000E+00  0.00000000000E+00  0.14610167633E+04  0.14610167633E+04  0.25500000920E-02 0. -1.
       -2   -1    0    0    0  501  0.00000000000E+00  0.00000000000E+00 -0.19817409852E+04  0.19817409852E+04  0.25500000920E-02 0.  1.
    10030    2    1    2    0    0  0.00000000000E+00  0.00000000000E+00 -0.52072422191E+03  0.34427577486E+04  0.34031496000E+04 0.  0.
        5    1    3    3  502    0  0.28292078793E+03 -0.16677038964E+04 -0.73676393051E+02  0.16931422738E+04  0.46999998093E+01 0. -1.
       -5    1    3    3    0  502 -0.28292078793E+03  0.16677038964E+04 -0.44704782886E+03  0.17496154748E+04  0.46999998093E+01 0.  1.
</event>
<event>
 5   0  0.7838333E-07  0.3403765E+04  0.7818609E-02  0.8136983E-01
        2   -1    0    0  501    0  0.00000000000E+00  0.00000000000E+00  0.25506051024E+04  0.25506051024E+04  0.25500000920E-02 0.  1.
       -2   -1    0    0    0  501  0.00000000000E+00  0.00000000000E+00 -0.11355753537E+04  0.11355753537E+04  0.25500000920E-02 0. -1.
    10030    2    1    2    0    0  0.00000000000E+00  0.00000000000E+00  0.14150297487E+04  0.36861804561E+04  0.34037651455E+04 0.  0.
        1    1    3    3  502    0  0.19249258008E+03 -0.12077247771E+04 -0.57421820814E+03  0.13510659056E+04  0.50400001928E-02 0. -1.
       -1    1    3    3    0  502 -0.19249258008E+03  0.12077247771E+04  0.19892479568E+04  0.23351145506E+04  0.50400001928E-02 0.  1.
</event>
<event>
 5   0  0.2592200E-07  0.3437549E+04  0.7818609E-02  0.8128752E-01
        1   -1    0    0  501    0  0.00000000000E+00  0.00000000000E+00  0.20501683280E+04  0.20501683280E+04  0.50400001928E-02 0.  1.
       -1   -1    0    0    0  501  0.00000000000E+00  0.00000000000E+00 -0.14409480348E+04  0.14409480348E+04  0.50400001928E-02 0. -1.
    10030    2    1    2    0    0  0.00000000000E+00  0.00000000000E+00  0.60922029318E+03  0.34911163628E+04  0.34375491404E+04 0.  0.
        4    1    3    3  502    0  0.13305771983E+04  0.10159013604E+04  0.70015742636E+03  0.18145835030E+04  0.12699999809E+01 0. -1.
       -4    1    3    3    0  502 -0.13305771983E+04 -0.10159013604E+04 -0.90937133186E+02  0.16765328598E+04  0.12699999809E+01 0.  1.
</event>
<event>
 5   0  0.2553250E-07  0.3395995E+04  0.7818609E-02  0.8138890E-01
       -1   -1    0    0    0  501  0.00000000000E+00  0.00000000000E+00  0.14573383990E+04  0.14573383991E+04  0.50400001928E-02 0. -1.
        1   -1    0    0  501    0  0.00000000000E+00  0.00000000000E+00 -0.19783980062E+04  0.19783980062E+04  0.50400001928E-02 0.  1.
    10030    2    1    2    0    0  0.00000000000E+00  0.00000000000E+00 -0.52105960718E+03  0.34357364053E+04  0.33959949253E+04 0.  0.
        5    1    3    3  502    0 -0.81830787590E+03 -0.57394419995E+03 -0.16492304823E+04  0.19284768596E+04  0.46999998093E+01 0.  1.
       -5    1    3    3    0  502  0.81830787590E+03  0.57394419995E+03  0.11281708751E+04  0.15072595456E+04  0.46999998093E+01 0. -1.
</event>
<event>
 5   0  0.7822003E-07  0.3393017E+04  0.7818609E-02  0.8139622E-01
        2   -1    0    0  501    0  0.00000000000E+00  0.00000000000E+00  0.18419801247E+04  0.18419801247E+04  0.25500000920E-02 0. -1.
       -2   -1    0    0    0  501  0.00000000000E+00  0.00000000000E+00 -0.15625256293E+04  0.15625256293E+04  0.25500000920E-02 0.  1.
    10030    2    1    2    0    0  0.00000000000E+00  0.00000000000E+00  0.27945449535E+03  0.34045057540E+04  0.33930170371E+04 0.  0.
        5    1    3    3  502    0  0.12208225655E+04 -0.18070361183E+03 -0.10282836623E+04  0.16063781971E+04  0.46999998093E+01 0.  1.
       -5    1    3    3    0  502 -0.12208225655E+04  0.18070361183E+03  0.13077381577E+04  0.17981275569E+04  0.46999998093E+01 0. -1.
</event>
<event>
 5   0  0.7899402E-07  0.3358616E+04  0.7818609E-02  0.8148139E-01
       -2   -1    0    0    0  501  0.00000000000E+00  0.00000000000E+00  0.11186148485E+04  0.11186148485E+04  0.25500000920E-02 0. -1.
        2   -1    0    0  501    0  0.00000000000E+00  0.00000000000E+00 -0.25210430570E+04  0.25210430570E+04  0.25500000920E-02 0.  1.
    10030    2    1    2    0    0  0.00000000000E+00  0.00000000000E+00 -0.14024282085E+04  0.36396579056E+04  0.33586164993E+04 0.  0.
        2    1    3    3  502    0  0.32071237306E+03  0.87645534644E+03 -0.22141174060E+04  0.24027788679E+04  0.25500000920E-02 0.  1.
       -2    1    3    3    0  502 -0.32071237306E+03 -0.87645534644E+03  0.81168919749E+03  0.12368790377E+04  0.25500000920E-02 0. -1.
</event>
<event>
 5   0  0.8489228E-07  0.3378818E+04  0.7818609E-02  0.8143125E-01
        2   -1    0    0  501    0  0.00000000000E+00  0.00000000000E+00  0.22550979300E+04  0.22550979300E+04  0.25500000920E-02 0.  1.
       -2   -1    0    0    0  501  0.00000000000E+00  0.00000000000E+00 -0.12656226534E+04  0.12656226534E+04  0.25500000920E-02 0. -1.
    10030    2    1    2    0    0  0.00000000000E+00  0.00000000000E+00  0.98947527658E+03  0.35207205834E+04  0.33788181519E+04 0.  0.
        3    1    3    3  502    0  0.45118123911E+02  0.44428676962E+03  0.21924830074E+04  0.22375004194E+04  0.10100000352E+00 0.  1.
       -3    1    3    3    0  502 -0.45118123911E+02 -0.44428676962E+03 -0.12030077308E+04  0.12832201640E+04  0.10100000352E+00 0. -1.
</event>
<event>
 5   0  0.2641442E-07  0.3408329E+04  0.7818609E-02  0.8135865E-01
       -1   -1    0    0    0  501  0.00000000000E+00  0.00000000000E+00  0.15346751036E+04  0.15346751036E+04  0.50400001928E-02 0.  1.
        1   -1    0    0  501    0  0.00000000000E+00  0.00000000000E+00 -0.18923720444E+04  0.18923720444E+04  0.50400001928E-02 0. -1.
    10030    2    1    2    0    0  0.00000000000E+00  0.00000000000E+00 -0.35769694080E+03  0.34270471480E+04  0.34083287772E+04 0.  0.
        1    1    3    3  502    0 -0.84779839764E+02 -0.75123619569E+03 -0.17145322208E+04  0.18738100702E+04  0.50400001928E-02 0. -1.
       -1    1    3    3    0  502  0.84779839764E+02  0.75123619569E+03  0.13568352800E+04  0.15532370779E+04  0.50400001928E-02 0.  1.
</event>
<event>
 5   0  0.8489228E-07  0.3453726E+04  0.7818609E-02  0.8124845E-01
        2   -1    0    0  501    0  0.00000000000E+00  0.00000000000E+00  0.20237566474E+04  0.20237566474E+04  0.25500000920E-02 0.  1.
       -2   -1    0    0    0  501  0.00000000000E+00  0.00000000000E+00 -0.14735247811E+04  0.14735247811E+04  0.25500000920E-02 0. -1.
    10030    2    1    2    0    0  0.00000000000E+00  0.00000000000E+00  0.55023186629E+03  0.34972814286E+04  0.34537258554E+04 0.  0.
        3    1    3    3  502    0  0.46517980981E+03  0.30933483451E+03  0.19297285778E+04  0.20089630881E+04  0.10100000352E+00 0.  1.
       -3    1    3    3    0  502 -0.46517980981E+03 -0.30933483451E+03 -0.13794967115E+04  0.14883183404E+04  0.10100000352E+00 0. -1.
</event>
<event>
 5   0  0.7822003E-07  0.3370723E+04  0.7818609E-02  0.8145130E-01
        2   -1    0    0  501    0  0.00000000000E+00  0.00000000000E+00  0.87827264288E+03  0.87827264289E+03  0.25500000920E-02 0. -1.
       -2   -1    0    0    0  501  0.00000000000E+00  0.00000000000E+00 -0.32341239429E+04  0.32341239429E+04  0.25500000920E-02 0.  1.
    10030    2    1    2    0    0  0.00000000000E+00  0.00000000000E+00 -0.23558513000E+04  0.41123965858E+04  0.33707225236E+04 0.  0.
        5    1    3    3  502    0  0.87952037308E+03  0.71061996514E+02  0.57392384387E+03  0.10526236567E+04  0.46999998093E+01 0.  1.
       -5    1    3    3    0  502 -0.87952037308E+03 -0.71061996514E+02 -0.29297751439E+04  0.30597729291E+04  0.46999998093E+01 0. -1.
</event>
<event>
 5   0  0.2641442E-07  0.3396281E+04  0.7818609E-02  0.8138820E-01
       -1   -1    0    0    0  501  0.00000000000E+00  0.00000000000E+00  0.25929479507E+04  0.25929479507E+04  0.50400001928E-02 0. -1.
        1   -1    0    0  501    0  0.00000000000E+00  0.00000000000E+00 -0.11121243545E+04  0.11121243545E+04  0.50400001928E-02 0.  1.
    10030    2    1    2    0    0  0.00000000000E+00  0.00000000000E+00  0.14808235962E+04  0.37050723052E+04  0.33962806514E+04 0.  0.
        1    1    3    3  502    0  0.29432508576E+03 -0.34002333499E+03  0.25268045641E+04  0.25665121137E+04  0.50400001928E-02 0. -1.
       -1    1    3    3    0  502 -0.29432508576E+03  0.34002333499E+03 -0.10459809679E+04  0.11385601915E+04  0.50400001928E-02 0.  1.
</event>
<event>
 5   0  0.2599367E-07  0.3401057E+04  0.7818609E-02  0.8137647E-01
        1   -1    0    0  501    0  0.00000000000E+00  0.00000000000E+00  0.10861686128E+04  0.10861686128E+04  0.50400001928E-02 0. -1.
       -1   -1    0    0    0  501  0.00000000000E+00  0.00000000000E+00 -0.26623836162E+04  0.26623836162E+04  0.50400001928E-02 0.  1.
    10030    2    1    2    0    0  0.00000000000E+00  0.00000000000E+00 -0.15762150034E+04  0.37485522290E+04  0.34010571998E+04 0.  0.
        2    1    3    3  502    0  0.64905616451E+03  0.14590169059E+04 -0.14324716843E+04  0.21452224506E+04  0.25500000920E-02 0.  1.
       -2    1    3    3    0  502 -0.64905616451E+03 -0.14590169059E+04 -0.14374331911E+03  0.16033297784E+04  0.25500000920E-02 0. -1.
</event>
<event>
 5   0  0.7610412E-07  0.3403245E+04  0.7818609E-02  0.8137110E-01
       -2   -1    0    0    0  501  0.00000000000E+00  0.00000000000E+00  0.12118407591E+04  0.12118407591E+04  0.25500000920E-02 0. -1.
        2   -1    0    0  501    0  0.00000000000E+00  0.00000000000E+00 -0.23893565337E+04  0.23893565337E+04  0.25500000920E-02 0.  1.
    10030    2    1    2    0    0  0.00000000000E+00  0.00000000000E+00 -0.11775157746E+04  0.36011972929E+04  0.34032452957E+04 0.  0.
        4    1    3    3  502    0 -0.14344023396E+03  0.55684371754E+03 -0.22834319066E+04  0.23547214085E+04  0.12699999809E+01 0.  1.
       -4    1    3    3    0  502  0.14344023396E+03 -0.55684371754E+03  0.11059161320E+04  0.12464758844E+04  0.12699999809E+01 0. -1.
</event>
<event>
 5   0  0.7610412E-07  0.3421221E+04  0.7818609E-02  0.8132718E-01
        2   -1    0    0  501    0  0.00000000000E+00  0.00000000000E+00  0.13157463158E+04  0.13157463158E+04  0.25500000920E-02 0. -1.
       -2   -1    0    0    0  501  0.00000000000E+00  0.00000000000E+00 -0.22239762100E+04  0.22239762100E+04  0.25500000920E-02 0.  1.
    10030    2    1    2    0    0  0.00000000000E+00  0.00000000000E+00 -0.90822989421E+03  0.35397225257E+04  0.34212211297E+04 0.  0.
        4    1    3    3  502    0 -0.51317988572E+02  0.10869807941E+04  0.91145957015E+03  0.14194791099E+04  0.12699999809E+01 0. -1.
       -4    1    3    3    0  502  0.51317988572E+02 -0.10869807941E+04 -0.18196894644E+04  0.21202434158E+04  0.12699999809E+01 0.  1.
</event>
<event>
 5   0  0.7899402E-07  0.3384711E+04  0.7818609E-02  0.8141669E-01
       -2   -1    0    0    0  501  0.00000000000E+00  0.00000000000E+00  0.15123210482E+04  0.15123210482E+04  0.25500000920E-02 0.  1.
        2   -1    0    0  501    0  0.00000000000E+00  0.00000000000E+00 -0.18938220330E+04  0.18938220330E+04  0.25500000920E-02 0. -1.
    10030    2    1    2    0    0  0.00000000000E+00  0.00000000000E+00 -0.38150098484E+03  0.34061430811E+04  0.33847108721E+04 0.  0.
        2    1    3    3  502    0 -0.11644425140E+04  0.11864454737E+04  0.12825469508E+03  0.16673417458E+04  0.25500000920E-02 0.  1.
       -2    1    3    3    0  502  0.11644425140E+04 -0.11864454737E+04 -0.50975567991E+03  0.17388013353E+04  0.25500000920E-02 0. -1.
</event>
<event>
 5   0  0.7838333E-07  0.3353157E+04  0.7818609E-02  0.8149500E-01
       -2   -1    0    0    0  501  0.00000000000E+00  0.00000000000E+00  0.13036680457E+04  0.13036680457E+04  0.25500000920E-02 0. -1.
        2   -1    0    0  501    0  0.00000000000E+00  0.00000000000E+00 -0.21561586267E+04  0.21561586267E+04  0.25500000920E-02 0.  1.
    10030    2    1    2    0    0  0.00000000000E+00  0.00000000000E+00 -0.85249058099E+03  0.34598266723E+04  0.33531567831E+04 0.  0.
        1    1    3    3  502    0 -0.15214869649E+04 -0.43167097442E+03 -0.10004118698E+04  0.18713862038E+04  0.50400001928E-02 0.  1.
       -1    1    3    3    0  502  0.15214869649E+04  0.43167097442E+03  0.14792128882E+03  0.15884404686E+04  0.50400001928E-02 0. -1.
</event>
<event>
 5   0  0.7610412E-07  0.3371278E+04  0.7818609E-02  0.8144992E-01
        2   -1    0    0  501    0  0.00000000000E+00  0.00000000000E+00  0.15937904068E+04  0.15937904068E+04  0.25500000920E-02 0. -1.
       -2   -1    0    0    0  501  0.00000000000E+00  0.00000000000E+00 -0.17827808577E+04  0.17827808577E+04  0.25500000920E-02 0.  1.
    10030    2    1    2    0    0  0.00000000000E+00  0.00000000000E+00 -0.18899045098E+03  0.33765712645E+04  0.33712781128E+04 0.  0.
        4    1    3    3  502    0  0.84902785517E+03 -0.10250656492E+04 -0.11304157825E+04  0.17462672586E+04  0.12699999809E+01 0.  1.
       -4    1    3    3    0  502 -0.84902785517E+03  0.10250656492E+04  0.94142533153E+03  0.16303040059E+04  0.12699999809E+01 0. -1.
</event>
<event>
 5   0  0.8489228E-07  0.3385147E+04  0.7818609E-02  0.8141561E-01
       -2   -1    0    0    0  501  0.00000000000E+00  0.00000000000E+00  0.18272718429E+04  0.18272718429E+04  0.25500000920E-02 0. -1.
        2   -1    0    0  501    0  0.00000000000E+00  0.00000000000E+00 -0.15678048900E+04  0.15678048900E+04  0.25500000920E-02 0.  1.
    10030    2    1    2    0    0  0.00000000000E+00  0.00000000000E+00  0.25946695289E+03  0.33950767329E+04  0.33851474004E+04 0.  0.
        3    1    3    3  502    0  0.94878045892E+03  0.40447757927E+03 -0.12162235300E+04  0.15946743105E+04  0.10100000352E+00 0.  1.
       -3    1    3    3    0  502 -0.94878045892E+03 -0.40447757927E+03  0.14756904829E+04  0.18004024225E+04  0.10100000352E+00 0. -1.
</event>
<event>
 5   0  0.2622205E-07  0.3401229E+04  0.7818609E-02  0.8137605E-01
        1   -1    0    0  501    0  0.00000000000E+00  0.00000000000E+00  0.29794188062E+04  0.29794188062E+04  0.50400001928E-02 0. -1.
       -1   -1    0    0    0  501  0.00000000000E+00  0.00000000000E+00 -0.97068948044E+03  0.97068948045E+03  0.50400001928E-02 0.  1.
    10030    2    1    2    0    0  0.00000000000E+00  0.00000000000E+00  0.20087293258E+04  0.39501082867E+04  0.34012294795E+04 0.  0.
        3    1    3    3  502    0  0.13867174521E+04  0.42897409012E+03 -0.24674254276E+02  0.14517619953E+04  0.10100000352E+00 0.  1.
       -3    1    3    3    0  502 -0.13867174521E+04 -0.42897409012E+03  0.20334035800E+04  0.24983462913E+04  0.10100000352E+00 0. -1.
</event>
<event>
 5   0  0.2622205E-07  0.3052493E+04  0.7818609E-02  0.8228898E-01
        1   -1    0    0  501    0  0.00000000000E+00  0.00000000000E+00  0.12282402182E+04  0.12282402182E+04  0.50400001928E-02 0.  1.
       -1   -1    0    0    0  501  0.00000000000E+00  0.00000000000E+00 -0.18965574385E+04  0.18965574386E+04  0.50400001928E-02 0. -1.
    10030    2    1    2    0    0  0.00000000000E+00  0.00000000000E+00 -0.66831722037E+03  0.31247976567E+04  0.30524928319E+04 0.  0.
        3    1    3    3  502    0 -0.38610238675E+03  0.34780348059E+03  0.11348897887E+04  0.12482055748E+04  0.10100000352E+00 0.  1.
       -3    1    3    3    0  502  0.38610238675E+03 -0.34780348059E+03 -0.18032070091E+04  0.18765920820E+04  0.10100000352E+00 0. -1.
</event>
<event>
 5   0  0.2592200E-07  0.3385728E+04  0.7818609E-02  0.8141418E-01
       -1   -1    0    0    0  501  0.00000000000E+00  0.00000000000E+00  0.19211381612E+04  0.19211381612E+04  0.50400001928E-02 0. -1.
        1   -1    0    0  501    0  0.00000000000E+00  0.00000000000E+00 -0.14917141669E+04  0.14917141669E+04  0.50400001928E-02 0.  1.
    10030    2    1    2    0    0  0.00000000000E+00  0.00000000000E+00  0.42942399431E+03  0.34128523281E+04  0.33857282890E+04 0.  0.
        4    1    3    3  502    0 -0.88995182300E+03  0.60374719431E+03  0.15325735078E+04  0.18722468031E+04  0.12699999809E+01 0. -1.
       -4    1    3    3    0  502  0.88995182300E+03 -0.60374719431E+03 -0.11031495135E+04  0.15406055251E+04  0.12699999809E+01 0.  1.
</event>
<event>
 5   0  0.2641442E-07  0.3483370E+04  0.7818609E-02  0.8117742E-01
       -1   -1    0    0    0  501  0.00000000000E+00  0.00000000000E+00  0.15349541326E+04  0.15349541326E+04  0.50400001928E-02 0.  1.
        1   -1    0    0  501    0  0.00000000000E+00  0.00000000000E+00 -0.19762584119E+04  0.19762584119E+04  0.50400001928E-02 0. -1.
    10030    2    1    2    0    0  0.00000000000E+00  0.00000000000E+00 -0.44130427925E+03  0.35112125445E+04  0.34833696424E+04 0.  0.
        1    1    3    3  502    0 -0.20135678158E+03  0.70594065448E+03  0.13713928619E+04  0.15555112159E+04  0.50400001928E-02 0.  1.
       -1    1    3    3    0  502  0.20135678158E+03 -0.70594065448E+03 -0.18126971411E+04  0.19557013286E+04  0.50400001928E-02 0. -1.
</event>
<event>
 5   0  0.7838333E-07  0.3409722E+04  0.7818609E-02  0.8135524E-01
       -2   -1    0    0    0  501  0.00000000000E+00  0.00000000000E+00  0.11050349087E+04  0.11050349087E+04  0.25500000920E-02 0.  1.
        2   -1    0    0  501    0  0.00000000000E+00  0.00000000000E+00 -0.26302797331E+04  0.26302797331E+04  0.25500000920E-02 0. -1.
    10030    2    1    2    0    0  0.00000000000E+00  0.00000000000E+00 -0.15252448244E+04  0.37353146418E+04  0.34097219386E+04 0.  0.
        1    1    3    3  502    0  0.58074469794E+03  0.13249677346E+04  0.22559598036E+03  0.14641371002E+04  0.50400001928E-02 0.  1.
       -1    1    3    3    0  502 -0.58074469794E+03 -0.13249677346E+04 -0.17508408047E+04  0.22711775416E+04  0.50400001928E-02 0. -1.
</event>
<event>
 5   0  0.7610412E-07  0.3394059E+04  0.7818609E-02  0.8139366E-01
       -2   -1    0    0    0  501  0.00000000000E+00  0.00000000000E+00  0.11412699965E+04  0.11412699965E+04  0.25500000920E-02 0.  1.
        2   -1    0    0  501    0  0.00000000000E+00  0.00000000000E+00 -0.25234243344E+04  0.25234243344E+04  0.25500000920E-02 0. -1.
    10030    2    1    2    0    0  0.00000000000E+00  0.00000000000E+00 -0.13821543379E+04  0.36646943309E+04  0.33940586213E+04 0.  0.
        4    1    3    3  502    0  0.51874755684E+03  0.79352319400E+03  0.82868199543E+03  0.12591638295E+04  0.12699999809E+01 0.  1.
       -4    1    3    3    0  502 -0.51874755684E+03 -0.79352319400E+03 -0.22108363334E+04  0.24055305014E+04  0.12699999809E+01 0. -1.
</event>
<event>
 5   0  0.7899402E-07  0.3352641E+04  0.7818609E-02  0.8149629E-01
       -2   -1    0    0    0  501  0.00000000000E+00  0.00000000000E+00  0.20208156812E+04  0.20208156812E+04  0.25500000920E-02 0. -1.
        2   -1    0    0  501    0  0.00000000000E+00  0.00000000000E+00 -0.13905522392E+04  0.13905522392E+04  0.25500000920E-02 0.  1.
    10030    2    1    2    0    0  0.00000000000E+00  0.00000000000E+00  0.63026344201E+03  0.34113679205E+04  0.33526406134E+04 0.  0.
        2    1    3    3  502    0  0.10873846283E+04  0.12128917721E+04 -0.87447575005E+02  0.16313058753E+04  0.25500000920E-02 0.  1.
       -2    1    3    3    0  502 -0.10873846283E+04 -0.12128917721E+04  0.71771101702E+03  0.17800620451E+04  0.25500000920E-02 0. -1.
</event>
<event>
 5   0  0.2553250E-07  0.3407644E+04  0.7818609E-02  0.8136033E-01
       -1   -1    0    0    0  501  0.00000000000E+00  0.00000000000E+00  0.13784462904E+04  0.13784462904E+04  0.50400001928E-02 0. -1.
        1   -1    0    0  501    0  0.00000000000E+00  0.00000000000E+00 -0.21060007682E+04  0.21060007682E+04  0.50400001928E-02 0.  1.
    10030    2    1    2    0    0  0.00000000000E+00  0.00000000000E+00 -0.72755447781E+03  0.34844470587E+04  0.34076437294E+04 0.  0.
        5    1    3    3  502    0 -0.11502418694E+04 -0.69356824737E+03  0.70813074733E+03  0.15184085475E+04  0.46999998093E+01 0. -1.
       -5    1    3    3    0  502  0.11502418694E+04  0.69356824737E+03 -0.14356852251E+04  0.19660385112E+04  0.46999998093E+01 0.  1.
</event>
<event>
 5   0  0.2622205E-07  0.3411655E+04  0.7818609E-02  0.8135052E-01
       -1   -1    0    0    0  501  0.00000000000E+00  0.00000000000E+00  0.17303402432E+04  0.17303402432E+04  0.50400001928E-02 0. -1.
        1   -1    0    0  501    0  0.00000000000E+00  0.00000000000E+00 -0.16816621878E+04  0.16816621878E+04  0.50400001928E-02 0.  1.
    10030    2    1    2    0    0  0.00000000000E+00  0.00000000000E+00  0.48678055470E+02  0.34120024310E+04  0.34116551754E+04 0.  0.
        3    1    3    3  502    0 -0.17870042746E+03 -0.33334977973E+03  0.16878759511E+04  0.17297344174E+04  0.10100000352E+00 0. -1.
       -3    1    3    3    0  502  0.17870042746E+03  0.33334977973E+03 -0.16391978956E+04  0.16822680136E+04  0.10100000352E+00 0.  1.
</event>
<event>
 5   0  0.7838333E-07  0.3458240E+04  0.7818609E-02  0.8123759E-01
       -2   -1    0    0    0  501  0.00000000000E+00  0.00000000000E+00  0.27189341177E+04  0.27189341177E+04  0.25500000920E-02 0. -1.
        2   -1    0    0  501    0  0.00000000000E+00  0.00000000000E+00 -0.10996424523E+04  0.10996424523E+04  0.25500000920E-02 0.  1.
    10030    2    1    2    0    0  0.00000000000E+00  0.00000000000E+00  0.16192916654E+04  0.38185765701E+04  0.34582396568E+04 0.  0.
        1    1    3    3  502    0  0.46868371498E+03 -0.44255102344E+03 -0.96200988866E+03  0.11580064158E+04  0.50400001928E-02 0.  1.
       -1    1    3    3    0  502 -0.46868371498E+03  0.44255102344E+03  0.25813015541E+04  0.26605701543E+04  0.50400001928E-02 0. -1.
</event>
<event>
 5   0  0.2592200E-07  0.3402883E+04  0.7818609E-02  0.8137199E-01
        1   -1    0    0  501    0  0.00000000000E+00  0.00000000000E+00  0.16149441047E+04  0.16149441047E+04  0.50400001928E-02 0. -1.
       -1   -1    0    0    0  501  0.00000000000E+00  0.00000000000E+00 -0.17925714278E+04  0.17925714278E+04  0.50400001928E-02 0.  1.
    10030    2    1    2    0    0  0.00000000000E+00  0.00000000000E+00 -0.17762732307E+03  0.34075155325E+04  0.34028826954E+04 0.  0.
        4    1    3    3  502    0 -0.91885691314E+03 -0.95890383446E+03  0.97616916971E+03  0.16482422308E+04  0.12699999809E+01 0. -1.
       -4    1    3    3    0  502  0.91885691314E+03  0.95890383446E+03 -0.11537964928E+04  0.17592733017E+04  0.12699999809E+01 0.  1.
</event>
<event>
 5   0  0.2622205E-07  0.3497214E+04  0.7818609E-02  0.8114450E-01
       -1   -1    0    0    0  501  0.00000000000E+00  0.00000000000E+00  0.12618622087E+04  0.12618622087E+04  0.50400001928E-02 0.  1.
        1   -1    0    0  501    0  0.00000000000E+00  0.00000000000E+00 -0.24231064629E+04  0.24231064629E+04  0.50400001928E-02 0. -1.
    10030    2    1    2    0    0  0.00000000000E+00  0.00000000000E+00 -0.11612442542E+04  0.36849686716E+04  0.34972140187E+04 0.  0.
        3    1    3    3  502    0  0.69074545715E+01 -0.25566219553E+03 -0.24032920632E+04  0.24168623507E+04  0.10100000352E+00 0. -1.
       -3    1    3    3    0  502 -0.69074545715E+01  0.25566219553E+03  0.12420478089E+04  0.12681063209E+04  0.10100000352E+00 0.  1.
</event>
<event>
 5   0  0.2641442E-07  0.3405529E+04  0.7818609E-02  0.8136551E-01
       -1   -1    0    0    0  501  0.00000000000E+00  0.00000000000E+00  0.10297997294E+04  0.10297997294E+04  0.50400001928E-02 0. -1.
        1   -1    0    0  501    0  0.00000000000E+00  0.00000000000E+00 -0.28155059773E+04  0.28155059773E+04  0.50400001928E-02 0.  1.
    10030    2    1    2    0    0  0.00000000000E+00  0.00000000000E+00 -0.17857062479E+04  0.38453057068E+04  0.34055292063E+04 0.  0.
        1    1    3    3  502    0  0.15811335914E+04 -0.18717782206E+02 -0.17955232465E+03  0.15914059276E+04  0.50400001928E-02 0. -1.
       -1    1    3    3    0  502 -0.15811335914E+04  0.18717782206E+02 -0.16061539233E+04  0.22538997791E+04  0.50400001928E-02 0.  1.
</event>
<event>
 5   0  0.2553250E-07  0.3415321E+04  0.7818609E-02  0.8134156E-01
        1   -1    0    0  501    0  0.00000000000E+00  0.00000000000E+00  0.25394633945E+04  0.25394633945E+04  0.50400001928E-02 0.  1.
       -1   -1    0    0    0  501  0.00000000000E+00  0.00000000000E+00 -0.11483149529E+04  0.11483149529E+04  0.50400001928E-02 0. -1.
    10030    2    1    2    0    0  0.00000000000E+00  0.00000000000E+00  0.13911484416E+04  0.36877783474E+04  0.34153206516E+04 0.  0.
        5    1    3    3  502    0  0.68864046459E+03  0.10416223401E+04 -0.56220342515E+03  0.13694150467E+04  0.46999998093E+01 0. -1.
       -5    1    3    3    0  502 -0.68864046459E+03 -0.10416223401E+04  0.19533518667E+04  0.23183633007E+04  0.46999998093E+01 0.  1.
</event>
<event>
 5   0  0.2622205E-07  0.3399760E+04  0.7818609E-02  0.8137965E-01
       -1   -1    0    0    0  501  0.00000000000E+00  0.00000000000E+00  0.17079155229E+04  0.17079155229E+04  0.50400001928E-02 0.  1.
        1   -1    0    0  501    0  0.00000000000E+00  0.00000000000E+00 -0.16918824276E+04  0.16918824276E+04  0.50400001928E-02 0. -1.
    10030    2    1    2    0    0  0.00000000000E+00  0.00000000000E+00  0.16033095268E+02  0.33997979506E+04  0.33997601451E+04 0.  0.
        3    1    3    3  502    0 -0.97920643894E+03  0.12938294114E+04 -0.49869655187E+03  0.16975093687E+04  0.10100000352E+00 0. -1.
       -3    1    3    3    0  502  0.97920643894E+03 -0.12938294114E+04  0.51472964714E+03  0.17022885818E+04  0.10100000352E+00 0.  1.
</event>
<event>
 5   0  0.7610412E-07  0.3396538E+04  0.7818609E-02  0.8138757E-01
       -2   -1    0    0    0  501  0.00000000000E+00  0.00000000000E+00  0.15815329989E+04  0.15815329989E+04  0.25500000920E-02 0. -1.
        2   -1    0    0  501    0  0.00000000000E+00  0.00000000000E+00 -0.18236210863E+04  0.18236210863E+04  0.25500000920E-02 0.  1.
    10030    2    1    2    0    0  0.00000000000E+00  0.00000000000E+00 -0.24208808735E+03  0.34051540852E+04  0.33965376050E+04 0.  0.
        4    1    3    3  502    0 -0.10887190557E+04  0.36994818102E+03  0.11319042152E+04  0.16134991801E+04  0.12699999809E+01 0. -1.
       -4    1    3    3    0  502  0.10887190557E+04 -0.36994818102E+03 -0.13739923025E+04  0.17916549051E+04  0.12699999809E+01 0.  1.
</event>
<event>
 5   0  0.7838333E-07  0.3406498E+04  0.7818609E-02  0.8136313E-01
       -2   -1    0    0    0  501  0.00000000000E+00  0.00000000000E+00  0.11718365888E+04  0.11718365888E+04  0.25500000920E-02 0.  1.
        2   -1    0    0  501    0  0.00000000000E+00  0.00000000000E+00 -0.24756504860E+04  0.24756504860E+04  0.25500000920E-02 0. -1.
    10030    2    1    2    0    0  0.00000000000E+00  0.00000000000E+00 -0.13038138972E+04  0.36474870748E+04  0.34064983902E+04 0.  0.
        1    1    3    3  502    0 -0.14006979322E+04 -0.65368581189E+03  0.11410379065E+03  0.15499288736E+04  0.50400001928E-02 0.  1.
       -1    1    3    3    0  502  0.14006979322E+04  0.65368581189E+03 -0.14179176878E+04  0.20975582012E+04  0.50400001928E-02 0. -1.
</event>
<event>
 5   0  0.2592200E-07  0.3414251E+04  0.7818609E-02  0.8134417E-01
        1   -1    0    0  501    0  0.00000000000E+00  0.00000000000E+00  0.12931313554E+04  0.12931313554E+04  0.50400001928E-02 0. -1.
       -1   -1    0    0    0  501  0.00000000000E+00  0.00000000000E+00 -0.22536593609E+04  0.22536593609E+04  0.50400001928E-02 0.  1.
    10030    2    1    2    0    0  0.00000000000E+00  0.00000000000E+00 -0.96052800549E+03  0.35467907164E+04  0.34142510652E+04 0.  0.
        4    1    3    3  502    0 -0.71403534046E+03  0.49299395326E+03  0.10469725972E+04  0.13597951087E+04  0.12699999809E+01 0. -1.
       -4    1    3    3    0  502  0.71403534046E+03 -0.49299395326E+03 -0.20075006027E+04  0.21869956077E+04  0.12699999809E+01 0.  1.
</event>
<event>
 5   0  0.7822003E-07  0.3398911E+04  0.7818609E-02  0.8138174E-01
        2   -1    0    0  501    0  0.00000000000E+00  0.00000000000E+00  0.15515207482E+04  0.15515207482E+04  0.25500000920E-02 0.  1.
       -2   -1    0    0    0  501  0.00000000000E+00  0.00000000000E+00 -0.18614956597E+04  0.18614956597E+04  0.25500000920E-02 0. -1.
    10030    2    1    2    0    0  0.00000000000E+00  0.00000000000E+00 -0.30997491153E+03  0.34130164079E+04  0.33989110837E+04 0.  0.
        5    1    3    3  502    0  0.22071807478E+03 -0.15400397600E+04  0.53172787144E+03  0.16441397599E+04  0.46999998093E+01 0. -1.
       -5    1    3    3    0  502 -0.22071807478E+03  0.15400397600E+04 -0.84170278297E+03  0.17688766480E+04  0.46999998093E+01 0.  1.
</event>
<event>
 5   0  0.2592200E-07  0.3434235E+04  0.7818609E-02  0.8129555E-01
        1   -1    0    0  501    0  0.00000000000E+00  0.00000000000E+00  0.20411213851E+04  0.20411213851E+04  0.50400001928E-02 0.  1.
       -1   -1    0    0    0  501  0.00000000000E+00  0.00000000000E+00 -0.14445455885E+04  0.14445455885E+04  0.50400001928E-02 0. -1.
    10030    2    1    2    0    0  0.00000000000E+00  0.00000000000E+00  0.59657579656E+03  0.34856669736E+04  0.34342352234E+04 0.  0.
        4    1    3    3  502    0 -0.16333149354E+04  0.43477063550E+03 -0.91478626639E+01  0.16902155129E+04  0.12699999809E+01 0. -1.
       -4    1    3    3    0  502  0.16333149354E+04 -0.43477063550E+03  0.60572365923E+03  0.17954514607E+04  0.12699999809E+01 0.  1.
</event>
<event>
 5   0  0.2641442E-07  0.3430434E+04  0.7818609E-02  0.8130477E-01
       -1   -1    0    0    0  501  0.00000000000E+00  0.00000000000E+00  0.19055156175E+04  0.19055156175E+04  0.50400001928E-02 0.  1.
        1   -1    0    0  501    0  0.00000000000E+00  0.00000000000E+00 -0.15439232299E+04  0.15439232299E+04  0.50400001928E-02 0. -1.
    10030    2    1    2    0    0  0.00000000000E+00  0.00000000000E+00  0.36159238759E+03  0.34494388473E+04  0.34304342738E+04 0.  0.
        1    1    3    3  502    0  0.12836847587E+04 -0.77129380583E+03  0.10216279474E+04  0.18128608214E+04  0.50400001928E-02 0.  1.
       -1    1    3    3    0  502 -0.12836847587E+04  0.77129380583E+03 -0.66003555984E+03  0.16365780260E+04  0.50400001928E-02 0. -1.
</event>
<event>
 5   0  0.2641442E-07  0.3390058E+04  0.7818609E-02  0.8140351E-01
        1   -1    0    0  501    0  0.00000000000E+00  0.00000000000E+00  0.15058885515E+04  0.15058885515E+04  0.50400001928E-02 0. -1.
       -1   -1    0    0    0  501  0.00000000000E+00  0.00000000000E+00 -0.19079256930E+04  0.19079256930E+04  0.50400001928E-02 0.  1.
    10030    2    1    2    0    0  0.00000000000E+00  0.00000000000E+00 -0.40203714152E+03  0.34138142445E+04  0.33900580869E+04 0.  0.
        1    1    3    3  502    0  0.75099904830E+03  0.76141195637E+03 -0.15252912680E+04  0.18628637068E+04  0.50400001928E-02 0.  1.
       -1    1    3    3    0  502 -0.75099904830E+03 -0.76141195637E+03  0.11232541264E+04  0.15509505377E+04  0.50400001928E-02 0. -1.
</event>
<event>
 5   0  0.2622205E-07  0.3409768E+04  0.7818609E-02  0.8135513E-01
        1   -1    0    0  501    0  0.00000000000E+00  0.00000000000E+00  0.27085264919E+04  0.27085264919E+04  0.50400001928E-02 0. -1.
       -1   -1    0    0    0  501  0.00000000000E+00  0.00000000000E+00 -0.10731404213E+04  0.10731404213E+04  0.50400001928E-02 0.  1.
    10030    2    1    2    0    0  0.00000000000E+00  0.00000000000E+00  0.16353860706E+04  0.37816669132E+04  0.34097678869E+04 0.  0.
        3    1    3    3  502    0 -0.15625461917E+04  0.64266766103E+03  0.56464805887E+03  0.17814038746E+04  0.10100000352E+00 0.  1.
       -3    1    3    3    0  502  0.15625461917E+04 -0.64266766103E+03  0.10707380117E+04  0.20002630386E+04  0.10100000352E+00 0. -1.
</event>
<event>
 5   0  0.7822003E-07  0.3399688E+04  0.7818609E-02  0.8137983E-01
        2   -1    0    0  501    0  0.00000000000E+00  0.00000000000E+00  0.29154251803E+04  0.29154251803E+04  0.25500000920E-02 0. -1.
       -2   -1    0    0    0  501  0.00000000000E+00  0.00000000000E+00 -0.99109741569E+03  0.99109741569E+03  0.25500000920E-02 0.  1.
    10030    2    1    2    0    0  0.00000000000E+00  0.00000000000E+00  0.19243277646E+04  0.39065225960E+04  0.33996884338E+04 0.  0.
        5    1    3    3  502    0 -0.24642609423E+03 -0.29301680264E+03 -0.94089983318E+03  0.10158244202E+04  0.46999998093E+01 0.  1.
       -5    1    3    3    0  502  0.24642609423E+03  0.29301680264E+03  0.28652275978E+04  0.28906981758E+04  0.46999998093E+01 0. -1.
</event>
<event>
 5   0  0.7838333E-07  0.3334169E+04  0.7818609E-02  0.8154255E-01
        2   -1    0    0  501    0  0.00000000000E+00  0.00000000000E+00  0.18835221275E+04  0.18835221275E+04  0.25500000920E-02 0.  1.
       -2   -1    0    0    0  501  0.00000000000E+00  0.00000000000E+00 -0.14755182675E+04  0.14755182675E+04  0.25500000920E-02 0. -1.
    10030    2    1    2    0    0  0.00000000000E+00  0.00000000000E+00  0.40800386002E+03  0.33590403950E+04  0.33341693457E+04 0.  0.
        1    1    3    3  502    0  0.41116387027E+03 -0.64669261663E+03 -0.12875499384E+04  0.14983497297E+04  0.50400001928E-02 0. -1.
       -1    1    3    3    0  502 -0.41116387027E+03  0.64669261663E+03  0.16955537984E+04  0.18606906653E+04  0.50400001928E-02 0.  1.
</event>
<event>
 5   0  0.2592200E-07  0.3395086E+04  0.7818609E-02  0.8139113E-01
       -1   -1    0    0    0  501  0.00000000000E+00  0.00000000000E+00  0.15103922299E+04  0.15103922300E+04  0.50400001928E-02 0.  1.
        1   -1    0    0  501    0  0.00000000000E+00  0.00000000000E+00 -0.19078836193E+04  0.19078836193E+04  0.50400001928E-02 0. -1.
    10030    2    1    2    0    0  0.00000000000E+00  0.00000000000E+00 -0.39749138933E+03  0.34182758492E+04  0.33950862105E+04 0.  0.
        4    1    3    3  502    0  0.75712349971E+03  0.90574228550E+03 -0.14269326029E+04  0.18519566268E+04  0.12699999809E+01 0. -1.
       -4    1    3    3    0  502 -0.75712349971E+03 -0.90574228550E+03  0.10294412135E+04  0.15663192224E+04  0.12699999809E+01 0.  1.
</event>
<event>
 5   0  0.2622205E-07  0.3410006E+04  0.7818609E-02  0.8135455E-01
       -1   -1    0    0    0  501  0.00000000000E+00  0.00000000000E+00  0.33348424124E+04  0.33348424124E+04  0.50400001928E-02 0. -1.
        1   -1    0    0  501    0  0.00000000000E+00  0.00000000000E+00 -0.87171616017E+03  0.87171616018E+03  0.50400001928E-02 0.  1.
    10030    2    1    2    0    0  0.00000000000E+00  0.00000000000E+00  0.24631262522E+04  0.42065585726E+04  0.34100064648E+04 0.  0.
        3    1    3    3  502    0 -0.10814727472E+04  0.13008479612E+04  0.96916058871E+03  0.19496309851E+04  0.10100000352E+00 0.  1.
       -3    1    3    3    0  502  0.10814727472E+04 -0.13008479612E+04  0.14939656635E+04  0.22569275875E+04  0.10100000352E+00 0. -1.
</event>
<event>
 5   0  0.7822003E-07  0.3409692E+04  0.7818609E-02  0.8135532E-01
       -2   -1    0    0    0  501  0.00000000000E+00  0.00000000000E+00  0.10480409961E+04  0.10480409961E+04  0.25500000920E-02 0. -1.
        2   -1    0    0  501    0  0.00000000000E+00  0.00000000000E+00 -0.27732697737E+04  0.27732697737E+04  0.25500000920E-02 0.  1.
    10030    2    1    2    0    0  0.00000000000E+00  0.00000000000E+00 -0.17252287776E+04  0.38213107697E+04  0.34096923122E+04 0.  0.
        5    1    3    3  502    0 -0.31982178271E+03 -0.15044293879E+04 -0.38382402956E+02  0.15385347103E+04  0.46999998093E+01 0.  1.
       -5    1    3    3    0  502  0.31982178271E+03  0.15044293879E+04 -0.16868463746E+04  0.22827760594E+04  0.46999998093E+01 0. -1.
</event>
<event>
 5   0  0.2622205E-07  0.3406664E+04  0.7818609E-02  0.8136273E-01
        1   -1    0    0  501    0  0.00000000000E+00  0.00000000000E+00  0.16451046838E+04  0.16451046838E+04  0.50400001928E-02 0.  1.
       -1   -1    0    0    0  501  0.00000000000E+00  0.00000000000E+00 -0.17636206459E+04  0.17636206459E+04  0.50400001928E-02 0. -1.
    10030    2    1    2    0    0  0.00000000000E+00  0.00000000000E+00 -0.11851596210E+03  0.34087253296E+04  0.34066644008E+04 0.  0.
        3    1    3    3  502    0 -0.13452266084E+04  0.42892611018E+03  0.89406618585E+03  0.16712170987E+04  0.10100000352E+00 0.  1.
       -3    1    3    3    0  502  0.13452266084E+04 -0.42892611018E+03 -0.10125821480E+04  0.17375082309E+04  0.10100000352E+00 0. -1.
</event>
<event>
 5   0  0.2622205E-07  0.3478450E+04  0.7818609E-02  0.8118916E-01
       -1   -1    0    0    0  501  0.00000000000E+00  0.00000000000E+00  0.14264686205E+04  0.14264686205E+04  0.50400001928E-02 0. -1.
        1   -1    0    0  501    0  0.00000000000E+00  0.00000000000E+00 -0.21205543451E+04  0.21205543451E+04  0.50400001928E-02 0.  1.
    10030    2    1    2    0    0  0.00000000000E+00  0.00000000000E+00 -0.69408572455E+03  0.35470229656E+04  0.34784503626E+04 0.  0.
        3    1    3    3  502    0  0.16891966710E+04  0.38386538101E+03 -0.18852348902E+03  0.17424922210E+04  0.10100000352E+00 0.  1.
       -3    1    3    3    0  502 -0.16891966710E+04 -0.38386538101E+03 -0.50556223553E+03  0.18045307446E+04  0.10100000352E+00 0. -1.
</event>
<event>
 5   0  0.7610412E-07  0.3396314E+04  0.7818609E-02  0.8138812E-01
        2   -1    0    0  501    0  0.00000000000E+00  0.00000000000E+00  0.21975901799E+04  0.21975901799E+04  0.25500000920E-02 0.  1.
       -2   -1    0    0    0  501  0.00000000000E+00  0.00000000000E+00 -0.13122266719E+04  0.13122266719E+04  0.25500000920E-02 0. -1.
    10030    2    1    2    0    0  0.00000000000E+00  0.00000000000E+00  0.88536350793E+03  0.35098168518E+04  0.33963135591E+04 0.  0.
        4    1    3    3  502    0  0.85907375541E+03  0.97577006645E+03  0.15717132617E+04  0.20397105505E+04  0.12699999809E+01 0.  1.
       -4    1    3    3    0  502 -0.85907375541E+03 -0.97577006645E+03 -0.68634975375E+03  0.14701063013E+04  0.12699999809E+01 0. -1.
</event>
<event>
 5   0  0.7899402E-07  0.3387869E+04  0.7818609E-02  0.8140890E-01
       -2   -1    0    0    0  501  0.00000000000E+00  0.00000000000E+00  0.16202584533E+04  0.16202584533E+04  0.25500000920E-02 0. -1.
        2   -1    0    0  501    0  0.00000000000E+00  0.00000000000E+00 -0.17709602761E+04  0.17709602761E+04  0.25500000920E-02 0.  1.
    10030    2    1    2    0    0  0.00000000000E+00  0.00000000000E+00 -0.15070182278E+03  0.33912187294E+04  0.33878685676E+04 0.  0.
        2    1    3    3  502    0  0.12243000958E+04 -0.11488331510E+02  0.10964350027E+04  0.16435365592E+04  0.25500000920E-02 0. -1.
       -2    1    3    3    0  502 -0.12243000958E+04  0.11488331510E+02 -0.12471368255E+04  0.17476821702E+04  0.25500000920E-02 0.  1.
</event>
<event>
 5   0  0.2599367E-07  0.3505069E+04  0.7818609E-02  0.8112590E-01
       -1   -1    0    0    0  501  0.00000000000E+00  0.00000000000E+00  0.22814172599E+04  0.22814172599E+04  0.50400001928E-02 0.  1.
        1   -1    0    0  501    0  0.00000000000E+00  0.00000000000E+00 -0.13462587689E+04  0.13462587689E+04  0.50400001928E-02 0. -1.
    10030    2    1    2    0    0  0.00000000000E+00  0.00000000000E+00  0.93515849100E+03  0.36276760289E+04  0.35050694668E+04 0.  0.
        2    1    3    3  502    0  0.30974994998E+03 -0.12626819973E+04  0.16838751957E+04  0.21273802041E+04  0.25500000920E-02 0.  1.
       -2    1    3    3    0  502 -0.30974994998E+03  0.12626819973E+04 -0.74871670472E+03  0.15002958248E+04  0.25500000920E-02 0. -1.
</event>
<event>
 5   0  0.7899402E-07  0.3413526E+04  0.7818609E-02  0.8134595E-01
        2   -1    0    0  501    0  0.00000000000E+00  0.00000000000E+00  0.18399871557E+04  0.18399871557E+04  0.25500000920E-02 0.  1.
       -2   -1    0    0    0  501  0.00000000000E+00  0.00000000000E+00 -0.15831846868E+04  0.15831846868E+04  0.25500000920E-02 0. -1.
    10030    2    1    2    0    0  0.00000000000E+00  0.00000000000E+00  0.25680246889E+03  0.34231718424E+04  0.34135257366E+04 0.  0.
        2    1    3    3  502    0  0.13383215882E+04  0.98295678141E+03  0.52414378677E+03  0.17412740786E+04  0.25500000920E-02 0.  1.
       -2    1    3    3    0  502 -0.13383215882E+04 -0.98295678141E+03 -0.26734131788E+03  0.16818977638E+04  0.25500000920E-02 0. -1.
</event>
<event>
 5   0  0.2599367E-07  0.3408822E+04  0.7818609E-02  0.8135745E-01
       -1   -1    0    0    0  501  0.00000000000E+00  0.00000000000E+00  0.20949808351E+04  0.20949808351E+04  0.50400001928E-02 0. -1.
        1   -1    0    0  501    0  0.00000000000E+00  0.00000000000E+00 -0.13866553433E+04  0.13866553433E+04  0.50400001928E-02 0.  1.
    10030    2    1    2    0    0  0.00000000000E+00  0.00000000000E+00  0.70832549177E+03  0.34816361784E+04  0.34088217138E+04 0.  0.
        2    1    3    3  502    0 -0.62063332916E+03 -0.15239798405E+04  0.80785393452E+03  0.18331198169E+04  0.25500000920E-02 0. -1.
       -2    1    3    3    0  502  0.62063332916E+03  0.15239798405E+04 -0.99528442751E+02  0.16485163616E+04  0.25500000920E-02 0.  1.
</event>
<event>
 5   0  0.2553250E-07  0.3150622E+04  0.7818609E-02  0.8201981E-01
        3   -1    0    0  501    0  0.00000000000E+00  0.00000000000E+00  0.95095121418E+03  0.95095121954E+03  0.10100000352E+00 0. -1.
       -3   -1    0    0    0  501  0.00000000000E+00  0.00000000000E+00 -0.26096028742E+04  0.26096028762E+04  0.10100000352E+00 0.  1.
    10030    2    1    2    0    0  0.00000000000E+00  0.00000000000E+00 -0.16586516600E+04  0.35605540957E+04  0.31506221829E+04 0.  0.
        3    1    3    3  502    0 -0.12138922862E+03 -0.11898432580E+04 -0.19879753912E+04  0.23200233813E+04  0.10100000352E+00 0.  1.
       -3    1    3    3    0  502  0.12138922862E+03  0.11898432580E+04  0.32932373117E+03  0.12405307144E+04  0.10100000352E+00 0. -1.
</event>
<event>
 5   0  0.2641442E-07  0.3295836E+04  0.7818609E-02  0.8163956E-01
        1   -1    0    0  501    0  0.00000000000E+00  0.00000000000E+00  0.16141046387E+04  0.16141046387E+04  0.50400001928E-02 0.  1.
       -1   -1    0    0    0  501  0.00000000000E+00  0.00000000000E+00 -0.16824399962E+04  0.16824399962E+04  0.50400001928E-02 0. -1.
    10030    2    1    2    0    0  0.00000000000E+00  0.00000000000E+00 -0.68335357438E+02  0.32965446349E+04  0.32958362837E+04 0.  0.
        1    1    3    3  502    0  0.95925491279E+03 -0.13284464989E+04  0.14106733223E+03  0.16446398027E+04  0.50400001928E-02 0. -1.
       -1    1    3    3    0  502 -0.95925491279E+03  0.13284464989E+04 -0.20940268967E+03  0.16519048322E+04  0.50400001928E-02 0.  1.
</event>
<event>
 5   0  0.7899402E-07  0.3407840E+04  0.7818609E-02  0.8135985E-01
       -2   -1    0    0    0  501  0.00000000000E+00  0.00000000000E+00  0.11648741796E+04  0.11648741796E+04  0.25500000920E-02 0. -1.
        2   -1    0    0  501    0  0.00000000000E+00  0.00000000000E+00 -0.24924089264E+04  0.24924089264E+04  0.25500000920E-02 0.  1.
    10030    2    1    2    0    0  0.00000000000E+00  0.00000000000E+00 -0.13275347468E+04  0.36572831060E+04  0.34078396696E+04 0.  0.
        2    1    3    3  502    0  0.52590879499E+03 -0.10648986914E+04 -0.19749810718E+04  0.23045909654E+04  0.25500000920E-02 0.  1.
       -2    1    3    3    0  502 -0.52590879499E+03  0.10648986914E+04  0.64744632500E+03  0.13526921406E+04  0.25500000920E-02 0. -1.
</event>
<event>
 5   0  0.7610412E-07  0.3400053E+04  0.7818609E-02  0.8137893E-01
        2   -1    0    0  501    0  0.00000000000E+00  0.00000000000E+00  0.21501262001E+04  0.21501262001E+04  0.25500000920E-02 0. -1.
       -2   -1    0    0    0  501  0.00000000000E+00  0.00000000000E+00 -0.13441494376E+04  0.13441494376E+04  0.25500000920E-02 0.  1.
    10030    2    1    2    0    0  0.00000000000E+00  0.00000000000E+00  0.80597676256E+03  0.34942756377E+04  0.34000534835E+04 0.  0.
        4    1    3    3  502    0  0.37579737765E+03 -0.59161420040E+03 -0.11887573991E+04  0.13799915934E+04  0.12699999809E+01 0.  1.
       -4    1    3    3    0  502 -0.37579737765E+03  0.59161420040E+03  0.19947341617E+04  0.21142840442E+04  0.12699999809E+01 0. -1.
</event>
<event>
 5   0  0.7838333E-07  0.3333376E+04  0.7818609E-02  0.8154455E-01
        2   -1    0    0  501    0  0.00000000000E+00  0.00000000000E+00  0.16178063083E+04  0.16178063083E+04  0.25500000920E-02 0. -1.
       -2   -1    0    0    0  501  0.00000000000E+00  0.00000000000E+00 -0.17170462415E+04  0.17170462415E+04  0.25500000920E-02 0.  1.
    10030    2    1    2    0    0  0.00000000000E+00  0.00000000000E+00 -0.99239933146E+02  0.33348525498E+04  0.33333756111E+04 0.  0.
        1    1    3    3  502    0  0.26349792516E+03  0.22176534581E+03 -0.16810592778E+04  0.17159753264E+04  0.50400001928E-02 0.  1.
       -1    1    3    3    0  502 -0.26349792516E+03 -0.22176534581E+03  0.15818193447E+04  0.16188772234E+04  0.50400001928E-02 0. -1.
</event>
<event>
 5   0  0.7838333E-07  0.3349948E+04  0.7818609E-02  0.8150301E-01
        2   -1    0    0  501    0  0.00000000000E+00  0.00000000000E+00  0.21322445980E+04  0.21322445980E+04  0.25500000920E-02 0.  1.
       -2   -1    0    0    0  501  0.00000000000E+00  0.00000000000E+00 -0.13157675592E+04  0.13157675592E+04  0.25500000920E-02 0. -1.
    10030    2    1    2    0    0  0.00000000000E+00  0.00000000000E+00  0.81647703877E+03  0.34480121573E+04  0.33499482208E+04 0.  0.
        1    1    3    3  502    0  0.15285452177E+04  0.61061733875E+03  0.72753603164E+03  0.17996145961E+04  0.50400001928E-02 0. -1.
       -1    1    3    3    0  502 -0.15285452177E+04 -0.61061733875E+03  0.88941007130E+02  0.16483975612E+04  0.50400001928E-02 0.  1.
</event>
<event>
 5   0  0.2599367E-07  0.3419004E+04  0.7818609E-02  0.8133258E-01
        1   -1    0    0  501    0  0.00000000000E+00  0.00000000000E+00  0.19848556892E+04  0.19848556892E+04  0.50400001928E-02 0. -1.
       -1   -1    0    0    0  501  0.00000000000E+00  0.00000000000E+00 -0.14723478030E+04  0.14723478030E+04  0.50400001928E-02 0.  1.
    10030    2    1    2    0    0  0.00000000000E+00  0.00000000000E+00  0.51250788622E+03  0.34572034922E+04  0.34190044828E+04 0.  0.
        2    1    3    3  502    0 -0.16013477624E+03 -0.11242884571E+04  0.15483133728E+04  0.19201411359E+04  0.25500000920E-02 0. -1.
       -2    1    3    3    0  502  0.16013477624E+03  0.11242884571E+04 -0.10358054866E+04  0.15370623564E+04  0.25500000920E-02 0.  1.
</event>
<event>
 5   0  0.2553250E-07  0.3411606E+04  0.7818609E-02  0.8135064E-01
        4   -1    0    0  501    0  0.00000000000E+00  0.00000000000E+00  0.11251051877E+04  0.11251059045E+04  0.12699999809E+01 0. -1.
       -4   -1    0    0    0  501  0.00000000000E+00  0.00000000000E+00 -0.25862139389E+04  0.25862142507E+04  0.12699999809E+01 0.  1.
    10030    2    1    2    0    0  0.00000000000E+00  0.00000000000E+00 -0.14611087512E+04  0.37113201552E+04  0.34116064415E+04 0.  0.
        5    1    3    3  502    0 -0.26088225126E+03 -0.59673272999E+03 -0.24456348644E+04  0.25308697083E+04  0.46999998093E+01 0.  1.
       -5    1    3    3    0  502  0.26088225126E+03  0.59673272999E+03  0.98452611325E+03  0.11804504470E+04  0.46999998093E+01 0. -1.
</event>
<event>
 5   0  0.7838333E-07  0.3437484E+04  0.7818609E-02  0.8128767E-01
       -2   -1    0    0    0  501  0.00000000000E+00  0.00000000000E+00  0.14654196925E+04  0.14654196925E+04  0.25500000920E-02 0. -1.
        2   -1    0    0  501    0  0.00000000000E+00  0.00000000000E+00 -0.20158552989E+04  0.20158552989E+04  0.25500000920E-02 0.  1.
    10030    2    1    2    0    0  0.00000000000E+00  0.00000000000E+00 -0.55043560637E+03  0.34812749914E+04  0.34374839940E+04 0.  0.
        1    1    3    3  502    0  0.15234119391E+04 -0.67938503821E+03 -0.69489539489E+03  0.18069940720E+04  0.50400001928E-02 0.  1.
       -1    1    3    3    0  502 -0.15234119391E+04  0.67938503821E+03  0.14445978852E+03  0.16742809194E+04  0.50400001928E-02 0. -1.
</event>
<event>
 5   0  0.7822003E-07  0.3395140E+04  0.7818609E-02  0.8139100E-01
       -2   -1    0    0    0  501  0.00000000000E+00  0.00000000000E+00  0.11682859415E+04  0.11682859415E+04  0.25500000920E-02 0.  1.
        2   -1    0    0  501    0  0.00000000000E+00  0.00000000000E+00 -0.24666428049E+04  0.24666428049E+04  0.25500000920E-02 0. -1.
    10030    2    1    2    0    0  0.00000000000E+00  0.00000000000E+00 -0.12983568634E+04  0.36349287463E+04  0.33951401218E+04 0.  0.
        5    1    3    3  502    0  0.61860482583E+03  0.33682905460E+03 -0.23028020763E+04  0.24081206854E+04  0.46999998093E+01 0. -1.
       -5    1    3    3    0  502 -0.61860482583E+03 -0.33682905460E+03  0.10044452130E+04  0.12268080610E+04  0.46999998093E+01 0.  1.
</event>
<event>
 5   0  0.7610412E-07  0.3365580E+04  0.7818609E-02  0.8146406E-01
       -2   -1    0    0    0  501  0.00000000000E+00  0.00000000000E+00  0.14024022913E+04  0.14024022913E+04  0.25500000920E-02 0.  1.
        2   -1    0    0  501    0  0.00000000000E+00  0.00000000000E+00 -0.20192372429E+04  0.20192372429E+04  0.25500000920E-02 0. -1.
    10030    2    1    2    0    0  0.00000000000E+00  0.00000000000E+00 -0.61683495160E+03  0.34216395343E+04  0.33655804470E+04 0.  0.
        4    1    3    3  502    0 -0.62636602668E+03  0.15431295430E+04 -0.55367866116E+03  0.17550341474E+04  0.12699999809E+01 0.  1.
       -4    1    3    3    0  502  0.62636602668E+03 -0.15431295430E+04 -0.63156290447E+02  0.16666053869E+04  0.12699999809E+01 0. -1.
</event>
<event>
 5   0  0.2641442E-07  0.3386605E+04  0.7818609E-02  0.8141202E-01
        1   -1    0    0  501    0  0.00000000000E+00  0.00000000000E+00  0.18264703583E+04  0.18264703583E+04  0.50400001928E-02 0. -1.
       -1   -1    0    0    0  501  0.00000000000E+00  0.00000000000E+00 -0.15698438358E+04  0.15698438358E+04  0.50400001928E-02 0.  1.
    10030    2    1    2    0    0  0.00000000000E+00  0.00000000000E+00  0.25662652249E+03  0.33963141942E+04  0.33866049273E+04 0.  0.
        1    1    3    3  502    0 -0.10524409668E+03  0.88891036427E+03  0.15698051092E+04  0.18070766549E+04  0.50400001928E-02 0. -1.
       -1    1    3    3    0  502  0.10524409668E+03 -0.88891036427E+03 -0.13131785867E+04  0.15892375393E+04  0.50400001928E-02 0.  1.
</event>
<event>
 5   0  0.8489228E-07  0.3435946E+04  0.7818609E-02  0.8129140E-01
       -2   -1    0    0    0  501  0.00000000000E+00  0.00000000000E+00  0.19057042861E+04  0.19057042861E+04  0.25500000920E-02 0.  1.
        2   -1    0    0  501    0  0.00000000000E+00  0.00000000000E+00 -0.15487347390E+04  0.15487347390E+04  0.25500000920E-02 0. -1.
    10030    2    1    2    0    0  0.00000000000E+00  0.00000000000E+00  0.35696954706E+03  0.34544390251E+04  0.34359455352E+04 0.  0.
        3    1    3    3  502    0 -0.16234783474E+03  0.49108151893E+03 -0.14685980576E+04  0.15570157811E+04  0.10100000352E+00 0. -1.
       -3    1    3    3    0  502  0.16234783474E+03 -0.49108151893E+03  0.18255676046E+04  0.18974232440E+04  0.10100000352E+00 0.  1.
</event>
<event>
 5   0  0.7838333E-07  0.3393426E+04  0.7818609E-02  0.8139522E-01
        2   -1    0    0  501    0  0.00000000000E+00  0.00000000000E+00  0.13239451871E+04  0.13239451871E+04  0.25500000920E-02 0.  1.
       -2   -1    0    0    0  501  0.00000000000E+00  0.00000000000E+00 -0.21744367891E+04  0.21744367891E+04  0.25500000920E-02 0. -1.
    10030    2    1    2    0    0  0.00000000000E+00  0.00000000000E+00 -0.85049160197E+03  0.34983819763E+04  0.33934260692E+04 0.  0.
        1    1    3    3  502    0 -0.11391439109E+03 -0.17602956321E+03 -0.21610293960E+04  0.21711773179E+04  0.50400001928E-02 0. -1.
       -1    1    3    3    0  502  0.11391439109E+03  0.17602956321E+03  0.13105377940E+04  0.13272046583E+04  0.50400001928E-02 0.  1.
</event>
<event>
 5   0  0.2592200E-07  0.3399300E+04  0.7818609E-02  0.8138078E-01
        1   -1    0    0  501    0  0.00000000000E+00  0.00000000000E+00  0.22874457900E+04  0.22874457900E+04  0.50400001928E-02 0.  1.
       -1   -1    0    0    0  501  0.00000000000E+00  0.00000000000E+00 -0.12628978657E+04  0.12628978658E+04  0.50400001928E-02 0. -1.
    10030    2    1    2    0    0  0.00000000000E+00  0.00000000000E+00  0.10245479242E+04  0.35503436557E+04  0.33993001669E+04 0.  0.
        4    1    3    3  502    0 -0.11126166968E+04  0.95015190393E+03 -0.39108828082E+03  0.15144821593E+04  0.12699999809E+01 0. -1.
       -4    1    3    3    0  502  0.11126166968E+04 -0.95015190393E+03  0.14156362051E+04  0.20358614964E+04  0.12699999809E+01 0.  1.
</event>
<event>
 5   0  0.8489228E-07  0.3399847E+04  0.7818609E-02  0.8137944E-01
        2   -1    0    0  501    0  0.00000000000E+00  0.00000000000E+00  0.16641487786E+04  0.16641487786E+04  0.25500000920E-02 0. -1.
       -2   -1    0    0    0  501  0.00000000000E+00  0.00000000000E+00 -0.17364673183E+04  0.17364673183E+04  0.25500000920E-02 0.  1.
    10030    2    1    2    0    0  0.00000000000E+00  0.00000000000E+00 -0.72318539713E+02  0.34006160970E+04  0.33998470359E+04 0.  0.
        3    1    3    3  502    0 -0.43717941072E+03  0.68569480567E+03  0.14569733540E+04  0.16685546344E+04  0.10100000352E+00 0. -1.
       -3    1    3    3    0  502  0.43717941072E+03 -0.68569480567E+03 -0.15292918937E+04  0.17320614625E+04  0.10100000352E+00 0.  1.
</event>
<event>
 5   0  0.7838333E-07  0.3457289E+04  0.7818609E-02  0.8123987E-01
        2   -1    0    0  501    0  0.00000000000E+00  0.00000000000E+00  0.22728813667E+04  0.22728813667E+04  0.25500000920E-02 0. -1.
       -2   -1    0    0    0  501  0.00000000000E+00  0.00000000000E+00 -0.13147239480E+04  0.13147239480E+04  0.25500000920E-02 0.  1.
    10030    2    1    2    0    0  0.00000000000E+00  0.00000000000E+00  0.95815741873E+03  0.35876053147E+04  0.34572888590E+04 0.  0.
        1    1    3    3  502    0  0.67692391744E+03 -0.23608487122E+03  0.21113439722E+04  0.22297388693E+04  0.50400001928E-02 0. -1.
       -1    1    3    3    0  502 -0.67692391744E+03  0.23608487122E+03 -0.11531865534E+04  0.13578664454E+04  0.50400001928E-02 0.  1.
</event>
<event>
 5   0  0.2599367E-07  0.3416978E+04  0.7818609E-02  0.8133752E-01
       -1   -1    0    0    0  501  0.00000000000E+00  0.00000000000E+00  0.21526518918E+04  0.21526518918E+04  0.50400001928E-02 0.  1.
        1   -1    0    0  501    0  0.00000000000E+00  0.00000000000E+00 -0.13559715157E+04  0.13559715157E+04  0.50400001928E-02 0. -1.
    10030    2    1    2    0    0  0.00000000000E+00  0.00000000000E+00  0.79668037614E+03  0.35086234076E+04  0.34169779915E+04 0.  0.
        2    1    3    3  502    0  0.13363603036E+04  0.57748648255E+03 -0.51983792217E+03  0.15458269514E+04  0.25500000920E-02 0. -1.
       -2    1    3    3    0  502 -0.13363603036E+04 -0.57748648255E+03  0.13165182983E+04  0.19627964561E+04  0.25500000920E-02 0.  1.
</event>
<event>
 5   0  0.7822003E-07  0.3218988E+04  0.7818609E-02  0.8183820E-01
        2   -1    0    0  501    0  0.00000000000E+00  0.00000000000E+00  0.30307129578E+04  0.30307129578E+04  0.25500000920E-02 0. -1.
       -2   -1    0    0    0  501  0.00000000000E+00  0.00000000000E+00 -0.85473993681E+03  0.85473993681E+03  0.25500000920E-02 0.  1.
    10030    2    1    2    0    0  0.00000000000E+00  0.00000000000E+00  0.21759730210E+04  0.38854528946E+04  0.32189882896E+04 0.  0.
        5    1    3    3  502    0  0.58487887671E+02  0.34387429877E+03  0.29845323929E+04  0.30048504224E+04  0.46999998093E+01 0. -1.
       -5    1    3    3    0  502 -0.58487887671E+02 -0.34387429877E+03 -0.80855937188E+03  0.88060247230E+03  0.46999998093E+01 0.  1.
</event>
<event>
 5   0  0.2641442E-07  0.3414241E+04  0.7818609E-02  0.8134420E-01
        1   -1    0    0  501    0  0.00000000000E+00  0.00000000000E+00  0.19910104221E+04  0.19910104221E+04  0.50400001928E-02 0. -1.
       -1   -1    0    0    0  501  0.00000000000E+00  0.00000000000E+00 -0.14637088458E+04  0.14637088459E+04  0.50400001928E-02 0.  1.
    10030    2    1    2    0    0  0.00000000000E+00  0.00000000000E+00  0.52730157626E+03  0.34547192680E+04  0.34142405112E+04 0.  0.
        1    1    3    3  502    0  0.69259231668E+02 -0.14269471301E+04  0.12092270376E+04  0.18716850648E+04  0.50400001928E-02 0. -1.
       -1    1    3    3    0  502 -0.69259231668E+02  0.14269471301E+04 -0.68192546138E+03  0.15830342031E+04  0.50400001928E-02 0.  1.
</event>
<event>
 5   0  0.7838333E-07  0.3363047E+04  0.7818609E-02  0.8147036E-01
        2   -1    0    0  501    0  0.00000000000E+00  0.00000000000E+00  0.14835261959E+04  0.14835261959E+04  0.25500000920E-02 0. -1.
       -2   -1    0    0    0  501  0.00000000000E+00  0.00000000000E+00 -0.19059459847E+04  0.19059459847E+04  0.25500000920E-02 0.  1.
    10030    2    1    2    0    0  0.00000000000E+00  0.00000000000E+00 -0.42241978879E+03  0.33894721807E+04  0.33630467118E+04 0.  0.
        1    1    3    3  502    0 -0.24520892284E+03  0.16629899862E+04 -0.25464944783E+03  0.17001498321E+04  0.50400001928E-02 0.  1.
       -1    1    3    3    0  502  0.24520892284E+03 -0.16629899862E+04 -0.16777034096E+03  0.16893223486E+04  0.50400001928E-02 0. -1.
</event>
<event>
 5   0  0.7899402E-07  0.3413492E+04  0.7818609E-02  0.8134603E-01
        2   -1    0    0  501    0  0.00000000000E+00  0.00000000000E+00  0.10981280227E+04  0.10981280227E+04  0.25500000920E-02 0.  1.
       -2   -1    0    0    0  501  0.00000000000E+00  0.00000000000E+00 -0.26526801608E+04  0.26526801608E+04  0.25500000920E-02 0. -1.
    10030    2    1    2    0    0  0.00000000000E+00  0.00000000000E+00 -0.15545521381E+04  0.37508081834E+04  0.34134922995E+04 0.  0.
        2    1    3    3  502    0  0.10027096421E+04 -0.70567632859E+03 -0.20818547752E+04  0.24160970618E+04  0.25500000920E-02 0. -1.
       -2    1    3    3    0  502 -0.10027096421E+04  0.70567632859E+03  0.52730263705E+03  0.13347111216E+04  0.25500000920E-02 0.  1.
</event>
<event>
 5   0  0.2553250E-07  0.3441844E+04  0.7818609E-02  0.8127712E-01
       -1   -1    0    0    0  501  0.00000000000E+00  0.00000000000E+00  0.17201108709E+04  0.17201108709E+04  0.50400001928E-02 0.  1.
        1   -1    0    0  501    0  0.00000000000E+00  0.00000000000E+00 -0.17217339049E+04  0.17217339049E+04  0.50400001928E-02 0. -1.
    10030    2    1    2    0    0  0.00000000000E+00  0.00000000000E+00 -0.16230340274E+01  0.34418447758E+04  0.34418443931E+04 0.  0.
        5    1    3    3  502    0  0.15249629536E+03  0.10812978203E+04  0.13292604411E+04  0.17202951800E+04  0.46999998093E+01 0.  1.
       -5    1    3    3    0  502 -0.15249629536E+03 -0.10812978203E+04 -0.13308834751E+04  0.17215495957E+04  0.46999998093E+01 0. -1.
</event>
<event>
 5   0  0.2622205E-07  0.3397422E+04  0.7818609E-02  0.8138539E-01
       -1   -1    0    0    0  501  0.00000000000E+00  0.00000000000E+00  0.11250428980E+04  0.11250428980E+04  0.50400001928E-02 0.  1.
        1   -1    0    0  501    0  0.00000000000E+00  0.00000000000E+00 -0.25648972047E+04  0.25648972047E+04  0.50400001928E-02 0. -1.
    10030    2    1    2    0    0  0.00000000000E+00  0.00000000000E+00 -0.14398543067E+04  0.36899401027E+04  0.33974221900E+04 0.  0.
        3    1    3    3  502    0  0.40162537456E+03 -0.16442844839E+04 -0.87598187423E+03  0.19058642815E+04  0.10100000352E+00 0. -1.
       -3    1    3    3    0  502 -0.40162537456E+03  0.16442844839E+04 -0.56387243244E+03  0.17840758212E+04  0.10100000352E+00 0.  1.
</event>
<event>
 5   0  0.7838333E-07  0.3410436E+04  0.7818609E-02  0.8135350E-01
        2   -1    0    0  501    0  0.00000000000E+00  0.00000000000E+00  0.22439871516E+04  0.22439871516E+04  0.25500000920E-02 0.  1.
       -2   -1    0    0    0  501  0.00000000000E+00  0.00000000000E+00 -0.12958042390E+04  0.12958042390E+04  0.25500000920E-02 0. -1.
    10030    2    1    2    0    0  0.00000000000E+00  0.00000000000E+00  0.94818291266E+03  0.35397913906E+04  0.34104357864E+04 0.  0.
        1    1    3    3  502    0  0.51478989999E+03  0.15143576962E+04 -0.13949967450E+03  0.16055366805E+04  0.50400001928E-02 0. -1.
       -1    1    3    3    0  502 -0.51478989999E+03 -0.15143576962E+04  0.10876825872E+04  0.19342547101E+04  0.50400001928E-02 0.  1.
</event>
<event>
 5   0  0.7822003E-07  0.3331657E+04  0.7818609E-02  0.8154887E-01
        2   -1    0    0  501    0  0.00000000000E+00  0.00000000000E+00  0.20752820538E+04  0.20752820538E+04  0.25500000920E-02 0. -1.
       -2   -1    0    0    0  501  0.00000000000E+00  0.00000000000E+00 -0.13371600904E+04  0.13371600904E+04  0.25500000920E-02 0.  1.
    10030    2    1    2    0    0  0.00000000000E+00  0.00000000000E+00  0.73812196343E+03  0.34124421441E+04  0.33316568482E+04 0.  0.
        5    1    3    3  502    0  0.56290456252E+02 -0.12130932110E+04 -0.79885032380E+03  0.14535981851E+04  0.46999998093E+01 0.  1.
       -5    1    3    3    0  502 -0.56290456252E+02  0.12130932110E+04  0.15369722872E+04  0.19588439590E+04  0.46999998093E+01 0. -1.
</event>
<event>
 5   0  0.2553250E-07  0.3394478E+04  0.7818609E-02  0.8139263E-01
       -1   -1    0    0    0  501  0.00000000000E+00  0.00000000000E+00  0.13884444666E+04  0.13884444666E+04  0.50400001928E-02 0.  1.
        1   -1    0    0  501    0  0.00000000000E+00  0.00000000000E+00 -0.20747107523E+04  0.20747107523E+04  0.50400001928E-02 0. -1.
    10030    2    1    2    0    0  0.00000000000E+00  0.00000000000E+00 -0.68626628568E+03  0.34631552189E+04  0.33944782597E+04 0.  0.
        5    1    3    3  502    0 -0.10194219358E+04 -0.12204686203E+03  0.10356838601E+04  0.14583482670E+04  0.46999998093E+01 0.  1.
       -5    1    3    3    0  502  0.10194219358E+04  0.12204686203E+03 -0.17219501458E+04  0.20048069519E+04  0.46999998093E+01 0. -1.
</event>
<event>
 5   0  0.7838333E-07  0.3414117E+04  0.7818609E-02  0.8134450E-01
       -2   -1    0    0    0  501  0.00000000000E+00  0.00000000000E+00  0.13412760828E+04  0.13412760828E+04  0.25500000920E-02 0.  1.
        2   -1    0    0  501    0  0.00000000000E+00  0.00000000000E+00 -0.21725948101E+04  0.21725948101E+04  0.25500000920E-02 0. -1.
    10030    2    1    2    0    0  0.00000000000E+00  0.00000000000E+00 -0.83131872737E+03  0.35138708929E+04  0.34141174299E+04 0.  0.
        1    1    3    3  502    0 -0.74224152858E+03 -0.59517651039E+03  0.10431066234E+04  0.14118176203E+04  0.50400001928E-02 0.  1.
       -1    1    3    3    0  502  0.74224152858E+03  0.59517651039E+03 -0.18744253507E+04  0.21020532726E+04  0.50400001928E-02 0. -1.
</event>
<event>
 5   0  0.2641442E-07  0.3405587E+04  0.7818609E-02  0.8136537E-01
       -1   -1    0    0    0  501  0.00000000000E+00  0.00000000000E+00  0.95477681678E+03  0.95477681680E+03  0.50400001928E-02 0.  1.
        1   -1    0    0  501    0  0.00000000000E+00  0.00000000000E+00 -0.30368406674E+04  0.30368406674E+04  0.50400001928E-02 0. -1.
    10030    2    1    2    0    0  0.00000000000E+00  0.00000000000E+00 -0.20820638506E+04  0.39916174842E+04  0.34055866252E+04 0.  0.
        1    1    3    3  502    0  0.15902698607E+03 -0.10878391878E+04 -0.25651052107E+04  0.27907791785E+04  0.50400001928E-02 0. -1.
       -1    1    3    3    0  502 -0.15902698607E+03  0.10878391878E+04  0.48304136016E+03  0.12008383057E+04  0.50400001928E-02 0.  1.
</event>
<event>
 5   0  0.8489228E-07  0.3415116E+04  0.7818609E-02  0.8134206E-01
       -2   -1    0    0    0  501  0.00000000000E+00  0.00000000000E+00  0.11710638527E+04  0.11710638527E+04  0.25500000920E-02 0.  1.
        2   -1    0    0  501    0  0.00000000000E+00  0.00000000000E+00 -0.24898331715E+04  0.24898331715E+04  0.25500000920E-02 0. -1.
    10030    2    1    2    0    0  0.00000000000E+00  0.00000000000E+00 -0.13187693188E+04  0.36608970242E+04  0.34151155918E+04 0.  0.
        3    1    3    3  502    0 -0.10026297168E+04  0.12484095953E+04 -0.12953438120E+04  0.20595408392E+04  0.10100000352E+00 0.  1.
       -3    1    3    3    0  502  0.10026297168E+04 -0.12484095953E+04 -0.23425506801E+02  0.16013561850E+04  0.10100000352E+00 0. -1.
</event>
<event>
 5   0  0.7610412E-07  0.3431289E+04  0.7818609E-02  0.8130269E-01
        2   -1    0    0  501    0  0.00000000000E+00  0.00000000000E+00  0.25635391279E+04  0.25635391279E+04  0.25500000920E-02 0. -1.
       -2   -1    0    0    0  501  0.00000000000E+00  0.00000000000E+00 -0.11481924454E+04  0.11481924454E+04  0.25500000920E-02 0.  1.
    10030    2    1    2    0    0  0.00000000000E+00  0.00000000000E+00  0.14153466824E+04  0.37117315733E+04  0.34312891223E+04 0.  0.
        4    1    3    3  502    0 -0.76022903040E+03 -0.58176586176E+03 -0.83243001110E+03  0.12685980580E+04  0.12699999809E+01 0.  1.
       -4    1    3    3    0  502  0.76022903040E+03  0.58176586176E+03  0.22477766935E+04  0.24431335153E+04  0.12699999809E+01 0. -1.
</event>
<event>
 5   0  0.7899402E-07  0.3428202E+04  0.7818609E-02  0.8131019E-01
        2   -1    0    0  501    0  0.00000000000E+00  0.00000000000E+00  0.18329805188E+04  0.18329805188E+04  0.25500000920E-02 0.  1.
       -2   -1    0    0    0  501  0.00000000000E+00  0.00000000000E+00 -0.16029311302E+04  0.16029311302E+04  0.25500000920E-02 0. -1.
    10030    2    1    2    0    0  0.00000000000E+00  0.00000000000E+00  0.23004938860E+03  0.34359116490E+04  0.34282015895E+04 0.  0.
        2    1    3    3  502    0 -0.58234057957E+03 -0.47796242536E+03 -0.14281045221E+04  0.16146365401E+04  0.25500000920E-02 0. -1.
       -2    1    3    3    0  502  0.58234057957E+03  0.47796242536E+03  0.16581539107E+04  0.18212751089E+04  0.25500000920E-02 0.  1.
</event>
<event>
 5   0  0.7899402E-07  0.3393867E+04  0.7818609E-02  0.8139413E-01
       -2   -1    0    0    0  501  0.00000000000E+00  0.00000000000E+00  0.28633633255E+04  0.28633633255E+04  0.25500000920E-02 0.  1.
        2   -1    0    0  501    0  0.00000000000E+00  0.00000000000E+00 -0.10056645730E+04  0.10056645730E+04  0.25500000920E-02 0. -1.
    10030    2    1    2    0    0  0.00000000000E+00  0.00000000000E+00  0.18576987525E+04  0.38690278986E+04  0.33938668543E+04 0.  0.
        2    1    3    3  502    0  0.16840214029E+04 -0.20382792542E+03  0.87649408766E+03  0.19093757604E+04  0.25500000920E-02 0. -1.
       -2    1    3    3    0  502 -0.16840214029E+04  0.20382792542E+03  0.98120466480E+03  0.19596521382E+04  0.25500000920E-02 0.  1.
</event>
<event>
 5   0  0.7838333E-07  0.3394953E+04  0.7818609E-02  0.8139146E-01
        2   -1    0    0  501    0  0.00000000000E+00  0.00000000000E+00  0.18819227714E+04  0.18819227714E+04  0.25500000920E-02 0. -1.
       -2   -1    0    0    0  501  0.00000000000E+00  0.00000000000E+00 -0.15311073194E+04  0.15311073194E+04  0.25500000920E-02 0.  1.
    10030    2    1    2    0    0  0.00000000000E+00  0.00000000000E+00  0.35081545203E+03  0.34130300908E+04  0.33949525651E+04 0.  0.
        1    1    3    3  502    0 -0.72168695828E+03 -0.28497988788E+03 -0.13423931020E+04  0.15505047058E+04  0.50400001928E-02 0.  1.
       -1    1    3    3    0  502  0.72168695828E+03  0.28497988788E+03  0.16932085540E+04  0.18625253850E+04  0.50400001928E-02 0. -1.
</event>
<event>
 5   0  0.2553250E-07  0.3291858E+04  0.7818609E-02  0.8164970E-01
       -1   -1    0    0    0  501  0.00000000000E+00  0.00000000000E+00  0.20502789669E+04  0.20502789669E+04  0.50400001928E-02 0. -1.
        1   -1    0    0  501    0  0.00000000000E+00  0.00000000000E+00 -0.13213240122E+04  0.13213240122E+04  0.50400001928E-02 0.  1.
    10030    2    1    2    0    0  0.00000000000E+00  0.00000000000E+00  0.72895495472E+03  0.33716029792E+04  0.32918583389E+04 0.  0.
        5    1    3    3  502    0  0.16030464182E+04  0.37047631666E+03  0.31810122968E+03  0.16757747469E+04  0.46999998093E+01 0.  1.
       -5    1    3    3    0  502 -0.16030464182E+04 -0.37047631666E+03  0.41085372505E+03  0.16958282323E+04  0.46999998093E+01 0. -1.
</event>
<event>
 5   0  0.2641442E-07  0.3417874E+04  0.7818609E-02  0.8133533E-01
       -1   -1    0    0    0  501  0.00000000000E+00  0.00000000000E+00  0.14021451967E+04  0.14021451967E+04  0.50400001928E-02 0. -1.
        1   -1    0    0  501    0  0.00000000000E+00  0.00000000000E+00 -0.20828548983E+04  0.20828548983E+04  0.50400001928E-02 0.  1.
    10030    2    1    2    0    0  0.00000000000E+00  0.00000000000E+00 -0.68070970160E+03  0.34850000950E+04  0.34178736028E+04 0.  0.
        1    1    3    3  502    0  0.91892378508E+03  0.12810977591E+04 -0.10127241027E+04  0.18738309687E+04  0.50400001928E-02 0.  1.
       -1    1    3    3    0  502 -0.91892378508E+03 -0.12810977591E+04  0.33201440107E+03  0.16111691263E+04  0.50400001928E-02 0. -1.
</event>
<event>
 5   0  0.7838333E-07  0.3406165E+04  0.7818609E-02  0.8136395E-01
       -2   -1    0    0    0  501  0.00000000000E+00  0.00000000000E+00  0.15543400119E+04  0.15543400119E+04  0.25500000920E-02 0. -1.
        2   -1    0    0  501    0  0.00000000000E+00  0.00000000000E+00 -0.18660587841E+04  0.18660587841E+04  0.25500000920E-02 0.  1.
    10030    2    1    2    0    0  0.00000000000E+00  0.00000000000E+00 -0.31171877218E+03  0.34203987960E+04  0.34061649007E+04 0.  0.
        1    1    3    3  502    0  0.35198279682E+01 -0.13127749646E+04  0.93361652662E+03  0.16109097789E+04  0.50400001928E-02 0. -1.
       -1    1    3    3    0  502 -0.35198279682E+01  0.13127749646E+04 -0.12453352988E+04  0.18094890172E+04  0.50400001928E-02 0.  1.
</event>
<event>
 5   0  0.2599367E-07  0.3468458E+04  0.7818609E-02  0.8121306E-01
       -1   -1    0    0    0  501  0.00000000000E+00  0.00000000000E+00  0.13519632223E+04  0.13519632223E+04  0.50400001928E-02 0.  1.
        1   -1    0    0  501    0  0.00000000000E+00  0.00000000000E+00 -0.22245797492E+04  0.22245797492E+04  0.50400001928E-02 0. -1.
    10030    2    1    2    0    0  0.00000000000E+00  0.00000000000E+00 -0.87261652692E+03  0.35765429715E+04  0.34684578741E+04 0.  0.
        2    1    3    3  502    0  0.37195113048E+03  0.15336978986E+04  0.30510611435E+03  0.16073788068E+04  0.25500000920E-02 0. -1.
       -2    1    3    3    0  502 -0.37195113048E+03 -0.15336978986E+04 -0.11777226413E+04  0.19691641647E+04  0.25500000920E-02 0.  1.
</event>
<event>
 5   0  0.2622205E-07  0.3429227E+04  0.7818609E-02  0.8130770E-01
        1   -1    0    0  501    0  0.00000000000E+00  0.00000000000E+00  0.19516004081E+04  0.19516004081E+04  0.50400001928E-02 0.  1.
       -1   -1    0    0    0  501  0.00000000000E+00  0.00000000000E+00 -0.15064044863E+04  0.15064044864E+04  0.50400001928E-02 0. -1.
    10030    2    1    2    0    0  0.00000000000E+00  0.00000000000E+00  0.44519592178E+03  0.34580048945E+04  0.34292270910E+04 0.  0.
        3    1    3    3  502    0  0.18171839546E+03 -0.11757495194E+04  0.14676623255E+04  0.18892964880E+04  0.10100000352E+00 0.  1.
       -3    1    3    3    0  502 -0.18171839546E+03  0.11757495194E+04 -0.10224664038E+04  0.15687084065E+04  0.10100000352E+00 0. -1.
</event>
<event>
 5   0  0.2592200E-07  0.3405680E+04  0.7818609E-02  0.8136514E-01
        1   -1    0    0  501    0  0.00000000000E+00  0.00000000000E+00  0.22178846407E+04  0.22178846407E+04  0.50400001928E-02 0.  1.
       -1   -1    0    0    0  501  0.00000000000E+00  0.00000000000E+00 -0.13074010043E+04  0.13074010043E+04  0.50400001928E-02 0. -1.
    10030    2    1    2    0    0  0.00000000000E+00  0.00000000000E+00  0.91048363639E+03  0.35252856450E+04  0.34056803177E+04 0.  0.
        4    1    3    3  502    0 -0.40545031547E+03 -0.10636109529E+04  0.17662133522E+04  0.21012304576E+04  0.12699999809E+01 0.  1.
       -4    1    3    3    0  502  0.40545031547E+03  0.10636109529E+04 -0.85572971580E+03  0.14240551874E+04  0.12699999809E+01 0. -1.
</event>
<event>
 5   0  0.7838333E-07  0.3388323E+04  0.7818609E-02  0.8140778E-01
       -2   -1    0    0    0  501  0.00000000000E+00  0.00000000000E+00  0.10353663608E+04  0.10353663608E+04  0.25500000920E-02 0.  1.
        2   -1    0    0  501    0  0.00000000000E+00  0.00000000000E+00 -0.27721429203E+04  0.27721429203E+04  0.25500000920E-02 0. -1.
    10030    2    1    2    0    0  0.00000000000E+00  0.00000000000E+00 -0.17367765595E+04  0.38075092812E+04  0.33883232002E+04 0.  0.
        1    1    3    3  502    0  0.11640946457E+04  0.11124299061E+04 -0.14604131735E+04  0.21738038728E+04  0.50400001928E-02 0. -1.
       -1    1    3    3    0  502 -0.11640946457E+04 -0.11124299061E+04 -0.27636338603E+03  0.16337054084E+04  0.50400001928E-02 0.  1.
</event>
<event>
 5   0  0.2599367E-07  0.3412183E+04  0.7818609E-02  0.8134923E-01
       -1   -1    0    0    0  501  0.00000000000E+00  0.00000000000E+00  0.24224654916E+04  0.24224654916E+04  0.50400001928E-02 0. -1.
        1   -1    0    0  501    0  0.00000000000E+00  0.00000000000E+00 -0.12015641991E+04  0.12015641991E+04  0.50400001928E-02 0.  1.
    10030    2    1    2    0    0  0.00000000000E+00  0.00000000000E+00  0.12209012925E+04  0.36240296907E+04  0.34121827666E+04 0.  0.
        2    1    3    3  502    0  0.55109642098E+03  0.84944164540E+03  0.20688333781E+04  0.23033301805E+04  0.25500000920E-02 0. -1.
       -2    1    3    3    0  502 -0.55109642098E+03 -0.84944164540E+03 -0.84793208565E+03  0.13206995101E+04  0.25500000920E-02 0.  1.
</event>
<event>
 5   0  0.2553250E-07  0.3626261E+04  0.7818609E-02  0.8084503E-01
        1   -1    0    0  501    0  0.00000000000E+00  0.00000000000E+00  0.21812230571E+04  0.21812230571E+04  0.50400001928E-02 0. -1.
       -1   -1    0    0    0  501  0.00000000000E+00  0.00000000000E+00 -0.15071550428E+04  0.15071550428E+04  0.50400001928E-02 0.  1.
    10030    2    1    2    0    0  0.00000000000E+00  0.00000000000E+00  0.67406801434E+03  0.36883781000E+04  0.36262605147E+04 0.  0.
        5    1    3    3  502    0  0.17134708713E+04 -0.12361869647E+03 -0.25268669054E+03  0.17364148877E+04  0.46999998093E+01 0.  1.
       -5    1    3    3    0  502 -0.17134708713E+04  0.12361869647E+03  0.92675470489E+03  0.19519632122E+04  0.46999998093E+01 0. -1.
</event>
<event>
 5   0  0.2553250E-07  0.3417939E+04  0.7818609E-02  0.8133518E-01
        1   -1    0    0  501    0  0.00000000000E+00  0.00000000000E+00  0.21265598365E+04  0.21265598365E+04  0.50400001928E-02 0. -1.
       -1   -1    0    0    0  501  0.00000000000E+00  0.00000000000E+00 -0.13733809021E+04  0.13733809021E+04  0.50400001928E-02 0.  1.
    10030    2    1    2    0    0  0.00000000000E+00  0.00000000000E+00  0.75317893439E+03  0.34999407387E+04  0.34179389502E+04 0.  0.
        5    1    3    3  502    0  0.10279262637E+04  0.10508973688E+04 -0.51583368067E+03  0.15579230275E+04  0.46999998093E+01 0.  1.
       -5    1    3    3    0  502 -0.10279262637E+04 -0.10508973688E+04  0.12690126151E+04  0.19420177112E+04  0.46999998093E+01 0. -1.
</event>
<event>
 5   0  0.7838333E-07  0.3382202E+04  0.7818609E-02  0.8142288E-01
       -2   -1    0    0    0  501  0.00000000000E+00  0.00000000000E+00  0.11233927582E+04  0.11233927582E+04  0.25500000920E-02 0.  1.
        2   -1    0    0  501    0  0.00000000000E+00  0.00000000000E+00 -0.25457017979E+04  0.25457017979E+04  0.25500000920E-02 0. -1.
    10030    2    1    2    0    0  0.00000000000E+00  0.00000000000E+00 -0.14223090398E+04  0.36690945561E+04  0.33822022200E+04 0.  0.
        1    1    3    3  502    0  0.11782305511E+04 -0.89786029620E+03  0.17378714013E+03  0.14915033735E+04  0.50400001928E-02 0.  1.
       -1    1    3    3    0  502 -0.11782305511E+04  0.89786029620E+03 -0.15960961799E+04  0.21775911826E+04  0.50400001928E-02 0. -1.
</event>
<event>
 5   0  0.2553250E-07  0.3381310E+04  0.7818609E-02  0.8142509E-01
        1   -1    0    0  501    0  0.00000000000E+00  0.00000000000E+00  0.22921535633E+04  0.22921535633E+04  0.50400001928E-02 0.  1.
       -1   -1    0    0    0  501  0.00000000000E+00  0.00000000000E+00 -0.12469994767E+04  0.12469994767E+04  0.50400001928E-02 0. -1.
    10030    2    1    2    0    0  0.00000000000E+00  0.00000000000E+00  0.10451540866E+04  0.35391530400E+04  0.33813099792E+04 0.  0.
        5    1    3    3  502    0  0.14510515204E+03  0.10579646343E+04  0.18944670875E+04  0.21747120058E+04  0.46999998093E+01 0.  1.
       -5    1    3    3    0  502 -0.14510515204E+03 -0.10579646343E+04 -0.84931300083E+03  0.13644410342E+04  0.46999998093E+01 0. -1.
</event>
<event>
 5   0  0.7899402E-07  0.3394951E+04  0.7818609E-02  0.8139147E-01
       -2   -1    0    0    0  501  0.00000000000E+00  0.00000000000E+00  0.12950093365E+04  0.12950093365E+04  0.25500000920E-02 0. -1.
        2   -1    0    0  501    0  0.00000000000E+00  0.00000000000E+00 -0.22250212303E+04  0.22250212303E+04  0.25500000920E-02 0.  1.
    10030    2    1    2    0    0  0.00000000000E+00  0.00000000000E+00 -0.93001189384E+03  0.35200305668E+04  0.33949511143E+04 0.  0.
        2    1    3    3  502    0 -0.10296237644E+04 -0.76963525387E+03 -0.16144338585E+04  0.20637006090E+04  0.25500000920E-02 0.  1.
       -2    1    3    3    0  502  0.10296237644E+04  0.76963525387E+03  0.68442196468E+03  0.14563299578E+04  0.25500000920E-02 0. -1.
</event>
<event>
 5   0  0.2599367E-07  0.3400080E+04  0.7818609E-02  0.8137887E-01
        1   -1    0    0  501    0  0.00000000000E+00  0.00000000000E+00  0.20292052605E+04  0.20292052605E+04  0.50400001928E-02 0.  1.
       -1   -1    0    0    0  501  0.00000000000E+00  0.00000000000E+00 -0.14242698159E+04  0.14242698160E+04  0.50400001928E-02 0. -1.
    10030    2    1    2    0    0  0.00000000000E+00  0.00000000000E+00  0.60493544459E+03  0.34534750765E+04  0.34000798832E+04 0.  0.
        2    1    3    3  502    0 -0.65882860405E+03 -0.93597233501E+02  0.18914264090E+04  0.20050709295E+04  0.25500000920E-02 0.  1.
       -2    1    3    3    0  502  0.65882860405E+03  0.93597233501E+02 -0.12864909644E+04  0.14484041470E+04  0.25500000920E-02 0. -1.
</event>
<event>
 5   0  0.7822003E-07  0.3403996E+04  0.7818609E-02  0.8136926E-01
       -2   -1    0    0    0  501  0.00000000000E+00  0.00000000000E+00  0.14938051502E+04  0.14938051502E+04  0.25500000920E-02 0. -1.
        2   -1    0    0  501    0  0.00000000000E+00  0.00000000000E+00 -0.19392063222E+04  0.19392063222E+04  0.25500000920E-02 0.  1.
    10030    2    1    2    0    0  0.00000000000E+00  0.00000000000E+00 -0.44540117197E+03  0.34330114724E+04  0.34039955296E+04 0.  0.
        5    1    3    3  502    0 -0.12273373133E+04 -0.10767439258E+04 -0.70746396538E+03  0.17793992567E+04  0.46999998093E+01 0.  1.
       -5    1    3    3    0  502  0.12273373133E+04  0.10767439258E+04  0.26206279341E+03  0.16536122157E+04  0.46999998093E+01 0. -1.
</event>
<event>
 5   0  0.7610412E-07  0.3393289E+04  0.7818609E-02  0.8139555E-01
       -2   -1    0    0    0  501  0.00000000000E+00  0.00000000000E+00  0.10974211619E+04  0.10974211619E+04  0.25500000920E-02 0. -1.
        2   -1    0    0  501    0  0.00000000000E+00  0.00000000000E+00 -0.26230607903E+04  0.26230607903E+04  0.25500000920E-02 0.  1.
    10030    2    1    2    0    0  0.00000000000E+00  0.00000000000E+00 -0.15256396284E+04  0.37204819522E+04  0.33932889179E+04 0.  0.
        4    1    3    3  502    0 -0.83218402174E+03  0.12702031516E+04  0.66887097581E+02  0.15200071674E+04  0.12699999809E+01 0.  1.
       -4    1    3    3    0  502  0.83218402174E+03 -0.12702031516E+04 -0.15925267260E+04  0.22004747847E+04  0.12699999809E+01 0. -1.
</event>
<event>
 5   0  0.7610412E-07  0.3410185E+04  0.7818609E-02  0.8135411E-01
       -2   -1    0    0    0  501  0.00000000000E+00  0.00000000000E+00  0.20994021156E+04  0.20994021156E+04  0.25500000920E-02 0.  1.
        2   -1    0    0  501    0  0.00000000000E+00  0.00000000000E+00 -0.13848418491E+04  0.13848418491E+04  0.25500000920E-02 0. -1.
    10030    2    1    2    0    0  0.00000000000E+00  0.00000000000E+00  0.71456026650E+03  0.34842439648E+04  0.34101846917E+04 0.  0.
        4    1    3    3  502    0  0.12652234590E+03 -0.16668949756E+04  0.70041820173E+03  0.18124938714E+04  0.12699999809E+01 0. -1.
       -4    1    3    3    0  502 -0.12652234590E+03  0.16668949756E+04  0.14142064775E+02  0.16717500934E+04  0.12699999809E+01 0.  1.
</event>
<event>
 5   0  0.2553250E-07  0.3382972E+04  0.7818609E-02  0.8142098E-01
        1   -1    0    0  501    0  0.00000000000E+00  0.00000000000E+00  0.11762561488E+04  0.11762561488E+04  0.50400001928E-02 0.  1.
       -1   -1    0    0    0  501  0.00000000000E+00  0.00000000000E+00 -0.24323988980E+04  0.24323988980E+04  0.50400001928E-02 0. -1.
    10030    2    1    2    0    0  0.00000000000E+00  0.00000000000E+00 -0.12561427492E+04  0.36086550469E+04  0.33829715696E+04 0.  0.
        5    1    3    3  502    0  0.86836335671E+03 -0.62503466439E+03 -0.20255770970E+04  0.22907876193E+04  0.46999998093E+01 0. -1.
       -5    1    3    3    0  502 -0.86836335671E+03  0.62503466439E+03  0.76943434782E+03  0.13178674275E+04  0.46999998093E+01 0.  1.
</event>
<event>
 5   0  0.2553250E-07  0.3400787E+04  0.7818609E-02  0.8137713E-01
       -3   -1    0    0    0  501  0.00000000000E+00  0.00000000000E+00  0.14234952897E+04  0.14234952933E+04  0.10100000352E+00 0.  1.
        3   -1    0    0  501    0  0.00000000000E+00  0.00000000000E+00 -0.20311533327E+04  0.20311533352E+04  0.10100000352E+00 0. -1.
    10030    2    1    2    0    0  0.00000000000E+00  0.00000000000E+00 -0.60765804299E+03  0.34546486285E+04  0.34007865045E+04 0.  0.
        2    1    3    3  502    0  0.14823074608E+04 -0.42138105360E+03 -0.10339190439E+04  0.18557440529E+04  0.25500000920E-02 0. -1.
       -2    1    3    3    0  502 -0.14823074608E+04  0.42138105360E+03  0.42626100095E+03  0.15989045755E+04  0.25500000920E-02 0.  1.
</event>
<event>
 5   0  0.2553250E-07  0.3418407E+04  0.7818609E-02  0.8133403E-01
       -1   -1    0    0    0  501  0.00000000000E+00  0.00000000000E+00  0.15170615422E+04  0.15170615422E+04  0.50400001928E-02 0. -1.
        1   -1    0    0  501    0  0.00000000000E+00  0.00000000000E+00 -0.19256811903E+04  0.19256811903E+04  0.50400001928E-02 0.  1.
    10030    2    1    2    0    0  0.00000000000E+00  0.00000000000E+00 -0.40861964801E+03  0.34427427325E+04  0.34184071591E+04 0.  0.
        5    1    3    3  502    0  0.11785018426E+04  0.10136630967E+04  0.51136519343E+03  0.16364277918E+04  0.46999998093E+01 0. -1.
       -5    1    3    3    0  502 -0.11785018426E+04 -0.10136630967E+04 -0.91998484144E+03  0.18063149407E+04  0.46999998093E+01 0.  1.
</event>
<event>
 5   0  0.7610412E-07  0.3406051E+04  0.7818609E-02  0.8136423E-01
        2   -1    0    0  501    0  0.00000000000E+00  0.00000000000E+00  0.15176294143E+04  0.15176294143E+04  0.25500000920E-02 0.  1.
       -2   -1    0    0    0  501  0.00000000000E+00  0.00000000000E+00 -0.19110697760E+04  0.19110697760E+04  0.25500000920E-02 0. -1.
    10030    2    1    2    0    0  0.00000000000E+00  0.00000000000E+00 -0.39344036171E+03  0.34286991903E+04  0.34060509126E+04 0.  0.
        4    1    3    3  502    0  0.71802284256E+02  0.15623583300E+04 -0.87512644403E+03  0.17921961459E+04  0.12699999809E+01 0. -1.
       -4    1    3    3    0  502 -0.71802284256E+02 -0.15623583300E+04  0.48168608232E+03  0.16365030444E+04  0.12699999809E+01 0.  1.
</event>
<event>
 5   0  0.7822003E-07  0.3407290E+04  0.7818609E-02  0.8136119E-01
       -2   -1    0    0    0  501  0.00000000000E+00  0.00000000000E+00  0.13637160314E+04  0.13637160314E+04  0.25500000920E-02 0. -1.
        2   -1    0    0  501    0  0.00000000000E+00  0.00000000000E+00 -0.21283067833E+04  0.21283067833E+04  0.25500000920E-02 0.  1.
    10030    2    1    2    0    0  0.00000000000E+00  0.00000000000E+00 -0.76459075192E+03  0.34920228147E+04  0.34072898791E+04 0.  0.
        5    1    3    3  502    0  0.37405011545E+03 -0.14850589607E+04  0.38263696767E+03  0.15785267639E+04  0.46999998093E+01 0. -1.
       -5    1    3    3    0  502 -0.37405011545E+03  0.14850589607E+04 -0.11472277196E+04  0.19134960507E+04  0.46999998093E+01 0.  1.
</event>
<event>
 5   0  0.2622205E-07  0.3461309E+04  0.7818609E-02  0.8123021E-01
       -1   -1    0    0    0  501  0.00000000000E+00  0.00000000000E+00  0.21680892875E+04  0.21680892875E+04  0.50400001928E-02 0. -1.
        1   -1    0    0  501    0  0.00000000000E+00  0.00000000000E+00 -0.13814769094E+04  0.13814769094E+04  0.50400001928E-02 0.  1.
    10030    2    1    2    0    0  0.00000000000E+00  0.00000000000E+00  0.78661237814E+03  0.35495661969E+04  0.34613091675E+04 0.  0.
        3    1    3    3  502    0  0.81308014752E+03 -0.15230724942E+03  0.19522214163E+04  0.21202512335E+04  0.10100000352E+00 0. -1.
       -3    1    3    3    0  502 -0.81308014752E+03  0.15230724942E+03 -0.11656090382E+04  0.14293149634E+04  0.10100000352E+00 0.  1.
</event>
<event>
 5   0  0.7610412E-07  0.3272896E+04  0.7818609E-02  0.8169826E-01
        2   -1    0    0  501    0  0.00000000000E+00  0.00000000000E+00  0.22173849906E+04  0.22173849906E+04  0.25500000920E-02 0. -1.
       -2   -1    0    0    0  501  0.00000000000E+00  0.00000000000E+00 -0.12077118117E+04  0.12077118117E+04  0.25500000920E-02 0.  1.
    10030    2    1    2    0    0  0.00000000000E+00  0.00000000000E+00  0.10096731790E+04  0.34250968023E+04  0.32728959924E+04 0.  0.
        4    1    3    3  502    0  0.14586299598E+04  0.73858320318E+03  0.43192658550E+03  0.16910554975E+04  0.12699999809E+01 0. -1.
       -4    1    3    3    0  502 -0.14586299598E+04 -0.73858320318E+03  0.57774659347E+03  0.17340413048E+04  0.12699999809E+01 0.  1.
</event>
<event>
 5   0  0.7838333E-07  0.3419124E+04  0.7818609E-02  0.8133229E-01
        2   -1    0    0  501    0  0.00000000000E+00  0.00000000000E+00  0.24767123966E+04  0.24767123966E+04  0.25500000920E-02 0.  1.
       -2   -1    0    0    0  501  0.00000000000E+00  0.00000000000E+00 -0.11800328919E+04  0.11800328919E+04  0.25500000920E-02 0. -1.
    10030    2    1    2    0    0  0.00000000000E+00  0.00000000000E+00  0.12966795047E+04  0.36567452886E+04  0.34191239181E+04 0.  0.
        1    1    3    3  502    0 -0.11612983934E+04  0.80234203814E+03 -0.38317702894E+03  0.14625974635E+04  0.50400001928E-02 0. -1.
       -1    1    3    3    0  502  0.11612983934E+04 -0.80234203814E+03  0.16798565336E+04  0.21941478251E+04  0.50400001928E-02 0.  1.
</event>
<event>
 5   0  0.2622205E-07  0.3393801E+04  0.7818609E-02  0.8139429E-01
        1   -1    0    0  501    0  0.00000000000E+00  0.00000000000E+00  0.14176853325E+04  0.14176853325E+04  0.50400001928E-02 0. -1.
       -1   -1    0    0    0  501  0.00000000000E+00  0.00000000000E+00 -0.20311076023E+04  0.20311076023E+04  0.50400001928E-02 0.  1.
    10030    2    1    2    0    0  0.00000000000E+00  0.00000000000E+00 -0.61342226982E+03  0.34487929348E+04  0.33938010882E+04 0.  0.
        3    1    3    3  502    0  0.41420894320E+03 -0.10499876427E+04 -0.15942969964E+04  0.19534139401E+04  0.10100000352E+00 0.  1.
       -3    1    3    3    0  502 -0.41420894320E+03  0.10499876427E+04  0.98087472663E+03  0.14953789947E+04  0.10100000352E+00 0. -1.
</event>
<event>
 5   0  0.8489228E-07  0.3393020E+04  0.7818609E-02  0.8139622E-01
        2   -1    0    0  501    0  0.00000000000E+00  0.00000000000E+00  0.17470360047E+04  0.17470360047E+04  0.25500000920E-02 0.  1.
       -2   -1    0    0    0  501  0.00000000000E+00  0.00000000000E+00 -0.16474453605E+04  0.16474453606E+04  0.25500000920E-02 0. -1.
    10030    2    1    2    0    0  0.00000000000E+00  0.00000000000E+00  0.99590644186E+02  0.33944813653E+04  0.33930201065E+04 0.  0.
        3    1    3    3  502    0  0.25634498780E+03 -0.34405945882E+03 -0.15922697388E+04  0.16490641574E+04  0.10100000352E+00 0. -1.
       -3    1    3    3    0  502 -0.25634498780E+03  0.34405945882E+03  0.16918603830E+04  0.17454172079E+04  0.10100000352E+00 0.  1.
</event>
<event>
 5   0  0.2622205E-07  0.3384537E+04  0.7818609E-02  0.8141712E-01
        1   -1    0    0  501    0  0.00000000000E+00  0.00000000000E+00  0.17385901890E+04  0.17385901890E+04  0.50400001928E-02 0.  1.
       -1   -1    0    0    0  501  0.00000000000E+00  0.00000000000E+00 -0.16471810970E+04  0.16471810970E+04  0.50400001928E-02 0. -1.
    10030    2    1    2    0    0  0.00000000000E+00  0.00000000000E+00  0.91409092019E+02  0.33857712861E+04  0.33845371293E+04 0.  0.
        3    1    3    3  502    0  0.59504338380E+02 -0.16758216286E+04  0.27350228730E+03  0.16990357291E+04  0.10100000352E+00 0. -1.
       -3    1    3    3    0  502 -0.59504338380E+02  0.16758216286E+04 -0.18209319528E+03  0.16867355570E+04  0.10100000352E+00 0.  1.
</event>
<event>
 5   0  0.2553250E-07  0.3425847E+04  0.7818609E-02  0.8131592E-01
        1   -1    0    0  501    0  0.00000000000E+00  0.00000000000E+00  0.29353189715E+04  0.29353189715E+04  0.50400001928E-02 0.  1.
       -1   -1    0    0    0  501  0.00000000000E+00  0.00000000000E+00 -0.99958697077E+03  0.99958697078E+03  0.50400001928E-02 0. -1.
    10030    2    1    2    0    0  0.00000000000E+00  0.00000000000E+00  0.19357320007E+04  0.39349059423E+04  0.34258468144E+04 0.  0.
        5    1    3    3  502    0  0.19660884821E+03  0.11969630200E+04  0.23570039713E+04  0.26508235175E+04  0.46999998093E+01 0.  1.
       -5    1    3    3    0  502 -0.19660884821E+03 -0.11969630200E+04 -0.42127197054E+03  0.12840824248E+04  0.46999998093E+01 0. -1.
</event>
<event>
 5   0  0.2641442E-07  0.3398226E+04  0.7818609E-02  0.8138342E-01
        1   -1    0    0  501    0  0.00000000000E+00  0.00000000000E+00  0.23588831242E+04  0.23588831242E+04  0.50400001928E-02 0.  1.
       -1   -1    0    0    0  501  0.00000000000E+00  0.00000000000E+00 -0.12238776152E+04  0.12238776152E+04  0.50400001928E-02 0. -1.
    10030    2    1    2    0    0  0.00000000000E+00  0.00000000000E+00  0.11350055090E+04  0.35827607394E+04  0.33982255679E+04 0.  0.
        1    1    3    3  502    0  0.62605892994E+03  0.64567292375E+03 -0.95235555725E+03  0.13098948109E+04  0.50400001928E-02 0. -1.
       -1    1    3    3    0  502 -0.62605892994E+03 -0.64567292375E+03  0.20873610662E+04  0.22728659285E+04  0.50400001928E-02 0.  1.
</event>
<event>
 5   0  0.2641442E-07  0.3404004E+04  0.7818609E-02  0.8136924E-01
        1   -1    0    0  501    0  0.00000000000E+00  0.00000000000E+00  0.95720816668E+03  0.95720816669E+03  0.50400001928E-02 0.  1.
       -1   -1    0    0    0  501  0.00000000000E+00  0.00000000000E+00 -0.30263124699E+04  0.30263124699E+04  0.50400001928E-02 0. -1.
    10030    2    1    2    0    0  0.00000000000E+00  0.00000000000E+00 -0.20691043032E+04  0.39835206366E+04  0.34040041194E+04 0.  0.
        1    1    3    3  502    0  0.10553826934E+04 -0.81442985101E+03  0.20374370608E+03  0.13485696532E+04  0.50400001928E-02 0.  1.
       -1    1    3    3    0  502 -0.10553826934E+04  0.81442985101E+03 -0.22728480093E+04  0.26349509834E+04  0.50400001928E-02 0. -1.
</event>
<event>
 5   0  0.8489228E-07  0.3399289E+04  0.7818609E-02  0.8138081E-01
        2   -1    0    0  501    0  0.00000000000E+00  0.00000000000E+00  0.19013390039E+04  0.19013390039E+04  0.25500000920E-02 0.  1.
       -2   -1    0    0    0  501  0.00000000000E+00  0.00000000000E+00 -0.15193458155E+04  0.15193458155E+04  0.25500000920E-02 0. -1.
    10030    2    1    2    0    0  0.00000000000E+00  0.00000000000E+00  0.38199318839E+03  0.34206848194E+04  0.33992890195E+04 0.  0.
        3    1    3    3  502    0  0.33746441862E+02  0.16766933708E+04  0.46905439590E+03  0.17413935564E+04  0.10100000352E+00 0.  1.
       -3    1    3    3    0  502 -0.33746441862E+02 -0.16766933708E+04 -0.87061207510E+02  0.16792912630E+04  0.10100000352E+00 0. -1.
</event>
<event>
 5   0  0.2641442E-07  0.3391727E+04  0.7818609E-02  0.8139940E-01
       -1   -1    0    0    0  501  0.00000000000E+00  0.00000000000E+00  0.13716719254E+04  0.13716719254E+04  0.50400001928E-02 0.  1.
        1   -1    0    0  501    0  0.00000000000E+00  0.00000000000E+00 -0.20966775968E+04  0.20966775968E+04  0.50400001928E-02 0. -1.
    10030    2    1    2    0    0  0.00000000000E+00  0.00000000000E+00 -0.72500567144E+03  0.34683495222E+04  0.33917274631E+04 0.  0.
        1    1    3    3  502    0  0.10584880351E+04  0.39730274528E+03  0.93005663133E+03  0.14639848802E+04  0.50400001928E-02 0.  1.
       -1    1    3    3    0  502 -0.10584880351E+04 -0.39730274528E+03 -0.16550623028E+04  0.20043646420E+04  0.50400001928E-02 0. -1.
</event>
<event>
 5   0  0.2599367E-07  0.3440818E+04  0.7818609E-02  0.8127960E-01
       -1   -1    0    0    0  501  0.00000000000E+00  0.00000000000E+00  0.11914167845E+04  0.11914167845E+04  0.50400001928E-02 0. -1.
        1   -1    0    0  501    0  0.00000000000E+00  0.00000000000E+00 -0.24842757881E+04  0.24842757881E+04  0.50400001928E-02 0.  1.
    10030    2    1    2    0    0  0.00000000000E+00  0.00000000000E+00 -0.12928590036E+04  0.36756925725E+04  0.34408184324E+04 0.  0.
        2    1    3    3  502    0 -0.28316282549E+03 -0.16866196968E+04 -0.44674556746E+03  0.17676110402E+04  0.25500000920E-02 0.  1.
       -2    1    3    3    0  502  0.28316282549E+03  0.16866196968E+04 -0.84611343615E+03  0.19080815324E+04  0.25500000920E-02 0. -1.
</event>
<event>
 5   0  0.2553250E-07  0.3394907E+04  0.7818609E-02  0.8139157E-01
        1   -1    0    0  501    0  0.00000000000E+00  0.00000000000E+00  0.24351541921E+04  0.24351541921E+04  0.50400001928E-02 0. -1.
       -1   -1    0    0    0  501  0.00000000000E+00  0.00000000000E+00 -0.11832302069E+04  0.11832302069E+04  0.50400001928E-02 0.  1.
    10030    2    1    2    0    0  0.00000000000E+00  0.00000000000E+00  0.12519239852E+04  0.36183843990E+04  0.33949067725E+04 0.  0.
        5    1    3    3  502    0  0.25171025790E+03 -0.81140560233E+03  0.21922527427E+04  0.23511127755E+04  0.46999998093E+01 0. -1.
       -5    1    3    3    0  502 -0.25171025790E+03  0.81140560233E+03 -0.94032875751E+03  0.12672716235E+04  0.46999998093E+01 0.  1.
</event>
<event>
 5   0  0.7610412E-07  0.3412000E+04  0.7818609E-02  0.8134967E-01
        2   -1    0    0  501    0  0.00000000000E+00  0.00000000000E+00  0.21266689913E+04  0.21266689913E+04  0.25500000920E-02 0. -1.
       -2   -1    0    0    0  501  0.00000000000E+00  0.00000000000E+00 -0.13685420883E+04  0.13685420883E+04  0.25500000920E-02 0.  1.
    10030    2    1    2    0    0  0.00000000000E+00  0.00000000000E+00  0.75812690303E+03  0.34952110796E+04  0.34120000131E+04 0.  0.
        4    1    3    3  502    0  0.12273198606E+04  0.80752962678E+03  0.12674009663E+04  0.19402899167E+04  0.12699999809E+01 0.  1.
       -4    1    3    3    0  502 -0.12273198606E+04 -0.80752962678E+03 -0.50927406327E+03  0.15549211629E+04  0.12699999809E+01 0. -1.
</event>
<event>
 5   0  0.8489228E-07  0.3404123E+04  0.7818609E-02  0.8136895E-01
        2   -1    0    0  501    0  0.00000000000E+00  0.00000000000E+00  0.18815590400E+04  0.18815590400E+04  0.25500000920E-02 0.  1.
       -2   -1    0    0    0  501  0.00000000000E+00  0.00000000000E+00 -0.15396874370E+04  0.15396874370E+04  0.25500000920E-02 0. -1.
    10030    2    1    2    0    0  0.00000000000E+00  0.00000000000E+00  0.34187160298E+03  0.34212464770E+04  0.34041226863E+04 0.  0.
        3    1    3    3  502    0 -0.16017919174E+04  0.18691360916E+03 -0.37617260795E+03  0.16559528632E+04  0.10100000352E+00 0. -1.
       -3    1    3    3    0  502  0.16017919174E+04 -0.18691360916E+03  0.71804421093E+03  0.17652936138E+04  0.10100000352E+00 0.  1.
</event>
<event>
 5   0  0.2592200E-07  0.3409411E+04  0.7818609E-02  0.8135600E-01
        1   -1    0    0  501    0  0.00000000000E+00  0.00000000000E+00  0.17664447189E+04  0.17664447189E+04  0.50400001928E-02 0. -1.
       -1   -1    0    0    0  501  0.00000000000E+00  0.00000000000E+00 -0.16451239094E+04  0.16451239094E+04  0.50400001928E-02 0.  1.
    10030    2    1    2    0    0  0.00000000000E+00  0.00000000000E+00  0.12132080947E+03  0.34115686283E+04  0.34094107653E+04 0.  0.
        4    1    3    3  502    0  0.15979543711E+04 -0.44097928100E+03 -0.33720655578E+03  0.16916355319E+04  0.12699999809E+01 0.  1.
       -4    1    3    3    0  502 -0.15979543711E+04  0.44097928100E+03  0.45852736525E+03  0.17199330964E+04  0.12699999809E+01 0. -1.
</event>
<event>
 5   0  0.2599367E-07  0.3358578E+04  0.7818609E-02  0.8148148E-01
       -1   -1    0    0    0  501  0.00000000000E+00  0.00000000000E+00  0.13387040232E+04  0.13387040232E+04  0.50400001928E-02 0. -1.
        1   -1    0    0  501    0  0.00000000000E+00  0.00000000000E+00 -0.21065241193E+04  0.21065241193E+04  0.50400001928E-02 0.  1.
    10030    2    1    2    0    0  0.00000000000E+00  0.00000000000E+00 -0.76782009603E+03  0.34452281425E+04  0.33585784573E+04 0.  0.
        2    1    3    3  502    0  0.46423767755E+00 -0.13827034878E+04 -0.13614615491E+04  0.19404758953E+04  0.25500000920E-02 0.  1.
       -2    1    3    3    0  502 -0.46423767755E+00  0.13827034878E+04  0.59364145309E+03  0.15047522472E+04  0.25500000920E-02 0. -1.
</event>
<event>
 5   0  0.2592200E-07  0.3406149E+04  0.7818609E-02  0.8136399E-01
       -1   -1    0    0    0  501  0.00000000000E+00  0.00000000000E+00  0.10123533537E+04  0.10123533537E+04  0.50400001928E-02 0. -1.
        1   -1    0    0  501    0  0.00000000000E+00  0.00000000000E+00 -0.28650697195E+04  0.28650697195E+04  0.50400001928E-02 0.  1.
    10030    2    1    2    0    0  0.00000000000E+00  0.00000000000E+00 -0.18527163657E+04  0.38774230732E+04  0.34061491096E+04 0.  0.
        4    1    3    3  502    0  0.63819009234E+03  0.15539975875E+04 -0.12448268740E+04  0.20908827454E+04  0.12699999809E+01 0.  1.
       -4    1    3    3    0  502 -0.63819009234E+03 -0.15539975875E+04 -0.60788949176E+03  0.17865403278E+04  0.12699999809E+01 0. -1.
</event>
<event>
 5   0  0.2641442E-07  0.3384864E+04  0.7818609E-02  0.8141631E-01
       -1   -1    0    0    0  501  0.00000000000E+00  0.00000000000E+00  0.14243385091E+04  0.14243385092E+04  0.50400001928E-02 0.  1.
        1   -1    0    0  501    0  0.00000000000E+00  0.00000000000E+00 -0.20109864752E+04  0.20109864752E+04  0.50400001928E-02 0. -1.
    10030    2    1    2    0    0  0.00000000000E+00  0.00000000000E+00 -0.58664796606E+03  0.34353249844E+04  0.33848636475E+04 0.  0.
        1    1    3    3  502    0  0.11248527875E+04  0.73233400599E+03  0.75292677992E+03  0.15389950052E+04  0.50400001928E-02 0.  1.
       -1    1    3    3    0  502 -0.11248527875E+04 -0.73233400599E+03 -0.13395747460E+04  0.18963299792E+04  0.50400001928E-02 0. -1.
</event>
<event>
 5   0  0.2553250E-07  0.3387390E+04  0.7818609E-02  0.8141008E-01
        3   -1    0    0  501    0  0.00000000000E+00  0.00000000000E+00  0.21052943415E+04  0.21052943440E+04  0.10100000352E+00 0. -1.
       -3   -1    0    0    0  501  0.00000000000E+00  0.00000000000E+00 -0.13625661743E+04  0.13625661780E+04  0.10100000352E+00 0.  1.
    10030    2    1    2    0    0  0.00000000000E+00  0.00000000000E+00  0.74272816725E+03  0.34678605220E+04  0.33873900675E+04 0.  0.
        5    1    3    3  502    0  0.15963603207E+04 -0.53897981882E+03  0.19488787323E+03  0.16961335124E+04  0.46999998093E+01 0.  1.
       -5    1    3    3    0  502 -0.15963603207E+04  0.53897981882E+03  0.54784029402E+03  0.17717270096E+04  0.46999998093E+01 0. -1.
</event>
<event>
 5   0  0.2641442E-07  0.3402849E+04  0.7818609E-02  0.8137208E-01
        1   -1    0    0  501    0  0.00000000000E+00  0.00000000000E+00  0.22641171578E+04  0.22641171578E+04  0.50400001928E-02 0. -1.
       -1   -1    0    0    0  501  0.00000000000E+00  0.00000000000E+00 -0.12785754178E+04  0.12785754178E+04  0.50400001928E-02 0.  1.
    10030    2    1    2    0    0  0.00000000000E+00  0.00000000000E+00  0.98554174004E+03  0.35426925756E+04  0.34028485368E+04 0.  0.
        1    1    3    3  502    0  0.12323884123E+04  0.17640187977E+03 -0.71460704292E+03  0.14354657947E+04  0.50400001928E-02 0.  1.
       -1    1    3    3    0  502 -0.12323884123E+04 -0.17640187977E+03  0.17001487830E+04  0.21072267809E+04  0.50400001928E-02 0. -1.
</event>
<event>
 5   0  0.7610412E-07  0.3374853E+04  0.7818609E-02  0.8144106E-01
       -2   -1    0    0    0  501  0.00000000000E+00  0.00000000000E+00  0.11664507992E+04  0.11664507992E+04  0.25500000920E-02 0.  1.
        2   -1    0    0  501    0  0.00000000000E+00  0.00000000000E+00 -0.24410879096E+04  0.24410879097E+04  0.25500000920E-02 0. -1.
    10030    2    1    2    0    0  0.00000000000E+00  0.00000000000E+00 -0.12746371105E+04  0.36075387088E+04  0.33748534446E+04 0.  0.
        4    1    3    3  502    0  0.12443057676E+04 -0.93980590356E+03 -0.13266652088E+04  0.20473334289E+04  0.12699999809E+01 0.  1.
       -4    1    3    3    0  502 -0.12443057676E+04  0.93980590356E+03  0.52028098365E+02  0.15602052800E+04  0.12699999809E+01 0. -1.
</event>
<event>
 5   0  0.7610412E-07  0.3397324E+04  0.7818609E-02  0.8138563E-01
       -2   -1    0    0    0  501  0.00000000000E+00  0.00000000000E+00  0.16989239364E+04  0.16989239364E+04  0.25500000920E-02 0. -1.
        2   -1    0    0  501    0  0.00000000000E+00  0.00000000000E+00 -0.16984000630E+04  0.16984000630E+04  0.25500000920E-02 0.  1.
    10030    2    1    2    0    0  0.00000000000E+00  0.00000000000E+00  0.52387340459E+00  0.33973239994E+04  0.33973239590E+04 0.  0.
        4    1    3    3  502    0  0.75324195654E+03  0.19056547054E+03 -0.15102883995E+04  0.16984290701E+04  0.12699999809E+01 0.  1.
       -4    1    3    3    0  502 -0.75324195654E+03 -0.19056547054E+03  0.15108122729E+04  0.16988949292E+04  0.12699999809E+01 0. -1.
</event>
<event>
 5   0  0.2641442E-07  0.3396885E+04  0.7818609E-02  0.8138671E-01
        1   -1    0    0  501    0  0.00000000000E+00  0.00000000000E+00  0.15863285193E+04  0.15863285193E+04  0.50400001928E-02 0.  1.
       -1   -1    0    0    0  501  0.00000000000E+00  0.00000000000E+00 -0.18184796713E+04  0.18184796713E+04  0.50400001928E-02 0. -1.
    10030    2    1    2    0    0  0.00000000000E+00  0.00000000000E+00 -0.23215115204E+03  0.34048081906E+04  0.33968845517E+04 0.  0.
        1    1    3    3  502    0 -0.51179771178E+03 -0.31357967727E+03 -0.17086294653E+04  0.18109897187E+04  0.50400001928E-02 0. -1.
       -1    1    3    3    0  502  0.51179771178E+03  0.31357967727E+03  0.14764783132E+04  0.15938184719E+04  0.50400001928E-02 0.  1.
</event>
<event>
 5   0  0.2592200E-07  0.3238097E+04  0.7818609E-02  0.8178828E-01
        1   -1    0    0  501    0  0.00000000000E+00  0.00000000000E+00  0.19442020038E+04  0.19442020038E+04  0.50400001928E-02 0. -1.
       -1   -1    0    0    0  501  0.00000000000E+00  0.00000000000E+00 -0.13482747198E+04  0.13482747198E+04  0.50400001928E-02 0.  1.
    10030    2    1    2    0    0  0.00000000000E+00  0.00000000000E+00  0.59592728397E+03  0.32924767236E+04  0.32380972265E+04 0.  0.
        4    1    3    3  502    0  0.78120260612E+03 -0.88717309760E+03  0.14228716430E+04  0.18498429507E+04  0.12699999809E+01 0. -1.
       -4    1    3    3    0  502 -0.78120260612E+03  0.88717309760E+03 -0.82694435905E+03  0.14426337729E+04  0.12699999809E+01 0.  1.
</event>
<event>
 5   0  0.7610412E-07  0.3415143E+04  0.7818609E-02  0.8134200E-01
       -2   -1    0    0    0  501  0.00000000000E+00  0.00000000000E+00  0.12906764969E+04  0.12906764969E+04  0.25500000920E-02 0.  1.
        2   -1    0    0  501    0  0.00000000000E+00  0.00000000000E+00 -0.22591256054E+04  0.22591256054E+04  0.25500000920E-02 0. -1.
    10030    2    1    2    0    0  0.00000000000E+00  0.00000000000E+00 -0.96844910854E+03  0.35498021023E+04  0.34151429384E+04 0.  0.
        4    1    3    3  502    0 -0.10286733336E+04  0.70359856699E+03  0.72909750266E+03  0.14438852281E+04  0.12699999809E+01 0.  1.
       -4    1    3    3    0  502  0.10286733336E+04 -0.70359856699E+03 -0.16975466112E+04  0.21059168741E+04  0.12699999809E+01 0. -1.
</event>
<event>
 5   0  0.7610412E-07  0.3289540E+04  0.7818609E-02  0.8165562E-01
        2   -1    0    0  501    0  0.00000000000E+00  0.00000000000E+00  0.21037065412E+04  0.21037065412E+04  0.25500000920E-02 0.  1.
       -2   -1    0    0    0  501  0.00000000000E+00  0.00000000000E+00 -0.12859529098E+04  0.12859529098E+04  0.25500000920E-02 0. -1.
    10030    2    1    2    0    0  0.00000000000E+00  0.00000000000E+00  0.81775363144E+03  0.33896594509E+04  0.32895395106E+04 0.  0.
        4    1    3    3  502    0  0.56385262215E+03 -0.62062443718E+03  0.18669204129E+04  0.20465820073E+04  0.12699999809E+01 0.  1.
       -4    1    3    3    0  502 -0.56385262215E+03  0.62062443718E+03 -0.10491667814E+04  0.13430774437E+04  0.12699999809E+01 0. -1.
</event>
<event>
 5   0  0.7822003E-07  0.3309116E+04  0.7818609E-02  0.8160580E-01
        2   -1    0    0  501    0  0.00000000000E+00  0.00000000000E+00  0.16067449834E+04  0.16067449834E+04  0.25500000920E-02 0. -1.
       -2   -1    0    0    0  501  0.00000000000E+00  0.00000000000E+00 -0.17037937820E+04  0.17037937820E+04  0.25500000920E-02 0.  1.
    10030    2    1    2    0    0  0.00000000000E+00  0.00000000000E+00 -0.97048798558E+02  0.33105387654E+04  0.33091159617E+04 0.  0.
        5    1    3    3  502    0  0.16489680784E+04 -0.91270894797E+02 -0.14913563676E+03  0.16582188119E+04  0.46999998093E+01 0.  1.
       -5    1    3    3    0  502 -0.16489680784E+04  0.91270894797E+02  0.52086838199E+02  0.16523199535E+04  0.46999998093E+01 0. -1.
</event>
<event>
 5   0  0.7838333E-07  0.3390388E+04  0.7818609E-02  0.8140270E-01
        2   -1    0    0  501    0  0.00000000000E+00  0.00000000000E+00  0.13963841456E+04  0.13963841456E+04  0.25500000920E-02 0.  1.
       -2   -1    0    0    0  501  0.00000000000E+00  0.00000000000E+00 -0.20579451985E+04  0.20579451985E+04  0.25500000920E-02 0. -1.
    10030    2    1    2    0    0  0.00000000000E+00  0.00000000000E+00 -0.66156105292E+03  0.34543293441E+04  0.33903876166E+04 0.  0.
        1    1    3    3  502    0 -0.12913861295E+04  0.81788767225E+03 -0.10774480732E+04  0.18701638245E+04  0.50400001928E-02 0. -1.
       -1    1    3    3    0  502  0.12913861295E+04 -0.81788767225E+03  0.41588702026E+03  0.15841655196E+04  0.50400001928E-02 0.  1.
</event>
<event>
 5   0  0.2553250E-07  0.3403771E+04  0.7818609E-02  0.8136981E-01
        1   -1    0    0  501    0  0.00000000000E+00  0.00000000000E+00  0.19838886322E+04  0.19838886322E+04  0.50400001928E-02 0.  1.
       -1   -1    0    0    0  501  0.00000000000E+00  0.00000000000E+00 -0.14599682457E+04  0.14599682457E+04  0.50400001928E-02 0. -1.
    10030    2    1    2    0    0  0.00000000000E+00  0.00000000000E+00  0.52392038652E+03  0.34438568779E+04  0.34037710887E+04 0.  0.
        5    1    3    3  502    0  0.29312286910E+03 -0.43307645295E+03 -0.13766548879E+04  0.14726428626E+04  0.46999998093E+01 0. -1.
       -5    1    3    3    0  502 -0.29312286910E+03  0.43307645295E+03  0.19005752744E+04  0.19712140153E+04  0.46999998093E+01 0.  1.
</event>
<event>
 5   0  0.7822003E-07  0.3410720E+04  0.7818609E-02  0.8135280E-01
       -2   -1    0    0    0  501  0.00000000000E+00  0.00000000000E+00  0.16297365073E+04  0.16297365074E+04  0.25500000920E-02 0. -1.
        2   -1    0    0  501    0  0.00000000000E+00  0.00000000000E+00 -0.17844921963E+04  0.17844921963E+04  0.25500000920E-02 0.  1.
    10030    2    1    2    0    0  0.00000000000E+00  0.00000000000E+00 -0.15475568899E+03  0.34142287037E+04  0.34107196188E+04 0.  0.
        5    1    3    3  502    0  0.28462380596E+03 -0.16322703479E+04 -0.48141767507E+03  0.17254281403E+04  0.46999998093E+01 0.  1.
       -5    1    3    3    0  502 -0.28462380596E+03  0.16322703479E+04  0.32666198609E+03  0.16888005633E+04  0.46999998093E+01 0. -1.
</event>
<event>
 5   0  0.2599367E-07  0.3406065E+04  0.7818609E-02  0.8136419E-01
       -1   -1    0    0    0  501  0.00000000000E+00  0.00000000000E+00  0.16413306435E+04  0.16413306435E+04  0.50400001928E-02 0. -1.
        1   -1    0    0  501    0  0.00000000000E+00  0.00000000000E+00 -0.17670541057E+04  0.17670541057E+04  0.50400001928E-02 0.  1.
    10030    2    1    2    0    0  0.00000000000E+00  0.00000000000E+00 -0.12572346224E+03  0.34083847492E+04  0.34060652093E+04 0.  0.
        2    1    3    3  502    0 -0.16205378783E+04  0.49286105434E+03 -0.23980131499E+03  0.17107190606E+04  0.25500000920E-02 0.  1.
       -2    1    3    3    0  502  0.16205378783E+04 -0.49286105434E+03  0.11407785275E+03  0.16976656886E+04  0.25500000920E-02 0. -1.
</event>
<event>
 5   0  0.7822003E-07  0.3431816E+04  0.7818609E-02  0.8130141E-01
        2   -1    0    0  501    0  0.00000000000E+00  0.00000000000E+00  0.32075556956E+04  0.32075556956E+04  0.25500000920E-02 0.  1.
       -2   -1    0    0    0  501  0.00000000000E+00  0.00000000000E+00 -0.91793905166E+03  0.91793905166E+03  0.25500000920E-02 0. -1.
    10030    2    1    2    0    0  0.00000000000E+00  0.00000000000E+00  0.22896166440E+04  0.41254947473E+04  0.34318162150E+04 0.  0.
        5    1    3    3  502    0 -0.10257656914E+04  0.29583604939E+03 -0.47008193049E+03  0.11664961779E+04  0.46999998093E+01 0. -1.
       -5    1    3    3    0  502  0.10257656914E+04 -0.29583604939E+03  0.27596985744E+04  0.29589985694E+04  0.46999998093E+01 0.  1.
</event>
<event>
 5   0  0.2622205E-07  0.3429272E+04  0.7818609E-02  0.8130759E-01
       -1   -1    0    0    0  501  0.00000000000E+00  0.00000000000E+00  0.14673085973E+04  0.14673085973E+04  0.50400001928E-02 0. -1.
        1   -1    0    0  501    0  0.00000000000E+00  0.00000000000E+00 -0.20036529957E+04  0.20036529958E+04  0.50400001928E-02 0.  1.
    10030    2    1    2    0    0  0.00000000000E+00  0.00000000000E+00 -0.53634439843E+03  0.34709615931E+04  0.34292723815E+04 0.  0.
        3    1    3    3  502    0  0.13026560427E+04 -0.94769801417E+03 -0.86262198785E+03  0.18273371325E+04  0.10100000352E+00 0.  1.
       -3    1    3    3    0  502 -0.13026560427E+04  0.94769801417E+03  0.32627758942E+03  0.16436244606E+04  0.10100000352E+00 0. -1.
</event>
<event>
 5   0  0.2592200E-07  0.3387972E+04  0.7818609E-02  0.8140865E-01
       -1   -1    0    0    0  501  0.00000000000E+00  0.00000000000E+00  0.13887678416E+04  0.13887678417E+04  0.50400001928E-02 0. -1.
        1   -1    0    0  501    0  0.00000000000E+00  0.00000000000E+00 -0.20662844556E+04  0.20662844556E+04  0.50400001928E-02 0.  1.
    10030    2    1    2    0    0  0.00000000000E+00  0.00000000000E+00 -0.67751661397E+03  0.34550522973E+04  0.33879724932E+04 0.  0.
        4    1    3    3  502    0 -0.57126878539E+03  0.10651538572E+03  0.12839390546E+04  0.14093241860E+04  0.12699999809E+01 0. -1.
       -4    1    3    3    0  502  0.57126878539E+03 -0.10651538572E+03 -0.19614556686E+04  0.20457281113E+04  0.12699999809E+01 0.  1.
</event>
<event>
 5   0  0.2622205E-07  0.3405399E+04  0.7818609E-02  0.8136583E-01
       -1   -1    0    0    0  501  0.00000000000E+00  0.00000000000E+00  0.13566340052E+04  0.13566340052E+04  0.50400001928E-02 0. -1.
        1   -1    0    0  501    0  0.00000000000E+00  0.00000000000E+00 -0.21370427053E+04  0.21370427053E+04  0.50400001928E-02 0.  1.
    10030    2    1    2    0    0  0.00000000000E+00  0.00000000000E+00 -0.78040870012E+03  0.34936767105E+04  0.34053985403E+04 0.  0.
        3    1    3    3  502    0 -0.12141049536E+04 -0.42892893742E+03 -0.15331552959E+04  0.20021478575E+04  0.10100000352E+00 0. -1.
       -3    1    3    3    0  502  0.12141049536E+04  0.42892893742E+03  0.75274659573E+03  0.14915288530E+04  0.10100000352E+00 0.  1.
</event>
<event>
 5   0  0.2622205E-07  0.3391166E+04  0.7818609E-02  0.8140078E-01
        1   -1    0    0  501    0  0.00000000000E+00  0.00000000000E+00  0.22339278173E+04  0.22339278173E+04  0.50400001928E-02 0. -1.
       -1   -1    0    0    0  501  0.00000000000E+00  0.00000000000E+00 -0.12869719645E+04  0.12869719645E+04  0.50400001928E-02 0.  1.
    10030    2    1    2    0    0  0.00000000000E+00  0.00000000000E+00  0.94695585278E+03  0.35208997819E+04  0.33911664493E+04 0.  0.
        3    1    3    3  502    0  0.94260658195E+03  0.28937383666E+03  0.19056537681E+04  0.21456375928E+04  0.10100000352E+00 0. -1.
       -3    1    3    3    0  502 -0.94260658195E+03 -0.28937383666E+03 -0.95869791528E+03  0.13752621891E+04  0.10100000352E+00 0.  1.
</event>
<event>
 5   0  0.7899402E-07  0.3396941E+04  0.7818609E-02  0.8138657E-01
        2   -1    0    0  501    0  0.00000000000E+00  0.00000000000E+00  0.17207121568E+04  0.17207121568E+04  0.25500000920E-02 0. -1.
       -2   -1    0    0    0  501  0.00000000000E+00  0.00000000000E+00 -0.16765167312E+04  0.16765167312E+04  0.25500000920E-02 0.  1.
    10030    2    1    2    0    0  0.00000000000E+00  0.00000000000E+00  0.44195425665E+02  0.33972288880E+04  0.33969414010E+04 0.  0.
        2    1    3    3  502    0 -0.70390724725E+03 -0.14015712664E+04  0.67400815001E+03  0.17070953148E+04  0.25500000920E-02 0. -1.
       -2    1    3    3    0  502  0.70390724725E+03  0.14015712664E+04 -0.62981272434E+03  0.16901335732E+04  0.25500000920E-02 0.  1.
</event>
<event>
 5   0  0.2553250E-07  0.3387669E+04  0.7818609E-02  0.8140940E-01
       -1   -1    0    0    0  501  0.00000000000E+00  0.00000000000E+00  0.14658324612E+04  0.14658324612E+04  0.50400001928E-02 0. -1.
        1   -1    0    0  501    0  0.00000000000E+00  0.00000000000E+00 -0.19573004137E+04  0.19573004137E+04  0.50400001928E-02 0.  1.
    10030    2    1    2    0    0  0.00000000000E+00  0.00000000000E+00 -0.49146795249E+03  0.34231328750E+04  0.33876685097E+04 0.  0.
        5    1    3    3  502    0 -0.13365146521E+04 -0.84723150160E+03 -0.85619401658E+03  0.17992117487E+04  0.46999998093E+01 0.  1.
       -5    1    3    3    0  502  0.13365146521E+04  0.84723150160E+03  0.36472606409E+03  0.16239211263E+04  0.46999998093E+01 0. -1.
</event>
<event>
 5   0  0.2599367E-07  0.3388394E+04  0.7818609E-02  0.8140761E-01
        1   -1    0    0  501    0  0.00000000000E+00  0.00000000000E+00  0.16901257728E+04  0.16901257728E+04  0.50400001928E-02 0.  1.
       -1   -1    0    0    0  501  0.00000000000E+00  0.00000000000E+00 -0.16982775891E+04  0.16982775891E+04  0.50400001928E-02 0. -1.
    10030    2    1    2    0    0  0.00000000000E+00  0.00000000000E+00 -0.81518163141E+01  0.33884033619E+04  0.33883935560E+04 0.  0.
        2    1    3    3  502    0  0.15016431642E+04 -0.57747306184E+03 -0.53501566406E+03  0.16954790151E+04  0.25500000920E-02 0.  1.
       -2    1    3    3    0  502 -0.15016431642E+04  0.57747306184E+03  0.52686384775E+03  0.16929243468E+04  0.25500000920E-02 0. -1.
</event>
<event>
 5   0  0.2622205E-07  0.3450599E+04  0.7818609E-02  0.8125598E-01
       -1   -1    0    0    0  501  0.00000000000E+00  0.00000000000E+00  0.23267062788E+04  0.23267062788E+04  0.50400001928E-02 0.  1.
        1   -1    0    0  501    0  0.00000000000E+00  0.00000000000E+00 -0.12793444654E+04  0.12793444654E+04  0.50400001928E-02 0. -1.
    10030    2    1    2    0    0  0.00000000000E+00  0.00000000000E+00  0.10473618134E+04  0.36060507442E+04  0.34505992525E+04 0.  0.
        3    1    3    3  502    0 -0.48387808967E+03  0.14534716460E+04 -0.30576340573E+03  0.15621168656E+04  0.10100000352E+00 0. -1.
       -3    1    3    3    0  502  0.48387808967E+03 -0.14534716460E+04  0.13531252191E+04  0.20439338786E+04  0.10100000352E+00 0.  1.
</event>
<event>
 5   0  0.7838333E-07  0.3367303E+04  0.7818609E-02  0.8145978E-01
        2   -1    0    0  501    0  0.00000000000E+00  0.00000000000E+00  0.20984647246E+04  0.20984647246E+04  0.25500000920E-02 0.  1.
       -2   -1    0    0    0  501  0.00000000000E+00  0.00000000000E+00 -0.13508363767E+04  0.13508363767E+04  0.25500000920E-02 0. -1.
    10030    2    1    2    0    0  0.00000000000E+00  0.00000000000E+00  0.74762834788E+03  0.34493011014E+04  0.33673030664E+04 0.  0.
        1    1    3    3  502    0 -0.50171274177E+03  0.12653760870E+04 -0.64116759295E+03  0.15046555084E+04  0.50400001928E-02 0. -1.
       -1    1    3    3    0  502  0.50171274177E+03 -0.12653760870E+04  0.13887959408E+04  0.19446455929E+04  0.50400001928E-02 0.  1.
</event>
<event>
 5   0  0.7899402E-07  0.3399322E+04  0.7818609E-02  0.8138073E-01
       -2   -1    0    0    0  501  0.00000000000E+00  0.00000000000E+00  0.23747384138E+04  0.23747384138E+04  0.25500000920E-02 0.  1.
        2   -1    0    0  501    0  0.00000000000E+00  0.00000000000E+00 -0.12164906792E+04  0.12164906792E+04  0.25500000920E-02 0. -1.
    10030    2    1    2    0    0  0.00000000000E+00  0.00000000000E+00  0.11582477346E+04  0.35912290931E+04  0.33993217829E+04 0.  0.
        2    1    3    3  502    0  0.77201063648E+01 -0.13080012282E+04 -0.56746783019E+03  0.14258143467E+04  0.25500000920E-02 0. -1.
       -2    1    3    3    0  502 -0.77201063648E+01  0.13080012282E+04  0.17257155648E+04  0.21654147463E+04  0.25500000920E-02 0.  1.
</event>
<event>
 5   0  0.2622205E-07  0.3405755E+04  0.7818609E-02  0.8136495E-01
        1   -1    0    0  501    0  0.00000000000E+00  0.00000000000E+00  0.22325688102E+04  0.22325688102E+04  0.50400001928E-02 0. -1.
       -1   -1    0    0    0  501  0.00000000000E+00  0.00000000000E+00 -0.12988590989E+04  0.12988590989E+04  0.50400001928E-02 0.  1.
    10030    2    1    2    0    0  0.00000000000E+00  0.00000000000E+00  0.93370971126E+03  0.35314279091E+04  0.34057553130E+04 0.  0.
        3    1    3    3  502    0  0.36187712955E+03  0.85830319596E+03 -0.10112835106E+04  0.13748940985E+04  0.10100000352E+00 0.  1.
       -3    1    3    3    0  502 -0.36187712955E+03 -0.85830319596E+03  0.19449932218E+04  0.21565338106E+04  0.10100000352E+00 0. -1.
</event>
<event>
 5   0  0.7838333E-07  0.3394910E+04  0.7818609E-02  0.8139157E-01
        2   -1    0    0  501    0  0.00000000000E+00  0.00000000000E+00  0.15709234620E+04  0.15709234620E+04  0.25500000920E-02 0.  1.
       -2   -1    0    0    0  501  0.00000000000E+00  0.00000000000E+00 -0.18341781994E+04  0.18341781994E+04  0.25500000920E-02 0. -1.
    10030    2    1    2    0    0  0.00000000000E+00  0.00000000000E+00 -0.26325473740E+03  0.34051016614E+04  0.33949100530E+04 0.  0.
        1    1    3    3  502    0 -0.44712126389E+03  0.22586916733E+03  0.14950982202E+04  0.15767856524E+04  0.50400001928E-02 0.  1.
       -1    1    3    3    0  502  0.44712126389E+03 -0.22586916733E+03 -0.17583529576E+04  0.18283160090E+04  0.50400001928E-02 0. -1.
</event>
<event>
 5   0  0.2641442E-07  0.3415706E+04  0.7818609E-02  0.8134062E-01
        1   -1    0    0  501    0  0.00000000000E+00  0.00000000000E+00  0.15824739274E+04  0.15824739274E+04  0.50400001928E-02 0.  1.
       -1   -1    0    0    0  501  0.00000000000E+00  0.00000000000E+00 -0.18431657132E+04  0.18431657132E+04  0.50400001928E-02 0. -1.
    10030    2    1    2    0    0  0.00000000000E+00  0.00000000000E+00 -0.26069178586E+03  0.34256396406E+04  0.34157058919E+04 0.  0.
        1    1    3    3  502    0 -0.13085282430E+04 -0.57841244160E+03 -0.10657720149E+04  0.17840059145E+04  0.50400001928E-02 0. -1.
       -1    1    3    3    0  502  0.13085282430E+04  0.57841244160E+03  0.80508022900E+03  0.16416337261E+04  0.50400001928E-02 0.  1.
</event>
<event>
 5   0  0.2622205E-07  0.3382685E+04  0.7818609E-02  0.8142169E-01
        1   -1    0    0  501    0  0.00000000000E+00  0.00000000000E+00  0.26240954637E+04  0.26240954637E+04  0.50400001928E-02 0.  1.
       -1   -1    0    0    0  501  0.00000000000E+00  0.00000000000E+00 -0.10901433473E+04  0.10901433473E+04  0.50400001928E-02 0. -1.
    10030    2    1    2    0    0  0.00000000000E+00  0.00000000000E+00  0.15339521164E+04  0.37142388109E+04  0.33826854494E+04 0.  0.
        3    1    3    3  502    0  0.12800314271E+04  0.44415135891E+03 -0.34461921615E+03  0.13980390904E+04  0.10100000352E+00 0. -1.
       -3    1    3    3    0  502 -0.12800314271E+04 -0.44415135891E+03  0.18785713325E+04  0.23161997206E+04  0.10100000352E+00 0.  1.
</event>
<event>
 5   0  0.7610412E-07  0.3400843E+04  0.7818609E-02  0.8137699E-01
        2   -1    0    0  501    0  0.00000000000E+00  0.00000000000E+00  0.26220988704E+04  0.26220988704E+04  0.25500000920E-02 0.  1.
       -2   -1    0    0    0  501  0.00000000000E+00  0.00000000000E+00 -0.11027171757E+04  0.11027171757E+04  0.25500000920E-02 0. -1.
    10030    2    1    2    0    0  0.00000000000E+00  0.00000000000E+00  0.15193816947E+04  0.37248160461E+04  0.34008431077E+04 0.  0.
        4    1    3    3  502    0 -0.57983781969E+03 -0.67336587164E+03  0.23475565067E+04  0.25101108859E+04  0.12699999809E+01 0.  1.
       -4    1    3    3    0  502  0.57983781969E+03  0.67336587164E+03 -0.82817481196E+03  0.12147051602E+04  0.12699999809E+01 0. -1.
</event>
<event>
 5   0  0.7822003E-07  0.3090343E+04  0.7818609E-02  0.8218393E-01
        2   -1    0    0  501    0  0.00000000000E+00  0.00000000000E+00  0.20314869689E+04  0.20314869689E+04  0.25500000920E-02 0. -1.
       -2   -1    0    0    0  501  0.00000000000E+00  0.00000000000E+00 -0.11752742585E+04  0.11752742585E+04  0.25500000920E-02 0.  1.
    10030    2    1    2    0    0  0.00000000000E+00  0.00000000000E+00  0.85621271036E+03  0.32067612274E+04  0.30903425966E+04 0.  0.
        5    1    3    3  502    0  0.20936070467E+03  0.15140919042E+04  0.66296439920E+03  0.16660882580E+04  0.46999998093E+01 0.  1.
       -5    1    3    3    0  502 -0.20936070467E+03 -0.15140919042E+04  0.19324831116E+03  0.15406729694E+04  0.46999998093E+01 0. -1.
</event>
<event>
 5   0  0.7838333E-07  0.3403145E+04  0.7818609E-02  0.8137135E-01
        2   -1    0    0  501    0  0.00000000000E+00  0.00000000000E+00  0.25429512639E+04  0.25429512639E+04  0.25500000920E-02 0. -1.
       -2   -1    0    0    0  501  0.00000000000E+00  0.00000000000E+00 -0.11385780847E+04  0.11385780847E+04  0.25500000920E-02 0.  1.
    10030    2    1    2    0    0  0.00000000000E+00  0.00000000000E+00  0.14043731792E+04  0.36815293486E+04  0.34031447689E+04 0.  0.
        1    1    3    3  502    0  0.11855197638E+03  0.11931234151E+02  0.25384327557E+04  0.25412276129E+04  0.50400001928E-02 0. -1.
       -1    1    3    3    0  502 -0.11855197638E+03 -0.11931234151E+02 -0.11340595764E+04  0.11403017357E+04  0.50400001928E-02 0.  1.
</event>
<event>
 5   0  0.7822003E-07  0.3408392E+04  0.7818609E-02  0.8135850E-01
       -2   -1    0    0    0  501  0.00000000000E+00  0.00000000000E+00  0.19467050495E+04  0.19467050495E+04  0.25500000920E-02 0. -1.
        2   -1    0    0  501    0  0.00000000000E+00  0.00000000000E+00 -0.14918969732E+04  0.14918969732E+04  0.25500000920E-02 0.  1.
    10030    2    1    2    0    0  0.00000000000E+00  0.00000000000E+00  0.45480807637E+03  0.34386020227E+04  0.34083916272E+04 0.  0.
        5    1    3    3  502    0  0.10899066316E+04  0.48307055027E+03  0.14559859627E+04  0.18817998926E+04  0.46999998093E+01 0. -1.
       -5    1    3    3    0  502 -0.10899066316E+04 -0.48307055027E+03 -0.10011778863E+04  0.15568021301E+04  0.46999998093E+01 0.  1.
</event>
<event>
 5   0  0.7610412E-07  0.3371287E+04  0.7818609E-02  0.8144990E-01
        2   -1    0    0  501    0  0.00000000000E+00  0.00000000000E+00  0.19359933438E+04  0.19359933438E+04  0.25500000920E-02 0. -1.
       -2   -1    0    0    0  501  0.00000000000E+00  0.00000000000E+00 -0.14676671533E+04  0.14676671533E+04  0.25500000920E-02 0.  1.
    10030    2    1    2    0    0  0.00000000000E+00  0.00000000000E+00  0.46832619047E+03  0.34036604971E+04  0.33712868996E+04 0.  0.
        4    1    3    3  502    0  0.84489353309E+03 -0.81863481271E+03 -0.98465122425E+03  0.15341276626E+04  0.12699999809E+01 0.  1.
       -4    1    3    3    0  502 -0.84489353309E+03  0.81863481271E+03  0.14529774147E+04  0.18695328345E+04  0.12699999809E+01 0. -1.
</event>
<event>
 5   0  0.2622205E-07  0.3372139E+04  0.7818609E-02  0.8144778E-01
        1   -1    0    0  501    0  0.00000000000E+00  0.00000000000E+00  0.14972439814E+04  0.14972439814E+04  0.50400001928E-02 0.  1.
       -1   -1    0    0    0  501  0.00000000000E+00  0.00000000000E+00 -0.18987093094E+04  0.18987093094E+04  0.50400001928E-02 0. -1.
    10030    2    1    2    0    0  0.00000000000E+00  0.00000000000E+00 -0.40146532800E+03  0.33959532907E+04  0.33721394312E+04 0.  0.
        3    1    3    3  502    0  0.83815896877E+03 -0.10043687900E+04  0.87052942675E+03  0.15713333880E+04  0.10100000352E+00 0.  1.
       -3    1    3    3    0  502 -0.83815896877E+03  0.10043687900E+04 -0.12719947548E+04  0.18246199027E+04  0.10100000352E+00 0. -1.
</event>
<event>
 5   0  0.2622205E-07  0.3388180E+04  0.7818609E-02  0.8140814E-01
        1   -1    0    0  501    0  0.00000000000E+00  0.00000000000E+00  0.25506907212E+04  0.25506907212E+04  0.50400001928E-02 0. -1.
       -1   -1    0    0    0  501  0.00000000000E+00  0.00000000000E+00 -0.11251620371E+04  0.11251620371E+04  0.50400001928E-02 0.  1.
    10030    2    1    2    0    0  0.00000000000E+00  0.00000000000E+00  0.14255286841E+04  0.36758527583E+04  0.33881796693E+04 0.  0.
        3    1    3    3  502    0  0.78327128538E+03 -0.92637361935E+03  0.19956424328E+04  0.23354380143E+04  0.10100000352E+00 0. -1.
       -3    1    3    3    0  502 -0.78327128538E+03  0.92637361935E+03 -0.57011374867E+03  0.13404147439E+04  0.10100000352E+00 0.  1.
</event>
<event>
 5   0  0.8489228E-07  0.3385610E+04  0.7818609E-02  0.8141447E-01
       -2   -1    0    0    0  501  0.00000000000E+00  0.00000000000E+00  0.99082651991E+03  0.99082651991E+03  0.25500000920E-02 0.  1.
        2   -1    0    0  501    0  0.00000000000E+00  0.00000000000E+00 -0.28921198496E+04  0.28921198496E+04  0.25500000920E-02 0. -1.
    10030    2    1    2    0    0  0.00000000000E+00  0.00000000000E+00 -0.19012933297E+04  0.38829463695E+04  0.33856101640E+04 0.  0.
        3    1    3    3  502    0  0.61138127661E+03 -0.80456772996E+03 -0.25082632494E+04  0.27041636112E+04  0.10100000352E+00 0. -1.
       -3    1    3    3    0  502 -0.61138127661E+03  0.80456772996E+03  0.60696991978E+03  0.11787827583E+04  0.10100000352E+00 0.  1.
</event>
<event>
 5   0  0.7610412E-07  0.3413423E+04  0.7818609E-02  0.8134620E-01
       -2   -1    0    0    0  501  0.00000000000E+00  0.00000000000E+00  0.15300570944E+04  0.15300570944E+04  0.25500000920E-02 0.  1.
        2   -1    0    0  501    0  0.00000000000E+00  0.00000000000E+00 -0.19037616445E+04  0.19037616445E+04  0.25500000920E-02 0. -1.
    10030    2    1    2    0    0  0.00000000000E+00  0.00000000000E+00 -0.37370455011E+03  0.34338187388E+04  0.34134229214E+04 0.  0.
        4    1    3    3  502    0  0.16537604275E+04 -0.24792011806E+03 -0.53017505459E+03  0.17542733932E+04  0.12699999809E+01 0. -1.
       -4    1    3    3    0  502 -0.16537604275E+04  0.24792011806E+03  0.15647050448E+03  0.16795453457E+04  0.12699999809E+01 0.  1.
</event>
<event>
 5   0  0.2599367E-07  0.3398665E+04  0.7818609E-02  0.8138234E-01
       -1   -1    0    0    0  501  0.00000000000E+00  0.00000000000E+00  0.14587550223E+04  0.14587550223E+04  0.50400001928E-02 0.  1.
        1   -1    0    0  501    0  0.00000000000E+00  0.00000000000E+00 -0.19795865239E+04  0.19795865239E+04  0.50400001928E-02 0. -1.
    10030    2    1    2    0    0  0.00000000000E+00  0.00000000000E+00 -0.52083150161E+03  0.34383415462E+04  0.33986654933E+04 0.  0.
        2    1    3    3  502    0 -0.91481077014E+02  0.30196654316E+02 -0.19768217554E+04  0.19791677236E+04  0.25500000920E-02 0. -1.
       -2    1    3    3    0  502  0.91481077014E+02 -0.30196654316E+02  0.14559902538E+04  0.14591738226E+04  0.25500000920E-02 0.  1.
</event>
<event>
 5   0  0.2641442E-07  0.3378597E+04  0.7818609E-02  0.8143179E-01
        1   -1    0    0  501    0  0.00000000000E+00  0.00000000000E+00  0.19216910821E+04  0.19216910821E+04  0.50400001928E-02 0.  1.
       -1   -1    0    0    0  501  0.00000000000E+00  0.00000000000E+00 -0.14850090480E+04  0.14850090480E+04  0.50400001928E-02 0. -1.
    10030    2    1    2    0    0  0.00000000000E+00  0.00000000000E+00  0.43668203408E+03  0.34067001302E+04  0.33785965397E+04 0.  0.
        1    1    3    3  502    0 -0.16817992639E+04 -0.10543234218E+03  0.98338867376E+02  0.16879677946E+04  0.50400001928E-02 0.  1.
       -1    1    3    3    0  502  0.16817992639E+04  0.10543234218E+03  0.33834316670E+03  0.17187323355E+04  0.50400001928E-02 0. -1.
</event>
<event>
 5   0  0.2599367E-07  0.3413283E+04  0.7818609E-02  0.8134654E-01
       -1   -1    0    0    0  501  0.00000000000E+00  0.00000000000E+00  0.90009804647E+03  0.90009804648E+03  0.50400001928E-02 0. -1.
        1   -1    0    0  501    0  0.00000000000E+00  0.00000000000E+00 -0.32358975253E+04  0.32358975253E+04  0.50400001928E-02 0.  1.
    10030    2    1    2    0    0  0.00000000000E+00  0.00000000000E+00 -0.23357994788E+04  0.41359955718E+04  0.34132829013E+04 0.  0.
        2    1    3    3  502    0 -0.51060790801E+03 -0.60460897762E+03 -0.30001271790E+04  0.31027464514E+04  0.25500000920E-02 0.  1.
       -2    1    3    3    0  502  0.51060790801E+03  0.60460897762E+03  0.66432770017E+03  0.10332491204E+04  0.25500000920E-02 0. -1.
</event>
<event>
 5   0  0.7610412E-07  0.3411412E+04  0.7818609E-02  0.8135111E-01
        2   -1    0    0  501    0  0.00000000000E+00  0.00000000000E+00  0.21400065925E+04  0.21400065925E+04  0.25500000920E-02 0.  1.
       -2   -1    0    0    0  501  0.00000000000E+00  0.00000000000E+00 -0.13595437788E+04  0.13595437788E+04  0.25500000920E-02 0. -1.
    10030    2    1    2    0    0  0.00000000000E+00  0.00000000000E+00  0.78046281367E+03  0.34995503714E+04  0.34114118189E+04 0.  0.
        4    1    3    3  502    0  0.64406571784E+03 -0.49156037133E+03 -0.11495414186E+04  0.14063780906E+04  0.12699999809E+01 0. -1.
       -4    1    3    3    0  502 -0.64406571784E+03  0.49156037133E+03  0.19300042323E+04  0.20931722808E+04  0.12699999809E+01 0.  1.
</event>
<event>
 5   0  0.7610412E-07  0.3383677E+04  0.7818609E-02  0.8141924E-01
       -2   -1    0    0    0  501  0.00000000000E+00  0.00000000000E+00  0.20644617348E+04  0.20644617348E+04  0.25500000920E-02 0. -1.
        2   -1    0    0  501    0  0.00000000000E+00  0.00000000000E+00 -0.13864711964E+04  0.13864711964E+04  0.25500000920E-02 0.  1.
    10030    2    1    2    0    0  0.00000000000E+00  0.00000000000E+00  0.67799053839E+03  0.34509329313E+04  0.33836765398E+04 0.  0.
        4    1    3    3  502    0 -0.91590617575E+03 -0.27120689366E+03  0.17631309837E+04  0.20052605268E+04  0.12699999809E+01 0. -1.
       -4    1    3    3    0  502  0.91590617575E+03  0.27120689366E+03 -0.10851404453E+04  0.14456724044E+04  0.12699999809E+01 0.  1.
</event>
<event>
 5   0  0.7822003E-07  0.3407012E+04  0.7818609E-02  0.8136188E-01
        2   -1    0    0  501    0  0.00000000000E+00  0.00000000000E+00  0.19196920757E+04  0.19196920757E+04  0.25500000920E-02 0. -1.
       -2   -1    0    0    0  501  0.00000000000E+00  0.00000000000E+00 -0.15116655472E+04  0.15116655472E+04  0.25500000920E-02 0.  1.
    10030    2    1    2    0    0  0.00000000000E+00  0.00000000000E+00  0.40802652845E+03  0.34313576229E+04  0.34070118122E+04 0.  0.
        5    1    3    3  502    0  0.12132430810E+04  0.10258328753E+04  0.82291105135E+03  0.17892726315E+04  0.46999998093E+01 0. -1.
       -5    1    3    3    0  502 -0.12132430810E+04 -0.10258328753E+04 -0.41488452290E+03  0.16420849914E+04  0.46999998093E+01 0.  1.
</event>
<event>
 5   0  0.2622205E-07  0.3395953E+04  0.7818609E-02  0.8138900E-01
        1   -1    0    0  501    0  0.00000000000E+00  0.00000000000E+00  0.21988726174E+04  0.21988726174E+04  0.50400001928E-02 0. -1.
       -1   -1    0    0    0  501  0.00000000000E+00  0.00000000000E+00 -0.13111830712E+04  0.13111830712E+04  0.50400001928E-02 0.  1.
    10030    2    1    2    0    0  0.00000000000E+00  0.00000000000E+00  0.88768954623E+03  0.35100556887E+04  0.33959532104E+04 0.  0.
        3    1    3    3  502    0 -0.31591728690E+02 -0.84666977501E+03  0.19647740501E+04  0.21396693257E+04  0.10100000352E+00 0. -1.
       -3    1    3    3    0  502  0.31591728690E+02  0.84666977501E+03 -0.10770845038E+04  0.13703863630E+04  0.10100000352E+00 0.  1.
</event>
<event>
 5   0  0.2599367E-07  0.3403578E+04  0.7818609E-02  0.8137029E-01
        1   -1    0    0  501    0  0.00000000000E+00  0.00000000000E+00  0.19619867463E+04  0.19619867463E+04  0.50400001928E-02 0.  1.
       -1   -1    0    0    0  501  0.00000000000E+00  0.00000000000E+00 -0.14760988991E+04  0.14760988992E+04  0.50400001928E-02 0. -1.
    10030    2    1    2    0    0  0.00000000000E+00  0.00000000000E+00  0.48588784713E+03  0.34380856454E+04  0.34035783971E+04 0.  0.
        2    1    3    3  502    0 -0.11150432859E+04  0.12246744547E+04  0.63798096713E+03  0.17748714781E+04  0.25500000920E-02 0.  1.
       -2    1    3    3    0  502  0.11150432859E+04 -0.12246744547E+04 -0.15209311999E+03  0.16632141674E+04  0.25500000920E-02 0. -1.
</event>
<event>
 5   0  0.7838333E-07  0.3368196E+04  0.7818609E-02  0.8145757E-01
        2   -1    0    0  501    0  0.00000000000E+00  0.00000000000E+00  0.20553111367E+04  0.20553111367E+04  0.25500000920E-02 0. -1.
       -2   -1    0    0    0  501  0.00000000000E+00  0.00000000000E+00 -0.13799299865E+04  0.13799299865E+04  0.25500000920E-02 0.  1.
    10030    2    1    2    0    0  0.00000000000E+00  0.00000000000E+00  0.67538115024E+03  0.34352411232E+04  0.33681956411E+04 0.  0.
        1    1    3    3  502    0 -0.23370953299E+03  0.16734339705E+03  0.20301072974E+04  0.20503559684E+04  0.50400001928E-02 0. -1.
       -1    1    3    3    0  502  0.23370953299E+03 -0.16734339705E+03 -0.13547261471E+04  0.13848851548E+04  0.50400001928E-02 0.  1.
</event>
<event>
 5   0  0.2592200E-07  0.3406915E+04  0.7818609E-02  0.8136211E-01
       -1   -1    0    0    0  501  0.00000000000E+00  0.00000000000E+00  0.14677910264E+04  0.14677910264E+04  0.50400001928E-02 0. -1.
        1   -1    0    0  501    0  0.00000000000E+00  0.00000000000E+00 -0.19769621636E+04  0.19769621636E+04  0.50400001928E-02 0.  1.
    10030    2    1    2    0    0  0.00000000000E+00  0.00000000000E+00 -0.50917113718E+03  0.34447531901E+04  0.34069149231E+04 0.  0.
        4    1    3    3  502    0 -0.11606016728E+04  0.53084147267E+03 -0.13953791435E+04  0.18909980114E+04  0.12699999809E+01 0.  1.
       -4    1    3    3    0  502  0.11606016728E+04 -0.53084147267E+03  0.88620800632E+03  0.15537551787E+04  0.12699999809E+01 0. -1.
</event>
<event>
 5   0  0.7610412E-07  0.3384246E+04  0.7818609E-02  0.8141784E-01
       -2   -1    0    0    0  501  0.00000000000E+00  0.00000000000E+00  0.12708307080E+04  0.12708307080E+04  0.25500000920E-02 0. -1.
        2   -1    0    0  501    0  0.00000000000E+00  0.00000000000E+00 -0.22530778048E+04  0.22530778048E+04  0.25500000920E-02 0.  1.
    10030    2    1    2    0    0  0.00000000000E+00  0.00000000000E+00 -0.98224709674E+03  0.35239085128E+04  0.33842461269E+04 0.  0.
        4    1    3    3  502    0 -0.35690484398E+03  0.10108263566E+04  0.87215402632E+03  0.13819570360E+04  0.12699999809E+01 0. -1.
       -4    1    3    3    0  502  0.35690484398E+03 -0.10108263566E+04 -0.18544011231E+04  0.21419514768E+04  0.12699999809E+01 0.  1.
</event>
<event>
 5   0  0.7899402E-07  0.3395554E+04  0.7818609E-02  0.8138998E-01
       -2   -1    0    0    0  501  0.00000000000E+00  0.00000000000E+00  0.21991607924E+04  0.21991607924E+04  0.25500000920E-02 0. -1.
        2   -1    0    0  501    0  0.00000000000E+00  0.00000000000E+00 -0.13107031934E+04  0.13107031934E+04  0.25500000920E-02 0.  1.
    10030    2    1    2    0    0  0.00000000000E+00  0.00000000000E+00  0.88845759894E+03  0.35098639858E+04  0.33955541954E+04 0.  0.
        2    1    3    3  502    0 -0.68987573504E+03 -0.89382704151E+03  0.17548207816E+04  0.20866842803E+04  0.25500000920E-02 0. -1.
       -2    1    3    3    0  502  0.68987573504E+03  0.89382704151E+03 -0.86636318269E+03  0.14231797055E+04  0.25500000920E-02 0.  1.
</event>
<event>
 5   0  0.2592200E-07  0.3449835E+04  0.7818609E-02  0.8125782E-01
        1   -1    0    0  501    0  0.00000000000E+00  0.00000000000E+00  0.19415924639E+04  0.19415924639E+04  0.50400001928E-02 0. -1.
       -1   -1    0    0    0  501  0.00000000000E+00  0.00000000000E+00 -0.15324227253E+04  0.15324227253E+04  0.50400001928E-02 0.  1.
    10030    2    1    2    0    0  0.00000000000E+00  0.00000000000E+00  0.40916973864E+03  0.34740151892E+04  0.34498350192E+04 0.  0.
        4    1    3    3  502    0  0.36971123516E+03 -0.62546129192E+03 -0.13708133558E+04  0.15514570875E+04  0.12699999809E+01 0.  1.
       -4    1    3    3    0  502 -0.36971123516E+03  0.62546129192E+03  0.17799830944E+04  0.19225581017E+04  0.12699999809E+01 0. -1.
</event>
<event>
 5   0  0.7610412E-07  0.3440197E+04  0.7818609E-02  0.8128111E-01
       -2   -1    0    0    0  501  0.00000000000E+00  0.00000000000E+00  0.11742109710E+04  0.11742109710E+04  0.25500000920E-02 0.  1.
        2   -1    0    0  501    0  0.00000000000E+00  0.00000000000E+00 -0.25197673273E+04  0.25197673273E+04  0.25500000920E-02 0. -1.
    10030    2    1    2    0    0  0.00000000000E+00  0.00000000000E+00 -0.13455563563E+04  0.36939782983E+04  0.34401967618E+04 0.  0.
        4    1    3    3  502    0  0.15258246877E+04  0.36776221265E+03 -0.14285065722E+04  0.21222682824E+04  0.12699999809E+01 0. -1.
       -4    1    3    3    0  502 -0.15258246877E+04 -0.36776221265E+03  0.82950215896E+02  0.15717100158E+04  0.12699999809E+01 0.  1.
</event>
<event>
 5   0  0.2622205E-07  0.3404940E+04  0.7818609E-02  0.8136695E-01
        1   -1    0    0  501    0  0.00000000000E+00  0.00000000000E+00  0.16994806250E+04  0.16994806250E+04  0.50400001928E-02 0.  1.
       -1   -1    0    0    0  501  0.00000000000E+00  0.00000000000E+00 -0.17054650022E+04  0.17054650022E+04  0.50400001928E-02 0. -1.
    10030    2    1    2    0    0  0.00000000000E+00  0.00000000000E+00 -0.59843771582E+01  0.34049456273E+04  0.34049403683E+04 0.  0.
        3    1    3    3  502    0 -0.12994024953E+04  0.10841406910E+04  0.18301034372E+03  0.17021459041E+04  0.10100000352E+00 0. -1.
       -3    1    3    3    0  502  0.12994024953E+04 -0.10841406910E+04 -0.18899472088E+03  0.17027997232E+04  0.10100000352E+00 0.  1.
</event>
<event>
 5   0  0.7822003E-07  0.3388649E+04  0.7818609E-02  0.8140698E-01
        2   -1    0    0  501    0  0.00000000000E+00  0.00000000000E+00  0.15255123978E+04  0.15255123978E+04  0.25500000920E-02 0. -1.
       -2   -1    0    0    0  501  0.00000000000E+00  0.00000000000E+00 -0.18818169827E+04  0.18818169827E+04  0.25500000920E-02 0.  1.
    10030    2    1    2    0    0  0.00000000000E+00  0.00000000000E+00 -0.35630458488E+03  0.34073293805E+04  0.33886487794E+04 0.  0.
        5    1    3    3  502    0  0.11661548624E+04 -0.12264707304E+04 -0.96678260282E+02  0.16951449471E+04  0.46999998093E+01 0. -1.
       -5    1    3    3    0  502 -0.11661548624E+04  0.12264707304E+04 -0.25962632460E+03  0.17121844334E+04  0.46999998093E+01 0.  1.
</event>
<event>
 5   0  0.7822003E-07  0.3114354E+04  0.7818609E-02  0.8211810E-01
        2   -1    0    0  501    0  0.00000000000E+00  0.00000000000E+00  0.32720012931E+04  0.32720012931E+04  0.25500000920E-02 0. -1.
       -2   -1    0    0    0  501  0.00000000000E+00  0.00000000000E+00 -0.74107559301E+03  0.74107559301E+03  0.25500000920E-02 0.  1.
    10030    2    1    2    0    0  0.00000000000E+00  0.00000000000E+00  0.25309257001E+04  0.40130768862E+04  0.31143540574E+04 0.  0.
        5    1    3    3  502    0 -0.91486513789E+03 -0.75718894540E+03  0.25633233250E+04  0.28250596238E+04  0.46999998093E+01 0. -1.
       -5    1    3    3    0  502  0.91486513789E+03  0.75718894540E+03 -0.32397624864E+02  0.11880172624E+04  0.46999998093E+01 0.  1.
</event>
<event>
 5   0  0.7838333E-07  0.3396039E+04  0.7818609E-02  0.8138879E-01
        2   -1    0    0  501    0  0.00000000000E+00  0.00000000000E+00  0.17812821661E+04  0.17812821661E+04  0.25500000920E-02 0. -1.
       -2   -1    0    0    0  501  0.00000000000E+00  0.00000000000E+00 -0.16186488902E+04  0.16186488902E+04  0.25500000920E-02 0.  1.
    10030    2    1    2    0    0  0.00000000000E+00  0.00000000000E+00  0.16263327591E+03  0.33999310563E+04  0.33960391054E+04 0.  0.
        1    1    3    3  502    0 -0.23310236534E+03  0.10850349438E+04 -0.12053148783E+04  0.16384204277E+04  0.50400001928E-02 0.  1.
       -1    1    3    3    0  502  0.23310236534E+03 -0.10850349438E+04  0.13679481543E+04  0.17615106286E+04  0.50400001928E-02 0. -1.
</event>
<event>
 5   0  0.2592200E-07  0.3370767E+04  0.7818609E-02  0.8145119E-01
        1   -1    0    0  501    0  0.00000000000E+00  0.00000000000E+00  0.16599180353E+04  0.16599180353E+04  0.50400001928E-02 0. -1.
       -1   -1    0    0    0  501  0.00000000000E+00  0.00000000000E+00 -0.17112391896E+04  0.17112391897E+04  0.50400001928E-02 0.  1.
    10030    2    1    2    0    0  0.00000000000E+00  0.00000000000E+00 -0.51321154400E+02  0.33711572249E+04  0.33707665559E+04 0.  0.
        4    1    3    3  502    0 -0.16768625936E+04  0.16299051711E+03  0.19963940521E+02  0.16848840430E+04  0.12699999809E+01 0. -1.
       -4    1    3    3    0  502  0.16768625936E+04 -0.16299051711E+03 -0.71285094921E+02  0.16862731819E+04  0.12699999809E+01 0.  1.
</event>
<event>
 5   0  0.2622205E-07  0.3394076E+04  0.7818609E-02  0.8139362E-01
        1   -1    0    0  501    0  0.00000000000E+00  0.00000000000E+00  0.20282718187E+04  0.20282718187E+04  0.50400001928E-02 0.  1.
       -1   -1    0    0    0  501  0.00000000000E+00  0.00000000000E+00 -0.14198977468E+04  0.14198977468E+04  0.50400001928E-02 0. -1.
    10030    2    1    2    0    0  0.00000000000E+00  0.00000000000E+00  0.60837407188E+03  0.34481695655E+04  0.33940763605E+04 0.  0.
        3    1    3    3  502    0  0.32153274343E+03  0.45322073494E+03  0.19332219578E+04  0.20115017992E+04  0.10100000352E+00 0.  1.
       -3    1    3    3    0  502 -0.32153274343E+03 -0.45322073494E+03 -0.13248478860E+04  0.14366677663E+04  0.10100000352E+00 0. -1.
</event>
<event>
 5   0  0.2622205E-07  0.3083473E+04  0.7818609E-02  0.8220288E-01
       -1   -1    0    0    0  501  0.00000000000E+00  0.00000000000E+00  0.12664895927E+04  0.12664895927E+04  0.50400001928E-02 0.  1.
        1   -1    0    0  501    0  0.00000000000E+00  0.00000000000E+00 -0.18768031376E+04  0.18768031376E+04  0.50400001928E-02 0. -1.
    10030    2    1    2    0    0  0.00000000000E+00  0.00000000000E+00 -0.61031354498E+03  0.31432927303E+04  0.30834731335E+04 0.  0.
        3    1    3    3  502    0  0.12933919904E+04 -0.43071939805E+02  0.54909416011E+03  0.14057817895E+04  0.10100000352E+00 0.  1.
       -3    1    3    3    0  502 -0.12933919904E+04  0.43071939805E+02 -0.11594077051E+04  0.17375109408E+04  0.10100000352E+00 0. -1.
</event>
<event>
 5   0  0.7610412E-07  0.3258305E+04  0.7818609E-02  0.8173586E-01
       -2   -1    0    0    0  501  0.00000000000E+00  0.00000000000E+00  0.26266852900E+04  0.26266852900E+04  0.25500000920E-02 0.  1.
        2   -1    0    0  501    0  0.00000000000E+00  0.00000000000E+00 -0.10104515742E+04  0.10104515742E+04  0.25500000920E-02 0. -1.
    10030    2    1    2    0    0  0.00000000000E+00  0.00000000000E+00  0.16162337157E+04  0.36371368642E+04  0.32583052565E+04 0.  0.
        4    1    3    3  502    0 -0.40984074385E+03 -0.14961112453E+04  0.25242423517E+03  0.15716354224E+04  0.12699999809E+01 0. -1.
       -4    1    3    3    0  502  0.40984074385E+03  0.14961112453E+04  0.13638094806E+04  0.20655014417E+04  0.12699999809E+01 0.  1.
</event>
<event>
 5   0  0.2553250E-07  0.3394041E+04  0.7818609E-02  0.8139370E-01
       -1   -1    0    0    0  501  0.00000000000E+00  0.00000000000E+00  0.14859895162E+04  0.14859895162E+04  0.50400001928E-02 0.  1.
        1   -1    0    0  501    0  0.00000000000E+00  0.00000000000E+00 -0.19380207518E+04  0.19380207519E+04  0.50400001928E-02 0. -1.
    10030    2    1    2    0    0  0.00000000000E+00  0.00000000000E+00 -0.45203123563E+03  0.34240102681E+04  0.33940409659E+04 0.  0.
        5    1    3    3  502    0 -0.17574682415E+02 -0.16864991258E+04 -0.36558909957E+02  0.16869934247E+04  0.46999998093E+01 0.  1.
       -5    1    3    3    0  502  0.17574682415E+02  0.16864991258E+04 -0.41547232567E+03  0.17370168434E+04  0.46999998093E+01 0. -1.
</event>
<event>
 5   0  0.2592200E-07  0.3399017E+04  0.7818609E-02  0.8138148E-01
       -1   -1    0    0    0  501  0.00000000000E+00  0.00000000000E+00  0.15954921678E+04  0.15954921678E+04  0.50400001928E-02 0. -1.
        1   -1    0    0  501    0  0.00000000000E+00  0.00000000000E+00 -0.18103060875E+04  0.18103060875E+04  0.50400001928E-02 0.  1.
    10030    2    1    2    0    0  0.00000000000E+00  0.00000000000E+00 -0.21481391978E+03  0.34057982553E+04  0.33990170249E+04 0.  0.
        4    1    3    3  502    0  0.31219561154E+03  0.15606631059E+04 -0.70457595735E+03  0.17405643690E+04  0.12699999809E+01 0.  1.
       -4    1    3    3    0  502 -0.31219561154E+03 -0.15606631059E+04  0.48976203757E+03  0.16652338864E+04  0.12699999809E+01 0. -1.
</event>
<event>
 5   0  0.2599367E-07  0.3262539E+04  0.7818609E-02  0.8172493E-01
       -1   -1    0    0    0  501  0.00000000000E+00  0.00000000000E+00  0.12470266755E+04  0.12470266755E+04  0.50400001928E-02 0. -1.
        1   -1    0    0  501    0  0.00000000000E+00  0.00000000000E+00 -0.21339078157E+04  0.21339078157E+04  0.50400001928E-02 0.  1.
    10030    2    1    2    0    0  0.00000000000E+00  0.00000000000E+00 -0.88688114018E+03  0.33809344911E+04  0.32625388697E+04 0.  0.
        2    1    3    3  502    0 -0.10879673264E+04 -0.12008713530E+04 -0.63807288076E+03  0.17415228712E+04  0.25500000920E-02 0. -1.
       -2    1    3    3    0  502  0.10879673264E+04  0.12008713530E+04 -0.24880825942E+03  0.16394116200E+04  0.25500000920E-02 0.  1.
</event>
<event>
 5   0  0.8489228E-07  0.3403619E+04  0.7818609E-02  0.8137019E-01
        2   -1    0    0  501    0  0.00000000000E+00  0.00000000000E+00  0.19175849977E+04  0.19175849977E+04  0.25500000920E-02 0. -1.
       -2   -1    0    0    0  501  0.00000000000E+00  0.00000000000E+00 -0.15103137920E+04  0.15103137920E+04  0.25500000920E-02 0.  1.
    10030    2    1    2    0    0  0.00000000000E+00  0.00000000000E+00  0.40727120567E+03  0.34278987897E+04  0.34036187033E+04 0.  0.
        3    1    3    3  502    0 -0.10615199495E+04 -0.12092921266E+04 -0.35434096607E+03  0.16476557835E+04  0.10100000352E+00 0. -1.
       -3    1    3    3    0  502  0.10615199495E+04  0.12092921266E+04  0.76161217173E+03  0.17802430061E+04  0.10100000352E+00 0.  1.
</event>
<event>
 5   0  0.7610412E-07  0.3400856E+04  0.7818609E-02  0.8137696E-01
       -2   -1    0    0    0  501  0.00000000000E+00  0.00000000000E+00  0.11691876596E+04  0.11691876596E+04  0.25500000920E-02 0.  1.
        2   -1    0    0  501    0  0.00000000000E+00  0.00000000000E+00 -0.24730466257E+04  0.24730466257E+04  0.25500000920E-02 0. -1.
    10030    2    1    2    0    0  0.00000000000E+00  0.00000000000E+00 -0.13038589662E+04  0.36422342853E+04  0.34008561254E+04 0.  0.
        4    1    3    3  502    0  0.13473618011E+02  0.29686830034E+03 -0.24450197023E+04  0.24630134558E+04  0.12699999809E+01 0. -1.
       -4    1    3    3    0  502 -0.13473618011E+02 -0.29686830034E+03  0.11411607361E+04  0.11792208295E+04  0.12699999809E+01 0.  1.
</event>
<event>
 5   0  0.7838333E-07  0.3383950E+04  0.7818609E-02  0.8141857E-01
        2   -1    0    0  501    0  0.00000000000E+00  0.00000000000E+00  0.22273977628E+04  0.22273977628E+04  0.25500000920E-02 0.  1.
       -2   -1    0    0    0  501  0.00000000000E+00  0.00000000000E+00 -0.12852573702E+04  0.12852573702E+04  0.25500000920E-02 0. -1.
    10030    2    1    2    0    0  0.00000000000E+00  0.00000000000E+00  0.94214039262E+03  0.35126551330E+04  0.33839499943E+04 0.  0.
        1    1    3    3  502    0 -0.10622967556E+04  0.13081080441E+04  0.62903680004E+03  0.17986962911E+04  0.50400001928E-02 0.  1.
       -1    1    3    3    0  502  0.10622967556E+04 -0.13081080441E+04  0.31310359258E+03  0.17139588419E+04  0.50400001928E-02 0. -1.
</event>
<event>
 5   0  0.8489228E-07  0.3390733E+04  0.7818609E-02  0.8140185E-01
       -2   -1    0    0    0  501  0.00000000000E+00  0.00000000000E+00  0.12625732335E+04  0.12625732335E+04  0.25500000920E-02 0.  1.
        2   -1    0    0  501    0  0.00000000000E+00  0.00000000000E+00 -0.22765150333E+04  0.22765150333E+04  0.25500000920E-02 0. -1.
    10030    2    1    2    0    0  0.00000000000E+00  0.00000000000E+00 -0.10139417997E+04  0.35390882668E+04  0.33907326327E+04 0.  0.
        3    1    3    3  502    0  0.13750064477E+04  0.58680210574E+03 -0.13415085847E+04  0.20086375321E+04  0.10100000352E+00 0. -1.
       -3    1    3    3    0  502 -0.13750064477E+04 -0.58680210574E+03  0.32756678497E+03  0.15304507347E+04  0.10100000352E+00 0.  1.
</event>
<event>
 5   0  0.2553250E-07  0.3421385E+04  0.7818609E-02  0.8132678E-01
       -1   -1    0    0    0  501  0.00000000000E+00  0.00000000000E+00  0.13592952223E+04  0.13592952223E+04  0.50400001928E-02 0.  1.
        1   -1    0    0  501    0  0.00000000000E+00  0.00000000000E+00 -0.21529304597E+04  0.21529304597E+04  0.50400001928E-02 0. -1.
    10030    2    1    2    0    0  0.00000000000E+00  0.00000000000E+00 -0.79363523735E+03  0.35122256820E+04  0.34213845664E+04 0.  0.
        5    1    3    3  502    0  0.14039982972E+04 -0.55305811715E+03 -0.12240428831E+04  0.19430356582E+04  0.46999998093E+01 0. -1.
       -5    1    3    3    0  502 -0.14039982972E+04  0.55305811715E+03  0.43040764572E+03  0.15691900238E+04  0.46999998093E+01 0.  1.
</event>
<event>
 5   0  0.2592200E-07  0.3416526E+04  0.7818609E-02  0.8133862E-01
       -1   -1    0    0    0  501  0.00000000000E+00  0.00000000000E+00  0.25025292199E+04  0.25025292199E+04  0.50400001928E-02 0.  1.
        1   -1    0    0  501    0  0.00000000000E+00  0.00000000000E+00 -0.11660852039E+04  0.11660852039E+04  0.50400001928E-02 0. -1.
    10030    2    1    2    0    0  0.00000000000E+00  0.00000000000E+00  0.13364440160E+04  0.36686144237E+04  0.34165258937E+04 0.  0.
        4    1    3    3  502    0 -0.55660091023E+03 -0.15924088638E+04  0.95752712138E+03  0.19396985239E+04  0.12699999809E+01 0.  1.
       -4    1    3    3    0  502  0.55660091023E+03  0.15924088638E+04  0.37891689461E+03  0.17289158998E+04  0.12699999809E+01 0. -1.
</event>
<event>
 5   0  0.2553250E-07  0.3353725E+04  0.7818609E-02  0.8149358E-01
       -1   -1    0    0    0  501  0.00000000000E+00  0.00000000000E+00  0.15854782024E+04  0.15854782024E+04  0.50400001928E-02 0.  1.
        1   -1    0    0  501    0  0.00000000000E+00  0.00000000000E+00 -0.17735135407E+04  0.17735135407E+04  0.50400001928E-02 0. -1.
    10030    2    1    2    0    0  0.00000000000E+00  0.00000000000E+00 -0.18803533825E+03  0.33589917431E+04  0.33537245328E+04 0.  0.
        5    1    3    3  502    0 -0.13074552010E+03  0.23086508731E+03  0.15643157887E+04  0.15866628679E+04  0.46999998093E+01 0.  1.
       -5    1    3    3    0  502  0.13074552010E+03 -0.23086508731E+03 -0.17523511270E+04  0.17723288752E+04  0.46999998093E+01 0. -1.
</event>
<event>
 5   0  0.2641442E-07  0.3494417E+04  0.7818609E-02  0.8115114E-01
        1   -1    0    0  501    0  0.00000000000E+00  0.00000000000E+00  0.17866618210E+04  0.17866618210E+04  0.50400001928E-02 0. -1.
       -1   -1    0    0    0  501  0.00000000000E+00  0.00000000000E+00 -0.17086259580E+04  0.17086259581E+04  0.50400001928E-02 0.  1.
    10030    2    1    2    0    0  0.00000000000E+00  0.00000000000E+00  0.78035862965E+02  0.34952877791E+04  0.34944165554E+04 0.  0.
        1    1    3    3  502    0 -0.34281041592E+03  0.20344936538E+03 -0.16625311540E+04  0.17096550715E+04  0.50400001928E-02 0.  1.
       -1    1    3    3    0  502  0.34281041592E+03 -0.20344936538E+03  0.17405670170E+04  0.17856327075E+04  0.50400001928E-02 0. -1.
</event>
<event>
 5   0  0.7610412E-07  0.3364489E+04  0.7818609E-02  0.8146677E-01
       -2   -1    0    0    0  501  0.00000000000E+00  0.00000000000E+00  0.25227669235E+04  0.25227669235E+04  0.25500000920E-02 0.  1.
        2   -1    0    0  501    0  0.00000000000E+00  0.00000000000E+00 -0.11217632813E+04  0.11217632813E+04  0.25500000920E-02 0. -1.
    10030    2    1    2    0    0  0.00000000000E+00  0.00000000000E+00  0.14010036421E+04  0.36445302048E+04  0.33644894424E+04 0.  0.
        4    1    3    3  502    0 -0.45929798940E+03  0.81285624289E+03  0.22163548363E+04  0.24049782303E+04  0.12699999809E+01 0.  1.
       -4    1    3    3    0  502  0.45929798940E+03 -0.81285624289E+03 -0.81535119420E+03  0.12395519745E+04  0.12699999809E+01 0. -1.
</event>
<event>
 5   0  0.7838333E-07  0.3159094E+04  0.7818609E-02  0.8199705E-01
       -2   -1    0    0    0  501  0.00000000000E+00  0.00000000000E+00  0.15148544574E+04  0.15148544574E+04  0.25500000920E-02 0. -1.
        2   -1    0    0  501    0  0.00000000000E+00  0.00000000000E+00 -0.16470023564E+04  0.16470023564E+04  0.25500000920E-02 0.  1.
    10030    2    1    2    0    0  0.00000000000E+00  0.00000000000E+00 -0.13214789905E+03  0.31618568138E+04  0.31590940860E+04 0.  0.
        1    1    3    3  502    0  0.12753323223E+03 -0.13761180690E+04  0.69944995663E+03  0.15489337968E+04  0.50400001928E-02 0. -1.
       -1    1    3    3    0  502 -0.12753323223E+03  0.13761180690E+04 -0.83159785568E+03  0.16129230170E+04  0.50400001928E-02 0.  1.
</event>
<event>
 5   0  0.7899402E-07  0.3405601E+04  0.7818609E-02  0.8136533E-01
        2   -1    0    0  501    0  0.00000000000E+00  0.00000000000E+00  0.29895343018E+04  0.29895343018E+04  0.25500000920E-02 0.  1.
       -2   -1    0    0    0  501  0.00000000000E+00  0.00000000000E+00 -0.96989337305E+03  0.96989337305E+03  0.25500000920E-02 0. -1.
    10030    2    1    2    0    0  0.00000000000E+00  0.00000000000E+00  0.20196409288E+04  0.39594276749E+04  0.34056009795E+04 0.  0.
        2    1    3    3  502    0 -0.11228822666E+04  0.88919592665E+03 -0.60799735176E+02  0.14336075434E+04  0.25500000920E-02 0. -1.
       -2    1    3    3    0  502  0.11228822666E+04 -0.88919592665E+03  0.20804406640E+04  0.25258201315E+04  0.25500000920E-02 0.  1.
</event>
<event>
 5   0  0.2622205E-07  0.3423701E+04  0.7818609E-02  0.8132114E-01
       -1   -1    0    0    0  501  0.00000000000E+00  0.00000000000E+00  0.23024843823E+04  0.23024843823E+04  0.50400001928E-02 0.  1.
        1   -1    0    0  501    0  0.00000000000E+00  0.00000000000E+00 -0.12727258314E+04  0.12727258315E+04  0.50400001928E-02 0. -1.
    10030    2    1    2    0    0  0.00000000000E+00  0.00000000000E+00  0.10297585508E+04  0.35752102138E+04  0.34237005417E+04 0.  0.
        3    1    3    3  502    0  0.15106085363E+04  0.34666972100E+03 -0.24413785980E+03  0.15689873646E+04  0.10100000352E+00 0. -1.
       -3    1    3    3    0  502 -0.15106085363E+04 -0.34666972100E+03  0.12738964106E+04  0.20062228492E+04  0.10100000352E+00 0.  1.
</event>
<event>
 5   0  0.8489228E-07  0.3405634E+04  0.7818609E-02  0.8136525E-01
        2   -1    0    0  501    0  0.00000000000E+00  0.00000000000E+00  0.21211354010E+04  0.21211354010E+04  0.25500000920E-02 0. -1.
       -2   -1    0    0    0  501  0.00000000000E+00  0.00000000000E+00 -0.13669972644E+04  0.13669972644E+04  0.25500000920E-02 0.  1.
    10030    2    1    2    0    0  0.00000000000E+00  0.00000000000E+00  0.75413813663E+03  0.34881326654E+04  0.34056343259E+04 0.  0.
        3    1    3    3  502    0  0.25664253148E+03 -0.23269101479E+03  0.20846615711E+04  0.21132497187E+04  0.10100000352E+00 0. -1.
       -3    1    3    3    0  502 -0.25664253148E+03  0.23269101479E+03 -0.13305234344E+04  0.13748829467E+04  0.10100000352E+00 0.  1.
</event>
<event>
 5   0  0.7822003E-07  0.3360688E+04  0.7818609E-02  0.8147623E-01
       -2   -1    0    0    0  501  0.00000000000E+00  0.00000000000E+00  0.11442033689E+04  0.11442033689E+04  0.25500000920E-02 0.  1.
        2   -1    0    0  501    0  0.00000000000E+00  0.00000000000E+00 -0.24677045672E+04  0.24677045672E+04  0.25500000920E-02 0. -1.
    10030    2    1    2    0    0  0.00000000000E+00  0.00000000000E+00 -0.13235011982E+04  0.36119079361E+04  0.33606879529E+04 0.  0.
        5    1    3    3  502    0  0.13339701415E+04 -0.10258667508E+03  0.43087342692E+03  0.14055868398E+04  0.46999998093E+01 0.  1.
       -5    1    3    3    0  502 -0.13339701415E+04  0.10258667508E+03 -0.17543746252E+04  0.22063210962E+04  0.46999998093E+01 0. -1.
</event>
<event>
 5   0  0.7838333E-07  0.3321021E+04  0.7818609E-02  0.8157567E-01
       -2   -1    0    0    0  501  0.00000000000E+00  0.00000000000E+00  0.12253506770E+04  0.12253506770E+04  0.25500000920E-02 0.  1.
        2   -1    0    0  501    0  0.00000000000E+00  0.00000000000E+00 -0.22502086973E+04  0.22502086973E+04  0.25500000920E-02 0. -1.
    10030    2    1    2    0    0  0.00000000000E+00  0.00000000000E+00 -0.10248580203E+04  0.34755593743E+04  0.33210207773E+04 0.  0.
        1    1    3    3  502    0 -0.10923171617E+04  0.11952197679E+04 -0.89778598753E+03  0.18514120975E+04  0.50400001928E-02 0. -1.
       -1    1    3    3    0  502  0.10923171617E+04 -0.11952197679E+04 -0.12707203273E+03  0.16241472768E+04  0.50400001928E-02 0.  1.
</event>
<event>
 5   0  0.2622205E-07  0.3411490E+04  0.7818609E-02  0.8135092E-01
        1   -1    0    0  501    0  0.00000000000E+00  0.00000000000E+00  0.23131076835E+04  0.23131076835E+04  0.50400001928E-02 0.  1.
       -1   -1    0    0    0  501  0.00000000000E+00  0.00000000000E+00 -0.12578603272E+04  0.12578603272E+04  0.50400001928E-02 0. -1.
    10030    2    1    2    0    0  0.00000000000E+00  0.00000000000E+00  0.10552473563E+04  0.35709680107E+04  0.34114902243E+04 0.  0.
        3    1    3    3  502    0  0.80539541349E+03  0.15000954755E+04  0.63548522862E+03  0.18173578882E+04  0.10100000352E+00 0.  1.
       -3    1    3    3    0  502 -0.80539541349E+03 -0.15000954755E+04  0.41976212768E+03  0.17536101225E+04  0.10100000352E+00 0. -1.
</event>
<event>
 5   0  0.2592200E-07  0.3389062E+04  0.7818609E-02  0.8140596E-01
       -1   -1    0    0    0  501  0.00000000000E+00  0.00000000000E+00  0.15724726241E+04  0.15724726241E+04  0.50400001928E-02 0.  1.
        1   -1    0    0  501    0  0.00000000000E+00  0.00000000000E+00 -0.18260636192E+04  0.18260636192E+04  0.50400001928E-02 0. -1.
    10030    2    1    2    0    0  0.00000000000E+00  0.00000000000E+00 -0.25359099506E+03  0.33985362433E+04  0.33890618473E+04 0.  0.
        4    1    3    3  502    0  0.32182926832E+03 -0.34866822343E+03  0.15044942822E+04  0.15775450124E+04  0.12699999809E+01 0.  1.
       -4    1    3    3    0  502 -0.32182926832E+03  0.34866822343E+03 -0.17580852773E+04  0.18209912309E+04  0.12699999809E+01 0. -1.
</event>
<event>
 5   0  0.2622205E-07  0.3362528E+04  0.7818609E-02  0.8147165E-01
       -1   -1    0    0    0  501  0.00000000000E+00  0.00000000000E+00  0.22155438140E+04  0.22155438140E+04  0.50400001928E-02 0.  1.
        1   -1    0    0  501    0  0.00000000000E+00  0.00000000000E+00 -0.12758261003E+04  0.12758261003E+04  0.50400001928E-02 0. -1.
    10030    2    1    2    0    0  0.00000000000E+00  0.00000000000E+00  0.93971771367E+03  0.34913699143E+04  0.33625279920E+04 0.  0.
        3    1    3    3  502    0  0.12065577922E+04  0.35098242988E+02  0.16850158287E+04  0.20727498513E+04  0.10100000352E+00 0.  1.
       -3    1    3    3    0  502 -0.12065577922E+04 -0.35098242988E+02 -0.74529811508E+03  0.14186200630E+04  0.10100000352E+00 0. -1.
</event>
<event>
 5   0  0.7610412E-07  0.3405866E+04  0.7818609E-02  0.8136468E-01
       -2   -1    0    0    0  501  0.00000000000E+00  0.00000000000E+00  0.15707534906E+04  0.15707534906E+04  0.25500000920E-02 0. -1.
        2   -1    0    0  501    0  0.00000000000E+00  0.00000000000E+00 -0.18462357538E+04  0.18462357538E+04  0.25500000920E-02 0.  1.
    10030    2    1    2    0    0  0.00000000000E+00  0.00000000000E+00 -0.27548226317E+03  0.34169892444E+04  0.34058662656E+04 0.  0.
        4    1    3    3  502    0 -0.13002170421E+04  0.10794285971E+04 -0.34878302703E+03  0.17255091033E+04  0.12699999809E+01 0. -1.
       -4    1    3    3    0  502  0.13002170421E+04 -0.10794285971E+04  0.73300763855E+02  0.16914801411E+04  0.12699999809E+01 0.  1.
</event>
<event>
 5   0  0.7822003E-07  0.3376708E+04  0.7818609E-02  0.8143647E-01
       -2   -1    0    0    0  501  0.00000000000E+00  0.00000000000E+00  0.11011284387E+04  0.11011284387E+04  0.25500000920E-02 0. -1.
        2   -1    0    0  501    0  0.00000000000E+00  0.00000000000E+00 -0.25887442000E+04  0.25887442000E+04  0.25500000920E-02 0.  1.
    10030    2    1    2    0    0  0.00000000000E+00  0.00000000000E+00 -0.14876157613E+04  0.36898726387E+04  0.33767083731E+04 0.  0.
        5    1    3    3  502    0 -0.51447284048E+03 -0.88844957439E+03  0.72083101813E+03  0.12544498382E+04  0.46999998093E+01 0. -1.
       -5    1    3    3    0  502  0.51447284048E+03  0.88844957439E+03 -0.22084467794E+04  0.24354228005E+04  0.46999998093E+01 0.  1.
</event>
<event>
 5   0  0.7899402E-07  0.3406648E+04  0.7818609E-02  0.8136277E-01
        2   -1    0    0  501    0  0.00000000000E+00  0.00000000000E+00  0.16131056906E+04  0.16131056906E+04  0.25500000920E-02 0. -1.
       -2   -1    0    0    0  501  0.00000000000E+00  0.00000000000E+00 -0.17985880102E+04  0.17985880102E+04  0.25500000920E-02 0.  1.
    10030    2    1    2    0    0  0.00000000000E+00  0.00000000000E+00 -0.18548231960E+03  0.34116937009E+04  0.34066479445E+04 0.  0.
        2    1    3    3  502    0 -0.74051874566E+03 -0.81504380772E+03 -0.13941458317E+04  0.17765998483E+04  0.25500000920E-02 0.  1.
       -2    1    3    3    0  502  0.74051874566E+03  0.81504380772E+03  0.12086635121E+04  0.16350938525E+04  0.25500000920E-02 0. -1.
</event>
<event>
 5   0  0.8489228E-07  0.3403221E+04  0.7818609E-02  0.8137116E-01
        2   -1    0    0  501    0  0.00000000000E+00  0.00000000000E+00  0.14154527923E+04  0.14154527923E+04  0.25500000920E-02 0. -1.
       -2   -1    0    0    0  501  0.00000000000E+00  0.00000000000E+00 -0.20456195009E+04  0.20456195009E+04  0.25500000920E-02 0.  1.
    10030    2    1    2    0    0  0.00000000000E+00  0.00000000000E+00 -0.63016670861E+03  0.34610722933E+04  0.34032207302E+04 0.  0.
        3    1    3    3  502    0 -0.14450382956E+04 -0.50111619847E+03  0.44339936335E+03  0.15924371654E+04  0.10100000352E+00 0. -1.
       -3    1    3    3    0  502  0.14450382956E+04  0.50111619847E+03 -0.10735660720E+04  0.18686351279E+04  0.10100000352E+00 0.  1.
</event>
<event>
 5   0  0.7899402E-07  0.3390648E+04  0.7818609E-02  0.8140205E-01
        2   -1    0    0  501    0  0.00000000000E+00  0.00000000000E+00  0.19394057551E+04  0.19394057551E+04  0.25500000920E-02 0.  1.
       -2   -1    0    0    0  501  0.00000000000E+00  0.00000000000E+00 -0.14819609828E+04  0.14819609828E+04  0.25500000920E-02 0. -1.
    10030    2    1    2    0    0  0.00000000000E+00  0.00000000000E+00  0.45744477223E+03  0.34213667379E+04  0.33906481144E+04 0.  0.
        2    1    3    3  502    0  0.11461121296E+04 -0.68677796239E+03 -0.82422882915E+03  0.15699013173E+04  0.25500000920E-02 0. -1.
       -2    1    3    3    0  502 -0.11461121296E+04  0.68677796239E+03  0.12816736014E+04  0.18514654206E+04  0.25500000920E-02 0.  1.
</event>
<event>
 5   0  0.8489228E-07  0.3505093E+04  0.7818609E-02  0.8112584E-01
       -2   -1    0    0    0  501  0.00000000000E+00  0.00000000000E+00  0.14684149151E+04  0.14684149151E+04  0.25500000920E-02 0.  1.
        2   -1    0    0  501    0  0.00000000000E+00  0.00000000000E+00 -0.20916560538E+04  0.20916560538E+04  0.25500000920E-02 0. -1.
    10030    2    1    2    0    0  0.00000000000E+00  0.00000000000E+00 -0.62324113872E+03  0.35600709690E+04  0.35050928357E+04 0.  0.
        3    1    3    3  502    0 -0.23222387421E+03 -0.72970679116E+02  0.14511614106E+04  0.14714353869E+04  0.10100000352E+00 0.  1.
       -3    1    3    3    0  502  0.23222387421E+03  0.72970679116E+02 -0.20744025494E+04  0.20886355821E+04  0.10100000352E+00 0. -1.
</event>
<event>
 5   0  0.8489228E-07  0.3418164E+04  0.7818609E-02  0.8133463E-01
       -2   -1    0    0    0  501  0.00000000000E+00  0.00000000000E+00  0.20945389176E+04  0.20945389176E+04  0.25500000920E-02 0. -1.
        2   -1    0    0  501    0  0.00000000000E+00  0.00000000000E+00 -0.13945608672E+04  0.13945608672E+04  0.25500000920E-02 0.  1.
    10030    2    1    2    0    0  0.00000000000E+00  0.00000000000E+00  0.69997805040E+03  0.34890997847E+04  0.34181644250E+04 0.  0.
        3    1    3    3  502    0 -0.16185990418E+04  0.52782029300E+03  0.19685955445E+03  0.17138292839E+04  0.10100000352E+00 0.  1.
       -3    1    3    3    0  502  0.16185990418E+04 -0.52782029300E+03  0.50311849595E+03  0.17752705008E+04  0.10100000352E+00 0. -1.
</event>
<event>
 5   0  0.7610412E-07  0.3030015E+04  0.7818609E-02  0.8235211E-01
       -2   -1    0    0    0  501  0.00000000000E+00  0.00000000000E+00  0.83422453828E+03  0.83422453828E+03  0.25500000920E-02 0. -1.
        2   -1    0    0  501    0  0.00000000000E+00  0.00000000000E+00 -0.27513553630E+04  0.27513553630E+04  0.25500000920E-02 0.  1.
    10030    2    1    2    0    0  0.00000000000E+00  0.00000000000E+00 -0.19171308247E+04  0.35855799012E+04  0.30300152853E+04 0.  0.
        4    1    3    3  502    0  0.32061596317E+03  0.56179665459E+03  0.66260176419E+03  0.92598746631E+03  0.12699999809E+01 0. -1.
       -4    1    3    3    0  502 -0.32061596317E+03 -0.56179665459E+03 -0.25797325889E+04  0.26595924349E+04  0.12699999809E+01 0.  1.
</event>
<event>
 5   0  0.2553250E-07  0.3407103E+04  0.7818609E-02  0.8136165E-01
       -1   -1    0    0    0  501  0.00000000000E+00  0.00000000000E+00  0.32934225461E+04  0.32934225461E+04  0.50400001928E-02 0.  1.
        1   -1    0    0  501    0  0.00000000000E+00  0.00000000000E+00 -0.88117701826E+03  0.88117701827E+03  0.50400001928E-02 0. -1.
    10030    2    1    2    0    0  0.00000000000E+00  0.00000000000E+00  0.24122455279E+04  0.41745995644E+04  0.34071033205E+04 0.  0.
        5    1    3    3  502    0 -0.12921185919E+04 -0.89943658486E+03  0.20034950194E+04  0.25480523952E+04  0.46999998093E+01 0.  1.
       -5    1    3    3    0  502  0.12921185919E+04  0.89943658486E+03  0.40875050843E+03  0.16265471692E+04  0.46999998093E+01 0. -1.
</event>
<event>
 5   0  0.2599367E-07  0.3390227E+04  0.7818609E-02  0.8140309E-01
       -1   -1    0    0    0  501  0.00000000000E+00  0.00000000000E+00  0.16194999000E+04  0.16194999000E+04  0.50400001928E-02 0.  1.
        1   -1    0    0  501    0  0.00000000000E+00  0.00000000000E+00 -0.17742571378E+04  0.17742571378E+04  0.50400001928E-02 0. -1.
    10030    2    1    2    0    0  0.00000000000E+00  0.00000000000E+00 -0.15475723774E+03  0.33937570378E+04  0.33902266929E+04 0.  0.
        2    1    3    3  502    0  0.14707804456E+04  0.83676883047E+03 -0.17764310327E+03  0.17014506360E+04  0.25500000920E-02 0.  1.
       -2    1    3    3    0  502 -0.14707804456E+04 -0.83676883047E+03  0.22885865526E+02  0.16923064018E+04  0.25500000920E-02 0. -1.
</event>
<event>
 5   0  0.2599367E-07  0.3394106E+04  0.7818609E-02  0.8139354E-01
        1   -1    0    0  501    0  0.00000000000E+00  0.00000000000E+00  0.16386162264E+04  0.16386162264E+04  0.50400001928E-02 0.  1.
       -1   -1    0    0    0  501  0.00000000000E+00  0.00000000000E+00 -0.17575734524E+04  0.17575734524E+04  0.50400001928E-02 0. -1.
    10030    2    1    2    0    0  0.00000000000E+00  0.00000000000E+00 -0.11895722602E+03  0.33961896789E+04  0.33941057015E+04 0.  0.
        2    1    3    3  502    0  0.95594139964E+03 -0.87983335554E+03 -0.11519629282E+04  0.17363609305E+04  0.25500000920E-02 0. -1.
       -2    1    3    3    0  502 -0.95594139964E+03  0.87983335554E+03  0.10330057022E+04  0.16598287483E+04  0.25500000920E-02 0.  1.
</event>
<event>
 5   0  0.2622205E-07  0.3398694E+04  0.7818609E-02  0.8138227E-01
       -1   -1    0    0    0  501  0.00000000000E+00  0.00000000000E+00  0.13584746414E+04  0.13584746414E+04  0.50400001928E-02 0.  1.
        1   -1    0    0  501    0  0.00000000000E+00  0.00000000000E+00 -0.21257523944E+04  0.21257523944E+04  0.50400001928E-02 0. -1.
    10030    2    1    2    0    0  0.00000000000E+00  0.00000000000E+00 -0.76727775301E+03  0.34842270358E+04  0.33986942914E+04 0.  0.
        3    1    3    3  502    0  0.12018163023E+04  0.97935057814E+03  0.32978464390E+03  0.15850072243E+04  0.10100000352E+00 0.  1.
       -3    1    3    3    0  502 -0.12018163023E+04 -0.97935057814E+03 -0.10970623969E+04  0.18992198115E+04  0.10100000352E+00 0. -1.
</event>
<event>
 5   0  0.7838333E-07  0.3395106E+04  0.7818609E-02  0.8139109E-01
       -2   -1    0    0    0  501  0.00000000000E+00  0.00000000000E+00  0.17321187867E+04  0.17321187867E+04  0.25500000920E-02 0. -1.
        2   -1    0    0  501    0  0.00000000000E+00  0.00000000000E+00 -0.16636765684E+04  0.16636765684E+04  0.25500000920E-02 0.  1.
    10030    2    1    2    0    0  0.00000000000E+00  0.00000000000E+00  0.68442218255E+02  0.33957953551E+04  0.33951055590E+04 0.  0.
        1    1    3    3  502    0 -0.57572703730E+03 -0.11494409350E+04 -0.10746110739E+04  0.16755491770E+04  0.50400001928E-02 0.  1.
       -1    1    3    3    0  502  0.57572703730E+03  0.11494409350E+04  0.11430532921E+04  0.17202461781E+04  0.50400001928E-02 0. -1.
</event>
<event>
 5   0  0.2622205E-07  0.3342395E+04  0.7818609E-02  0.8152191E-01
        1   -1    0    0  501    0  0.00000000000E+00  0.00000000000E+00  0.23229936564E+04  0.23229936564E+04  0.50400001928E-02 0. -1.
       -1   -1    0    0    0  501  0.00000000000E+00  0.00000000000E+00 -0.12022851876E+04  0.12022851876E+04  0.50400001928E-02 0.  1.
    10030    2    1    2    0    0  0.00000000000E+00  0.00000000000E+00  0.11207084688E+04  0.35252788440E+04  0.33423948683E+04 0.  0.
        3    1    3    3  502    0 -0.30191887071E+03  0.73088388424E+03 -0.99246442665E+03  0.12689885362E+04  0.10100000352E+00 0.  1.
       -3    1    3    3    0  502  0.30191887071E+03 -0.73088388424E+03  0.21131728954E+04  0.22562903077E+04  0.10100000352E+00 0. -1.
</event>
<event>
 5   0  0.8489228E-07  0.3387833E+04  0.7818609E-02  0.8140899E-01
        2   -1    0    0  501    0  0.00000000000E+00  0.00000000000E+00  0.13689732868E+04  0.13689732868E+04  0.25500000920E-02 0. -1.
       -2   -1    0    0    0  501  0.00000000000E+00  0.00000000000E+00 -0.20959895872E+04  0.20959895872E+04  0.25500000920E-02 0.  1.
    10030    2    1    2    0    0  0.00000000000E+00  0.00000000000E+00 -0.72701630040E+03  0.34649628739E+04  0.33878333809E+04 0.  0.
        3    1    3    3  502    0  0.96742986240E+03  0.90027517421E+02 -0.17826602186E+04  0.20302470189E+04  0.10100000352E+00 0.  1.
       -3    1    3    3    0  502 -0.96742986240E+03 -0.90027517421E+02  0.10556439182E+04  0.14347158551E+04  0.10100000352E+00 0. -1.
</event>
<event>
 5   0  0.2641442E-07  0.3407797E+04  0.7818609E-02  0.8135995E-01
       -1   -1    0    0    0  501  0.00000000000E+00  0.00000000000E+00  0.13933235693E+04  0.13933235694E+04  0.50400001928E-02 0. -1.
        1   -1    0    0  501    0  0.00000000000E+00  0.00000000000E+00 -0.20837007942E+04  0.20837007942E+04  0.50400001928E-02 0.  1.
    10030    2    1    2    0    0  0.00000000000E+00  0.00000000000E+00 -0.69037722488E+03  0.34770243636E+04  0.34077966067E+04 0.  0.
        1    1    3    3  502    0 -0.22759092755E+03  0.40254136022E+03  0.13280750199E+04  0.14062789323E+04  0.50400001928E-02 0. -1.
       -1    1    3    3    0  502  0.22759092755E+03 -0.40254136022E+03 -0.20184522447E+04  0.20707454313E+04  0.50400001928E-02 0.  1.
</event>
<event>
 5   0  0.7610412E-07  0.3396744E+04  0.7818609E-02  0.8138706E-01
        2   -1    0    0  501    0  0.00000000000E+00  0.00000000000E+00  0.26659454224E+04  0.26659454224E+04  0.25500000920E-02 0.  1.
       -2   -1    0    0    0  501  0.00000000000E+00  0.00000000000E+00 -0.10819678849E+04  0.10819678849E+04  0.25500000920E-02 0. -1.
    10030    2    1    2    0    0  0.00000000000E+00  0.00000000000E+00  0.15839775374E+04  0.37479133073E+04  0.33967439291E+04 0.  0.
        4    1    3    3  502    0  0.15521616118E+04  0.67763062509E+03  0.93189153897E+03  0.19330836471E+04  0.12699999809E+01 0. -1.
       -4    1    3    3    0  502 -0.15521616118E+04 -0.67763062509E+03  0.65208599846E+03  0.18148296602E+04  0.12699999809E+01 0.  1.
</event>
<event>
 5   0  0.7610412E-07  0.3461747E+04  0.7818609E-02  0.8122916E-01
       -2   -1    0    0    0  501  0.00000000000E+00  0.00000000000E+00  0.14338290625E+04  0.14338290625E+04  0.25500000920E-02 0.  1.
        2   -1    0    0  501    0  0.00000000000E+00  0.00000000000E+00 -0.20894561048E+04  0.20894561048E+04  0.25500000920E-02 0. -1.
    10030    2    1    2    0    0  0.00000000000E+00  0.00000000000E+00 -0.65562704235E+03  0.35232851673E+04  0.34617468930E+04 0.  0.
        4    1    3    3  502    0 -0.14824199790E+04 -0.36920872749E+03 -0.11559342961E+04  0.19157426206E+04  0.12699999809E+01 0. -1.
       -4    1    3    3    0  502  0.14824199790E+04  0.36920872749E+03  0.50030725371E+03  0.16075425467E+04  0.12699999809E+01 0.  1.
</event>
<event>
 5   0  0.2553250E-07  0.3398330E+04  0.7818609E-02  0.8138316E-01
        1   -1    0    0  501    0  0.00000000000E+00  0.00000000000E+00  0.10764749234E+04  0.10764749234E+04  0.50400001928E-02 0. -1.
       -1   -1    0    0    0  501  0.00000000000E+00  0.00000000000E+00 -0.26820527665E+04  0.26820527665E+04  0.50400001928E-02 0.  1.
    10030    2    1    2    0    0  0.00000000000E+00  0.00000000000E+00 -0.16055778431E+04  0.37585276899E+04  0.33983304997E+04 0.  0.
        5    1    3    3  502    0 -0.58175429095E+02  0.43859897430E+03  0.10116410757E+04  0.11041708187E+04  0.46999998093E+01 0. -1.
       -5    1    3    3    0  502  0.58175429095E+02 -0.43859897430E+03 -0.26172189188E+04  0.26543568712E+04  0.46999998093E+01 0.  1.
</event>
<event>
 5   0  0.2622205E-07  0.3397286E+04  0.7818609E-02  0.8138573E-01
       -1   -1    0    0    0  501  0.00000000000E+00  0.00000000000E+00  0.11789397588E+04  0.11789397589E+04  0.50400001928E-02 0. -1.
        1   -1    0    0  501    0  0.00000000000E+00  0.00000000000E+00 -0.24474436603E+04  0.24474436603E+04  0.50400001928E-02 0.  1.
    10030    2    1    2    0    0  0.00000000000E+00  0.00000000000E+00 -0.12685039015E+04  0.36263834192E+04  0.33972863516E+04 0.  0.
        3    1    3    3  502    0  0.68232163694E+03 -0.12433413921E+03 -0.22894193751E+04  0.23921669840E+04  0.10100000352E+00 0.  1.
       -3    1    3    3    0  502 -0.68232163694E+03  0.12433413921E+03  0.10209154736E+04  0.12342164352E+04  0.10100000352E+00 0. -1.
</event>
<event>
 5   0  0.2599367E-07  0.3393434E+04  0.7818609E-02  0.8139520E-01
       -1   -1    0    0    0  501  0.00000000000E+00  0.00000000000E+00  0.15528940237E+04  0.15528940237E+04  0.50400001928E-02 0.  1.
        1   -1    0    0  501    0  0.00000000000E+00  0.00000000000E+00 -0.18538607887E+04  0.18538607887E+04  0.50400001928E-02 0. -1.
    10030    2    1    2    0    0  0.00000000000E+00  0.00000000000E+00 -0.30096676505E+03  0.34067548124E+04  0.33934344488E+04 0.  0.
        2    1    3    3  502    0 -0.14116688334E+04  0.59776335514E+03  0.57950179741E+03  0.16388875059E+04  0.25500000920E-02 0.  1.
       -2    1    3    3    0  502  0.14116688334E+04 -0.59776335514E+03 -0.88046856245E+03  0.17678673065E+04  0.25500000920E-02 0. -1.
</event>
<event>
 5   0  0.7610412E-07  0.3419268E+04  0.7818609E-02  0.8133194E-01
       -2   -1    0    0    0  501  0.00000000000E+00  0.00000000000E+00  0.96253761832E+03  0.96253761832E+03  0.25500000920E-02 0. -1.
        2   -1    0    0  501    0  0.00000000000E+00  0.00000000000E+00 -0.30366065299E+04  0.30366065299E+04  0.25500000920E-02 0.  1.
    10030    2    1    2    0    0  0.00000000000E+00  0.00000000000E+00 -0.20740689116E+04  0.39991441482E+04  0.34192677678E+04 0.  0.
        4    1    3    3  502    0 -0.53217300631E+03 -0.83818358640E+03 -0.26648622565E+04  0.28438094684E+04  0.12699999809E+01 0.  1.
       -4    1    3    3    0  502  0.53217300631E+03  0.83818358640E+03  0.59079334495E+03  0.11553346799E+04  0.12699999809E+01 0. -1.
</event>
<event>
 5   0  0.2622205E-07  0.3385207E+04  0.7818609E-02  0.8141547E-01
        1   -1    0    0  501    0  0.00000000000E+00  0.00000000000E+00  0.21160309324E+04  0.21160309324E+04  0.50400001928E-02 0.  1.
       -1   -1    0    0    0  501  0.00000000000E+00  0.00000000000E+00 -0.13539059927E+04  0.13539059927E+04  0.50400001928E-02 0. -1.
    10030    2    1    2    0    0  0.00000000000E+00  0.00000000000E+00  0.76212493976E+03  0.34699369251E+04  0.33852072079E+04 0.  0.
        3    1    3    3  502    0 -0.26263325492E+03 -0.89390383063E+03 -0.10674120404E+04  0.14168305330E+04  0.10100000352E+00 0. -1.
       -3    1    3    3    0  502  0.26263325492E+03  0.89390383063E+03  0.18295369802E+04  0.20531063921E+04  0.10100000352E+00 0.  1.
</event>
<event>
 5   0  0.7899402E-07  0.3638197E+04  0.7818609E-02  0.8081798E-01
        2   -1    0    0  501    0  0.00000000000E+00  0.00000000000E+00  0.24402829181E+04  0.24402829181E+04  0.25500000920E-02 0.  1.
       -2   -1    0    0    0  501  0.00000000000E+00  0.00000000000E+00 -0.13560389139E+04  0.13560389139E+04  0.25500000920E-02 0. -1.
    10030    2    1    2    0    0  0.00000000000E+00  0.00000000000E+00  0.10842440042E+04  0.37963218319E+04  0.36381965850E+04 0.  0.
        2    1    3    3  502    0 -0.86728107255E+03 -0.15490929855E+03 -0.11185725529E+04  0.14238602129E+04  0.25500000920E-02 0. -1.
       -2    1    3    3    0  502  0.86728107255E+03  0.15490929855E+03  0.22028165571E+04  0.23724616191E+04  0.25500000920E-02 0.  1.
</event>
<event>
 5   0  0.7610412E-07  0.3383316E+04  0.7818609E-02  0.8142013E-01
       -2   -1    0    0    0  501  0.00000000000E+00  0.00000000000E+00  0.16728957703E+04  0.16728957703E+04  0.25500000920E-02 0.  1.
        2   -1    0    0  501    0  0.00000000000E+00  0.00000000000E+00 -0.17106310796E+04  0.17106310796E+04  0.25500000920E-02 0. -1.
    10030    2    1    2    0    0  0.00000000000E+00  0.00000000000E+00 -0.37735309383E+02  0.33835268499E+04  0.33833164189E+04 0.  0.
        4    1    3    3  502    0 -0.21633033139E+03  0.77098954286E+03  0.14713532749E+04  0.16751435043E+04  0.12699999809E+01 0.  1.
       -4    1    3    3    0  502  0.21633033139E+03 -0.77098954286E+03 -0.15090885843E+04  0.17083833456E+04  0.12699999809E+01 0. -1.
</event>
<event>
 5   0  0.2553250E-07  0.3411751E+04  0.7818609E-02  0.8135028E-01
       -1   -1    0    0    0  501  0.00000000000E+00  0.00000000000E+00  0.11879345593E+04  0.11879345593E+04  0.50400001928E-02 0.  1.
        1   -1    0    0  501    0  0.00000000000E+00  0.00000000000E+00 -0.24496399186E+04  0.24496399186E+04  0.50400001928E-02 0. -1.
    10030    2    1    2    0    0  0.00000000000E+00  0.00000000000E+00 -0.12617053593E+04  0.36375744780E+04  0.34117514079E+04 0.  0.
        5    1    3    3  502    0  0.34198103461E+03 -0.11132209291E+04  0.69815959901E+03  0.13578147078E+04  0.46999998093E+01 0.  1.
       -5    1    3    3    0  502 -0.34198103461E+03  0.11132209291E+04 -0.19598649583E+04  0.22797597702E+04  0.46999998093E+01 0. -1.
</event>
<event>
 5   0  0.2599367E-07  0.3408077E+04  0.7818609E-02  0.8135927E-01
       -1   -1    0    0    0  501  0.00000000000E+00  0.00000000000E+00  0.23571535263E+04  0.23571535263E+04  0.50400001928E-02 0.  1.
        1   -1    0    0  501    0  0.00000000000E+00  0.00000000000E+00 -0.12318871033E+04  0.12318871033E+04  0.50400001928E-02 0. -1.
    10030    2    1    2    0    0  0.00000000000E+00  0.00000000000E+00  0.11252664230E+04  0.35890406296E+04  0.34080768944E+04 0.  0.
        2    1    3    3  502    0  0.10813999626E+03 -0.97090060189E+03 -0.90771434615E+03  0.13335244924E+04  0.25500000920E-02 0. -1.
       -2    1    3    3    0  502 -0.10813999626E+03  0.97090060189E+03  0.20329807692E+04  0.22555161373E+04  0.25500000920E-02 0.  1.
</event>
<event>
 5   0  0.7899402E-07  0.3398574E+04  0.7818609E-02  0.8138256E-01
        2   -1    0    0  501    0  0.00000000000E+00  0.00000000000E+00  0.27574712910E+04  0.27574712910E+04  0.25500000920E-02 0. -1.
       -2   -1    0    0    0  501  0.00000000000E+00  0.00000000000E+00 -0.10471827289E+04  0.10471827289E+04  0.25500000920E-02 0.  1.
    10030    2    1    2    0    0  0.00000000000E+00  0.00000000000E+00  0.17102885621E+04  0.38046540199E+04  0.33985740017E+04 0.  0.
        2    1    3    3  502    0  0.37391927717E+03 -0.28133762628E+03 -0.97363368035E+03  0.10802448932E+04  0.25500000920E-02 0.  1.
       -2    1    3    3    0  502 -0.37391927717E+03  0.28133762628E+03  0.26839222425E+04  0.27244091267E+04  0.25500000920E-02 0. -1.
</event>
<event>
 5   0  0.8489228E-07  0.3410886E+04  0.7818609E-02  0.8135240E-01
       -2   -1    0    0    0  501  0.00000000000E+00  0.00000000000E+00  0.13564196063E+04  0.13564196063E+04  0.25500000920E-02 0. -1.
        2   -1    0    0  501    0  0.00000000000E+00  0.00000000000E+00 -0.21442749016E+04  0.21442749016E+04  0.25500000920E-02 0.  1.
    10030    2    1    2    0    0  0.00000000000E+00  0.00000000000E+00 -0.78785529528E+03  0.35006945080E+04  0.34108864056E+04 0.  0.
        3    1    3    3  502    0 -0.13496481189E+04  0.56591699210E+03  0.50475551546E+03  0.15480924479E+04  0.10100000352E+00 0. -1.
       -3    1    3    3    0  502  0.13496481189E+04 -0.56591699210E+03 -0.12926108107E+04  0.19526020601E+04  0.10100000352E+00 0.  1.
</event>
<event>
 5   0  0.7822003E-07  0.3409908E+04  0.7818609E-02  0.8135479E-01
       -2   -1    0    0    0  501  0.00000000000E+00  0.00000000000E+00  0.17952212104E+04  0.17952212104E+04  0.25500000920E-02 0.  1.
        2   -1    0    0  501    0  0.00000000000E+00  0.00000000000E+00 -0.16192253552E+04  0.16192253552E+04  0.25500000920E-02 0. -1.
    10030    2    1    2    0    0  0.00000000000E+00  0.00000000000E+00  0.17599585517E+03  0.34144465656E+04  0.34099077419E+04 0.  0.
        5    1    3    3  502    0  0.10263081908E+04  0.45418952015E+03 -0.11971624177E+04  0.16409803677E+04  0.46999998093E+01 0. -1.
       -5    1    3    3    0  502 -0.10263081908E+04 -0.45418952015E+03  0.13731582729E+04  0.17734661979E+04  0.46999998093E+01 0.  1.
</event>
<event>
 5   0  0.2599367E-07  0.3398746E+04  0.7818609E-02  0.8138214E-01
       -1   -1    0    0    0  501  0.00000000000E+00  0.00000000000E+00  0.14492211444E+04  0.14492211444E+04  0.50400001928E-02 0. -1.
        1   -1    0    0  501    0  0.00000000000E+00  0.00000000000E+00 -0.19927041017E+04  0.19927041017E+04  0.50400001928E-02 0.  1.
    10030    2    1    2    0    0  0.00000000000E+00  0.00000000000E+00 -0.54348295731E+03  0.34419252462E+04  0.33987461917E+04 0.  0.
        2    1    3    3  502    0 -0.12007122824E+04  0.72230831705E+03  0.70194609646E+03  0.15672165174E+04  0.25500000920E-02 0. -1.
       -2    1    3    3    0  502  0.12007122824E+04 -0.72230831705E+03 -0.12454290538E+04  0.18747087288E+04  0.25500000920E-02 0.  1.
</event>
<event>
 5   0  0.7899402E-07  0.3406827E+04  0.7818609E-02  0.8136233E-01
       -2   -1    0    0    0  501  0.00000000000E+00  0.00000000000E+00  0.12536967575E+04  0.12536967575E+04  0.25500000920E-02 0.  1.
        2   -1    0    0  501    0  0.00000000000E+00  0.00000000000E+00 -0.23144487332E+04  0.23144487332E+04  0.25500000920E-02 0. -1.
    10030    2    1    2    0    0  0.00000000000E+00  0.00000000000E+00 -0.10607519757E+04  0.35681454907E+04  0.34068266009E+04 0.  0.
        2    1    3    3  502    0 -0.66475800670E+03 -0.48388719004E+03  0.10320981833E+04  0.13195744315E+04  0.25500000920E-02 0.  1.
       -2    1    3    3    0  502  0.66475800670E+03  0.48388719004E+03 -0.20928501591E+04  0.22485710592E+04  0.25500000920E-02 0. -1.
</event>
<event>
 5   0  0.2599367E-07  0.3408305E+04  0.7818609E-02  0.8135871E-01
       -1   -1    0    0    0  501  0.00000000000E+00  0.00000000000E+00  0.15296084924E+04  0.15296084924E+04  0.50400001928E-02 0.  1.
        1   -1    0    0  501    0  0.00000000000E+00  0.00000000000E+00 -0.18986138528E+04  0.18986138529E+04  0.50400001928E-02 0. -1.
    10030    2    1    2    0    0  0.00000000000E+00  0.00000000000E+00 -0.36900536045E+03  0.34282223453E+04  0.34083050762E+04 0.  0.
        2    1    3    3  502    0 -0.91067096014E+03 -0.14397768727E+04 -0.22784547044E+03  0.17187764832E+04  0.25500000920E-02 0.  1.
       -2    1    3    3    0  502  0.91067096014E+03  0.14397768727E+04 -0.14115989001E+03  0.17094458621E+04  0.25500000920E-02 0. -1.
</event>
<event>
 5   0  0.7822003E-07  0.3376947E+04  0.7818609E-02  0.8143588E-01
        2   -1    0    0  501    0  0.00000000000E+00  0.00000000000E+00  0.28245409514E+04  0.28245409514E+04  0.25500000920E-02 0. -1.
       -2   -1    0    0    0  501  0.00000000000E+00  0.00000000000E+00 -0.10093474154E+04  0.10093474154E+04  0.25500000920E-02 0.  1.
    10030    2    1    2    0    0  0.00000000000E+00  0.00000000000E+00  0.18151935360E+04  0.38338883668E+04  0.33769472066E+04 0.  0.
        5    1    3    3  502    0 -0.15209493704E+04 -0.72926375741E+03  0.82107137284E+03  0.18759778529E+04  0.46999998093E+01 0. -1.
       -5    1    3    3    0  502  0.15209493704E+04  0.72926375741E+03  0.99412216313E+03  0.19579105139E+04  0.46999998093E+01 0.  1.
</event>
<event>
 5   0  0.2641442E-07  0.3440444E+04  0.7818609E-02  0.8128051E-01
       -1   -1    0    0    0  501  0.00000000000E+00  0.00000000000E+00  0.28255185880E+04  0.28255185880E+04  0.50400001928E-02 0. -1.
        1   -1    0    0  501    0  0.00000000000E+00  0.00000000000E+00 -0.10472994678E+04  0.10472994678E+04  0.50400001928E-02 0.  1.
    10030    2    1    2    0    0  0.00000000000E+00  0.00000000000E+00  0.17782191203E+04  0.38728180558E+04  0.34404442233E+04 0.  0.
        1    1    3    3  502    0 -0.93492583712E+03 -0.70784874918E+03  0.23058620739E+04  0.25869163258E+04  0.50400001928E-02 0. -1.
       -1    1    3    3    0  502  0.93492583712E+03  0.70784874918E+03 -0.52764295368E+03  0.12859017300E+04  0.50400001928E-02 0.  1.
</event>
<event>
 5   0  0.2599367E-07  0.3344364E+04  0.7818609E-02  0.8151698E-01
       -1   -1    0    0    0  501  0.00000000000E+00  0.00000000000E+00  0.34188110446E+04  0.34188110446E+04  0.50400001928E-02 0.  1.
        1   -1    0    0  501    0  0.00000000000E+00  0.00000000000E+00 -0.81788456849E+03  0.81788456851E+03  0.50400001928E-02 0. -1.
    10030    2    1    2    0    0  0.00000000000E+00  0.00000000000E+00  0.26009264761E+04  0.42366956131E+04  0.33443640926E+04 0.  0.
        2    1    3    3  502    0  0.64661954964E+03 -0.10491328898E+04 -0.13131748129E+03  0.12393711887E+04  0.25500000920E-02 0. -1.
       -2    1    3    3    0  502 -0.64661954964E+03  0.10491328898E+04  0.27322439574E+04  0.29973244244E+04  0.25500000920E-02 0.  1.
</event>
<event>
 5   0  0.2641442E-07  0.3405236E+04  0.7818609E-02  0.8136622E-01
       -1   -1    0    0    0  501  0.00000000000E+00  0.00000000000E+00  0.12245988982E+04  0.12245988982E+04  0.50400001928E-02 0. -1.
        1   -1    0    0  501    0  0.00000000000E+00  0.00000000000E+00 -0.23672303685E+04  0.23672303685E+04  0.50400001928E-02 0.  1.
    10030    2    1    2    0    0  0.00000000000E+00  0.00000000000E+00 -0.11426314703E+04  0.35918292667E+04  0.34052357928E+04 0.  0.
        1    1    3    3  502    0  0.74041079960E+03  0.30034351934E+03 -0.21571949572E+04  0.23004139769E+04  0.50400001928E-02 0.  1.
       -1    1    3    3    0  502 -0.74041079960E+03 -0.30034351934E+03  0.10145634869E+04  0.12914152898E+04  0.50400001928E-02 0. -1.
</event>
<event>
 5   0  0.7822003E-07  0.3410528E+04  0.7818609E-02  0.8135327E-01
       -2   -1    0    0    0  501  0.00000000000E+00  0.00000000000E+00  0.20754106838E+04  0.20754106838E+04  0.25500000920E-02 0. -1.
        2   -1    0    0  501    0  0.00000000000E+00  0.00000000000E+00 -0.14011324818E+04  0.14011324818E+04  0.25500000920E-02 0.  1.
    10030    2    1    2    0    0  0.00000000000E+00  0.00000000000E+00  0.67427820199E+03  0.34765431657E+04  0.34105280074E+04 0.  0.
        5    1    3    3  502    0  0.15584262650E+04 -0.24462383580E+03 -0.32298361700E+03  0.16102402775E+04  0.46999998093E+01 0.  1.
       -5    1    3    3    0  502 -0.15584262650E+04  0.24462383580E+03  0.99726181899E+03  0.18663028881E+04  0.46999998093E+01 0. -1.
</event>
<event>
 5   0  0.2553250E-07  0.3425868E+04  0.7818609E-02  0.8131587E-01
        1   -1    0    0  501    0  0.00000000000E+00  0.00000000000E+00  0.21091847457E+04  0.21091847457E+04  0.50400001928E-02 0. -1.
       -1   -1    0    0    0  501  0.00000000000E+00  0.00000000000E+00 -0.13911262790E+04  0.13911262790E+04  0.50400001928E-02 0.  1.
    10030    2    1    2    0    0  0.00000000000E+00  0.00000000000E+00  0.71805846674E+03  0.35003110247E+04  0.34258676722E+04 0.  0.
        5    1    3    3  502    0 -0.51164979400E+03  0.53835862513E+03 -0.12180479061E+04  0.14266318069E+04  0.46999998093E+01 0.  1.
       -5    1    3    3    0  502  0.51164979400E+03 -0.53835862513E+03  0.19361063729E+04  0.20736792177E+04  0.46999998093E+01 0. -1.
</event>
<event>
 5   0  0.2622205E-07  0.3393399E+04  0.7818609E-02  0.8139528E-01
        1   -1    0    0  501    0  0.00000000000E+00  0.00000000000E+00  0.25842082790E+04  0.25842082790E+04  0.50400001928E-02 0.  1.
       -1   -1    0    0    0  501  0.00000000000E+00  0.00000000000E+00 -0.11139930008E+04  0.11139930008E+04  0.50400001928E-02 0. -1.
    10030    2    1    2    0    0  0.00000000000E+00  0.00000000000E+00  0.14702152783E+04  0.36982012798E+04  0.33933994373E+04 0.  0.
        3    1    3    3  502    0 -0.98231252482E+03  0.13349132466E+04  0.11308475740E+04  0.20064265544E+04  0.10100000352E+00 0.  1.
       -3    1    3    3    0  502  0.98231252482E+03 -0.13349132466E+04  0.33936770424E+03  0.16917747253E+04  0.10100000352E+00 0. -1.
</event>
<event>
 5   0  0.7838333E-07  0.3390209E+04  0.7818609E-02  0.8140313E-01
       -2   -1    0    0    0  501  0.00000000000E+00  0.00000000000E+00  0.14383761121E+04  0.14383761121E+04  0.25500000920E-02 0. -1.
        2   -1    0    0  501    0  0.00000000000E+00  0.00000000000E+00 -0.19976554322E+04  0.19976554322E+04  0.25500000920E-02 0.  1.
    10030    2    1    2    0    0  0.00000000000E+00  0.00000000000E+00 -0.55927932014E+03  0.34360315443E+04  0.33902093469E+04 0.  0.
        1    1    3    3  502    0 -0.12176519956E+04  0.10420694365E+04  0.27990450869E+03  0.16269393434E+04  0.50400001928E-02 0. -1.
       -1    1    3    3    0  502  0.12176519956E+04 -0.10420694365E+04 -0.83918382883E+03  0.18090922009E+04  0.50400001928E-02 0.  1.
</event>
<event>
 5   0  0.2622205E-07  0.3381814E+04  0.7818609E-02  0.8142384E-01
        1   -1    0    0  501    0  0.00000000000E+00  0.00000000000E+00  0.19625006071E+04  0.19625006071E+04  0.50400001928E-02 0.  1.
       -1   -1    0    0    0  501  0.00000000000E+00  0.00000000000E+00 -0.14568998460E+04  0.14568998460E+04  0.50400001928E-02 0. -1.
    10030    2    1    2    0    0  0.00000000000E+00  0.00000000000E+00  0.50560076102E+03  0.34194004531E+04  0.33818142068E+04 0.  0.
        3    1    3    3  502    0 -0.11923416226E+04  0.21581641720E+03  0.14452772879E+04  0.18860227252E+04  0.10100000352E+00 0.  1.
       -3    1    3    3    0  502  0.11923416226E+04 -0.21581641720E+03 -0.93967652688E+03  0.15333777279E+04  0.10100000352E+00 0. -1.
</event>
<event>
 5   0  0.8489228E-07  0.3403772E+04  0.7818609E-02  0.8136981E-01
       -2   -1    0    0    0  501  0.00000000000E+00  0.00000000000E+00  0.11246577522E+04  0.11246577522E+04  0.25500000920E-02 0. -1.
        2   -1    0    0  501    0  0.00000000000E+00  0.00000000000E+00 -0.25753750072E+04  0.25753750072E+04  0.25500000920E-02 0.  1.
    10030    2    1    2    0    0  0.00000000000E+00  0.00000000000E+00 -0.14507172550E+04  0.37000327593E+04  0.34037717118E+04 0.  0.
        3    1    3    3  502    0 -0.16685353466E+04  0.21833205913E+03 -0.10019376906E+04  0.19584581274E+04  0.10100000352E+00 0. -1.
       -3    1    3    3    0  502  0.16685353466E+04 -0.21833205913E+03 -0.44877956442E+03  0.17415746319E+04  0.10100000352E+00 0.  1.
</event>
<event>
 5   0  0.2641442E-07  0.3392508E+04  0.7818609E-02  0.8139748E-01
        1   -1    0    0  501    0  0.00000000000E+00  0.00000000000E+00  0.23082262903E+04  0.23082262903E+04  0.50400001928E-02 0.  1.
       -1   -1    0    0    0  501  0.00000000000E+00  0.00000000000E+00 -0.12465315477E+04  0.12465315477E+04  0.50400001928E-02 0. -1.
    10030    2    1    2    0    0  0.00000000000E+00  0.00000000000E+00  0.10616947426E+04  0.35547578381E+04  0.33925075624E+04 0.  0.
        1    1    3    3  502    0  0.45595940093E+03 -0.95595142203E+03  0.19191812343E+04  0.21920307267E+04  0.50400001928E-02 0.  1.
       -1    1    3    3    0  502 -0.45595940093E+03  0.95595142203E+03 -0.85748649172E+03  0.13627271114E+04  0.50400001928E-02 0. -1.
</event>
<event>
 5   0  0.2641442E-07  0.3468998E+04  0.7818609E-02  0.8121177E-01
       -1   -1    0    0    0  501  0.00000000000E+00  0.00000000000E+00  0.30345012985E+04  0.30345012985E+04  0.50400001928E-02 0. -1.
        1   -1    0    0  501    0  0.00000000000E+00  0.00000000000E+00 -0.99142683135E+03  0.99142683136E+03  0.50400001928E-02 0.  1.
    10030    2    1    2    0    0  0.00000000000E+00  0.00000000000E+00  0.20430744672E+04  0.40259281299E+04  0.34689975539E+04 0.  0.
        1    1    3    3  502    0  0.14464860912E+03 -0.43507966227E+03 -0.91982561301E+03  0.10277629547E+04  0.50400001928E-02 0.  1.
       -1    1    3    3    0  502 -0.14464860912E+03  0.43507966227E+03  0.29629000802E+04  0.29981651752E+04  0.50400001928E-02 0. -1.
</event>
<event>
 5   0  0.7838333E-07  0.3396595E+04  0.7818609E-02  0.8138743E-01
        2   -1    0    0  501    0  0.00000000000E+00  0.00000000000E+00  0.14045368871E+04  0.14045368871E+04  0.25500000920E-02 0. -1.
       -2   -1    0    0    0  501  0.00000000000E+00  0.00000000000E+00 -0.20534981559E+04  0.20534981559E+04  0.25500000920E-02 0.  1.
    10030    2    1    2    0    0  0.00000000000E+00  0.00000000000E+00 -0.64896126878E+03  0.34580350431E+04  0.33965947110E+04 0.  0.
        1    1    3    3  502    0 -0.11789728574E+04 -0.39525326579E+02 -0.15683312940E+04  0.19624480369E+04  0.50400001928E-02 0.  1.
       -1    1    3    3    0  502  0.11789728574E+04  0.39525326579E+02  0.91937002518E+03  0.14955870062E+04  0.50400001928E-02 0. -1.
</event>
<event>
 5   0  0.2622205E-07  0.3396305E+04  0.7818609E-02  0.8138814E-01
       -1   -1    0    0    0  501  0.00000000000E+00  0.00000000000E+00  0.14741384527E+04  0.14741384527E+04  0.50400001928E-02 0. -1.
        1   -1    0    0  501    0  0.00000000000E+00  0.00000000000E+00 -0.19562086573E+04  0.19562086573E+04  0.50400001928E-02 0.  1.
    10030    2    1    2    0    0  0.00000000000E+00  0.00000000000E+00 -0.48207020463E+03  0.34303471100E+04  0.33963052885E+04 0.  0.
        3    1    3    3  502    0 -0.16956066875E+03  0.67069608253E+03 -0.18074304218E+04  0.19353006990E+04  0.10100000352E+00 0.  1.
       -3    1    3    3    0  502  0.16956066875E+03 -0.67069608253E+03  0.13253602172E+04  0.14950464110E+04  0.10100000352E+00 0. -1.
</event>
<event>
 5   0  0.2641442E-07  0.3246885E+04  0.7818609E-02  0.8176543E-01
       -1   -1    0    0    0  501  0.00000000000E+00  0.00000000000E+00  0.15242081099E+04  0.15242081099E+04  0.50400001928E-02 0.  1.
        1   -1    0    0  501    0  0.00000000000E+00  0.00000000000E+00 -0.17291378406E+04  0.17291378407E+04  0.50400001928E-02 0. -1.
    10030    2    1    2    0    0  0.00000000000E+00  0.00000000000E+00 -0.20492973075E+03  0.32533459506E+04  0.32468852273E+04 0.  0.
        1    1    3    3  502    0 -0.99563290070E+03  0.73662097302E+03 -0.11541583604E+04  0.16929196235E+04  0.50400001928E-02 0. -1.
       -1    1    3    3    0  502  0.99563290070E+03 -0.73662097302E+03  0.94922862960E+03  0.15604263270E+04  0.50400001928E-02 0.  1.
</event>
<event>
 5   0  0.8489228E-07  0.3375284E+04  0.7818609E-02  0.8143999E-01
        2   -1    0    0  501    0  0.00000000000E+00  0.00000000000E+00  0.20548542148E+04  0.20548542148E+04  0.25500000920E-02 0. -1.
       -2   -1    0    0    0  501  0.00000000000E+00  0.00000000000E+00 -0.13860523031E+04  0.13860523031E+04  0.25500000920E-02 0.  1.
    10030    2    1    2    0    0  0.00000000000E+00  0.00000000000E+00  0.66880191171E+03  0.34409065179E+04  0.33752839389E+04 0.  0.
        3    1    3    3  502    0  0.29110146589E+03  0.31434857008E+03  0.19984915622E+04  0.20438991221E+04  0.10100000352E+00 0. -1.
       -3    1    3    3    0  502 -0.29110146589E+03 -0.31434857008E+03 -0.13296896505E+04  0.13970073958E+04  0.10100000352E+00 0.  1.
</event>
<event>
 5   0  0.7822003E-07  0.3428332E+04  0.7818609E-02  0.8130988E-01
       -2   -1    0    0    0  501  0.00000000000E+00  0.00000000000E+00  0.12737536219E+04  0.12737536219E+04  0.25500000920E-02 0.  1.
        2   -1    0    0  501    0  0.00000000000E+00  0.00000000000E+00 -0.23068547332E+04  0.23068547332E+04  0.25500000920E-02 0. -1.
    10030    2    1    2    0    0  0.00000000000E+00  0.00000000000E+00 -0.10331011113E+04  0.35806083551E+04  0.34283317060E+04 0.  0.
        5    1    3    3  502    0  0.92013387135E+02  0.11215501827E+04  0.83394226166E+03  0.14006509421E+04  0.46999998093E+01 0.  1.
       -5    1    3    3    0  502 -0.92013387135E+02 -0.11215501827E+04 -0.18670433730E+04  0.21799574130E+04  0.46999998093E+01 0. -1.
</event>
<event>
 5   0  0.7899402E-07  0.3371481E+04  0.7818609E-02  0.8144941E-01
        2   -1    0    0  501    0  0.00000000000E+00  0.00000000000E+00  0.19183990758E+04  0.19183990758E+04  0.25500000920E-02 0.  1.
       -2   -1    0    0    0  501  0.00000000000E+00  0.00000000000E+00 -0.14812983090E+04  0.14812983090E+04  0.25500000920E-02 0. -1.
    10030    2    1    2    0    0  0.00000000000E+00  0.00000000000E+00  0.43710076672E+03  0.33996973848E+04  0.33714811623E+04 0.  0.
        2    1    3    3  502    0  0.10602309764E+04 -0.11824053003E+04  0.78856822812E+03  0.17731361674E+04  0.25500000920E-02 0.  1.
       -2    1    3    3    0  502 -0.10602309764E+04  0.11824053003E+04 -0.35146746140E+03  0.16265612174E+04  0.25500000920E-02 0. -1.
</event>
<event>
 5   0  0.7899402E-07  0.3399808E+04  0.7818609E-02  0.8137953E-01
       -2   -1    0    0    0  501  0.00000000000E+00  0.00000000000E+00  0.16812813430E+04  0.16812813430E+04  0.25500000920E-02 0.  1.
        2   -1    0    0  501    0  0.00000000000E+00  0.00000000000E+00 -0.17187330096E+04  0.17187330096E+04  0.25500000920E-02 0. -1.
    10030    2    1    2    0    0  0.00000000000E+00  0.00000000000E+00 -0.37451666649E+02  0.34000143526E+04  0.33998080785E+04 0.  0.
        2    1    3    3  502    0  0.31591217576E+03  0.90083374955E+03 -0.14253572234E+04  0.17155014315E+04  0.25500000920E-02 0. -1.
       -2    1    3    3    0  502 -0.31591217576E+03 -0.90083374955E+03  0.13879055567E+04  0.16845129212E+04  0.25500000920E-02 0.  1.
</event>
<event>
 5   0  0.8489228E-07  0.3397595E+04  0.7818609E-02  0.8138497E-01
        2   -1    0    0  501    0  0.00000000000E+00  0.00000000000E+00  0.14628784038E+04  0.14628784038E+04  0.25500000920E-02 0.  1.
       -2   -1    0    0    0  501  0.00000000000E+00  0.00000000000E+00 -0.19727633864E+04  0.19727633864E+04  0.25500000920E-02 0. -1.
    10030    2    1    2    0    0  0.00000000000E+00  0.00000000000E+00 -0.50988498264E+03  0.34356417901E+04  0.33975950045E+04 0.  0.
        3    1    3    3  502    0  0.14310505472E+04  0.70686462353E+03 -0.84313454313E+03  0.18051147145E+04  0.10100000352E+00 0. -1.
       -3    1    3    3    0  502 -0.14310505472E+04 -0.70686462353E+03  0.33324956049E+03  0.16305270756E+04  0.10100000352E+00 0.  1.
</event>
<event>
 5   0  0.2599367E-07  0.3414163E+04  0.7818609E-02  0.8134439E-01
        1   -1    0    0  501    0  0.00000000000E+00  0.00000000000E+00  0.18657637236E+04  0.18657637236E+04  0.50400001928E-02 0. -1.
       -1   -1    0    0    0  501  0.00000000000E+00  0.00000000000E+00 -0.15618947991E+04  0.15618947992E+04  0.50400001928E-02 0.  1.
    10030    2    1    2    0    0  0.00000000000E+00  0.00000000000E+00  0.30386892441E+03  0.34276585227E+04  0.34141626536E+04 0.  0.
        2    1    3    3  502    0 -0.11231240964E+04  0.56615886571E+02 -0.11374762890E+04  0.15995203664E+04  0.25500000920E-02 0.  1.
       -2    1    3    3    0  502  0.11231240964E+04 -0.56615886571E+02  0.14413452134E+04  0.18281381563E+04  0.25500000920E-02 0. -1.
</event>
<event>
 5   0  0.7838333E-07  0.3392582E+04  0.7818609E-02  0.8139729E-01
       -2   -1    0    0    0  501  0.00000000000E+00  0.00000000000E+00  0.16975338320E+04  0.16975338320E+04  0.25500000920E-02 0.  1.
        2   -1    0    0  501    0  0.00000000000E+00  0.00000000000E+00 -0.16950488534E+04  0.16950488534E+04  0.25500000920E-02 0. -1.
    10030    2    1    2    0    0  0.00000000000E+00  0.00000000000E+00  0.24849786175E+01  0.33925826854E+04  0.33925817753E+04 0.  0.
        1    1    3    3  502    0 -0.19908013817E+03 -0.78684952396E+03 -0.14882671250E+04  0.16952003156E+04  0.50400001928E-02 0. -1.
       -1    1    3    3    0  502  0.19908013817E+03  0.78684952396E+03  0.14907521036E+04  0.16973823698E+04  0.50400001928E-02 0.  1.
</event>
<event>
 5   0  0.2622205E-07  0.3352557E+04  0.7818609E-02  0.8149650E-01
       -1   -1    0    0    0  501  0.00000000000E+00  0.00000000000E+00  0.21273318803E+04  0.21273318803E+04  0.50400001928E-02 0.  1.
        1   -1    0    0  501    0  0.00000000000E+00  0.00000000000E+00 -0.13208605925E+04  0.13208605925E+04  0.50400001928E-02 0. -1.
    10030    2    1    2    0    0  0.00000000000E+00  0.00000000000E+00  0.80647128784E+03  0.34481924728E+04  0.33525565456E+04 0.  0.
        3    1    3    3  502    0 -0.60006696697E+03  0.11374853459E+04  0.15090595060E+04  0.19827288972E+04  0.10100000352E+00 0.  1.
       -3    1    3    3    0  502  0.60006696697E+03 -0.11374853459E+04 -0.70258821816E+03  0.14654635756E+04  0.10100000352E+00 0. -1.
</event>
<event>
 5   0  0.2622205E-07  0.3442539E+04  0.7818609E-02  0.8127544E-01
        1   -1    0    0  501    0  0.00000000000E+00  0.00000000000E+00  0.24327771647E+04  0.24327771647E+04  0.50400001928E-02 0. -1.
       -1   -1    0    0    0  501  0.00000000000E+00  0.00000000000E+00 -0.12178546462E+04  0.12178546462E+04  0.50400001928E-02 0.  1.
    10030    2    1    2    0    0  0.00000000000E+00  0.00000000000E+00  0.12149225185E+04  0.36506318109E+04  0.34425391636E+04 0.  0.
        3    1    3    3  502    0 -0.67819108612E+01  0.15096630356E+04  0.14842662877E+04  0.21171147580E+04  0.10100000352E+00 0. -1.
       -3    1    3    3    0  502  0.67819108612E+01 -0.15096630356E+04 -0.26934376920E+03  0.15335170529E+04  0.10100000352E+00 0.  1.
</event>
<event>
 5   0  0.2592200E-07  0.3408806E+04  0.7818609E-02  0.8135748E-01
       -1   -1    0    0    0  501  0.00000000000E+00  0.00000000000E+00  0.15410842028E+04  0.15410842028E+04  0.50400001928E-02 0. -1.
        1   -1    0    0  501    0  0.00000000000E+00  0.00000000000E+00 -0.18850301426E+04  0.18850301426E+04  0.50400001928E-02 0.  1.
    10030    2    1    2    0    0  0.00000000000E+00  0.00000000000E+00 -0.34394593985E+03  0.34261143454E+04  0.34088063451E+04 0.  0.
        4    1    3    3  502    0  0.79910523112E+03  0.59427955124E+03 -0.15621993387E+04  0.18526213165E+04  0.12699999809E+01 0.  1.
       -4    1    3    3    0  502 -0.79910523112E+03 -0.59427955124E+03  0.12182533989E+04  0.15734930290E+04  0.12699999809E+01 0. -1.
</event>
<event>
 5   0  0.7610412E-07  0.3382355E+04  0.7818609E-02  0.8142251E-01
       -2   -1    0    0    0  501  0.00000000000E+00  0.00000000000E+00  0.15562419335E+04  0.15562419335E+04  0.25500000920E-02 0. -1.
        2   -1    0    0  501    0  0.00000000000E+00  0.00000000000E+00 -0.18378131049E+04  0.18378131049E+04  0.25500000920E-02 0.  1.
    10030    2    1    2    0    0  0.00000000000E+00  0.00000000000E+00 -0.28157117136E+03  0.33940550384E+04  0.33823552858E+04 0.  0.
        4    1    3    3  502    0  0.16741061850E+04  0.12862043391E+03  0.62165024919E+02  0.16801907147E+04  0.12699999809E+01 0. -1.
       -4    1    3    3    0  502 -0.16741061850E+04 -0.12862043391E+03 -0.34373619628E+03  0.17138643237E+04  0.12699999809E+01 0.  1.
</event>
<event>
 5   0  0.2622205E-07  0.3327945E+04  0.7818609E-02  0.8155821E-01
       -1   -1    0    0    0  501  0.00000000000E+00  0.00000000000E+00  0.16744128878E+04  0.16744128878E+04  0.50400001928E-02 0. -1.
        1   -1    0    0  501    0  0.00000000000E+00  0.00000000000E+00 -0.16535973948E+04  0.16535973948E+04  0.50400001928E-02 0.  1.
    10030    2    1    2    0    0  0.00000000000E+00  0.00000000000E+00  0.20815492999E+02  0.33280102826E+04  0.33279451853E+04 0.  0.
        3    1    3    3  502    0  0.70600423179E+03  0.13451263520E+04 -0.66857379660E+03  0.16597583589E+04  0.10100000352E+00 0.  1.
       -3    1    3    3    0  502 -0.70600423179E+03 -0.13451263520E+04  0.68938928960E+03  0.16682519237E+04  0.10100000352E+00 0. -1.
</event>
<event>
 5   0  0.7822003E-07  0.3398033E+04  0.7818609E-02  0.8138389E-01
        2   -1    0    0  501    0  0.00000000000E+00  0.00000000000E+00  0.25879227033E+04  0.25879227033E+04  0.25500000920E-02 0. -1.
       -2   -1    0    0    0  501  0.00000000000E+00  0.00000000000E+00 -0.11154338163E+04  0.11154338163E+04  0.25500000920E-02 0.  1.
    10030    2    1    2    0    0  0.00000000000E+00  0.00000000000E+00  0.14724888871E+04  0.37033565196E+04  0.33980326645E+04 0.  0.
        5    1    3    3  502    0  0.47570361544E+02  0.13436152805E+04 -0.39587610145E+03  0.14015366349E+04  0.46999998093E+01 0.  1.
       -5    1    3    3    0  502 -0.47570361544E+02 -0.13436152805E+04  0.18683649885E+04  0.23018198847E+04  0.46999998093E+01 0. -1.
</event>
<event>
 5   0  0.2622205E-07  0.3393036E+04  0.7818609E-02  0.8139618E-01
        1   -1    0    0  501    0  0.00000000000E+00  0.00000000000E+00  0.19850458399E+04  0.19850458399E+04  0.50400001928E-02 0. -1.
       -1   -1    0    0    0  501  0.00000000000E+00  0.00000000000E+00 -0.14499282789E+04  0.14499282789E+04  0.50400001928E-02 0.  1.
    10030    2    1    2    0    0  0.00000000000E+00  0.00000000000E+00  0.53511756096E+03  0.34349741188E+04  0.33930364561E+04 0.  0.
        3    1    3    3  502    0  0.77946618963E+03  0.12774088361E+04  0.10767081250E+04  0.18435404178E+04  0.10100000352E+00 0. -1.
       -3    1    3    3    0  502 -0.77946618963E+03 -0.12774088361E+04 -0.54159056401E+03  0.15914337010E+04  0.10100000352E+00 0.  1.
</event>
<event>
 5   0  0.7838333E-07  0.3385669E+04  0.7818609E-02  0.8141432E-01
       -2   -1    0    0    0  501  0.00000000000E+00  0.00000000000E+00  0.12822668646E+04  0.12822668646E+04  0.25500000920E-02 0. -1.
        2   -1    0    0  501    0  0.00000000000E+00  0.00000000000E+00 -0.22348619606E+04  0.22348619606E+04  0.25500000920E-02 0.  1.
    10030    2    1    2    0    0  0.00000000000E+00  0.00000000000E+00 -0.95259509601E+03  0.35171288253E+04  0.33856694695E+04 0.  0.
        1    1    3    3  502    0  0.75560812625E+03  0.89992833304E+03 -0.17421661741E+04  0.21014180030E+04  0.50400001928E-02 0.  1.
       -1    1    3    3    0  502 -0.75560812625E+03 -0.89992833304E+03  0.78957107805E+03  0.14157108223E+04  0.50400001928E-02 0. -1.
</event>
<event>
 5   0  0.2622205E-07  0.3394809E+04  0.7818609E-02  0.8139182E-01
       -1   -1    0    0    0  501  0.00000000000E+00  0.00000000000E+00  0.14429441886E+04  0.14429441886E+04  0.50400001928E-02 0.  1.
        1   -1    0    0  501    0  0.00000000000E+00  0.00000000000E+00 -0.19967381696E+04  0.19967381696E+04  0.50400001928E-02 0. -1.
    10030    2    1    2    0    0  0.00000000000E+00  0.00000000000E+00 -0.55379398095E+03  0.34396823582E+04  0.33948088241E+04 0.  0.
        3    1    3    3  502    0  0.10938854959E+04  0.37059238386E+03  0.98343314218E+03  0.15169261513E+04  0.10100000352E+00 0.  1.
       -3    1    3    3    0  502 -0.10938854959E+04 -0.37059238386E+03 -0.15372271231E+04  0.19227562069E+04  0.10100000352E+00 0. -1.
</event>
<event>
 5   0  0.7822003E-07  0.3395202E+04  0.7818609E-02  0.8139085E-01
        2   -1    0    0  501    0  0.00000000000E+00  0.00000000000E+00  0.17897726850E+04  0.17897726850E+04  0.25500000920E-02 0.  1.
       -2   -1    0    0    0  501  0.00000000000E+00  0.00000000000E+00 -0.16101757642E+04  0.16101757642E+04  0.25500000920E-02 0. -1.
    10030    2    1    2    0    0  0.00000000000E+00  0.00000000000E+00  0.17959692082E+03  0.33999484492E+04  0.33952016735E+04 0.  0.
        5    1    3    3  502    0 -0.15810443103E+04  0.56831759382E+03  0.33332668195E+03  0.17128382193E+04  0.46999998093E+01 0.  1.
       -5    1    3    3    0  502  0.15810443103E+04 -0.56831759382E+03 -0.15372976113E+03  0.16871102299E+04  0.46999998093E+01 0. -1.
</event>
<event>
 5   0  0.8489228E-07  0.3405138E+04  0.7818609E-02  0.8136646E-01
       -2   -1    0    0    0  501  0.00000000000E+00  0.00000000000E+00  0.27492480993E+04  0.27492480993E+04  0.25500000920E-02 0.  1.
        2   -1    0    0  501    0  0.00000000000E+00  0.00000000000E+00 -0.10543758498E+04  0.10543758498E+04  0.25500000920E-02 0. -1.
    10030    2    1    2    0    0  0.00000000000E+00  0.00000000000E+00  0.16948722495E+04  0.38036239492E+04  0.34051377659E+04 0.  0.
        3    1    3    3  502    0 -0.10628973419E+04 -0.46740803665E+03  0.22383541597E+04  0.25215967930E+04  0.10100000352E+00 0.  1.
       -3    1    3    3    0  502  0.10628973419E+04  0.46740803665E+03 -0.54348191017E+03  0.12820271562E+04  0.10100000352E+00 0. -1.
</event>
<event>
 5   0  0.8489228E-07  0.3395446E+04  0.7818609E-02  0.8139025E-01
        2   -1    0    0  501    0  0.00000000000E+00  0.00000000000E+00  0.17882571103E+04  0.17882571103E+04  0.25500000920E-02 0.  1.
       -2   -1    0    0    0  501  0.00000000000E+00  0.00000000000E+00 -0.16117724119E+04  0.16117724119E+04  0.25500000920E-02 0. -1.
    10030    2    1    2    0    0  0.00000000000E+00  0.00000000000E+00  0.17648469836E+03  0.34000295223E+04  0.33954460537E+04 0.  0.
        3    1    3    3  502    0 -0.11420606308E+04  0.24267700905E+02  0.13458724547E+04  0.17652943325E+04  0.10100000352E+00 0.  1.
       -3    1    3    3    0  502  0.11420606308E+04 -0.24267700905E+02 -0.11693877564E+04  0.16347351898E+04  0.10100000352E+00 0. -1.
</event>
<event>
 5   0  0.2641442E-07  0.3351845E+04  0.7818609E-02  0.8149827E-01
        1   -1    0    0  501    0  0.00000000000E+00  0.00000000000E+00  0.20335428185E+04  0.20335428185E+04  0.50400001928E-02 0.  1.
       -1   -1    0    0    0  501  0.00000000000E+00  0.00000000000E+00 -0.13811933572E+04  0.13811933572E+04  0.50400001928E-02 0. -1.
    10030    2    1    2    0    0  0.00000000000E+00  0.00000000000E+00  0.65234946134E+03  0.34147361757E+04  0.33518447652E+04 0.  0.
        1    1    3    3  502    0  0.75679038583E+03  0.41384968977E+03  0.17900465840E+04  0.19870254218E+04  0.50400001928E-02 0.  1.
       -1    1    3    3    0  502 -0.75679038583E+03 -0.41384968977E+03 -0.11376971227E+04  0.14277107539E+04  0.50400001928E-02 0. -1.
</event>
<event>
 5   0  0.2592200E-07  0.3231174E+04  0.7818609E-02  0.8180632E-01
       -1   -1    0    0    0  501  0.00000000000E+00  0.00000000000E+00  0.15813399545E+04  0.15813399545E+04  0.50400001928E-02 0.  1.
        1   -1    0    0  501    0  0.00000000000E+00  0.00000000000E+00 -0.16505756048E+04  0.16505756049E+04  0.50400001928E-02 0. -1.
    10030    2    1    2    0    0  0.00000000000E+00  0.00000000000E+00 -0.69235650357E+02  0.32319155593E+04  0.32311738745E+04 0.  0.
        4    1    3    3  502    0  0.80884805590E+03 -0.55062879208E+02  0.13631479136E+04  0.15860141694E+04  0.12699999809E+01 0.  1.
       -4    1    3    3    0  502 -0.80884805590E+03  0.55062879208E+02 -0.14323835640E+04  0.16459013900E+04  0.12699999809E+01 0. -1.
</event>
<event>
 5   0  0.2641442E-07  0.3357616E+04  0.7818609E-02  0.8148388E-01
        1   -1    0    0  501    0  0.00000000000E+00  0.00000000000E+00  0.15036720576E+04  0.15036720576E+04  0.50400001928E-02 0.  1.
       -1   -1    0    0    0  501  0.00000000000E+00  0.00000000000E+00 -0.18743419089E+04  0.18743419089E+04  0.50400001928E-02 0. -1.
    10030    2    1    2    0    0  0.00000000000E+00  0.00000000000E+00 -0.37066985130E+03  0.33780139664E+04  0.33576155555E+04 0.  0.
        1    1    3    3  502    0 -0.26489483279E+03 -0.13431691388E+03  0.14770306255E+04  0.15065954249E+04  0.50400001928E-02 0.  1.
       -1    1    3    3    0  502  0.26489483279E+03  0.13431691388E+03 -0.18477004767E+04  0.18714185415E+04  0.50400001928E-02 0. -1.
</event>
<event>
 5   0  0.2553250E-07  0.3396618E+04  0.7818609E-02  0.8138737E-01
       -3   -1    0    0    0  501  0.00000000000E+00  0.00000000000E+00  0.15149806832E+04  0.15149806866E+04  0.10100000352E+00 0. -1.
        3   -1    0    0  501    0  0.00000000000E+00  0.00000000000E+00 -0.19038215649E+04  0.19038215675E+04  0.10100000352E+00 0.  1.
    10030    2    1    2    0    0  0.00000000000E+00  0.00000000000E+00 -0.38884088160E+03  0.34188022541E+04  0.33966176738E+04 0.  0.
        2    1    3    3  502    0 -0.13255151951E+04 -0.34442521586E+01  0.87423459559E+03  0.15878565815E+04  0.25500000920E-02 0.  1.
       -2    1    3    3    0  502  0.13255151951E+04  0.34442521586E+01 -0.12630754772E+04  0.18309456727E+04  0.25500000920E-02 0. -1.
</event>
<event>
 5   0  0.2622205E-07  0.3188000E+04  0.7818609E-02  0.8191993E-01
       -1   -1    0    0    0  501  0.00000000000E+00  0.00000000000E+00  0.14895774786E+04  0.14895774786E+04  0.50400001928E-02 0. -1.
        1   -1    0    0  501    0  0.00000000000E+00  0.00000000000E+00 -0.17057432924E+04  0.17057432924E+04  0.50400001928E-02 0.  1.
    10030    2    1    2    0    0  0.00000000000E+00  0.00000000000E+00 -0.21616581375E+03  0.31953207710E+04  0.31880004973E+04 0.  0.
        3    1    3    3  502    0  0.10164290791E+04  0.37830924838E+03  0.10627564300E+04  0.15184522383E+04  0.10100000352E+00 0. -1.
       -3    1    3    3    0  502 -0.10164290791E+04 -0.37830924838E+03 -0.12789222438E+04  0.16768685327E+04  0.10100000352E+00 0.  1.
</event>
<event>
 5   0  0.2592200E-07  0.3409401E+04  0.7818609E-02  0.8135603E-01
        1   -1    0    0  501    0  0.00000000000E+00  0.00000000000E+00  0.21589309221E+04  0.21589309221E+04  0.50400001928E-02 0. -1.
       -1   -1    0    0    0  501  0.00000000000E+00  0.00000000000E+00 -0.13460383810E+04  0.13460383810E+04  0.50400001928E-02 0.  1.
    10030    2    1    2    0    0  0.00000000000E+00  0.00000000000E+00  0.81289254108E+03  0.35049693031E+04  0.34094010518E+04 0.  0.
        4    1    3    3  502    0 -0.12872912076E+04 -0.93324789885E+03  0.10384402587E+04  0.18990603144E+04  0.12699999809E+01 0. -1.
       -4    1    3    3    0  502  0.12872912076E+04  0.93324789885E+03 -0.22554771764E+03  0.16059089886E+04  0.12699999809E+01 0.  1.
</event>
<event>
 5   0  0.2599367E-07  0.3418871E+04  0.7818609E-02  0.8133290E-01
        1   -1    0    0  501    0  0.00000000000E+00  0.00000000000E+00  0.16838904480E+04  0.16838904480E+04  0.50400001928E-02 0.  1.
       -1   -1    0    0    0  501  0.00000000000E+00  0.00000000000E+00 -0.17353677695E+04  0.17353677695E+04  0.50400001928E-02 0. -1.
    10030    2    1    2    0    0  0.00000000000E+00  0.00000000000E+00 -0.51477321492E+02  0.34192582175E+04  0.34188706971E+04 0.  0.
        2    1    3    3  502    0 -0.17507143219E+03 -0.11670443166E+04  0.12111419007E+04  0.16910077312E+04  0.25500000920E-02 0.  1.
       -2    1    3    3    0  502  0.17507143219E+03  0.11670443166E+04 -0.12626192222E+04  0.17282504863E+04  0.25500000920E-02 0. -1.
</event>
<event>
 5   0  0.7899402E-07  0.3416919E+04  0.7818609E-02  0.8133766E-01
       -2   -1    0    0    0  501  0.00000000000E+00  0.00000000000E+00  0.11499407923E+04  0.11499407923E+04  0.25500000920E-02 0. -1.
        2   -1    0    0  501    0  0.00000000000E+00  0.00000000000E+00 -0.25382464556E+04  0.25382464556E+04  0.25500000920E-02 0.  1.
    10030    2    1    2    0    0  0.00000000000E+00  0.00000000000E+00 -0.13883056633E+04  0.36881872479E+04  0.34169185769E+04 0.  0.
        2    1    3    3  502    0 -0.19543803258E+03  0.15581705934E+04 -0.14204318419E+04  0.21174792183E+04  0.25500000920E-02 0.  1.
       -2    1    3    3    0  502  0.19543803258E+03 -0.15581705934E+04  0.32126178554E+02  0.15707080296E+04  0.25500000920E-02 0. -1.
</event>
<event>
 5   0  0.2553250E-07  0.3432029E+04  0.7818609E-02  0.8130090E-01
        1   -1    0    0  501    0  0.00000000000E+00  0.00000000000E+00  0.21221279588E+04  0.21221279588E+04  0.50400001928E-02 0. -1.
       -1   -1    0    0    0  501  0.00000000000E+00  0.00000000000E+00 -0.13876195580E+04  0.13876195580E+04  0.50400001928E-02 0.  1.
    10030    2    1    2    0    0  0.00000000000E+00  0.00000000000E+00  0.73450840086E+03  0.35097475168E+04  0.34320292890E+04 0.  0.
        5    1    3    3  502    0  0.12856655824E+04  0.90515238333E+03 -0.33565883224E+03  0.16077704340E+04  0.46999998093E+01 0.  1.
       -5    1    3    3    0  502 -0.12856655824E+04 -0.90515238333E+03  0.10701672331E+04  0.19019770828E+04  0.46999998093E+01 0. -1.
</event>
<event>
 5   0  0.2622205E-07  0.3371977E+04  0.7818609E-02  0.8144819E-01
       -1   -1    0    0    0  501  0.00000000000E+00  0.00000000000E+00  0.12547413914E+04  0.12547413914E+04  0.50400001928E-02 0. -1.
        1   -1    0    0  501    0  0.00000000000E+00  0.00000000000E+00 -0.22654527368E+04  0.22654527368E+04  0.50400001928E-02 0.  1.
    10030    2    1    2    0    0  0.00000000000E+00  0.00000000000E+00 -0.10107113454E+04  0.35201941282E+04  0.33719770576E+04 0.  0.
        3    1    3    3  502    0  0.11769471498E+04  0.11670333723E+04 -0.18293422792E+03  0.16675240410E+04  0.10100000352E+00 0. -1.
       -3    1    3    3    0  502 -0.11769471498E+04 -0.11670333723E+04 -0.82777711750E+03  0.18526700872E+04  0.10100000352E+00 0.  1.
</event>
<event>
 5   0  0.7899402E-07  0.3402745E+04  0.7818609E-02  0.8137233E-01
        2   -1    0    0  501    0  0.00000000000E+00  0.00000000000E+00  0.17501119741E+04  0.17501119741E+04  0.25500000920E-02 0. -1.
       -2   -1    0    0    0  501  0.00000000000E+00  0.00000000000E+00 -0.16539904731E+04  0.16539904731E+04  0.25500000920E-02 0.  1.
    10030    2    1    2    0    0  0.00000000000E+00  0.00000000000E+00  0.96121500982E+02  0.34041024472E+04  0.34027450871E+04 0.  0.
        2    1    3    3  502    0  0.14581277543E+04  0.21545450250E+03 -0.80204957120E+03  0.16780466934E+04  0.25500000920E-02 0.  1.
       -2    1    3    3    0  502 -0.14581277543E+04 -0.21545450250E+03  0.89817107218E+03  0.17260557538E+04  0.25500000920E-02 0. -1.
</event>
<event>
 5   0  0.2599367E-07  0.3427127E+04  0.7818609E-02  0.8131280E-01
       -1   -1    0    0    0  501  0.00000000000E+00  0.00000000000E+00  0.13597157539E+04  0.13597157539E+04  0.50400001928E-02 0. -1.
        1   -1    0    0  501    0  0.00000000000E+00  0.00000000000E+00 -0.21594955533E+04  0.21594955533E+04  0.50400001928E-02 0.  1.
    10030    2    1    2    0    0  0.00000000000E+00  0.00000000000E+00 -0.79977979933E+03  0.35192113072E+04  0.34271271493E+04 0.  0.
        2    1    3    3  502    0 -0.12421512432E+04 -0.43582324053E+03 -0.15263698639E+04  0.20156107187E+04  0.25500000920E-02 0.  1.
       -2    1    3    3    0  502  0.12421512432E+04  0.43582324053E+03  0.72659006453E+03  0.15036005885E+04  0.25500000920E-02 0. -1.
</event>
<event>
 5   0  0.2553250E-07  0.3342600E+04  0.7818609E-02  0.8152140E-01
        1   -1    0    0  501    0  0.00000000000E+00  0.00000000000E+00  0.94219210245E+03  0.94219210246E+03  0.50400001928E-02 0.  1.
       -1   -1    0    0    0  501  0.00000000000E+00  0.00000000000E+00 -0.29646220520E+04  0.29646220520E+04  0.50400001928E-02 0. -1.
    10030    2    1    2    0    0  0.00000000000E+00  0.00000000000E+00 -0.20224299496E+04  0.39068141545E+04  0.33425998768E+04 0.  0.
        5    1    3    3  502    0 -0.15277625506E+04 -0.19949371962E+03 -0.25432182569E+03  0.15615882415E+04  0.46999998093E+01 0.  1.
       -5    1    3    3    0  502  0.15277625506E+04  0.19949371962E+03 -0.17681081239E+04  0.23452259129E+04  0.46999998093E+01 0. -1.
</event>
<event>
 5   0  0.7838333E-07  0.3077413E+04  0.7818609E-02  0.8221964E-01
       -2   -1    0    0    0  501  0.00000000000E+00  0.00000000000E+00  0.11071371458E+04  0.11071371458E+04  0.25500000920E-02 0.  1.
        2   -1    0    0  501    0  0.00000000000E+00  0.00000000000E+00 -0.21385050551E+04  0.21385050551E+04  0.25500000920E-02 0. -1.
    10030    2    1    2    0    0  0.00000000000E+00  0.00000000000E+00 -0.10313679092E+04  0.32456422009E+04  0.30774134483E+04 0.  0.
        1    1    3    3  502    0  0.22614183065E+03  0.47656604823E+03 -0.20401640208E+04  0.21072552190E+04  0.50400001928E-02 0. -1.
       -1    1    3    3    0  502 -0.22614183065E+03 -0.47656604823E+03  0.10087961116E+04  0.11383869819E+04  0.50400001928E-02 0.  1.
</event>
<event>
 5   0  0.7899402E-07  0.3417102E+04  0.7818609E-02  0.8133722E-01
        2   -1    0    0  501    0  0.00000000000E+00  0.00000000000E+00  0.14625311838E+04  0.14625311838E+04  0.25500000920E-02 0. -1.
       -2   -1    0    0    0  501  0.00000000000E+00  0.00000000000E+00 -0.19959553937E+04  0.19959553937E+04  0.25500000920E-02 0.  1.
    10030    2    1    2    0    0  0.00000000000E+00  0.00000000000E+00 -0.53342420990E+03  0.34584865776E+04  0.34171022840E+04 0.  0.
        2    1    3    3  502    0 -0.14890079807E+04  0.19992735699E+03 -0.10902192544E+04  0.18562579932E+04  0.25500000920E-02 0.  1.
       -2    1    3    3    0  502  0.14890079807E+04 -0.19992735699E+03  0.55679504454E+03  0.16022285843E+04  0.25500000920E-02 0. -1.
</event>
<event>
 5   0  0.7610412E-07  0.3433615E+04  0.7818609E-02  0.8129705E-01
        2   -1    0    0  501    0  0.00000000000E+00  0.00000000000E+00  0.21873521550E+04  0.21873521550E+04  0.25500000920E-02 0.  1.
       -2   -1    0    0    0  501  0.00000000000E+00  0.00000000000E+00 -0.13474869785E+04  0.13474869785E+04  0.25500000920E-02 0. -1.
    10030    2    1    2    0    0  0.00000000000E+00  0.00000000000E+00  0.83986517649E+03  0.35348391335E+04  0.34336153228E+04 0.  0.
        4    1    3    3  502    0  0.16299227166E+03  0.17006415512E+04  0.24559210183E+03  0.17259968887E+04  0.12699999809E+01 0.  1.
       -4    1    3    3    0  502 -0.16299227166E+03 -0.17006415512E+04  0.59427307467E+03  0.18088422448E+04  0.12699999809E+01 0. -1.
</event>
<event>
 5   0  0.7822003E-07  0.3318364E+04  0.7818609E-02  0.8158238E-01
       -2   -1    0    0    0  501  0.00000000000E+00  0.00000000000E+00  0.11496160755E+04  0.11496160755E+04  0.25500000920E-02 0.  1.
        2   -1    0    0  501    0  0.00000000000E+00  0.00000000000E+00 -0.23946124622E+04  0.23946124622E+04  0.25500000920E-02 0. -1.
    10030    2    1    2    0    0  0.00000000000E+00  0.00000000000E+00 -0.12449963867E+04  0.35442285377E+04  0.33183640434E+04 0.  0.
        5    1    3    3  502    0 -0.53808260785E+03 -0.12304359594E+04  0.41817063792E+03  0.14065540571E+04  0.46999998093E+01 0.  1.
       -5    1    3    3    0  502  0.53808260785E+03  0.12304359594E+04 -0.16631670247E+04  0.21376744806E+04  0.46999998093E+01 0. -1.
</event>
<event>
 5   0  0.7610412E-07  0.3389913E+04  0.7818609E-02  0.8140387E-01
        2   -1    0    0  501    0  0.00000000000E+00  0.00000000000E+00  0.12604080959E+04  0.12604080959E+04  0.25500000920E-02 0. -1.
       -2   -1    0    0    0  501  0.00000000000E+00  0.00000000000E+00 -0.22793226401E+04  0.22793226401E+04  0.25500000920E-02 0.  1.
    10030    2    1    2    0    0  0.00000000000E+00  0.00000000000E+00 -0.10189145442E+04  0.35397307361E+04  0.33899125115E+04 0.  0.
        4    1    3    3  502    0 -0.13535438343E+04  0.10196878820E+04 -0.47593213143E+03  0.17602151274E+04  0.12699999809E+01 0. -1.
       -4    1    3    3    0  502  0.13535438343E+04 -0.10196878820E+04 -0.54298241275E+03  0.17795156087E+04  0.12699999809E+01 0.  1.
</event>
<event>
 5   0  0.7838333E-07  0.3342797E+04  0.7818609E-02  0.8152090E-01
        2   -1    0    0  501    0  0.00000000000E+00  0.00000000000E+00  0.20288172570E+04  0.20288172570E+04  0.25500000920E-02 0. -1.
       -2   -1    0    0    0  501  0.00000000000E+00  0.00000000000E+00 -0.13769461791E+04  0.13769461791E+04  0.25500000920E-02 0.  1.
    10030    2    1    2    0    0  0.00000000000E+00  0.00000000000E+00  0.65187107793E+03  0.34057634361E+04  0.33427965359E+04 0.  0.
        1    1    3    3  502    0  0.64808219240E+03 -0.12820645335E+04 -0.54448261135E+03  0.15362816507E+04  0.50400001928E-02 0.  1.
       -1    1    3    3    0  502 -0.64808219240E+03  0.12820645335E+04  0.11963536893E+04  0.18694817854E+04  0.50400001928E-02 0. -1.
</event>
<event>
 5   0  0.2599367E-07  0.3406856E+04  0.7818609E-02  0.8136226E-01
       -1   -1    0    0    0  501  0.00000000000E+00  0.00000000000E+00  0.16515362603E+04  0.16515362603E+04  0.50400001928E-02 0.  1.
        1   -1    0    0  501    0  0.00000000000E+00  0.00000000000E+00 -0.17569500976E+04  0.17569500976E+04  0.50400001928E-02 0. -1.
    10030    2    1    2    0    0  0.00000000000E+00  0.00000000000E+00 -0.10541383731E+03  0.34084863580E+04  0.34068559076E+04 0.  0.
        2    1    3    3  502    0  0.88609616233E+03 -0.61352672522E+03  0.12670473305E+04  0.16634273021E+04  0.25500000920E-02 0.  1.
       -2    1    3    3    0  502 -0.88609616233E+03  0.61352672522E+03 -0.13724611678E+04  0.17450590559E+04  0.25500000920E-02 0. -1.
</event>
<event>
 5   0  0.7899402E-07  0.3319270E+04  0.7818609E-02  0.8158009E-01
       -2   -1    0    0    0  501  0.00000000000E+00  0.00000000000E+00  0.14516347282E+04  0.14516347282E+04  0.25500000920E-02 0. -1.
        2   -1    0    0  501    0  0.00000000000E+00  0.00000000000E+00 -0.18974393151E+04  0.18974393151E+04  0.25500000920E-02 0.  1.
    10030    2    1    2    0    0  0.00000000000E+00  0.00000000000E+00 -0.44580458691E+03  0.33490740433E+04  0.33192702839E+04 0.  0.
        2    1    3    3  502    0 -0.77086333096E+03 -0.14679393297E+04 -0.14935987774E+03  0.16647475856E+04  0.25500000920E-02 0.  1.
       -2    1    3    3    0  502  0.77086333096E+03  0.14679393297E+04 -0.29644470918E+03  0.16843264577E+04  0.25500000920E-02 0. -1.
</event>
<event>
 5   0  0.8489228E-07  0.3175434E+04  0.7818609E-02  0.8195335E-01
       -2   -1    0    0    0  501  0.00000000000E+00  0.00000000000E+00  0.88984248776E+03  0.88984248776E+03  0.25500000920E-02 0. -1.
        2   -1    0    0  501    0  0.00000000000E+00  0.00000000000E+00 -0.28329116850E+04  0.28329116850E+04  0.25500000920E-02 0.  1.
    10030    2    1    2    0    0  0.00000000000E+00  0.00000000000E+00 -0.19430691973E+04  0.37227541728E+04  0.31754339429E+04 0.  0.
        3    1    3    3  502    0  0.73632858217E+03 -0.80820924037E+03 -0.23212590512E+04  0.25658576636E+04  0.10100000352E+00 0.  1.
       -3    1    3    3    0  502 -0.73632858217E+03  0.80820924037E+03  0.37818985390E+03  0.11568965092E+04  0.10100000352E+00 0. -1.
</event>
<event>
 5   0  0.7822003E-07  0.3336423E+04  0.7818609E-02  0.8153689E-01
        2   -1    0    0  501    0  0.00000000000E+00  0.00000000000E+00  0.23472796823E+04  0.23472796823E+04  0.25500000920E-02 0. -1.
       -2   -1    0    0    0  501  0.00000000000E+00  0.00000000000E+00 -0.11855979816E+04  0.11855979816E+04  0.25500000920E-02 0.  1.
    10030    2    1    2    0    0  0.00000000000E+00  0.00000000000E+00  0.11616817008E+04  0.35328776639E+04  0.33364232666E+04 0.  0.
        5    1    3    3  502    0  0.50677411543E+00  0.15162230790E+04  0.13174872123E+04  0.20086630695E+04  0.46999998093E+01 0. -1.
       -5    1    3    3    0  502 -0.50677411543E+00 -0.15162230790E+04 -0.15580551155E+03  0.15242145944E+04  0.46999998093E+01 0.  1.
</event>
<event>
 5   0  0.7838333E-07  0.3397984E+04  0.7818609E-02  0.8138401E-01
       -2   -1    0    0    0  501  0.00000000000E+00  0.00000000000E+00  0.11377159040E+04  0.11377159040E+04  0.25500000920E-02 0. -1.
        2   -1    0    0  501    0  0.00000000000E+00  0.00000000000E+00 -0.25371657900E+04  0.25371657900E+04  0.25500000920E-02 0.  1.
    10030    2    1    2    0    0  0.00000000000E+00  0.00000000000E+00 -0.13994498860E+04  0.36748816939E+04  0.33979840319E+04 0.  0.
        1    1    3    3  502    0  0.60326967766E+03  0.24799928474E+03  0.99691555124E+03  0.11913347832E+04  0.50400001928E-02 0. -1.
       -1    1    3    3    0  502 -0.60326967766E+03 -0.24799928474E+03 -0.23963654372E+04  0.24835469108E+04  0.50400001928E-02 0.  1.
</event>
<event>
 5   0  0.2641442E-07  0.3408031E+04  0.7818609E-02  0.8135938E-01
       -1   -1    0    0    0  501  0.00000000000E+00  0.00000000000E+00  0.22900357914E+04  0.22900357914E+04  0.50400001928E-02 0. -1.
        1   -1    0    0  501    0  0.00000000000E+00  0.00000000000E+00 -0.12679579295E+04  0.12679579295E+04  0.50400001928E-02 0.  1.
    10030    2    1    2    0    0  0.00000000000E+00  0.00000000000E+00  0.10220778619E+04  0.35579937208E+04  0.34080311269E+04 0.  0.
        1    1    3    3  502    0  0.99035627754E+03  0.40060407046E+03 -0.87492326844E+03  0.13808620146E+04  0.50400001928E-02 0.  1.
       -1    1    3    3    0  502 -0.99035627754E+03 -0.40060407046E+03  0.18970011303E+04  0.21771317062E+04  0.50400001928E-02 0. -1.
</event>
<event>
 5   0  0.7899402E-07  0.3403433E+04  0.7818609E-02  0.8137064E-01
        2   -1    0    0  501    0  0.00000000000E+00  0.00000000000E+00  0.21028491560E+04  0.21028491560E+04  0.25500000920E-02 0.  1.
       -2   -1    0    0    0  501  0.00000000000E+00  0.00000000000E+00 -0.13771022918E+04  0.13771022918E+04  0.25500000920E-02 0. -1.
    10030    2    1    2    0    0  0.00000000000E+00  0.00000000000E+00  0.72574686422E+03  0.34799514478E+04  0.34034326155E+04 0.  0.
        2    1    3    3  502    0 -0.99647571195E+03 -0.62184454325E+02  0.17719006566E+04  0.20338295621E+04  0.25500000920E-02 0.  1.
       -2    1    3    3    0  502  0.99647571195E+03  0.62184454325E+02 -0.10461537924E+04  0.14461218857E+04  0.25500000920E-02 0. -1.
</event>
<event>
 5   0  0.2553250E-07  0.3388441E+04  0.7818609E-02  0.8140749E-01
        1   -1    0    0  501    0  0.00000000000E+00  0.00000000000E+00  0.22780735175E+04  0.22780735176E+04  0.50400001928E-02 0.  1.
       -1   -1    0    0    0  501  0.00000000000E+00  0.00000000000E+00 -0.12600043930E+04  0.12600043930E+04  0.50400001928E-02 0. -1.
    10030    2    1    2    0    0  0.00000000000E+00  0.00000000000E+00  0.10180691245E+04  0.35380779106E+04  0.33884407268E+04 0.  0.
        5    1    3    3  502    0 -0.15452019804E+04 -0.69309863171E+03  0.45867961585E+03  0.17545495015E+04  0.46999998093E+01 0. -1.
       -5    1    3    3    0  502  0.15452019804E+04  0.69309863171E+03  0.55938950868E+03  0.17835284090E+04  0.46999998093E+01 0.  1.
</event>
<event>
 5   0  0.7822003E-07  0.3408155E+04  0.7818609E-02  0.8135908E-01
       -2   -1    0    0    0  501  0.00000000000E+00  0.00000000000E+00  0.16074160535E+04  0.16074160535E+04  0.25500000920E-02 0.  1.
        2   -1    0    0  501    0  0.00000000000E+00  0.00000000000E+00 -0.18065514495E+04  0.18065514495E+04  0.25500000920E-02 0. -1.
    10030    2    1    2    0    0  0.00000000000E+00  0.00000000000E+00 -0.19913539593E+03  0.34139675030E+04  0.34081548095E+04 0.  0.
        5    1    3    3  502    0 -0.90145584130E+03 -0.11048702498E+04  0.83502774879E+03  0.16524691628E+04  0.46999998093E+01 0. -1.
       -5    1    3    3    0  502  0.90145584130E+03  0.11048702498E+04 -0.10341631447E+04  0.17614983402E+04  0.46999998093E+01 0.  1.
</event>
<event>
 5   0  0.2592200E-07  0.3390288E+04  0.7818609E-02  0.8140294E-01
       -1   -1    0    0    0  501  0.00000000000E+00  0.00000000000E+00  0.16900931373E+04  0.16900931373E+04  0.50400001928E-02 0.  1.
        1   -1    0    0  501    0  0.00000000000E+00  0.00000000000E+00 -0.17002095518E+04  0.17002095518E+04  0.50400001928E-02 0. -1.
    10030    2    1    2    0    0  0.00000000000E+00  0.00000000000E+00 -0.10116414564E+02  0.33903026891E+04  0.33902875958E+04 0.  0.
        4    1    3    3  502    0 -0.14632421604E+04  0.34127351599E+03  0.77978007814E+03  0.16928094447E+04  0.12699999809E+01 0.  1.
       -4    1    3    3    0  502  0.14632421604E+04 -0.34127351599E+03 -0.78989649270E+03  0.16974932444E+04  0.12699999809E+01 0. -1.
</event>
<event>
 5   0  0.7610412E-07  0.3383379E+04  0.7818609E-02  0.8141998E-01
        2   -1    0    0  501    0  0.00000000000E+00  0.00000000000E+00  0.23821190114E+04  0.23821190114E+04  0.25500000920E-02 0. -1.
       -2   -1    0    0    0  501  0.00000000000E+00  0.00000000000E+00 -0.12013730900E+04  0.12013730900E+04  0.25500000920E-02 0.  1.
    10030    2    1    2    0    0  0.00000000000E+00  0.00000000000E+00  0.11807459214E+04  0.35834921014E+04  0.33833791851E+04 0.  0.
        4    1    3    3  502    0 -0.19066522883E+03  0.90477836750E+03  0.20907886797E+04  0.22861268643E+04  0.12699999809E+01 0. -1.
       -4    1    3    3    0  502  0.19066522883E+03 -0.90477836750E+03 -0.91004275824E+03  0.12973652371E+04  0.12699999809E+01 0.  1.
</event>
<event>
 5   0  0.2641442E-07  0.3403825E+04  0.7818609E-02  0.8136968E-01
        1   -1    0    0  501    0  0.00000000000E+00  0.00000000000E+00  0.10607788149E+04  0.10607788149E+04  0.50400001928E-02 0.  1.
       -1   -1    0    0    0  501  0.00000000000E+00  0.00000000000E+00 -0.27305474017E+04  0.27305474017E+04  0.50400001928E-02 0. -1.
    10030    2    1    2    0    0  0.00000000000E+00  0.00000000000E+00 -0.16697685868E+04  0.37913262166E+04  0.34038253990E+04 0.  0.
        1    1    3    3  502    0 -0.29520618443E+03 -0.64617996358E+03 -0.25574958770E+04  0.26543323827E+04  0.50400001928E-02 0. -1.
       -1    1    3    3    0  502  0.29520618443E+03  0.64617996358E+03  0.88772729016E+03  0.11369938339E+04  0.50400001928E-02 0.  1.
</event>
<event>
 5   0  0.7838333E-07  0.3392063E+04  0.7818609E-02  0.8139857E-01
       -2   -1    0    0    0  501  0.00000000000E+00  0.00000000000E+00  0.22177382692E+04  0.22177382692E+04  0.25500000920E-02 0.  1.
        2   -1    0    0  501    0  0.00000000000E+00  0.00000000000E+00 -0.12970524389E+04  0.12970524389E+04  0.25500000920E-02 0. -1.
    10030    2    1    2    0    0  0.00000000000E+00  0.00000000000E+00  0.92068583031E+03  0.35147907081E+04  0.33920629893E+04 0.  0.
        1    1    3    3  502    0 -0.12584854464E+03 -0.18149583023E+03 -0.12820882261E+04  0.13009722565E+04  0.50400001928E-02 0. -1.
       -1    1    3    3    0  502  0.12584854464E+03  0.18149583023E+03  0.22027740565E+04  0.22138184515E+04  0.50400001928E-02 0.  1.
</event>
<event>
 5   0  0.2592200E-07  0.3414764E+04  0.7818609E-02  0.8134292E-01
        1   -1    0    0  501    0  0.00000000000E+00  0.00000000000E+00  0.17983637566E+04  0.17983637566E+04  0.50400001928E-02 0.  1.
       -1   -1    0    0    0  501  0.00000000000E+00  0.00000000000E+00 -0.16210027902E+04  0.16210027903E+04  0.50400001928E-02 0. -1.
    10030    2    1    2    0    0  0.00000000000E+00  0.00000000000E+00  0.17736096635E+03  0.34193665468E+04  0.34147636330E+04 0.  0.
        4    1    3    3  502    0  0.54323082975E+03 -0.15520601804E+04  0.54882194582E+03  0.17335505990E+04  0.12699999809E+01 0.  1.
       -4    1    3    3    0  502 -0.54323082975E+03  0.15520601804E+04 -0.37146097947E+03  0.16858159479E+04  0.12699999809E+01 0. -1.
</event>
<event>
 5   0  0.8489228E-07  0.3396136E+04  0.7818609E-02  0.8138855E-01
        2   -1    0    0  501    0  0.00000000000E+00  0.00000000000E+00  0.20631119134E+04  0.20631119134E+04  0.25500000920E-02 0. -1.
       -2   -1    0    0    0  501  0.00000000000E+00  0.00000000000E+00 -0.13976144018E+04  0.13976144018E+04  0.25500000920E-02 0.  1.
    10030    2    1    2    0    0  0.00000000000E+00  0.00000000000E+00  0.66549751163E+03  0.34607263152E+04  0.33961359941E+04 0.  0.
        3    1    3    3  502    0 -0.15269670204E+03  0.22361433173E+03 -0.13754730023E+04  0.14018721919E+04  0.10100000352E+00 0.  1.
       -3    1    3    3    0  502  0.15269670204E+03 -0.22361433173E+03  0.20409705139E+04  0.20588541233E+04  0.10100000352E+00 0. -1.
</event>
<event>
 5   0  0.2622205E-07  0.3307324E+04  0.7818609E-02  0.8161034E-01
        1   -1    0    0  501    0  0.00000000000E+00  0.00000000000E+00  0.27749995358E+04  0.27749995359E+04  0.50400001928E-02 0. -1.
       -1   -1    0    0    0  501  0.00000000000E+00  0.00000000000E+00 -0.98544110607E+03  0.98544110609E+03  0.50400001928E-02 0.  1.
    10030    2    1    2    0    0  0.00000000000E+00  0.00000000000E+00  0.17895584298E+04  0.37604406419E+04  0.33073243639E+04 0.  0.
        3    1    3    3  502    0 -0.41287186127E+03  0.50625436141E+03 -0.83250967351E+03  0.10582197404E+04  0.10100000352E+00 0.  1.
       -3    1    3    3    0  502  0.41287186127E+03 -0.50625436141E+03  0.26220681033E+04  0.27022209015E+04  0.10100000352E+00 0. -1.
</event>
<event>
 5   0  0.7838333E-07  0.3394092E+04  0.7818609E-02  0.8139358E-01
        2   -1    0    0  501    0  0.00000000000E+00  0.00000000000E+00  0.18827690815E+04  0.18827690815E+04  0.25500000920E-02 0.  1.
       -2   -1    0    0    0  501  0.00000000000E+00  0.00000000000E+00 -0.15296432384E+04  0.15296432384E+04  0.25500000920E-02 0. -1.
    10030    2    1    2    0    0  0.00000000000E+00  0.00000000000E+00  0.35312584314E+03  0.34124123199E+04  0.33940919227E+04 0.  0.
        1    1    3    3  502    0 -0.10189601384E+04 -0.78995966269E+03  0.12859904874E+04  0.18210127858E+04  0.50400001928E-02 0.  1.
       -1    1    3    3    0  502  0.10189601384E+04  0.78995966269E+03 -0.93286464430E+03  0.15913995341E+04  0.50400001928E-02 0. -1.
</event>
<event>
 5   0  0.2592200E-07  0.3415885E+04  0.7818609E-02  0.8134019E-01
        1   -1    0    0  501    0  0.00000000000E+00  0.00000000000E+00  0.22269367357E+04  0.22269367357E+04  0.50400001928E-02 0.  1.
       -1   -1    0    0    0  501  0.00000000000E+00  0.00000000000E+00 -0.13099012661E+04  0.13099012661E+04  0.50400001928E-02 0. -1.
    10030    2    1    2    0    0  0.00000000000E+00  0.00000000000E+00  0.91703546953E+03  0.35368380018E+04  0.34158848046E+04 0.  0.
        4    1    3    3  502    0  0.11803319435E+04  0.14623454984E+03  0.17276849495E+04  0.20974901520E+04  0.12699999809E+01 0.  1.
       -4    1    3    3    0  502 -0.11803319435E+04 -0.14623454984E+03 -0.81064947992E+03  0.14393478498E+04  0.12699999809E+01 0. -1.
</event>
<event>
 5   0  0.8489228E-07  0.3398172E+04  0.7818609E-02  0.8138355E-01
        2   -1    0    0  501    0  0.00000000000E+00  0.00000000000E+00  0.21356700107E+04  0.21356700107E+04  0.25500000920E-02 0.  1.
       -2   -1    0    0    0  501  0.00000000000E+00  0.00000000000E+00 -0.13517506303E+04  0.13517506303E+04  0.25500000920E-02 0. -1.
    10030    2    1    2    0    0  0.00000000000E+00  0.00000000000E+00  0.78391938040E+03  0.34874206411E+04  0.33981720282E+04 0.  0.
        3    1    3    3  502    0 -0.12742371232E+04  0.19553444305E+02 -0.76131174904E+03  0.14844723550E+04  0.10100000352E+00 0. -1.
       -3    1    3    3    0  502  0.12742371232E+04 -0.19553444305E+02  0.15452311294E+04  0.20029482861E+04  0.10100000352E+00 0.  1.
</event>
<event>
 5   0  0.2592200E-07  0.3442565E+04  0.7818609E-02  0.8127538E-01
       -1   -1    0    0    0  501  0.00000000000E+00  0.00000000000E+00  0.14829225436E+04  0.14829225436E+04  0.50400001928E-02 0. -1.
        1   -1    0    0  501    0  0.00000000000E+00  0.00000000000E+00 -0.19979562009E+04  0.19979562009E+04  0.50400001928E-02 0.  1.
    10030    2    1    2    0    0  0.00000000000E+00  0.00000000000E+00 -0.51503365726E+03  0.34808787445E+04  0.34425654919E+04 0.  0.
        4    1    3    3  502    0  0.35289085911E+03 -0.65220674247E+03 -0.18281580209E+04  0.19728327237E+04  0.12699999809E+01 0.  1.
       -4    1    3    3    0  502 -0.35289085911E+03  0.65220674247E+03  0.13131243637E+04  0.15080460208E+04  0.12699999809E+01 0. -1.
</event>
<event>
 5   0  0.2553250E-07  0.3325032E+04  0.7818609E-02  0.8156555E-01
       -3   -1    0    0    0  501  0.00000000000E+00  0.00000000000E+00  0.21574945865E+04  0.21574945888E+04  0.10100000352E+00 0. -1.
        3   -1    0    0  501    0  0.00000000000E+00  0.00000000000E+00 -0.12810971245E+04  0.12810971285E+04  0.10100000352E+00 0.  1.
    10030    2    1    2    0    0  0.00000000000E+00  0.00000000000E+00  0.87639746201E+03  0.34385917173E+04  0.33250324039E+04 0.  0.
        2    1    3    3  502    0  0.14584928095E+04  0.74783602021E+03  0.72609494573E+03  0.17926722676E+04  0.25500000920E-02 0. -1.
       -2    1    3    3    0  502 -0.14584928095E+04 -0.74783602021E+03  0.15030251628E+03  0.16459194497E+04  0.25500000920E-02 0.  1.
</event>
<event>
 5   0  0.2592200E-07  0.3352621E+04  0.7818609E-02  0.8149634E-01
        1   -1    0    0  501    0  0.00000000000E+00  0.00000000000E+00  0.20000818223E+04  0.20000818223E+04  0.50400001928E-02 0. -1.
       -1   -1    0    0    0  501  0.00000000000E+00  0.00000000000E+00 -0.14049508497E+04  0.14049508497E+04  0.50400001928E-02 0.  1.
    10030    2    1    2    0    0  0.00000000000E+00  0.00000000000E+00  0.59513097264E+03  0.34050326720E+04  0.33526208588E+04 0.  0.
        4    1    3    3  502    0 -0.84273248993E+03  0.12047854021E+04  0.11153293376E+04  0.18454449488E+04  0.12699999809E+01 0. -1.
       -4    1    3    3    0  502  0.84273248993E+03 -0.12047854021E+04 -0.52019836494E+03  0.15595877233E+04  0.12699999809E+01 0.  1.
</event>
<event>
 5   0  0.2553250E-07  0.3454451E+04  0.7818609E-02  0.8124670E-01
        1   -1    0    0  501    0  0.00000000000E+00  0.00000000000E+00  0.89314105002E+03  0.89314105004E+03  0.50400001928E-02 0.  1.
       -1   -1    0    0    0  501  0.00000000000E+00  0.00000000000E+00 -0.33402430800E+04  0.33402430800E+04  0.50400001928E-02 0. -1.
    10030    2    1    2    0    0  0.00000000000E+00  0.00000000000E+00 -0.24471020300E+04  0.42333841300E+04  0.34544511644E+04 0.  0.
        5    1    3    3  502    0  0.13652453770E+04 -0.64578603540E+03 -0.19651446023E+03  0.15230149592E+04  0.46999998093E+01 0.  1.
       -5    1    3    3    0  502 -0.13652453770E+04  0.64578603540E+03 -0.22505875697E+04  0.27103691708E+04  0.46999998093E+01 0. -1.
</event>
<event>
 5   0  0.7899402E-07  0.3406878E+04  0.7818609E-02  0.8136220E-01
       -2   -1    0    0    0  501  0.00000000000E+00  0.00000000000E+00  0.16899550444E+04  0.16899550444E+04  0.25500000920E-02 0. -1.
        2   -1    0    0  501    0  0.00000000000E+00  0.00000000000E+00 -0.17170302514E+04  0.17170302514E+04  0.25500000920E-02 0.  1.
    10030    2    1    2    0    0  0.00000000000E+00  0.00000000000E+00 -0.27075207005E+02  0.34069852958E+04  0.34068777112E+04 0.  0.
        2    1    3    3  502    0  0.16213914238E+04 -0.15659940697E+03 -0.51182074755E+03  0.17074524887E+04  0.25500000920E-02 0. -1.
       -2    1    3    3    0  502 -0.16213914238E+04  0.15659940697E+03  0.48474554054E+03  0.16995328072E+04  0.25500000920E-02 0.  1.
</event>
<event>
 5   0  0.7610412E-07  0.3378154E+04  0.7818609E-02  0.8143289E-01
        2   -1    0    0  501    0  0.00000000000E+00  0.00000000000E+00  0.27942307192E+04  0.27942307192E+04  0.25500000920E-02 0. -1.
       -2   -1    0    0    0  501  0.00000000000E+00  0.00000000000E+00 -0.10210255694E+04  0.10210255694E+04  0.25500000920E-02 0.  1.
    10030    2    1    2    0    0  0.00000000000E+00  0.00000000000E+00  0.17732051498E+04  0.38152562886E+04  0.33781539403E+04 0.  0.
        4    1    3    3  502    0 -0.67750220403E+03  0.89068885140E+03 -0.54226372236E+03  0.12435382680E+04  0.12699999809E+01 0.  1.
       -4    1    3    3    0  502  0.67750220403E+03 -0.89068885140E+03  0.23154688722E+04  0.25717180206E+04  0.12699999809E+01 0. -1.
</event>
<event>
 5   0  0.7822003E-07  0.3344874E+04  0.7818609E-02  0.8151570E-01
       -2   -1    0    0    0  501  0.00000000000E+00  0.00000000000E+00  0.15384981211E+04  0.15384981211E+04  0.25500000920E-02 0. -1.
        2   -1    0    0  501    0  0.00000000000E+00  0.00000000000E+00 -0.18180358552E+04  0.18180358552E+04  0.25500000920E-02 0.  1.
    10030    2    1    2    0    0  0.00000000000E+00  0.00000000000E+00 -0.27953773412E+03  0.33565339763E+04  0.33448735386E+04 0.  0.
        5    1    3    3  502    0 -0.59913292652E+03 -0.11994276322E+04 -0.11429717804E+04  0.17618153959E+04  0.46999998093E+01 0.  1.
       -5    1    3    3    0  502  0.59913292652E+03  0.11994276322E+04  0.86343404626E+03  0.15947185804E+04  0.46999998093E+01 0. -1.
</event>
<event>
 5   0  0.7822003E-07  0.3390020E+04  0.7818609E-02  0.8140360E-01
        2   -1    0    0  501    0  0.00000000000E+00  0.00000000000E+00  0.97522132953E+03  0.97522132954E+03  0.25500000920E-02 0. -1.
       -2   -1    0    0    0  501  0.00000000000E+00  0.00000000000E+00 -0.29460575796E+04  0.29460575796E+04  0.25500000920E-02 0.  1.
    10030    2    1    2    0    0  0.00000000000E+00  0.00000000000E+00 -0.19708362501E+04  0.39212789091E+04  0.33900195809E+04 0.  0.
        5    1    3    3  502    0  0.16586791417E+04 -0.30556138042E+03 -0.79030757066E+03  0.18625768168E+04  0.46999998093E+01 0. -1.
       -5    1    3    3    0  502 -0.16586791417E+04  0.30556138042E+03 -0.11805286794E+04  0.20587020924E+04  0.46999998093E+01 0.  1.
</event>
<event>
 5   0  0.2592200E-07  0.3323107E+04  0.7818609E-02  0.8157040E-01
        1   -1    0    0  501    0  0.00000000000E+00  0.00000000000E+00  0.16606118859E+04  0.16606118859E+04  0.50400001928E-02 0. -1.
       -1   -1    0    0    0  501  0.00000000000E+00  0.00000000000E+00 -0.16624960059E+04  0.16624960059E+04  0.50400001928E-02 0.  1.
    10030    2    1    2    0    0  0.00000000000E+00  0.00000000000E+00 -0.18841200331E+01  0.33231078918E+04  0.33231073577E+04 0.  0.
        4    1    3    3  502    0 -0.11703061107E+03  0.52339778170E+03 -0.15735572093E+04  0.16624455798E+04  0.12699999809E+01 0.  1.
       -4    1    3    3    0  502  0.11703061107E+03 -0.52339778170E+03  0.15716730893E+04  0.16606623120E+04  0.12699999809E+01 0. -1.
</event>
<event>
 5   0  0.2641442E-07  0.3583733E+04  0.7818609E-02  0.8094228E-01
       -1   -1    0    0    0  501  0.00000000000E+00  0.00000000000E+00  0.15317951057E+04  0.15317951057E+04  0.50400001928E-02 0. -1.
        1   -1    0    0  501    0  0.00000000000E+00  0.00000000000E+00 -0.20960935571E+04  0.20960935571E+04  0.50400001928E-02 0.  1.
    10030    2    1    2    0    0  0.00000000000E+00  0.00000000000E+00 -0.56429845138E+03  0.36278886628E+04  0.35837331663E+04 0.  0.
        1    1    3    3  502    0 -0.24742598460E+03  0.89191611759E+03 -0.18353453520E+04  0.20555355847E+04  0.50400001928E-02 0.  1.
       -1    1    3    3    0  502  0.24742598460E+03 -0.89191611759E+03  0.12710469006E+04  0.15723530781E+04  0.50400001928E-02 0. -1.
</event>
<event>
 5   0  0.8489228E-07  0.3405104E+04  0.7818609E-02  0.8136655E-01
        2   -1    0    0  501    0  0.00000000000E+00  0.00000000000E+00  0.17456561218E+04  0.17456561218E+04  0.25500000920E-02 0.  1.
       -2   -1    0    0    0  501  0.00000000000E+00  0.00000000000E+00 -0.16605117994E+04  0.16605117994E+04  0.25500000920E-02 0. -1.
    10030    2    1    2    0    0  0.00000000000E+00  0.00000000000E+00  0.85144322461E+02  0.34061679212E+04  0.34051035743E+04 0.  0.
        3    1    3    3  502    0 -0.14558710081E+04 -0.61791713421E+03  0.67308703918E+03  0.17188450045E+04  0.10100000352E+00 0.  1.
       -3    1    3    3    0  502  0.14558710081E+04  0.61791713421E+03 -0.58794271672E+03  0.16873229167E+04  0.10100000352E+00 0. -1.
</event>
<event>
 5   0  0.7838333E-07  0.3385250E+04  0.7818609E-02  0.8141536E-01
       -2   -1    0    0    0  501  0.00000000000E+00  0.00000000000E+00  0.10068202075E+04  0.10068202075E+04  0.25500000920E-02 0.  1.
        2   -1    0    0  501    0  0.00000000000E+00  0.00000000000E+00 -0.28455720950E+04  0.28455720950E+04  0.25500000920E-02 0. -1.
    10030    2    1    2    0    0  0.00000000000E+00  0.00000000000E+00 -0.18387518876E+04  0.38523923025E+04  0.33852500570E+04 0.  0.
        1    1    3    3  502    0  0.26089551579E+02 -0.91557106435E+03 -0.25391801484E+04  0.26993308179E+04  0.50400001928E-02 0. -1.
       -1    1    3    3    0  502 -0.26089551579E+02  0.91557106435E+03  0.70042826084E+03  0.11530614846E+04  0.50400001928E-02 0.  1.
</event>
<event>
 5   0  0.7822003E-07  0.3489022E+04  0.7818609E-02  0.8116397E-01
       -2   -1    0    0    0  501  0.00000000000E+00  0.00000000000E+00  0.12527813450E+04  0.12527813450E+04  0.25500000920E-02 0.  1.
        2   -1    0    0  501    0  0.00000000000E+00  0.00000000000E+00 -0.24292494760E+04  0.24292494761E+04  0.25500000920E-02 0. -1.
    10030    2    1    2    0    0  0.00000000000E+00  0.00000000000E+00 -0.11764681311E+04  0.36820308210E+04  0.34890218835E+04 0.  0.
        5    1    3    3  502    0  0.14783986962E+04 -0.92519242611E+03 -0.63113515544E+03  0.18547229995E+04  0.46999998093E+01 0. -1.
       -5    1    3    3    0  502 -0.14783986962E+04  0.92519242611E+03 -0.54533297563E+03  0.18273078215E+04  0.46999998093E+01 0.  1.
</event>
<event>
 5   0  0.2622205E-07  0.3435210E+04  0.7818609E-02  0.8129318E-01
        1   -1    0    0  501    0  0.00000000000E+00  0.00000000000E+00  0.18085140671E+04  0.18085140671E+04  0.50400001928E-02 0. -1.
       -1   -1    0    0    0  501  0.00000000000E+00  0.00000000000E+00 -0.16312655468E+04  0.16312655468E+04  0.50400001928E-02 0.  1.
    10030    2    1    2    0    0  0.00000000000E+00  0.00000000000E+00  0.17724852032E+03  0.34397796139E+04  0.34352098559E+04 0.  0.
        3    1    3    3  502    0  0.41726027177E+03 -0.47038875453E+03  0.16891231264E+04  0.18023619673E+04  0.10100000352E+00 0. -1.
       -3    1    3    3    0  502 -0.41726027177E+03  0.47038875453E+03 -0.15118746061E+04  0.16374176466E+04  0.10100000352E+00 0.  1.
</event>
<event>
 5   0  0.7899402E-07  0.3439640E+04  0.7818609E-02  0.8128245E-01
       -2   -1    0    0    0  501  0.00000000000E+00  0.00000000000E+00  0.10772773223E+04  0.10772773223E+04  0.25500000920E-02 0.  1.
        2   -1    0    0  501    0  0.00000000000E+00  0.00000000000E+00 -0.27456076450E+04  0.27456076450E+04  0.25500000920E-02 0. -1.
    10030    2    1    2    0    0  0.00000000000E+00  0.00000000000E+00 -0.16683303227E+04  0.38228849673E+04  0.34396400114E+04 0.  0.
        2    1    3    3  502    0 -0.16150380036E+04  0.49153392641E+03 -0.46920706577E+03  0.17521725442E+04  0.25500000920E-02 0. -1.
       -2    1    3    3    0  502  0.16150380036E+04 -0.49153392641E+03 -0.11991232570E+04  0.20707124232E+04  0.25500000920E-02 0.  1.
</event>
<event>
 5   0  0.2641442E-07  0.3427274E+04  0.7818609E-02  0.8131245E-01
        1   -1    0    0  501    0  0.00000000000E+00  0.00000000000E+00  0.20468165937E+04  0.20468165937E+04  0.50400001928E-02 0. -1.
       -1   -1    0    0    0  501  0.00000000000E+00  0.00000000000E+00 -0.14346924497E+04  0.14346924497E+04  0.50400001928E-02 0.  1.
    10030    2    1    2    0    0  0.00000000000E+00  0.00000000000E+00  0.61212414397E+03  0.34815090434E+04  0.34272743182E+04 0.  0.
        1    1    3    3  502    0  0.11430334681E+04 -0.87853905040E+03 -0.63498617273E+03  0.15752980073E+04  0.50400001928E-02 0.  1.
       -1    1    3    3    0  502 -0.11430334681E+04  0.87853905040E+03  0.12471103167E+04  0.19062110361E+04  0.50400001928E-02 0. -1.
</event>
<event>
 5   0  0.8489228E-07  0.3402465E+04  0.7818609E-02  0.8137302E-01
       -2   -1    0    0    0  501  0.00000000000E+00  0.00000000000E+00  0.12784632532E+04  0.12784632532E+04  0.25500000920E-02 0.  1.
        2   -1    0    0  501    0  0.00000000000E+00  0.00000000000E+00 -0.22638058556E+04  0.22638058556E+04  0.25500000920E-02 0. -1.
    10030    2    1    2    0    0  0.00000000000E+00  0.00000000000E+00 -0.98534260241E+03  0.35422691088E+04  0.34024653407E+04 0.  0.
        3    1    3    3  502    0  0.76104539599E+03 -0.40561042147E+03 -0.20193787213E+04  0.21958142770E+04  0.10100000352E+00 0. -1.
       -3    1    3    3    0  502 -0.76104539599E+03  0.40561042147E+03  0.10340361189E+04  0.13464548318E+04  0.10100000352E+00 0.  1.
</event>
<event>
 5   0  0.7899402E-07  0.3444714E+04  0.7818609E-02  0.8127018E-01
       -2   -1    0    0    0  501  0.00000000000E+00  0.00000000000E+00  0.11138827331E+04  0.11138827331E+04  0.25500000920E-02 0.  1.
        2   -1    0    0  501    0  0.00000000000E+00  0.00000000000E+00 -0.26632188412E+04  0.26632188412E+04  0.25500000920E-02 0. -1.
    10030    2    1    2    0    0  0.00000000000E+00  0.00000000000E+00 -0.15493361081E+04  0.37771015743E+04  0.34447139108E+04 0.  0.
        2    1    3    3  502    0  0.71762547689E+03 -0.15020631132E+04 -0.29005630571E+03  0.16897670200E+04  0.25500000920E-02 0.  1.
       -2    1    3    3    0  502 -0.71762547689E+03  0.15020631132E+04 -0.12592798024E+04  0.20873345544E+04  0.25500000920E-02 0. -1.
</event>
<event>
 5   0  0.2641442E-07  0.3309234E+04  0.7818609E-02  0.8160550E-01
        1   -1    0    0  501    0  0.00000000000E+00  0.00000000000E+00  0.11688138504E+04  0.11688138504E+04  0.50400001928E-02 0.  1.
       -1   -1    0    0    0  501  0.00000000000E+00  0.00000000000E+00 -0.23423383000E+04  0.23423383000E+04  0.50400001928E-02 0. -1.
    10030    2    1    2    0    0  0.00000000000E+00  0.00000000000E+00 -0.11735244496E+04  0.35111521504E+04  0.33092340186E+04 0.  0.
        1    1    3    3  502    0 -0.82011482041E+03 -0.51373044711E+03 -0.20107595874E+04  0.22315154961E+04  0.50400001928E-02 0. -1.
       -1    1    3    3    0  502  0.82011482041E+03  0.51373044711E+03  0.83723513785E+03  0.12796366543E+04  0.50400001928E-02 0.  1.
</event>
<event>
 5   0  0.7822003E-07  0.3388109E+04  0.7818609E-02  0.8140831E-01
        2   -1    0    0  501    0  0.00000000000E+00  0.00000000000E+00  0.22286803970E+04  0.22286803970E+04  0.25500000920E-02 0.  1.
       -2   -1    0    0    0  501  0.00000000000E+00  0.00000000000E+00 -0.12876773860E+04  0.12876773860E+04  0.25500000920E-02 0. -1.
    10030    2    1    2    0    0  0.00000000000E+00  0.00000000000E+00  0.94100301094E+03  0.35163577830E+04  0.33881094126E+04 0.  0.
        5    1    3    3  502    0  0.13964747074E+04  0.45994238427E+03  0.13438472222E+04  0.19918925804E+04  0.46999998093E+01 0.  1.
       -5    1    3    3    0  502 -0.13964747074E+04 -0.45994238427E+03 -0.40284421127E+03  0.15244652026E+04  0.46999998093E+01 0. -1.
</event>
<event>
 5   0  0.7899402E-07  0.3394969E+04  0.7818609E-02  0.8139142E-01
        2   -1    0    0  501    0  0.00000000000E+00  0.00000000000E+00  0.16268361031E+04  0.16268361031E+04  0.25500000920E-02 0.  1.
       -2   -1    0    0    0  501  0.00000000000E+00  0.00000000000E+00 -0.17712004370E+04  0.17712004370E+04  0.25500000920E-02 0. -1.
    10030    2    1    2    0    0  0.00000000000E+00  0.00000000000E+00 -0.14436433392E+03  0.33980365401E+04  0.33949685222E+04 0.  0.
        2    1    3    3  502    0 -0.71122046852E+03 -0.13814958646E+04 -0.75623774144E+03  0.17280801198E+04  0.25500000920E-02 0. -1.
       -2    1    3    3    0  502  0.71122046852E+03  0.13814958646E+04  0.61187340752E+03  0.16699564203E+04  0.25500000920E-02 0.  1.
</event>
<event>
 5   0  0.7822003E-07  0.3401876E+04  0.7818609E-02  0.8137446E-01
       -2   -1    0    0    0  501  0.00000000000E+00  0.00000000000E+00  0.11869489857E+04  0.11869489857E+04  0.25500000920E-02 0.  1.
        2   -1    0    0  501    0  0.00000000000E+00  0.00000000000E+00 -0.24375014837E+04  0.24375014837E+04  0.25500000920E-02 0. -1.
    10030    2    1    2    0    0  0.00000000000E+00  0.00000000000E+00 -0.12505524980E+04  0.36244504694E+04  0.34018759024E+04 0.  0.
        5    1    3    3  502    0  0.37441420573E+03 -0.13703294943E+04  0.37144134040E+03  0.14683254679E+04  0.46999998093E+01 0.  1.
       -5    1    3    3    0  502 -0.37441420573E+03  0.13703294943E+04 -0.16219938384E+04  0.21561250015E+04  0.46999998093E+01 0. -1.
</event>
<event>
 5   0  0.2641442E-07  0.3398449E+04  0.7818609E-02  0.8138287E-01
        1   -1    0    0  501    0  0.00000000000E+00  0.00000000000E+00  0.20389611092E+04  0.20389611092E+04  0.50400001928E-02 0. -1.
       -1   -1    0    0    0  501  0.00000000000E+00  0.00000000000E+00 -0.14160954857E+04  0.14160954857E+04  0.50400001928E-02 0.  1.
    10030    2    1    2    0    0  0.00000000000E+00  0.00000000000E+00  0.62286562351E+03  0.34550565949E+04  0.33984488357E+04 0.  0.
        1    1    3    3  502    0 -0.37833710579E+03 -0.14312419284E+04  0.11594558549E+04  0.18804069514E+04  0.50400001928E-02 0. -1.
       -1    1    3    3    0  502  0.37833710579E+03  0.14312419284E+04 -0.53659023144E+03  0.15746496435E+04  0.50400001928E-02 0.  1.
</event>
<event>
 5   0  0.7610412E-07  0.3387645E+04  0.7818609E-02  0.8140945E-01
        2   -1    0    0  501    0  0.00000000000E+00  0.00000000000E+00  0.18751532741E+04  0.18751532741E+04  0.25500000920E-02 0.  1.
       -2   -1    0    0    0  501  0.00000000000E+00  0.00000000000E+00 -0.15300266188E+04  0.15300266188E+04  0.25500000920E-02 0. -1.
    10030    2    1    2    0    0  0.00000000000E+00  0.00000000000E+00  0.34512665527E+03  0.34051798929E+04  0.33876448596E+04 0.  0.
        4    1    3    3  502    0  0.77830109864E+03  0.14266722953E+04 -0.30728210213E+03  0.16539559672E+04  0.12699999809E+01 0. -1.
       -4    1    3    3    0  502 -0.77830109864E+03 -0.14266722953E+04  0.65240875740E+03  0.17512239257E+04  0.12699999809E+01 0.  1.
</event>
<event>
 5   0  0.8489228E-07  0.3387410E+04  0.7818609E-02  0.8141003E-01
        2   -1    0    0  501    0  0.00000000000E+00  0.00000000000E+00  0.33829655639E+04  0.33829655639E+04  0.25500000920E-02 0. -1.
       -2   -1    0    0    0  501  0.00000000000E+00  0.00000000000E+00 -0.84796510745E+03  0.84796510745E+03  0.25500000920E-02 0.  1.
    10030    2    1    2    0    0  0.00000000000E+00  0.00000000000E+00  0.25350004564E+04  0.42309306713E+04  0.33874100772E+04 0.  0.
        3    1    3    3  502    0  0.45240368323E+03 -0.15565567473E+03 -0.76181084612E+03  0.89958521394E+03  0.10100000352E+00 0.  1.
       -3    1    3    3    0  502 -0.45240368323E+03  0.15565567473E+03  0.32968113025E+04  0.33313454574E+04  0.10100000352E+00 0. -1.
</event>
<event>
 5   0  0.7822003E-07  0.3375103E+04  0.7818609E-02  0.8144044E-01
       -2   -1    0    0    0  501  0.00000000000E+00  0.00000000000E+00  0.13756898400E+04  0.13756898400E+04  0.25500000920E-02 0. -1.
        2   -1    0    0  501    0  0.00000000000E+00  0.00000000000E+00 -0.20701108774E+04  0.20701108774E+04  0.25500000920E-02 0.  1.
    10030    2    1    2    0    0  0.00000000000E+00  0.00000000000E+00 -0.69442103734E+03  0.34458007174E+04  0.33751032587E+04 0.  0.
        5    1    3    3  502    0 -0.14625234670E+04  0.28511478505E+03  0.46155916794E+03  0.15599116281E+04  0.46999998093E+01 0. -1.
       -5    1    3    3    0  502  0.14625234670E+04 -0.28511478505E+03 -0.11559802053E+04  0.18858890893E+04  0.46999998093E+01 0.  1.
</event>
<event>
 5   0  0.8489228E-07  0.3388348E+04  0.7818609E-02  0.8140772E-01
        2   -1    0    0  501    0  0.00000000000E+00  0.00000000000E+00  0.13767100976E+04  0.13767100976E+04  0.25500000920E-02 0.  1.
       -2   -1    0    0    0  501  0.00000000000E+00  0.00000000000E+00 -0.20848434954E+04  0.20848434954E+04  0.25500000920E-02 0. -1.
    10030    2    1    2    0    0  0.00000000000E+00  0.00000000000E+00 -0.70813339772E+03  0.34615535930E+04  0.33883477343E+04 0.  0.
        3    1    3    3  502    0 -0.72575680551E+03 -0.12618574643E+04 -0.12395207803E+04  0.19119150023E+04  0.10100000352E+00 0. -1.
       -3    1    3    3    0  502  0.72575680551E+03  0.12618574643E+04  0.53138738263E+03  0.15496385907E+04  0.10100000352E+00 0.  1.
</event>
<event>
 5   0  0.2622205E-07  0.3405930E+04  0.7818609E-02  0.8136452E-01
        1   -1    0    0  501    0  0.00000000000E+00  0.00000000000E+00  0.26035345550E+04  0.26035345550E+04  0.50400001928E-02 0.  1.
       -1   -1    0    0    0  501  0.00000000000E+00  0.00000000000E+00 -0.11139050979E+04  0.11139050979E+04  0.50400001928E-02 0. -1.
    10030    2    1    2    0    0  0.00000000000E+00  0.00000000000E+00  0.14896294571E+04  0.37174396529E+04  0.34059303653E+04 0.  0.
        3    1    3    3  502    0  0.13253612647E+04 -0.89208547467E+03  0.10123085428E+03  0.16008268714E+04  0.10100000352E+00 0. -1.
       -3    1    3    3    0  502 -0.13253612647E+04  0.89208547467E+03  0.13883986028E+04  0.21166127815E+04  0.10100000352E+00 0.  1.
</event>
<event>
 5   0  0.2622205E-07  0.3427403E+04  0.7818609E-02  0.8131213E-01
        1   -1    0    0  501    0  0.00000000000E+00  0.00000000000E+00  0.15429488423E+04  0.15429488423E+04  0.50400001928E-02 0. -1.
       -1   -1    0    0    0  501  0.00000000000E+00  0.00000000000E+00 -0.19033512257E+04  0.19033512257E+04  0.50400001928E-02 0.  1.
    10030    2    1    2    0    0  0.00000000000E+00  0.00000000000E+00 -0.36040238338E+03  0.34463000681E+04  0.34274034313E+04 0.  0.
        3    1    3    3  502    0 -0.24880411196E+03  0.16741931074E+04  0.89508004634E+02  0.16949447602E+04  0.10100000352E+00 0. -1.
       -3    1    3    3    0  502  0.24880411196E+03 -0.16741931074E+04 -0.44991038801E+03  0.17513553079E+04  0.10100000352E+00 0.  1.
</event>
<event>
 5   0  0.7610412E-07  0.3415012E+04  0.7818609E-02  0.8134232E-01
       -2   -1    0    0    0  501  0.00000000000E+00  0.00000000000E+00  0.15194827653E+04  0.15194827653E+04  0.25500000920E-02 0.  1.
        2   -1    0    0  501    0  0.00000000000E+00  0.00000000000E+00 -0.19187960187E+04  0.19187960187E+04  0.25500000920E-02 0. -1.
    10030    2    1    2    0    0  0.00000000000E+00  0.00000000000E+00 -0.39931325340E+03  0.34382787840E+04  0.34150124337E+04 0.  0.
        4    1    3    3  502    0  0.38696403778E+03 -0.11572996766E+04 -0.14021522178E+04  0.18587942766E+04  0.12699999809E+01 0. -1.
       -4    1    3    3    0  502 -0.38696403778E+03  0.11572996766E+04  0.10028389644E+04  0.15794845074E+04  0.12699999809E+01 0.  1.
</event>
<event>
 5   0  0.2553250E-07  0.3616763E+04  0.7818609E-02  0.8086663E-01
       -1   -1    0    0    0  501  0.00000000000E+00  0.00000000000E+00  0.18583072880E+04  0.18583072880E+04  0.50400001928E-02 0. -1.
        1   -1    0    0  501    0  0.00000000000E+00  0.00000000000E+00 -0.17597974948E+04  0.17597974948E+04  0.50400001928E-02 0.  1.
    10030    2    1    2    0    0  0.00000000000E+00  0.00000000000E+00  0.98509793202E+02  0.36181047827E+04  0.36167634757E+04 0.  0.
        5    1    3    3  502    0  0.90769628282E+03  0.51637633701E+03 -0.14276616043E+04  0.17688405269E+04  0.46999998093E+01 0.  1.
       -5    1    3    3    0  502 -0.90769628282E+03 -0.51637633701E+03  0.15261713975E+04  0.18492642558E+04  0.46999998093E+01 0. -1.
</event>
<event>
 5   0  0.2622205E-07  0.3380818E+04  0.7818609E-02  0.8142630E-01
        1   -1    0    0  501    0  0.00000000000E+00  0.00000000000E+00  0.19208216974E+04  0.19208216974E+04  0.50400001928E-02 0.  1.
       -1   -1    0    0    0  501  0.00000000000E+00  0.00000000000E+00 -0.14876356947E+04  0.14876356947E+04  0.50400001928E-02 0. -1.
    10030    2    1    2    0    0  0.00000000000E+00  0.00000000000E+00  0.43318600273E+03  0.34084573921E+04  0.33808181970E+04 0.  0.
        3    1    3    3  502    0 -0.94172791849E+03 -0.76950335729E+03 -0.96709926597E+03  0.15537914563E+04  0.10100000352E+00 0. -1.
       -3    1    3    3    0  502  0.94172791849E+03  0.76950335729E+03  0.14002852687E+04  0.18546659358E+04  0.10100000352E+00 0.  1.
</event>
<event>
 5   0  0.2553250E-07  0.3376330E+04  0.7818609E-02  0.8143740E-01
       -3   -1    0    0    0  501  0.00000000000E+00  0.00000000000E+00  0.12272788236E+04  0.12272788277E+04  0.10100000352E+00 0.  1.
        3   -1    0    0  501    0  0.00000000000E+00  0.00000000000E+00 -0.23221305662E+04  0.23221305684E+04  0.10100000352E+00 0. -1.
    10030    2    1    2    0    0  0.00000000000E+00  0.00000000000E+00 -0.10948517426E+04  0.35494093961E+04  0.33763303634E+04 0.  0.
        4    1    3    3  502    0 -0.72868014497E+03 -0.14987007427E+04 -0.26373806697E+03  0.16871982844E+04  0.12699999809E+01 0.  1.
       -4    1    3    3    0  502  0.72868014497E+03  0.14987007427E+04 -0.83111367567E+03  0.18622111117E+04  0.12699999809E+01 0. -1.
</event>
<event>
 5   0  0.2622205E-07  0.3384183E+04  0.7818609E-02  0.8141799E-01
       -1   -1    0    0    0  501  0.00000000000E+00  0.00000000000E+00  0.15959904820E+04  0.15959904820E+04  0.50400001928E-02 0.  1.
        1   -1    0    0  501    0  0.00000000000E+00  0.00000000000E+00 -0.17939794249E+04  0.17939794249E+04  0.50400001928E-02 0. -1.
    10030    2    1    2    0    0  0.00000000000E+00  0.00000000000E+00 -0.19798894289E+03  0.33899699068E+04  0.33841832616E+04 0.  0.
        3    1    3    3  502    0 -0.65856834796E+03  0.37805987957E+03  0.14157196090E+04  0.16065190827E+04  0.10100000352E+00 0.  1.
       -3    1    3    3    0  502  0.65856834796E+03 -0.37805987957E+03 -0.16137085519E+04  0.17834508242E+04  0.10100000352E+00 0. -1.
</event>
<event>
 5   0  0.7838333E-07  0.3375079E+04  0.7818609E-02  0.8144050E-01
        2   -1    0    0  501    0  0.00000000000E+00  0.00000000000E+00  0.26549193689E+04  0.26549193689E+04  0.25500000920E-02 0.  1.
       -2   -1    0    0    0  501  0.00000000000E+00  0.00000000000E+00 -0.10726461089E+04  0.10726461089E+04  0.25500000920E-02 0. -1.
    10030    2    1    2    0    0  0.00000000000E+00  0.00000000000E+00  0.15822732600E+04  0.37275654779E+04  0.33750786246E+04 0.  0.
        1    1    3    3  502    0  0.11086856971E+04 -0.12263661370E+04  0.41720471907E+03  0.17050564960E+04  0.50400001928E-02 0. -1.
       -1    1    3    3    0  502 -0.11086856971E+04  0.12263661370E+04  0.11650685409E+04  0.20225089819E+04  0.50400001928E-02 0.  1.
</event>
<event>
 5   0  0.2599367E-07  0.3400318E+04  0.7818609E-02  0.8137828E-01
       -1   -1    0    0    0  501  0.00000000000E+00  0.00000000000E+00  0.14890453328E+04  0.14890453328E+04  0.50400001928E-02 0. -1.
        1   -1    0    0  501    0  0.00000000000E+00  0.00000000000E+00 -0.19412044317E+04  0.19412044317E+04  0.50400001928E-02 0.  1.
    10030    2    1    2    0    0  0.00000000000E+00  0.00000000000E+00 -0.45215909886E+03  0.34302497645E+04  0.34003184551E+04 0.  0.
        2    1    3    3  502    0 -0.40272941844E+03 -0.13072672004E+04 -0.12446218707E+04  0.18493842539E+04  0.25500000920E-02 0.  1.
       -2    1    3    3    0  502  0.40272941844E+03  0.13072672004E+04  0.79246277180E+03  0.15808655106E+04  0.25500000920E-02 0. -1.
</event>
<event>
 5   0  0.2622205E-07  0.3434034E+04  0.7818609E-02  0.8129603E-01
        1   -1    0    0  501    0  0.00000000000E+00  0.00000000000E+00  0.16697185062E+04  0.16697185062E+04  0.50400001928E-02 0. -1.
       -1   -1    0    0    0  501  0.00000000000E+00  0.00000000000E+00 -0.17656550748E+04  0.17656550748E+04  0.50400001928E-02 0.  1.
    10030    2    1    2    0    0  0.00000000000E+00  0.00000000000E+00 -0.95936568610E+02  0.34353735811E+04  0.34340337529E+04 0.  0.
        3    1    3    3  502    0  0.90579518362E+03 -0.86280966934E+03 -0.12245400372E+04  0.17505438450E+04  0.10100000352E+00 0.  1.
       -3    1    3    3    0  502 -0.90579518362E+03  0.86280966934E+03  0.11286034686E+04  0.16848297361E+04  0.10100000352E+00 0. -1.
</event>
<event>
 5   0  0.2599367E-07  0.3401183E+04  0.7818609E-02  0.8137616E-01
       -1   -1    0    0    0  501  0.00000000000E+00  0.00000000000E+00  0.10672240488E+04  0.10672240488E+04  0.50400001928E-02 0. -1.
        1   -1    0    0  501    0  0.00000000000E+00  0.00000000000E+00 -0.27098452872E+04  0.27098452872E+04  0.50400001928E-02 0.  1.
    10030    2    1    2    0    0  0.00000000000E+00  0.00000000000E+00 -0.16426212384E+04  0.37770693360E+04  0.34011833583E+04 0.  0.
        2    1    3    3  502    0 -0.31558575121E+02 -0.13343950015E+03 -0.27036962442E+04  0.27071711111E+04  0.25500000920E-02 0.  1.
       -2    1    3    3    0  502  0.31558575121E+02  0.13343950015E+03  0.10610750058E+04  0.10698982250E+04  0.25500000920E-02 0. -1.
</event>
<event>
 5   0  0.2622205E-07  0.3462072E+04  0.7818609E-02  0.8122838E-01
       -1   -1    0    0    0  501  0.00000000000E+00  0.00000000000E+00  0.16004221710E+04  0.16004221710E+04  0.50400001928E-02 0.  1.
        1   -1    0    0  501    0  0.00000000000E+00  0.00000000000E+00 -0.18723092311E+04  0.18723092311E+04  0.50400001928E-02 0. -1.
    10030    2    1    2    0    0  0.00000000000E+00  0.00000000000E+00 -0.27188706016E+03  0.34727314021E+04  0.34620717522E+04 0.  0.
        3    1    3    3  502    0  0.63334354282E+03  0.14694121672E+04 -0.79842311746E+03  0.17882325478E+04  0.10100000352E+00 0. -1.
       -3    1    3    3    0  502 -0.63334354282E+03 -0.14694121672E+04  0.52653605730E+03  0.16844988543E+04  0.10100000352E+00 0.  1.
</event>
<event>
 5   0  0.7822003E-07  0.3396759E+04  0.7818609E-02  0.8138702E-01
       -2   -1    0    0    0  501  0.00000000000E+00  0.00000000000E+00  0.15144631989E+04  0.15144631989E+04  0.25500000920E-02 0. -1.
        2   -1    0    0  501    0  0.00000000000E+00  0.00000000000E+00 -0.19046309906E+04  0.19046309906E+04  0.25500000920E-02 0.  1.
    10030    2    1    2    0    0  0.00000000000E+00  0.00000000000E+00 -0.39016779169E+03  0.34190941896E+04  0.33967593632E+04 0.  0.
        5    1    3    3  502    0  0.25822691267E+03  0.36172067973E+02 -0.18843566042E+04  0.19023173917E+04  0.46999998093E+01 0.  1.
       -5    1    3    3    0  502 -0.25822691267E+03 -0.36172067973E+02  0.14941888126E+04  0.15167767978E+04  0.46999998093E+01 0. -1.
</event>
<event>
 5   0  0.7838333E-07  0.3366180E+04  0.7818609E-02  0.8146257E-01
       -2   -1    0    0    0  501  0.00000000000E+00  0.00000000000E+00  0.15618076372E+04  0.15618076372E+04  0.25500000920E-02 0. -1.
        2   -1    0    0  501    0  0.00000000000E+00  0.00000000000E+00 -0.18137904111E+04  0.18137904111E+04  0.25500000920E-02 0.  1.
    10030    2    1    2    0    0  0.00000000000E+00  0.00000000000E+00 -0.25198277389E+03  0.33755980483E+04  0.33661798623E+04 0.  0.
        1    1    3    3  502    0  0.13440547064E+04  0.79287025932E+03  0.50638015885E+03  0.16405935412E+04  0.50400001928E-02 0. -1.
       -1    1    3    3    0  502 -0.13440547064E+04 -0.79287025932E+03 -0.75836293274E+03  0.17350045071E+04  0.50400001928E-02 0.  1.
</event>
<event>
 5   0  0.2641442E-07  0.3410092E+04  0.7818609E-02  0.8135434E-01
       -1   -1    0    0    0  501  0.00000000000E+00  0.00000000000E+00  0.14465041822E+04  0.14465041822E+04  0.50400001928E-02 0. -1.
        1   -1    0    0  501    0  0.00000000000E+00  0.00000000000E+00 -0.20097987039E+04  0.20097987039E+04  0.50400001928E-02 0.  1.
    10030    2    1    2    0    0  0.00000000000E+00  0.00000000000E+00 -0.56329452171E+03  0.34563028861E+04  0.34100922161E+04 0.  0.
        1    1    3    3  502    0 -0.14730964033E+04  0.38576270445E+03 -0.10590854932E+04  0.18548552395E+04  0.50400001928E-02 0.  1.
       -1    1    3    3    0  502  0.14730964033E+04 -0.38576270445E+03  0.49579097152E+03  0.16014476466E+04  0.50400001928E-02 0. -1.
</event>
<event>
 5   0  0.7899402E-07  0.3108529E+04  0.7818609E-02  0.8213401E-01
        2   -1    0    0  501    0  0.00000000000E+00  0.00000000000E+00  0.18863954918E+04  0.18863954918E+04  0.25500000920E-02 0. -1.
       -2   -1    0    0    0  501  0.00000000000E+00  0.00000000000E+00 -0.12806103325E+04  0.12806103325E+04  0.25500000920E-02 0.  1.
    10030    2    1    2    0    0  0.00000000000E+00  0.00000000000E+00  0.60578515930E+03  0.31670058244E+04  0.31085286282E+04 0.  0.
        2    1    3    3  502    0  0.11795807153E+04  0.97220787852E+03  0.58950073433E+03  0.16383253458E+04  0.25500000920E-02 0. -1.
       -2    1    3    3    0  502 -0.11795807153E+04 -0.97220787852E+03  0.16284424975E+02  0.15286804786E+04  0.25500000920E-02 0.  1.
</event>
<event>
 5   0  0.7822003E-07  0.3391654E+04  0.7818609E-02  0.8139958E-01
       -2   -1    0    0    0  501  0.00000000000E+00  0.00000000000E+00  0.12321564274E+04  0.12321564274E+04  0.25500000920E-02 0. -1.
        2   -1    0    0  501    0  0.00000000000E+00  0.00000000000E+00 -0.23339809368E+04  0.23339809368E+04  0.25500000920E-02 0.  1.
    10030    2    1    2    0    0  0.00000000000E+00  0.00000000000E+00 -0.11018245094E+04  0.35661373643E+04  0.33916542352E+04 0.  0.
        5    1    3    3  502    0  0.88091396385E+03 -0.11553552757E+04  0.36869772001E+03  0.14989380652E+04  0.46999998093E+01 0. -1.
       -5    1    3    3    0  502 -0.88091396385E+03  0.11553552757E+04 -0.14705222294E+04  0.20671992990E+04  0.46999998093E+01 0.  1.
</event>
<event>
 5   0  0.2599367E-07  0.3334320E+04  0.7818609E-02  0.8154217E-01
       -1   -1    0    0    0  501  0.00000000000E+00  0.00000000000E+00  0.18419285882E+04  0.18419285882E+04  0.50400001928E-02 0.  1.
        1   -1    0    0  501    0  0.00000000000E+00  0.00000000000E+00 -0.15089742275E+04  0.15089742275E+04  0.50400001928E-02 0. -1.
    10030    2    1    2    0    0  0.00000000000E+00  0.00000000000E+00  0.33295436072E+03  0.33509028157E+04  0.33343201817E+04 0.  0.
        2    1    3    3  502    0 -0.14602886993E+04  0.80390646734E+03  0.13962209888E+03  0.16727830176E+04  0.25500000920E-02 0. -1.
       -2    1    3    3    0  502  0.14602886993E+04 -0.80390646734E+03  0.19333226185E+03  0.16781197981E+04  0.25500000920E-02 0.  1.
</event>
<event>
 5   0  0.7899402E-07  0.3431336E+04  0.7818609E-02  0.8130258E-01
        2   -1    0    0  501    0  0.00000000000E+00  0.00000000000E+00  0.20562493644E+04  0.20562493644E+04  0.25500000920E-02 0.  1.
       -2   -1    0    0    0  501  0.00000000000E+00  0.00000000000E+00 -0.14314978089E+04  0.14314978089E+04  0.25500000920E-02 0. -1.
    10030    2    1    2    0    0  0.00000000000E+00  0.00000000000E+00  0.62475155554E+03  0.34877471733E+04  0.34313358679E+04 0.  0.
        2    1    3    3  502    0 -0.48618904914E+03 -0.14138905383E+04  0.11676665659E+04  0.18970797176E+04  0.25500000920E-02 0.  1.
       -2    1    3    3    0  502  0.48618904914E+03  0.14138905383E+04 -0.54291501036E+03  0.15906674556E+04  0.25500000920E-02 0. -1.
</event>
<event>
 5   0  0.8489228E-07  0.3380643E+04  0.7818609E-02  0.8142673E-01
        2   -1    0    0  501    0  0.00000000000E+00  0.00000000000E+00  0.21043683236E+04  0.21043683236E+04  0.25500000920E-02 0.  1.
       -2   -1    0    0    0  501  0.00000000000E+00  0.00000000000E+00 -0.13577410144E+04  0.13577410144E+04  0.25500000920E-02 0. -1.
    10030    2    1    2    0    0  0.00000000000E+00  0.00000000000E+00  0.74662730912E+03  0.34621093380E+04  0.33806432420E+04 0.  0.
        3    1    3    3  502    0 -0.57728684929E+03  0.73472696019E+03 -0.10692121255E+04  0.14199642220E+04  0.10100000352E+00 0. -1.
       -3    1    3    3    0  502  0.57728684929E+03 -0.73472696019E+03  0.18158394346E+04  0.20421451160E+04  0.10100000352E+00 0.  1.
</event>
<event>
 5   0  0.2553250E-07  0.3338649E+04  0.7818609E-02  0.8153130E-01
       -3   -1    0    0    0  501  0.00000000000E+00  0.00000000000E+00  0.10980763911E+04  0.10980763957E+04  0.10100000352E+00 0. -1.
        3   -1    0    0  501    0  0.00000000000E+00  0.00000000000E+00 -0.25377508432E+04  0.25377508452E+04  0.10100000352E+00 0.  1.
    10030    2    1    2    0    0  0.00000000000E+00  0.00000000000E+00 -0.14396744521E+04  0.36358272409E+04  0.33386490078E+04 0.  0.
        2    1    3    3  502    0  0.53126240026E+03  0.59187296001E+03 -0.23181600245E+04  0.24507997140E+04  0.25500000920E-02 0.  1.
       -2    1    3    3    0  502 -0.53126240026E+03 -0.59187296001E+03  0.87848557237E+03  0.11850275269E+04  0.25500000920E-02 0. -1.
</event>
<event>
 5   0  0.2553250E-07  0.3496998E+04  0.7818609E-02  0.8114502E-01
       -1   -1    0    0    0  501  0.00000000000E+00  0.00000000000E+00  0.13446490269E+04  0.13446490270E+04  0.50400001928E-02 0.  1.
        1   -1    0    0  501    0  0.00000000000E+00  0.00000000000E+00 -0.22736407750E+04  0.22736407750E+04  0.50400001928E-02 0. -1.
    10030    2    1    2    0    0  0.00000000000E+00  0.00000000000E+00 -0.92899174803E+03  0.36182898019E+04  0.34969980587E+04 0.  0.
        5    1    3    3  502    0  0.83472323479E+03 -0.76795886524E+03  0.91233573169E+03  0.14556449686E+04  0.46999998093E+01 0. -1.
       -5    1    3    3    0  502 -0.83472323479E+03  0.76795886524E+03 -0.18413274797E+04  0.21626448333E+04  0.46999998093E+01 0.  1.
</event>
<event>
 5   0  0.7838333E-07  0.3385059E+04  0.7818609E-02  0.8141583E-01
        2   -1    0    0  501    0  0.00000000000E+00  0.00000000000E+00  0.21486644246E+04  0.21486644247E+04  0.25500000920E-02 0. -1.
       -2   -1    0    0    0  501  0.00000000000E+00  0.00000000000E+00 -0.13332264839E+04  0.13332264839E+04  0.25500000920E-02 0.  1.
    10030    2    1    2    0    0  0.00000000000E+00  0.00000000000E+00  0.81543794072E+03  0.34818909086E+04  0.33850591227E+04 0.  0.
        1    1    3    3  502    0  0.94885873835E+03 -0.19751608916E+03  0.18349665848E+04  0.20751982744E+04  0.50400001928E-02 0. -1.
       -1    1    3    3    0  502 -0.94885873835E+03  0.19751608916E+03 -0.10195286441E+04  0.14066926342E+04  0.50400001928E-02 0.  1.
</event>
<event>
 5   0  0.2592200E-07  0.3389370E+04  0.7818609E-02  0.8140520E-01
        1   -1    0    0  501    0  0.00000000000E+00  0.00000000000E+00  0.21112934991E+04  0.21112934991E+04  0.50400001928E-02 0.  1.
       -1   -1    0    0    0  501  0.00000000000E+00  0.00000000000E+00 -0.13602836310E+04  0.13602836310E+04  0.50400001928E-02 0. -1.
    10030    2    1    2    0    0  0.00000000000E+00  0.00000000000E+00  0.75100986809E+03  0.34715771301E+04  0.33893704354E+04 0.  0.
        4    1    3    3  502    0  0.16900546787E+04 -0.49216398950E+02  0.49340235401E+03  0.17612934358E+04  0.12699999809E+01 0. -1.
       -4    1    3    3    0  502 -0.16900546787E+04  0.49216398950E+02  0.25760751407E+03  0.17102836944E+04  0.12699999809E+01 0.  1.
</event>
<event>
 5   0  0.2599367E-07  0.3422134E+04  0.7818609E-02  0.8132495E-01
       -1   -1    0    0    0  501  0.00000000000E+00  0.00000000000E+00  0.26648045699E+04  0.26648045699E+04  0.50400001928E-02 0. -1.
        1   -1    0    0  501    0  0.00000000000E+00  0.00000000000E+00 -0.10986736078E+04  0.10986736078E+04  0.50400001928E-02 0.  1.
    10030    2    1    2    0    0  0.00000000000E+00  0.00000000000E+00  0.15661309621E+04  0.37634781777E+04  0.34221341008E+04 0.  0.
        2    1    3    3  502    0 -0.94117667570E+03  0.93012672143E+03 -0.40994409355E+03  0.13852809869E+04  0.25500000920E-02 0.  1.
       -2    1    3    3    0  502  0.94117667570E+03 -0.93012672143E+03  0.19760750557E+04  0.23781971908E+04  0.25500000920E-02 0. -1.
</event>
<event>
 5   0  0.7610412E-07  0.3337012E+04  0.7818609E-02  0.8153541E-01
        2   -1    0    0  501    0  0.00000000000E+00  0.00000000000E+00  0.25883603867E+04  0.25883603867E+04  0.25500000920E-02 0. -1.
       -2   -1    0    0    0  501  0.00000000000E+00  0.00000000000E+00 -0.10755506075E+04  0.10755506075E+04  0.25500000920E-02 0.  1.
    10030    2    1    2    0    0  0.00000000000E+00  0.00000000000E+00  0.15128097792E+04  0.36639109942E+04  0.33370121884E+04 0.  0.
        4    1    3    3  502    0 -0.90158818043E+03  0.42712012994E+03 -0.71200038309E+03  0.12256586029E+04  0.12699999809E+01 0.  1.
       -4    1    3    3    0  502  0.90158818043E+03 -0.42712012994E+03  0.22248101623E+04  0.24382523913E+04  0.12699999809E+01 0. -1.
</event>
<event>
 5   0  0.7899402E-07  0.3389256E+04  0.7818609E-02  0.8140548E-01
        2   -1    0    0  501    0  0.00000000000E+00  0.00000000000E+00  0.15731307038E+04  0.15731307038E+04  0.25500000920E-02 0.  1.
       -2   -1    0    0    0  501  0.00000000000E+00  0.00000000000E+00 -0.18255091246E+04  0.18255091246E+04  0.25500000920E-02 0. -1.
    10030    2    1    2    0    0  0.00000000000E+00  0.00000000000E+00 -0.25237842075E+03  0.33986398284E+04  0.33892562334E+04 0.  0.
        2    1    3    3  502    0 -0.30182344401E+03 -0.16000516047E+04  0.34468719739E+03  0.16643532657E+04  0.25500000920E-02 0.  1.
       -2    1    3    3    0  502  0.30182344401E+03  0.16000516047E+04 -0.59706561814E+03  0.17342865627E+04  0.25500000920E-02 0. -1.
</event>
<event>
 5   0  0.8489228E-07  0.3619138E+04  0.7818609E-02  0.8086122E-01
       -2   -1    0    0    0  501  0.00000000000E+00  0.00000000000E+00  0.18171763134E+04  0.18171763134E+04  0.25500000920E-02 0. -1.
        2   -1    0    0  501    0  0.00000000000E+00  0.00000000000E+00 -0.18019938638E+04  0.18019938638E+04  0.25500000920E-02 0.  1.
    10030    2    1    2    0    0  0.00000000000E+00  0.00000000000E+00  0.15182449647E+02  0.36191701772E+04  0.36191383318E+04 0.  0.
        3    1    3    3  502    0 -0.12131438273E+04 -0.19448040478E+03  0.13361359338E+04  0.18151583450E+04  0.10100000352E+00 0. -1.
       -3    1    3    3    0  502  0.12131438273E+04  0.19448040478E+03 -0.13209534842E+04  0.18040118323E+04  0.10100000352E+00 0.  1.
</event>
<event>
 5   0  0.2599367E-07  0.3394748E+04  0.7818609E-02  0.8139197E-01
       -1   -1    0    0    0  501  0.00000000000E+00  0.00000000000E+00  0.17509935022E+04  0.17509935022E+04  0.50400001928E-02 0. -1.
        1   -1    0    0  501    0  0.00000000000E+00  0.00000000000E+00 -0.16453963934E+04  0.16453963934E+04  0.50400001928E-02 0.  1.
    10030    2    1    2    0    0  0.00000000000E+00  0.00000000000E+00  0.10559710880E+03  0.33963898957E+04  0.33947479397E+04 0.  0.
        2    1    3    3  502    0  0.75972952955E+02  0.46714262432E+03  0.16836434969E+04  0.17488995242E+04  0.25500000920E-02 0. -1.
       -2    1    3    3    0  502 -0.75972952955E+02 -0.46714262432E+03 -0.15780463881E+04  0.16474903715E+04  0.25500000920E-02 0.  1.
</event>
<event>
 5   0  0.7610412E-07  0.3395537E+04  0.7818609E-02  0.8139003E-01
       -2   -1    0    0    0  501  0.00000000000E+00  0.00000000000E+00  0.29773623318E+04  0.29773623318E+04  0.25500000920E-02 0.  1.
        2   -1    0    0  501    0  0.00000000000E+00  0.00000000000E+00 -0.96811104705E+03  0.96811104705E+03  0.25500000920E-02 0. -1.
    10030    2    1    2    0    0  0.00000000000E+00  0.00000000000E+00  0.20092512847E+04  0.39454733788E+04  0.33955366966E+04 0.  0.
        4    1    3    3  502    0 -0.91486355789E+03  0.50787908381E+03  0.25581341078E+04  0.27638683434E+04  0.12699999809E+01 0.  1.
       -4    1    3    3    0  502  0.91486355789E+03 -0.50787908381E+03 -0.54888282308E+03  0.11816050354E+04  0.12699999809E+01 0. -1.
</event>
<event>
 5   0  0.8489228E-07  0.3442516E+04  0.7818609E-02  0.8127550E-01
        2   -1    0    0  501    0  0.00000000000E+00  0.00000000000E+00  0.15556226057E+04  0.15556226057E+04  0.25500000920E-02 0.  1.
       -2   -1    0    0    0  501  0.00000000000E+00  0.00000000000E+00 -0.19045295699E+04  0.19045295699E+04  0.25500000920E-02 0. -1.
    10030    2    1    2    0    0  0.00000000000E+00  0.00000000000E+00 -0.34890696419E+03  0.34601521756E+04  0.34425160869E+04 0.  0.
        3    1    3    3  502    0 -0.61336205318E+03 -0.44614688994E+03  0.13786060676E+04  0.15734721972E+04  0.10100000352E+00 0.  1.
       -3    1    3    3    0  502  0.61336205318E+03  0.44614688994E+03 -0.17275130317E+04  0.18866799784E+04  0.10100000352E+00 0. -1.
</event>
<event>
 5   0  0.2622205E-07  0.3388843E+04  0.7818609E-02  0.8140650E-01
        1   -1    0    0  501    0  0.00000000000E+00  0.00000000000E+00  0.16354636049E+04  0.16354636049E+04  0.50400001928E-02 0.  1.
       -1   -1    0    0    0  501  0.00000000000E+00  0.00000000000E+00 -0.17555045717E+04  0.17555045717E+04  0.50400001928E-02 0. -1.
    10030    2    1    2    0    0  0.00000000000E+00  0.00000000000E+00 -0.12004096676E+03  0.33909681766E+04  0.33888427732E+04 0.  0.
        3    1    3    3  502    0  0.56907587668E+03 -0.15494440021E+04  0.32289399893E+03  0.16819288374E+04  0.10100000352E+00 0.  1.
       -3    1    3    3    0  502 -0.56907587668E+03  0.15494440021E+04 -0.44293496568E+03  0.17090393393E+04  0.10100000352E+00 0. -1.
</event>
<event>
 5   0  0.7838333E-07  0.3379598E+04  0.7818609E-02  0.8142932E-01
       -2   -1    0    0    0  501  0.00000000000E+00  0.00000000000E+00  0.18462063122E+04  0.18462063122E+04  0.25500000920E-02 0.  1.
        2   -1    0    0  501    0  0.00000000000E+00  0.00000000000E+00 -0.15466422979E+04  0.15466422979E+04  0.25500000920E-02 0. -1.
    10030    2    1    2    0    0  0.00000000000E+00  0.00000000000E+00  0.29956401428E+03  0.33928486102E+04  0.33795980668E+04 0.  0.
        1    1    3    3  502    0  0.13394724971E+04  0.89020698617E+03  0.67024082395E+03  0.17423770576E+04  0.50400001928E-02 0.  1.
       -1    1    3    3    0  502 -0.13394724971E+04 -0.89020698617E+03 -0.37067680967E+03  0.16504715526E+04  0.50400001928E-02 0. -1.
</event>
<event>
 5   0  0.2599367E-07  0.3405638E+04  0.7818609E-02  0.8136524E-01
       -1   -1    0    0    0  501  0.00000000000E+00  0.00000000000E+00  0.19477947578E+04  0.19477947578E+04  0.50400001928E-02 0.  1.
        1   -1    0    0  501    0  0.00000000000E+00  0.00000000000E+00 -0.14886538894E+04  0.14886538895E+04  0.50400001928E-02 0. -1.
    10030    2    1    2    0    0  0.00000000000E+00  0.00000000000E+00  0.45914086834E+03  0.34364486473E+04  0.34056378211E+04 0.  0.
        2    1    3    3  502    0  0.12231306606E+04  0.68604244973E+03 -0.74502971652E+03  0.15880088584E+04  0.25500000920E-02 0. -1.
       -2    1    3    3    0  502 -0.12231306606E+04 -0.68604244973E+03  0.12041705849E+04  0.18484397889E+04  0.25500000920E-02 0.  1.
</event>
<event>
 5   0  0.2641442E-07  0.3013800E+04  0.7818609E-02  0.8239801E-01
       -1   -1    0    0    0  501  0.00000000000E+00  0.00000000000E+00  0.92377242717E+03  0.92377242718E+03  0.50400001928E-02 0. -1.
        1   -1    0    0  501    0  0.00000000000E+00  0.00000000000E+00 -0.24581245326E+04  0.24581245326E+04  0.50400001928E-02 0.  1.
    10030    2    1    2    0    0  0.00000000000E+00  0.00000000000E+00 -0.15343521054E+04  0.33818969598E+04  0.30138000370E+04 0.  0.
        1    1    3    3  502    0  0.41230213888E+03 -0.14087441924E+04 -0.11496823238E+04  0.18644899299E+04  0.50400001928E-02 0. -1.
       -1    1    3    3    0  502 -0.41230213888E+03  0.14087441924E+04 -0.38466978167E+03  0.15174070298E+04  0.50400001928E-02 0.  1.
</event>
<event>
 5   0  0.7610412E-07  0.3347745E+04  0.7818609E-02  0.8150852E-01
        2   -1    0    0  501    0  0.00000000000E+00  0.00000000000E+00  0.20778118372E+04  0.20778118372E+04  0.25500000920E-02 0. -1.
       -2   -1    0    0    0  501  0.00000000000E+00  0.00000000000E+00 -0.13484613528E+04  0.13484613528E+04  0.25500000920E-02 0.  1.
    10030    2    1    2    0    0  0.00000000000E+00  0.00000000000E+00  0.72935048436E+03  0.34262731900E+04  0.33477448892E+04 0.  0.
        4    1    3    3  502    0 -0.11533792566E+04  0.21025920705E+03 -0.85806889073E+03  0.14528511548E+04  0.12699999809E+01 0.  1.
       -4    1    3    3    0  502  0.11533792566E+04 -0.21025920705E+03  0.15874193751E+04  0.19734220352E+04  0.12699999809E+01 0. -1.
</event>
<event>
 5   0  0.7610412E-07  0.3369195E+04  0.7818609E-02  0.8145508E-01
        2   -1    0    0  501    0  0.00000000000E+00  0.00000000000E+00  0.23277221351E+04  0.23277221351E+04  0.25500000920E-02 0.  1.
       -2   -1    0    0    0  501  0.00000000000E+00  0.00000000000E+00 -0.12191613510E+04  0.12191613510E+04  0.25500000920E-02 0. -1.
    10030    2    1    2    0    0  0.00000000000E+00  0.00000000000E+00  0.11085607841E+04  0.35468834861E+04  0.33691950748E+04 0.  0.
        4    1    3    3  502    0 -0.60386907448E+03 -0.71063144401E+03 -0.92263882200E+03  0.13118379919E+04  0.12699999809E+01 0. -1.
       -4    1    3    3    0  502  0.60386907448E+03  0.71063144401E+03  0.20311996061E+04  0.22350454942E+04  0.12699999809E+01 0.  1.
</event>
<event>
 5   0  0.7610412E-07  0.3395384E+04  0.7818609E-02  0.8139040E-01
       -2   -1    0    0    0  501  0.00000000000E+00  0.00000000000E+00  0.22940086405E+04  0.22940086405E+04  0.25500000920E-02 0. -1.
        2   -1    0    0  501    0  0.00000000000E+00  0.00000000000E+00 -0.12563851071E+04  0.12563851071E+04  0.25500000920E-02 0.  1.
    10030    2    1    2    0    0  0.00000000000E+00  0.00000000000E+00  0.10376235334E+04  0.35503937476E+04  0.33953840970E+04 0.  0.
        4    1    3    3  502    0 -0.48595954530E+03 -0.13470335210E+04  0.14723078588E+04  0.20538617359E+04  0.12699999809E+01 0. -1.
       -4    1    3    3    0  502  0.48595954530E+03  0.13470335210E+04 -0.43468432536E+03  0.14965320117E+04  0.12699999809E+01 0.  1.
</event>
<event>
 5   0  0.2641442E-07  0.3420855E+04  0.7818609E-02  0.8132807E-01
       -1   -1    0    0    0  501  0.00000000000E+00  0.00000000000E+00  0.12265564770E+04  0.12265564770E+04  0.50400001928E-02 0.  1.
        1   -1    0    0  501    0  0.00000000000E+00  0.00000000000E+00 -0.23851831458E+04  0.23851831458E+04  0.50400001928E-02 0. -1.
    10030    2    1    2    0    0  0.00000000000E+00  0.00000000000E+00 -0.11586266688E+04  0.36117396229E+04  0.34208547683E+04 0.  0.
        1    1    3    3  502    0 -0.98842944969E+03 -0.13954622091E+04 -0.61670540056E+03  0.18178649854E+04  0.50400001928E-02 0. -1.
       -1    1    3    3    0  502  0.98842944969E+03  0.13954622091E+04 -0.54192126826E+03  0.17938746375E+04  0.50400001928E-02 0.  1.
</event>
<event>
 5   0  0.8489228E-07  0.3417695E+04  0.7818609E-02  0.8133577E-01
        2   -1    0    0  501    0  0.00000000000E+00  0.00000000000E+00  0.23411625164E+04  0.23411625164E+04  0.25500000920E-02 0. -1.
       -2   -1    0    0    0  501  0.00000000000E+00  0.00000000000E+00 -0.12473119839E+04  0.12473119839E+04  0.25500000920E-02 0.  1.
    10030    2    1    2    0    0  0.00000000000E+00  0.00000000000E+00  0.10938505325E+04  0.35884745003E+04  0.34176951666E+04 0.  0.
        3    1    3    3  502    0 -0.51058499690E+03  0.71232509684E+03  0.20872181939E+04  0.22637543776E+04  0.10100000352E+00 0. -1.
       -3    1    3    3    0  502  0.51058499690E+03 -0.71232509684E+03 -0.99336766141E+03  0.13247201227E+04  0.10100000352E+00 0.  1.
</event>
<event>
 5   0  0.7838333E-07  0.3389786E+04  0.7818609E-02  0.8140418E-01
        2   -1    0    0  501    0  0.00000000000E+00  0.00000000000E+00  0.27405695352E+04  0.27405695352E+04  0.25500000920E-02 0.  1.
       -2   -1    0    0    0  501  0.00000000000E+00  0.00000000000E+00 -0.10481991959E+04  0.10481991959E+04  0.25500000920E-02 0. -1.
    10030    2    1    2    0    0  0.00000000000E+00  0.00000000000E+00  0.16923703392E+04  0.37887687311E+04  0.33897862960E+04 0.  0.
        1    1    3    3  502    0  0.87183311101E+03 -0.16816162388E+03 -0.76744870844E+03  0.11736050551E+04  0.50400001928E-02 0. -1.
       -1    1    3    3    0  502 -0.87183311101E+03  0.16816162388E+03  0.24598190477E+04  0.26151636760E+04  0.50400001928E-02 0.  1.
</event>
<event>
 5   0  0.2599367E-07  0.3397103E+04  0.7818609E-02  0.8138618E-01
       -1   -1    0    0    0  501  0.00000000000E+00  0.00000000000E+00  0.11924727676E+04  0.11924727677E+04  0.50400001928E-02 0.  1.
        1   -1    0    0  501    0  0.00000000000E+00  0.00000000000E+00 -0.24194073516E+04  0.24194073516E+04  0.50400001928E-02 0. -1.
    10030    2    1    2    0    0  0.00000000000E+00  0.00000000000E+00 -0.12269345839E+04  0.36118801192E+04  0.33971031074E+04 0.  0.
        2    1    3    3  502    0  0.14484630578E+04 -0.80876598017E+03 -0.10011136217E+04  0.19376212541E+04  0.25500000920E-02 0. -1.
       -2    1    3    3    0  502 -0.14484630578E+04  0.80876598017E+03 -0.22582096216E+03  0.16742588652E+04  0.25500000920E-02 0.  1.
</event>
<event>
 5   0  0.2641442E-07  0.3399831E+04  0.7818609E-02  0.8137948E-01
        1   -1    0    0  501    0  0.00000000000E+00  0.00000000000E+00  0.19529759123E+04  0.19529759123E+04  0.50400001928E-02 0.  1.
       -1   -1    0    0    0  501  0.00000000000E+00  0.00000000000E+00 -0.14796456057E+04  0.14796456057E+04  0.50400001928E-02 0. -1.
    10030    2    1    2    0    0  0.00000000000E+00  0.00000000000E+00  0.47333030654E+03  0.34326215180E+04  0.33998307174E+04 0.  0.
        1    1    3    3  502    0 -0.13721477153E+04 -0.61257786427E+03  0.10391081243E+04  0.18269610522E+04  0.50400001928E-02 0.  1.
       -1    1    3    3    0  502  0.13721477153E+04  0.61257786427E+03 -0.56577781778E+03  0.16056604658E+04  0.50400001928E-02 0. -1.
</event>
<event>
 5   0  0.2599367E-07  0.3415120E+04  0.7818609E-02  0.8134205E-01
       -1   -1    0    0    0  501  0.00000000000E+00  0.00000000000E+00  0.28275977697E+04  0.28275977697E+04  0.50400001928E-02 0.  1.
        1   -1    0    0  501    0  0.00000000000E+00  0.00000000000E+00 -0.10311798316E+04  0.10311798316E+04  0.50400001928E-02 0. -1.
    10030    2    1    2    0    0  0.00000000000E+00  0.00000000000E+00  0.17964179381E+04  0.38587776013E+04  0.34151203739E+04 0.  0.
        2    1    3    3  502    0 -0.14058846587E+04 -0.73643112244E+03  0.16100693990E+04  0.22607887874E+04  0.25500000920E-02 0.  1.
       -2    1    3    3    0  502  0.14058846587E+04  0.73643112244E+03  0.18634853910E+03  0.15979888140E+04  0.25500000920E-02 0. -1.
</event>
<event>
 5   0  0.8489228E-07  0.3426402E+04  0.7818609E-02  0.8131457E-01
        2   -1    0    0  501    0  0.00000000000E+00  0.00000000000E+00  0.18778216775E+04  0.18778216775E+04  0.25500000920E-02 0. -1.
       -2   -1    0    0    0  501  0.00000000000E+00  0.00000000000E+00 -0.15630123129E+04  0.15630123129E+04  0.25500000920E-02 0.  1.
    10030    2    1    2    0    0  0.00000000000E+00  0.00000000000E+00  0.31480936456E+03  0.34408339904E+04  0.34264024302E+04 0.  0.
        3    1    3    3  502    0  0.12301028675E+04 -0.89431232415E+02 -0.10366819364E+04  0.16111674206E+04  0.10100000352E+00 0.  1.
       -3    1    3    3    0  502 -0.12301028675E+04  0.89431232415E+02  0.13514913009E+04  0.18296665698E+04  0.10100000352E+00 0. -1.
</event>
<event>
 5   0  0.2599367E-07  0.3332486E+04  0.7818609E-02  0.8154678E-01
       -1   -1    0    0    0  501  0.00000000000E+00  0.00000000000E+00  0.10334110599E+04  0.10334110599E+04  0.50400001928E-02 0.  1.
        1   -1    0    0  501    0  0.00000000000E+00  0.00000000000E+00 -0.26866035322E+04  0.26866035322E+04  0.50400001928E-02 0. -1.
    10030    2    1    2    0    0  0.00000000000E+00  0.00000000000E+00 -0.16531924723E+04  0.37200145921E+04  0.33324860413E+04 0.  0.
        2    1    3    3  502    0 -0.15992196272E+04  0.45973128700E+03 -0.92333103416E+03  0.19029967081E+04  0.25500000920E-02 0. -1.
       -2    1    3    3    0  502  0.15992196272E+04 -0.45973128700E+03 -0.72986143810E+03  0.18170178841E+04  0.25500000920E-02 0.  1.
</event>
<event>
 5   0  0.7899402E-07  0.3392024E+04  0.7818609E-02  0.8139867E-01
        2   -1    0    0  501    0  0.00000000000E+00  0.00000000000E+00  0.19368085117E+04  0.19368085117E+04  0.25500000920E-02 0. -1.
       -2   -1    0    0    0  501  0.00000000000E+00  0.00000000000E+00 -0.14851524474E+04  0.14851524474E+04  0.25500000920E-02 0.  1.
    10030    2    1    2    0    0  0.00000000000E+00  0.00000000000E+00  0.45165606431E+03  0.34219609591E+04  0.33920235266E+04 0.  0.
        2    1    3    3  502    0  0.71897322879E+03 -0.12877515956E+04 -0.61895697705E+03  0.15994794201E+04  0.25500000920E-02 0.  1.
       -2    1    3    3    0  502 -0.71897322879E+03  0.12877515956E+04  0.10706130414E+04  0.18224815390E+04  0.25500000920E-02 0. -1.
</event>
<event>
 5   0  0.2622205E-07  0.3307362E+04  0.7818609E-02  0.8161025E-01
        1   -1    0    0  501    0  0.00000000000E+00  0.00000000000E+00  0.10263368070E+04  0.10263368071E+04  0.50400001928E-02 0. -1.
       -1   -1    0    0    0  501  0.00000000000E+00  0.00000000000E+00 -0.26644873241E+04  0.26644873241E+04  0.50400001928E-02 0.  1.
    10030    2    1    2    0    0  0.00000000000E+00  0.00000000000E+00 -0.16381505171E+04  0.36908241312E+04  0.33073623404E+04 0.  0.
        3    1    3    3  502    0 -0.56042569035E+03  0.14940736237E+04 -0.13033586179E+04  0.20603583777E+04  0.10100000352E+00 0.  1.
       -3    1    3    3    0  502  0.56042569035E+03 -0.14940736237E+04 -0.33479189920E+03  0.16304657535E+04  0.10100000352E+00 0. -1.
</event>
<event>
 5   0  0.2641442E-07  0.3389175E+04  0.7818609E-02  0.8140568E-01
       -1   -1    0    0    0  501  0.00000000000E+00  0.00000000000E+00  0.21234311258E+04  0.21234311258E+04  0.50400001928E-02 0. -1.
        1   -1    0    0  501    0  0.00000000000E+00  0.00000000000E+00 -0.13523521054E+04  0.13523521054E+04  0.50400001928E-02 0.  1.
    10030    2    1    2    0    0  0.00000000000E+00  0.00000000000E+00  0.77107902044E+03  0.34757832312E+04  0.33891748575E+04 0.  0.
        1    1    3    3  502    0  0.92332720284E+03  0.31476514117E+02  0.18424414953E+04  0.20610954752E+04  0.50400001928E-02 0. -1.
       -1    1    3    3    0  502 -0.92332720284E+03 -0.31476514117E+02 -0.10713624748E+04  0.14146877560E+04  0.50400001928E-02 0.  1.
</event>
<event>
 5   0  0.7610412E-07  0.3382496E+04  0.7818609E-02  0.8142216E-01
        2   -1    0    0  501    0  0.00000000000E+00  0.00000000000E+00  0.16290351593E+04  0.16290351593E+04  0.25500000920E-02 0.  1.
       -2   -1    0    0    0  501  0.00000000000E+00  0.00000000000E+00 -0.17558368964E+04  0.17558368964E+04  0.25500000920E-02 0. -1.
    10030    2    1    2    0    0  0.00000000000E+00  0.00000000000E+00 -0.12680173710E+03  0.33848720557E+04  0.33824961423E+04 0.  0.
        4    1    3    3  502    0 -0.12692188373E+04  0.61013143705E+03  0.87381536270E+03  0.16573266812E+04  0.12699999809E+01 0.  1.
       -4    1    3    3    0  502  0.12692188373E+04 -0.61013143705E+03 -0.10006170998E+04  0.17275453744E+04  0.12699999809E+01 0. -1.
</event>
<event>
 5   0  0.7822003E-07  0.3389991E+04  0.7818609E-02  0.8140367E-01
       -2   -1    0    0    0  501  0.00000000000E+00  0.00000000000E+00  0.15352679766E+04  0.15352679766E+04  0.25500000920E-02 0. -1.
        2   -1    0    0  501    0  0.00000000000E+00  0.00000000000E+00 -0.18713407543E+04  0.18713407543E+04  0.25500000920E-02 0.  1.
    10030    2    1    2    0    0  0.00000000000E+00  0.00000000000E+00 -0.33607277771E+03  0.34066087309E+04  0.33899908751E+04 0.  0.
        5    1    3    3  502    0 -0.38172251029E+03 -0.52824866775E+03  0.14043154015E+04  0.15481868643E+04  0.46999998093E+01 0. -1.
       -5    1    3    3    0  502  0.38172251029E+03  0.52824866775E+03 -0.17403881792E+04  0.18584218666E+04  0.46999998093E+01 0.  1.
</event>
<event>
 5   0  0.2599367E-07  0.3500141E+04  0.7818609E-02  0.8113756E-01
       -1   -1    0    0    0  501  0.00000000000E+00  0.00000000000E+00  0.20741769155E+04  0.20741769155E+04  0.50400001928E-02 0.  1.
        1   -1    0    0  501    0  0.00000000000E+00  0.00000000000E+00 -0.14766085188E+04  0.14766085188E+04  0.50400001928E-02 0. -1.
    10030    2    1    2    0    0  0.00000000000E+00  0.00000000000E+00  0.59756839672E+03  0.35507854344E+04  0.35001413132E+04 0.  0.
        2    1    3    3  502    0 -0.44188121476E+02 -0.38255394238E+03  0.20306608066E+04  0.20668535073E+04  0.25500000920E-02 0.  1.
       -2    1    3    3    0  502  0.44188121476E+02  0.38255394238E+03 -0.14330924099E+04  0.14839319271E+04  0.25500000920E-02 0. -1.
</event>
<event>
 5   0  0.2599367E-07  0.3388330E+04  0.7818609E-02  0.8140777E-01
        1   -1    0    0  501    0  0.00000000000E+00  0.00000000000E+00  0.12639491975E+04  0.12639491976E+04  0.50400001928E-02 0.  1.
       -1   -1    0    0    0  501  0.00000000000E+00  0.00000000000E+00 -0.22708146370E+04  0.22708146370E+04  0.50400001928E-02 0. -1.
    10030    2    1    2    0    0  0.00000000000E+00  0.00000000000E+00 -0.10068654395E+04  0.35347638346E+04  0.33883295815E+04 0.  0.
        2    1    3    3  502    0  0.14170076549E+04 -0.65298156871E+03 -0.11921921371E+04  0.19635726915E+04  0.25500000920E-02 0. -1.
       -2    1    3    3    0  502 -0.14170076549E+04  0.65298156871E+03  0.18532669762E+03  0.15711911431E+04  0.25500000920E-02 0.  1.
</event>
<event>
 5   0  0.2641442E-07  0.3377649E+04  0.7818609E-02  0.8143414E-01
        1   -1    0    0  501    0  0.00000000000E+00  0.00000000000E+00  0.14966368191E+04  0.14966368191E+04  0.50400001928E-02 0.  1.
       -1   -1    0    0    0  501  0.00000000000E+00  0.00000000000E+00 -0.19056913353E+04  0.19056913353E+04  0.50400001928E-02 0. -1.
    10030    2    1    2    0    0  0.00000000000E+00  0.00000000000E+00 -0.40905451614E+03  0.34023281544E+04  0.33776487788E+04 0.  0.
        1    1    3    3  502    0  0.91927798766E+03  0.26670800180E+03  0.11970134311E+04  0.15326598876E+04  0.50400001928E-02 0.  1.
       -1    1    3    3    0  502 -0.91927798766E+03 -0.26670800180E+03 -0.16060679472E+04  0.18696682668E+04  0.50400001928E-02 0. -1.
</event>
<event>
 5   0  0.2553250E-07  0.3389421E+04  0.7818609E-02  0.8140508E-01
        1   -1    0    0  501    0  0.00000000000E+00  0.00000000000E+00  0.34152591139E+04  0.34152591139E+04  0.50400001928E-02 0.  1.
       -1   -1    0    0    0  501  0.00000000000E+00  0.00000000000E+00 -0.84094449754E+03  0.84094449756E+03  0.50400001928E-02 0. -1.
    10030    2    1    2    0    0  0.00000000000E+00  0.00000000000E+00  0.25743146163E+04  0.42562036114E+04  0.33894208116E+04 0.  0.
        5    1    3    3  502    0  0.38895136508E+03  0.30451216107E+03 -0.74852708902E+03  0.89684207842E+03  0.46999998093E+01 0. -1.
       -5    1    3    3    0  502 -0.38895136508E+03 -0.30451216107E+03  0.33228417053E+04  0.33593615330E+04  0.46999998093E+01 0.  1.
</event>
<event>
 5   0  0.2622205E-07  0.3417154E+04  0.7818609E-02  0.8133709E-01
       -1   -1    0    0    0  501  0.00000000000E+00  0.00000000000E+00  0.21273335432E+04  0.21273335432E+04  0.50400001928E-02 0.  1.
        1   -1    0    0  501    0  0.00000000000E+00  0.00000000000E+00 -0.13722506465E+04  0.13722506465E+04  0.50400001928E-02 0. -1.
    10030    2    1    2    0    0  0.00000000000E+00  0.00000000000E+00  0.75508289664E+03  0.34995841897E+04  0.34171536869E+04 0.  0.
        3    1    3    3  502    0  0.49395856697E+03  0.12027751071E+04 -0.75760581027E+03  0.15048686315E+04  0.10100000352E+00 0. -1.
       -3    1    3    3    0  502 -0.49395856697E+03 -0.12027751071E+04  0.15126887069E+04  0.19947155582E+04  0.10100000352E+00 0.  1.
</event>
<event>
 5   0  0.7838333E-07  0.3401373E+04  0.7818609E-02  0.8137569E-01
        2   -1    0    0  501    0  0.00000000000E+00  0.00000000000E+00  0.23085366758E+04  0.23085366758E+04  0.25500000920E-02 0.  1.
       -2   -1    0    0    0  501  0.00000000000E+00  0.00000000000E+00 -0.12528869056E+04  0.12528869056E+04  0.25500000920E-02 0. -1.
    10030    2    1    2    0    0  0.00000000000E+00  0.00000000000E+00  0.10556497702E+04  0.35614235814E+04  0.34013734709E+04 0.  0.
        1    1    3    3  502    0  0.11160384799E+03 -0.16317090574E+04  0.39617236956E+02  0.16360010367E+04  0.50400001928E-02 0.  1.
       -1    1    3    3    0  502 -0.11160384799E+03  0.16317090574E+04  0.10160325333E+04  0.19254225447E+04  0.50400001928E-02 0. -1.
</event>
<event>
 5   0  0.2553250E-07  0.3426994E+04  0.7818609E-02  0.8131313E-01
       -1   -1    0    0    0  501  0.00000000000E+00  0.00000000000E+00  0.26630877943E+04  0.26630877943E+04  0.50400001928E-02 0. -1.
        1   -1    0    0  501    0  0.00000000000E+00  0.00000000000E+00 -0.11025068943E+04  0.11025068943E+04  0.50400001928E-02 0.  1.
    10030    2    1    2    0    0  0.00000000000E+00  0.00000000000E+00  0.15605808999E+04  0.37655946886E+04  0.34269943994E+04 0.  0.
        5    1    3    3  502    0  0.92291756728E+03  0.50614035754E+03 -0.70537025818E+03  0.12670928098E+04  0.46999998093E+01 0.  1.
       -5    1    3    3    0  502 -0.92291756728E+03 -0.50614035754E+03  0.22659511581E+04  0.24985018788E+04  0.46999998093E+01 0. -1.
</event>
<event>
 5   0  0.2641442E-07  0.3362538E+04  0.7818609E-02  0.8147162E-01
        1   -1    0    0  501    0  0.00000000000E+00  0.00000000000E+00  0.18925341444E+04  0.18925341444E+04  0.50400001928E-02 0. -1.
       -1   -1    0    0    0  501  0.00000000000E+00  0.00000000000E+00 -0.14935872652E+04  0.14935872652E+04  0.50400001928E-02 0.  1.
    10030    2    1    2    0    0  0.00000000000E+00  0.00000000000E+00  0.39894687915E+03  0.33861214096E+04  0.33625376709E+04 0.  0.
        1    1    3    3  502    0  0.58984400879E+03 -0.65624300372E+03 -0.12416803115E+04  0.15232665002E+04  0.50400001928E-02 0.  1.
       -1    1    3    3    0  502 -0.58984400879E+03  0.65624300372E+03  0.16406271907E+04  0.18628549094E+04  0.50400001928E-02 0. -1.
</event>
<event>
 5   0  0.2641442E-07  0.3419371E+04  0.7818609E-02  0.8133168E-01
        1   -1    0    0  501    0  0.00000000000E+00  0.00000000000E+00  0.25898119871E+04  0.25898119871E+04  0.50400001928E-02 0. -1.
       -1   -1    0    0    0  501  0.00000000000E+00  0.00000000000E+00 -0.11286630568E+04  0.11286630568E+04  0.50400001928E-02 0.  1.
    10030    2    1    2    0    0  0.00000000000E+00  0.00000000000E+00  0.14611489303E+04  0.37184750439E+04  0.34193713539E+04 0.  0.
        1    1    3    3  502    0  0.13283578910E+04  0.74228951117E+03 -0.11702479090E+03  0.15261792840E+04  0.50400001928E-02 0.  1.
       -1    1    3    3    0  502 -0.13283578910E+04 -0.74228951117E+03  0.15781737212E+04  0.21922957600E+04  0.50400001928E-02 0. -1.
</event>
<event>
 5   0  0.2592200E-07  0.3371760E+04  0.7818609E-02  0.8144872E-01
       -1   -1    0    0    0  501  0.00000000000E+00  0.00000000000E+00  0.80669764254E+03  0.80669764256E+03  0.50400001928E-02 0.  1.
        1   -1    0    0  501    0  0.00000000000E+00  0.00000000000E+00 -0.35232421099E+04  0.35232421099E+04  0.50400001928E-02 0. -1.
    10030    2    1    2    0    0  0.00000000000E+00  0.00000000000E+00 -0.27165444674E+04  0.43299397525E+04  0.33717598397E+04 0.  0.
        4    1    3    3  502    0  0.14208701446E+03  0.10084641130E+03 -0.35116479429E+04  0.35159680895E+04  0.12699999809E+01 0. -1.
       -4    1    3    3    0  502 -0.14208701446E+03 -0.10084641130E+03  0.79510347557E+03  0.81397166297E+03  0.12699999809E+01 0.  1.
</event>
<event>
 5   0  0.2622205E-07  0.3333273E+04  0.7818609E-02  0.8154480E-01
        1   -1    0    0  501    0  0.00000000000E+00  0.00000000000E+00  0.19295722129E+04  0.19295722129E+04  0.50400001928E-02 0.  1.
       -1   -1    0    0    0  501  0.00000000000E+00  0.00000000000E+00 -0.14395299634E+04  0.14395299634E+04  0.50400001928E-02 0. -1.
    10030    2    1    2    0    0  0.00000000000E+00  0.00000000000E+00  0.49004224950E+03  0.33691021763E+04  0.33332728763E+04 0.  0.
        3    1    3    3  502    0  0.11149723688E+04  0.62261645168E+03 -0.83740674814E+03  0.15271099178E+04  0.10100000352E+00 0. -1.
       -3    1    3    3    0  502 -0.11149723688E+04 -0.62261645168E+03  0.13274489976E+04  0.18419922585E+04  0.10100000352E+00 0.  1.
</event>
<event>
 5   0  0.7838333E-07  0.3383306E+04  0.7818609E-02  0.8142016E-01
        2   -1    0    0  501    0  0.00000000000E+00  0.00000000000E+00  0.10898975953E+04  0.10898975953E+04  0.25500000920E-02 0.  1.
       -2   -1    0    0    0  501  0.00000000000E+00  0.00000000000E+00 -0.26256506001E+04  0.26256506001E+04  0.25500000920E-02 0. -1.
    10030    2    1    2    0    0  0.00000000000E+00  0.00000000000E+00 -0.15357530048E+04  0.37155481954E+04  0.33833062380E+04 0.  0.
        1    1    3    3  502    0 -0.30417360341E+03  0.15003973996E+04 -0.15582576080E+04  0.21844634835E+04  0.50400001928E-02 0. -1.
       -1    1    3    3    0  502  0.30417360341E+03 -0.15003973996E+04  0.22504603226E+02  0.15310847119E+04  0.50400001928E-02 0.  1.
</event>
<event>
 5   0  0.8489228E-07  0.3348646E+04  0.7818609E-02  0.8150627E-01
       -2   -1    0    0    0  501  0.00000000000E+00  0.00000000000E+00  0.23776736695E+04  0.23776736695E+04  0.25500000920E-02 0. -1.
        2   -1    0    0  501    0  0.00000000000E+00  0.00000000000E+00 -0.11790338728E+04  0.11790338728E+04  0.25500000920E-02 0.  1.
    10030    2    1    2    0    0  0.00000000000E+00  0.00000000000E+00  0.11986397967E+04  0.35567075422E+04  0.33486461710E+04 0.  0.
        3    1    3    3  502    0 -0.16028803796E+04  0.48343960038E+03  0.57759347278E+03  0.17710317864E+04  0.10100000352E+00 0.  1.
       -3    1    3    3    0  502  0.16028803796E+04 -0.48343960038E+03  0.62104632390E+03  0.17856757558E+04  0.10100000352E+00 0. -1.
</event>
<event>
 5   0  0.2622205E-07  0.3480595E+04  0.7818609E-02  0.8118404E-01
       -1   -1    0    0    0  501  0.00000000000E+00  0.00000000000E+00  0.14370425386E+04  0.14370425386E+04  0.50400001928E-02 0. -1.
        1   -1    0    0  501    0  0.00000000000E+00  0.00000000000E+00 -0.21075472515E+04  0.21075472515E+04  0.50400001928E-02 0.  1.
    10030    2    1    2    0    0  0.00000000000E+00  0.00000000000E+00 -0.67050471288E+03  0.35445897901E+04  0.34805948069E+04 0.  0.
        3    1    3    3  502    0  0.87095120800E+02  0.91784424146E+03 -0.18384026406E+04  0.20566350894E+04  0.10100000352E+00 0.  1.
       -3    1    3    3    0  502 -0.87095120800E+02 -0.91784424146E+03  0.11678979277E+04  0.14879547007E+04  0.10100000352E+00 0. -1.
</event>
<event>
 5   0  0.7822003E-07  0.3402590E+04  0.7818609E-02  0.8137271E-01
       -2   -1    0    0    0  501  0.00000000000E+00  0.00000000000E+00  0.23403108050E+04  0.23403108050E+04  0.25500000920E-02 0.  1.
        2   -1    0    0  501    0  0.00000000000E+00  0.00000000000E+00 -0.12367609125E+04  0.12367609125E+04  0.25500000920E-02 0. -1.
    10030    2    1    2    0    0  0.00000000000E+00  0.00000000000E+00  0.11035498925E+04  0.35770717175E+04  0.34025901467E+04 0.  0.
        5    1    3    3  502    0 -0.75711734883E+03 -0.11754360661E+04  0.15707600502E+04  0.21028993915E+04  0.46999998093E+01 0.  1.
       -5    1    3    3    0  502  0.75711734883E+03  0.11754360661E+04 -0.46721015769E+03  0.14741723260E+04  0.46999998093E+01 0. -1.
</event>
<event>
 5   0  0.2592200E-07  0.3391370E+04  0.7818609E-02  0.8140028E-01
       -1   -1    0    0    0  501  0.00000000000E+00  0.00000000000E+00  0.11225889414E+04  0.11225889414E+04  0.50400001928E-02 0. -1.
        1   -1    0    0  501    0  0.00000000000E+00  0.00000000000E+00 -0.25613536588E+04  0.25613536588E+04  0.50400001928E-02 0.  1.
    10030    2    1    2    0    0  0.00000000000E+00  0.00000000000E+00 -0.14387647174E+04  0.36839426002E+04  0.33913698072E+04 0.  0.
        4    1    3    3  502    0 -0.12887361525E+04 -0.46594693278E+03 -0.18042381445E+04  0.22656620025E+04  0.12699999809E+01 0.  1.
       -4    1    3    3    0  502  0.12887361525E+04  0.46594693278E+03  0.36547342701E+03  0.14182805977E+04  0.12699999809E+01 0. -1.
</event>
<event>
 5   0  0.2599367E-07  0.3266780E+04  0.7818609E-02  0.8171400E-01
        1   -1    0    0  501    0  0.00000000000E+00  0.00000000000E+00  0.96299277794E+03  0.96299277796E+03  0.50400001928E-02 0. -1.
       -1   -1    0    0    0  501  0.00000000000E+00  0.00000000000E+00 -0.27704916950E+04  0.27704916950E+04  0.50400001928E-02 0.  1.
    10030    2    1    2    0    0  0.00000000000E+00  0.00000000000E+00 -0.18074989170E+04  0.37334844729E+04  0.32667803683E+04 0.  0.
        2    1    3    3  502    0  0.84723306325E+03 -0.72054976233E+02 -0.24976110688E+04  0.26383814800E+04  0.25500000920E-02 0.  1.
       -2    1    3    3    0  502 -0.84723306325E+03  0.72054976233E+02  0.69011215177E+03  0.10951029929E+04  0.25500000920E-02 0. -1.
</event>
<event>
 5   0  0.2641442E-07  0.3404336E+04  0.7818609E-02  0.8136843E-01
        1   -1    0    0  501    0  0.00000000000E+00  0.00000000000E+00  0.29121336966E+04  0.29121336966E+04  0.50400001928E-02 0.  1.
       -1   -1    0    0    0  501  0.00000000000E+00  0.00000000000E+00 -0.99493238070E+03  0.99493238071E+03  0.50400001928E-02 0. -1.
    10030    2    1    2    0    0  0.00000000000E+00  0.00000000000E+00  0.19172013159E+04  0.39070660773E+04  0.34043361242E+04 0.  0.
        1    1    3    3  502    0 -0.19929991044E+03  0.13472585668E+01  0.28986962680E+04  0.29055399367E+04  0.50400001928E-02 0.  1.
       -1    1    3    3    0  502  0.19929991044E+03 -0.13472585668E+01 -0.98149495209E+03  0.10015261407E+04  0.50400001928E-02 0. -1.
</event>
<event>
 5   0  0.2553250E-07  0.3403973E+04  0.7818609E-02  0.8136932E-01
       -1   -1    0    0    0  501  0.00000000000E+00  0.00000000000E+00  0.21774968168E+04  0.21774968168E+04  0.50400001928E-02 0.  1.
        1   -1    0    0  501    0  0.00000000000E+00  0.00000000000E+00 -0.13303154984E+04  0.13303154985E+04  0.50400001928E-02 0. -1.
    10030    2    1    2    0    0  0.00000000000E+00  0.00000000000E+00  0.84718131837E+03  0.35078123153E+04  0.34039728338E+04 0.  0.
        5    1    3    3  502    0 -0.13462075306E+04  0.28342412660E+03 -0.60904140644E+03  0.15045123714E+04  0.46999998093E+01 0. -1.
       -5    1    3    3    0  502  0.13462075306E+04 -0.28342412660E+03  0.14562227248E+04  0.20032999439E+04  0.46999998093E+01 0.  1.
</event>
<event>
 5   0  0.7822003E-07  0.3392764E+04  0.7818609E-02  0.8139685E-01
        2   -1    0    0  501    0  0.00000000000E+00  0.00000000000E+00  0.16413699366E+04  0.16413699366E+04  0.25500000920E-02 0. -1.
       -2   -1    0    0    0  501  0.00000000000E+00  0.00000000000E+00 -0.17532379512E+04  0.17532379512E+04  0.25500000920E-02 0.  1.
    10030    2    1    2    0    0  0.00000000000E+00  0.00000000000E+00 -0.11186801456E+03  0.33946078878E+04  0.33927641031E+04 0.  0.
        5    1    3    3  502    0 -0.12598916622E+04 -0.43798409078E+03  0.99274479100E+03  0.16627451321E+04  0.46999998093E+01 0. -1.
       -5    1    3    3    0  502  0.12598916622E+04  0.43798409078E+03 -0.11046128056E+04  0.17318627557E+04  0.46999998093E+01 0.  1.
</event>
<event>
 5   0  0.7610412E-07  0.3379302E+04  0.7818609E-02  0.8143005E-01
        2   -1    0    0  501    0  0.00000000000E+00  0.00000000000E+00  0.28114650630E+04  0.28114650630E+04  0.25500000920E-02 0.  1.
       -2   -1    0    0    0  501  0.00000000000E+00  0.00000000000E+00 -0.10154564474E+04  0.10154564474E+04  0.25500000920E-02 0. -1.
    10030    2    1    2    0    0  0.00000000000E+00  0.00000000000E+00  0.17960086156E+04  0.38269215104E+04  0.33793018953E+04 0.  0.
        4    1    3    3  502    0  0.55221015747E+03  0.11717404588E+04  0.21266087378E+04  0.24900558422E+04  0.12699999809E+01 0.  1.
       -4    1    3    3    0  502 -0.55221015747E+03 -0.11717404588E+04 -0.33060012222E+03  0.13368656681E+04  0.12699999809E+01 0. -1.
</event>
<event>
 5   0  0.2553250E-07  0.3400291E+04  0.7818609E-02  0.8137835E-01
        1   -1    0    0  501    0  0.00000000000E+00  0.00000000000E+00  0.14348401612E+04  0.14348401613E+04  0.50400001928E-02 0. -1.
       -1   -1    0    0    0  501  0.00000000000E+00  0.00000000000E+00 -0.20145065808E+04  0.20145065808E+04  0.50400001928E-02 0.  1.
    10030    2    1    2    0    0  0.00000000000E+00  0.00000000000E+00 -0.57966641953E+03  0.34493467420E+04  0.34002911330E+04 0.  0.
        5    1    3    3  502    0  0.11447190968E+04 -0.12456399750E+04 -0.11866208878E+03  0.16959078806E+04  0.46999998093E+01 0.  1.
       -5    1    3    3    0  502 -0.11447190968E+04  0.12456399750E+04 -0.46100433076E+03  0.17534388615E+04  0.46999998093E+01 0. -1.
</event>
<event>
 5   0  0.2553250E-07  0.3392641E+04  0.7818609E-02  0.8139715E-01
        3   -1    0    0  501    0  0.00000000000E+00  0.00000000000E+00  0.18328415651E+04  0.18328415679E+04  0.10100000352E+00 0.  1.
       -3   -1    0    0    0  501  0.00000000000E+00  0.00000000000E+00 -0.15699685648E+04  0.15699685680E+04  0.10100000352E+00 0. -1.
    10030    2    1    2    0    0  0.00000000000E+00  0.00000000000E+00  0.26287300031E+03  0.34028101359E+04  0.33926412435E+04 0.  0.
        4    1    3    3  502    0  0.19358393158E+03  0.16356254778E+04  0.53855532700E+03  0.17328557053E+04  0.12699999809E+01 0.  1.
       -4    1    3    3    0  502 -0.19358393158E+03 -0.16356254778E+04 -0.27568232669E+03  0.16699544306E+04  0.12699999809E+01 0. -1.
</event>
<event>
 5   0  0.7838333E-07  0.3412334E+04  0.7818609E-02  0.8134886E-01
        2   -1    0    0  501    0  0.00000000000E+00  0.00000000000E+00  0.14623185845E+04  0.14623185845E+04  0.25500000920E-02 0. -1.
       -2   -1    0    0    0  501  0.00000000000E+00  0.00000000000E+00 -0.19906781123E+04  0.19906781123E+04  0.25500000920E-02 0.  1.
    10030    2    1    2    0    0  0.00000000000E+00  0.00000000000E+00 -0.52835952775E+03  0.34529966968E+04  0.34123338637E+04 0.  0.
        1    1    3    3  502    0 -0.24702017379E+03 -0.88598706355E+03  0.11899598320E+04  0.15039934989E+04  0.50400001928E-02 0. -1.
       -1    1    3    3    0  502  0.24702017379E+03  0.88598706355E+03 -0.17183193598E+04  0.19490031978E+04  0.50400001928E-02 0.  1.
</event>
<event>
 5   0  0.7610412E-07  0.3400004E+04  0.7818609E-02  0.8137905E-01
        2   -1    0    0  501    0  0.00000000000E+00  0.00000000000E+00  0.24331143401E+04  0.24331143401E+04  0.25500000920E-02 0.  1.
       -2   -1    0    0    0  501  0.00000000000E+00  0.00000000000E+00 -0.11877812036E+04  0.11877812036E+04  0.25500000920E-02 0. -1.
    10030    2    1    2    0    0  0.00000000000E+00  0.00000000000E+00  0.12453331365E+04  0.36208955437E+04  0.34000043996E+04 0.  0.
        4    1    3    3  502    0  0.87783132803E+03  0.65025606346E+03  0.20098194831E+04  0.22875307115E+04  0.12699999809E+01 0.  1.
       -4    1    3    3    0  502 -0.87783132803E+03 -0.65025606346E+03 -0.76448634662E+03  0.13333648322E+04  0.12699999809E+01 0. -1.
</event>
<event>
 5   0  0.7610412E-07  0.3394976E+04  0.7818609E-02  0.8139140E-01
       -2   -1    0    0    0  501  0.00000000000E+00  0.00000000000E+00  0.11160838564E+04  0.11160838564E+04  0.25500000920E-02 0.  1.
        2   -1    0    0  501    0  0.00000000000E+00  0.00000000000E+00 -0.25817650508E+04  0.25817650508E+04  0.25500000920E-02 0. -1.
    10030    2    1    2    0    0  0.00000000000E+00  0.00000000000E+00 -0.14656811945E+04  0.36978489072E+04  0.33949764618E+04 0.  0.
        4    1    3    3  502    0  0.63262036298E+03  0.10904335130E+04 -0.19710072310E+04  0.23396847838E+04  0.12699999809E+01 0. -1.
       -4    1    3    3    0  502 -0.63262036298E+03 -0.10904335130E+04  0.50532603659E+03  0.13581641234E+04  0.12699999809E+01 0.  1.
</event>
<event>
 5   0  0.2592200E-07  0.3422730E+04  0.7818609E-02  0.8132350E-01
       -1   -1    0    0    0  501  0.00000000000E+00  0.00000000000E+00  0.29182645246E+04  0.29182645246E+04  0.50400001928E-02 0. -1.
        1   -1    0    0  501    0  0.00000000000E+00  0.00000000000E+00 -0.10035999156E+04  0.10035999156E+04  0.50400001928E-02 0.  1.
    10030    2    1    2    0    0  0.00000000000E+00  0.00000000000E+00  0.19146646090E+04  0.39218644402E+04  0.34227299224E+04 0.  0.
        4    1    3    3  502    0  0.77519717964E+03  0.12202553957E+04  0.20067609538E+04  0.24732660667E+04  0.12699999809E+01 0. -1.
       -4    1    3    3    0  502 -0.77519717964E+03 -0.12202553957E+04 -0.92096344769E+02  0.14485983735E+04  0.12699999809E+01 0.  1.
</event>
<event>
 5   0  0.2622205E-07  0.3409517E+04  0.7818609E-02  0.8135575E-01
       -1   -1    0    0    0  501  0.00000000000E+00  0.00000000000E+00  0.18851311277E+04  0.18851311277E+04  0.50400001928E-02 0.  1.
        1   -1    0    0  501    0  0.00000000000E+00  0.00000000000E+00 -0.15416440947E+04  0.15416440947E+04  0.50400001928E-02 0. -1.
    10030    2    1    2    0    0  0.00000000000E+00  0.00000000000E+00  0.34348703304E+03  0.34267752225E+04  0.34095168402E+04 0.  0.
        3    1    3    3  502    0 -0.15868503200E+04 -0.40340577356E+03 -0.30539216398E+03  0.16655613289E+04  0.10100000352E+00 0.  1.
       -3    1    3    3    0  502  0.15868503200E+04  0.40340577356E+03  0.64887919702E+03  0.17612138936E+04  0.10100000352E+00 0. -1.
</event>
<event>
 5   0  0.2622205E-07  0.3433025E+04  0.7818609E-02  0.8129848E-01
       -1   -1    0    0    0  501  0.00000000000E+00  0.00000000000E+00  0.14349166094E+04  0.14349166094E+04  0.50400001928E-02 0. -1.
        1   -1    0    0  501    0  0.00000000000E+00  0.00000000000E+00 -0.20533704051E+04  0.20533704051E+04  0.50400001928E-02 0.  1.
    10030    2    1    2    0    0  0.00000000000E+00  0.00000000000E+00 -0.61845379573E+03  0.34882870145E+04  0.34330250798E+04 0.  0.
        3    1    3    3  502    0  0.54899889105E+03 -0.14029208006E+04 -0.11451659782E+04  0.18923508351E+04  0.10100000352E+00 0.  1.
       -3    1    3    3    0  502 -0.54899889105E+03  0.14029208006E+04  0.52671218252E+03  0.15959361794E+04  0.10100000352E+00 0. -1.
</event>
<event>
 5   0  0.7610412E-07  0.3388703E+04  0.7818609E-02  0.8140684E-01
        2   -1    0    0  501    0  0.00000000000E+00  0.00000000000E+00  0.26369207317E+04  0.26369207317E+04  0.25500000920E-02 0.  1.
       -2   -1    0    0    0  501  0.00000000000E+00  0.00000000000E+00 -0.10887045421E+04  0.10887045421E+04  0.25500000920E-02 0. -1.
    10030    2    1    2    0    0  0.00000000000E+00  0.00000000000E+00  0.15482161896E+04  0.37256252738E+04  0.33887033377E+04 0.  0.
        4    1    3    3  502    0  0.45519729670E+03  0.15482408705E+04  0.13417475233E+04  0.20987001695E+04  0.12699999809E+01 0.  1.
       -4    1    3    3    0  502 -0.45519729670E+03 -0.15482408705E+04  0.20646866625E+03  0.16269251043E+04  0.12699999809E+01 0. -1.
</event>
<event>
 5   0  0.2592200E-07  0.3369785E+04  0.7818609E-02  0.8145362E-01
        1   -1    0    0  501    0  0.00000000000E+00  0.00000000000E+00  0.22844143178E+04  0.22844143178E+04  0.50400001928E-02 0.  1.
       -1   -1    0    0    0  501  0.00000000000E+00  0.00000000000E+00 -0.12427090106E+04  0.12427090106E+04  0.50400001928E-02 0. -1.
    10030    2    1    2    0    0  0.00000000000E+00  0.00000000000E+00  0.10417053072E+04  0.35271233284E+04  0.33697847152E+04 0.  0.
        4    1    3    3  502    0 -0.73203154049E+03  0.13177121006E+04  0.13087442449E+04  0.19962586174E+04  0.12699999809E+01 0.  1.
       -4    1    3    3    0  502  0.73203154049E+03 -0.13177121006E+04 -0.26703893766E+03  0.15308647110E+04  0.12699999809E+01 0. -1.
</event>
<event>
 5   0  0.7838333E-07  0.3420069E+04  0.7818609E-02  0.8132998E-01
       -2   -1    0    0    0  501  0.00000000000E+00  0.00000000000E+00  0.15008868767E+04  0.15008868767E+04  0.25500000920E-02 0. -1.
        2   -1    0    0  501    0  0.00000000000E+00  0.00000000000E+00 -0.19483262246E+04  0.19483262246E+04  0.25500000920E-02 0.  1.
    10030    2    1    2    0    0  0.00000000000E+00  0.00000000000E+00 -0.44743934795E+03  0.34492131013E+04  0.34200685736E+04 0.  0.
        1    1    3    3  502    0  0.15425212541E+04  0.52052736480E+03 -0.75153089272E+03  0.17930753581E+04  0.50400001928E-02 0.  1.
       -1    1    3    3    0  502 -0.15425212541E+04 -0.52052736480E+03  0.30409154477E+03  0.16561377432E+04  0.50400001928E-02 0. -1.
</event>
<event>
 5   0  0.2553250E-07  0.3398958E+04  0.7818609E-02  0.8138162E-01
       -1   -1    0    0    0  501  0.00000000000E+00  0.00000000000E+00  0.18935612115E+04  0.18935612115E+04  0.50400001928E-02 0.  1.
        1   -1    0    0  501    0  0.00000000000E+00  0.00000000000E+00 -0.15252894352E+04  0.15252894352E+04  0.50400001928E-02 0. -1.
    10030    2    1    2    0    0  0.00000000000E+00  0.00000000000E+00  0.36827177630E+03  0.34188506467E+04  0.33989580232E+04 0.  0.
        5    1    3    3  502    0  0.54611606178E+03  0.16089173122E+04  0.14719013518E+03  0.17054456005E+04  0.46999998093E+01 0. -1.
       -5    1    3    3    0  502 -0.54611606178E+03 -0.16089173122E+04  0.22108164112E+03  0.17134050462E+04  0.46999998093E+01 0.  1.
</event>
<event>
 5   0  0.8489228E-07  0.3413452E+04  0.7818609E-02  0.8134613E-01
       -2   -1    0    0    0  501  0.00000000000E+00  0.00000000000E+00  0.23706368257E+04  0.23706368257E+04  0.25500000920E-02 0. -1.
        2   -1    0    0  501    0  0.00000000000E+00  0.00000000000E+00 -0.12287475035E+04  0.12287475035E+04  0.25500000920E-02 0.  1.
    10030    2    1    2    0    0  0.00000000000E+00  0.00000000000E+00  0.11418893222E+04  0.35993843292E+04  0.34134522591E+04 0.  0.
        3    1    3    3  502    0  0.10616979318E+04  0.13362755633E+04  0.58032836718E+03  0.18026691053E+04  0.10100000352E+00 0. -1.
       -3    1    3    3    0  502 -0.10616979318E+04 -0.13362755633E+04  0.56156095500E+03  0.17967152239E+04  0.10100000352E+00 0.  1.
</event>
<event>
 5   0  0.7838333E-07  0.3413246E+04  0.7818609E-02  0.8134663E-01
       -2   -1    0    0    0  501  0.00000000000E+00  0.00000000000E+00  0.11509700908E+04  0.11509700908E+04  0.25500000920E-02 0.  1.
        2   -1    0    0  501    0  0.00000000000E+00  0.00000000000E+00 -0.25305282894E+04  0.25305282894E+04  0.25500000920E-02 0. -1.
    10030    2    1    2    0    0  0.00000000000E+00  0.00000000000E+00 -0.13795581986E+04  0.36814983802E+04  0.34132461821E+04 0.  0.
        1    1    3    3  502    0  0.32793172200E+03  0.21166274259E+03 -0.24817419853E+04  0.25122467261E+04  0.50400001928E-02 0. -1.
       -1    1    3    3    0  502 -0.32793172200E+03 -0.21166274259E+03  0.11021837867E+04  0.11692516541E+04  0.50400001928E-02 0.  1.
</event>
<event>
 5   0  0.2553250E-07  0.3402295E+04  0.7818609E-02  0.8137343E-01
       -1   -1    0    0    0  501  0.00000000000E+00  0.00000000000E+00  0.10113616303E+04  0.10113616303E+04  0.50400001928E-02 0. -1.
        1   -1    0    0  501    0  0.00000000000E+00  0.00000000000E+00 -0.28613920387E+04  0.28613920387E+04  0.50400001928E-02 0.  1.
    10030    2    1    2    0    0  0.00000000000E+00  0.00000000000E+00 -0.18500304084E+04  0.38727536690E+04  0.34022945888E+04 0.  0.
        5    1    3    3  502    0 -0.71968122087E+03 -0.10411899225E+04  0.36875190966E+03  0.13183389456E+04  0.46999998093E+01 0. -1.
       -5    1    3    3    0  502  0.71968122087E+03  0.10411899225E+04 -0.22187823181E+04  0.25544147235E+04  0.46999998093E+01 0.  1.
</event>
<event>
 5   0  0.2599367E-07  0.3388927E+04  0.7818609E-02  0.8140629E-01
       -1   -1    0    0    0  501  0.00000000000E+00  0.00000000000E+00  0.14021540525E+04  0.14021540525E+04  0.50400001928E-02 0. -1.
        1   -1    0    0  501    0  0.00000000000E+00  0.00000000000E+00 -0.20477116544E+04  0.20477116544E+04  0.50400001928E-02 0.  1.
    10030    2    1    2    0    0  0.00000000000E+00  0.00000000000E+00 -0.64555760191E+03  0.34498657069E+04  0.33889273787E+04 0.  0.
        2    1    3    3  502    0  0.73567533458E+03 -0.58986892128E+03 -0.17559449269E+04  0.19931146802E+04  0.25500000920E-02 0.  1.
       -2    1    3    3    0  502 -0.73567533458E+03  0.58986892128E+03  0.11103873250E+04  0.14567510267E+04  0.25500000920E-02 0. -1.
</event>
<event>
 5   0  0.7899402E-07  0.3376456E+04  0.7818609E-02  0.8143709E-01
        2   -1    0    0  501    0  0.00000000000E+00  0.00000000000E+00  0.24616387413E+04  0.24616387413E+04  0.25500000920E-02 0. -1.
       -2   -1    0    0    0  501  0.00000000000E+00  0.00000000000E+00 -0.11578115324E+04  0.11578115324E+04  0.25500000920E-02 0.  1.
    10030    2    1    2    0    0  0.00000000000E+00  0.00000000000E+00  0.13038272089E+04  0.36194502737E+04  0.33764559664E+04 0.  0.
        2    1    3    3  502    0 -0.15453826838E+04 -0.37486139073E+03  0.44206462514E+02  0.15908120294E+04  0.25500000920E-02 0. -1.
       -2    1    3    3    0  502  0.15453826838E+04  0.37486139073E+03  0.12596207464E+04  0.20286382443E+04  0.25500000920E-02 0.  1.
</event>
<event>
 5   0  0.7899402E-07  0.3392988E+04  0.7818609E-02  0.8139629E-01
        2   -1    0    0  501    0  0.00000000000E+00  0.00000000000E+00  0.16165259508E+04  0.16165259508E+04  0.25500000920E-02 0. -1.
       -2   -1    0    0    0  501  0.00000000000E+00  0.00000000000E+00 -0.17804183214E+04  0.17804183214E+04  0.25500000920E-02 0.  1.
    10030    2    1    2    0    0  0.00000000000E+00  0.00000000000E+00 -0.16389237059E+03  0.33969442721E+04  0.33929883110E+04 0.  0.
        2    1    3    3  502    0 -0.27143850027E+03 -0.80179776314E+03  0.13899835709E+04  0.16274559410E+04  0.25500000920E-02 0. -1.
       -2    1    3    3    0  502  0.27143850027E+03  0.80179776314E+03 -0.15538759415E+04  0.17694883311E+04  0.25500000920E-02 0.  1.
</event>
<event>
 5   0  0.2622205E-07  0.3406878E+04  0.7818609E-02  0.8136220E-01
        1   -1    0    0  501    0  0.00000000000E+00  0.00000000000E+00  0.16348023974E+04  0.16348023974E+04  0.50400001928E-02 0.  1.
       -1   -1    0    0    0  501  0.00000000000E+00  0.00000000000E+00 -0.17749574590E+04  0.17749574590E+04  0.50400001928E-02 0. -1.
    10030    2    1    2    0    0  0.00000000000E+00  0.00000000000E+00 -0.14015506154E+03  0.34097598564E+04  0.34068781659E+04 0.  0.
        3    1    3    3  502    0 -0.13903227461E+04  0.96192800356E+03  0.13842985593E+03  0.16963094227E+04  0.10100000352E+00 0.  1.
       -3    1    3    3    0  502  0.13903227461E+04 -0.96192800356E+03 -0.27858491747E+03  0.17134504337E+04  0.10100000352E+00 0. -1.
</event>
<event>
 5   0  0.2599367E-07  0.3255455E+04  0.7818609E-02  0.8174323E-01
        1   -1    0    0  501    0  0.00000000000E+00  0.00000000000E+00  0.21256245093E+04  0.21256245093E+04  0.50400001928E-02 0.  1.
       -1   -1    0    0    0  501  0.00000000000E+00  0.00000000000E+00 -0.12464553477E+04  0.12464553477E+04  0.50400001928E-02 0. -1.
    10030    2    1    2    0    0  0.00000000000E+00  0.00000000000E+00  0.87916916159E+03  0.33720798571E+04  0.32554545224E+04 0.  0.
        2    1    3    3  502    0  0.90308182506E+02  0.83192549593E+03 -0.10065840085E+04  0.13089946390E+04  0.25500000920E-02 0. -1.
       -2    1    3    3    0  502 -0.90308182506E+02 -0.83192549593E+03  0.18857531701E+04  0.20630852181E+04  0.25500000920E-02 0.  1.
</event>
<event>
 5   0  0.7838333E-07  0.3327594E+04  0.7818609E-02  0.8155909E-01
       -2   -1    0    0    0  501  0.00000000000E+00  0.00000000000E+00  0.18996228311E+04  0.18996228311E+04  0.25500000920E-02 0. -1.
        2   -1    0    0  501    0  0.00000000000E+00  0.00000000000E+00 -0.14572472542E+04  0.14572472542E+04  0.25500000920E-02 0.  1.
    10030    2    1    2    0    0  0.00000000000E+00  0.00000000000E+00  0.44237557689E+03  0.33568700854E+04  0.33275938182E+04 0.  0.
        1    1    3    3  502    0  0.50493988153E+03 -0.90060037225E+03 -0.10949650010E+04  0.15049895906E+04  0.50400001928E-02 0.  1.
       -1    1    3    3    0  502 -0.50493988153E+03  0.90060037225E+03  0.15373405779E+04  0.18518804948E+04  0.50400001928E-02 0. -1.
</event>
<event>
 5   0  0.2592200E-07  0.3381593E+04  0.7818609E-02  0.8142439E-01
        1   -1    0    0  501    0  0.00000000000E+00  0.00000000000E+00  0.11704506198E+04  0.11704506198E+04  0.50400001928E-02 0.  1.
       -1   -1    0    0    0  501  0.00000000000E+00  0.00000000000E+00 -0.24424721526E+04  0.24424721526E+04  0.50400001928E-02 0. -1.
    10030    2    1    2    0    0  0.00000000000E+00  0.00000000000E+00 -0.12720215328E+04  0.36129227724E+04  0.33815931422E+04 0.  0.
        4    1    3    3  502    0 -0.10787722287E+04  0.98594903614E+02  0.75099617589E+03  0.13181302461E+04  0.12699999809E+01 0.  1.
       -4    1    3    3    0  502  0.10787722287E+04 -0.98594903614E+02 -0.20230177087E+04  0.22947925263E+04  0.12699999809E+01 0. -1.
</event>
<event>
 5   0  0.7838333E-07  0.3343746E+04  0.7818609E-02  0.8151853E-01
       -2   -1    0    0    0  501  0.00000000000E+00  0.00000000000E+00  0.14237616750E+04  0.14237616750E+04  0.25500000920E-02 0. -1.
        2   -1    0    0  501    0  0.00000000000E+00  0.00000000000E+00 -0.19632209792E+04  0.19632209792E+04  0.25500000920E-02 0.  1.
    10030    2    1    2    0    0  0.00000000000E+00  0.00000000000E+00 -0.53945930427E+03  0.33869826542E+04  0.33437456780E+04 0.  0.
        1    1    3    3  502    0  0.41398630137E+03 -0.15568549701E+03 -0.19028856333E+04  0.19536111090E+04  0.50400001928E-02 0.  1.
       -1    1    3    3    0  502 -0.41398630137E+03  0.15568549701E+03  0.13634263291E+04  0.14333715452E+04  0.50400001928E-02 0. -1.
</event>
<event>
 5   0  0.2641442E-07  0.3449556E+04  0.7818609E-02  0.8125850E-01
        1   -1    0    0  501    0  0.00000000000E+00  0.00000000000E+00  0.20365208809E+04  0.20365208809E+04  0.50400001928E-02 0. -1.
       -1   -1    0    0    0  501  0.00000000000E+00  0.00000000000E+00 -0.14607558890E+04  0.14607558890E+04  0.50400001928E-02 0.  1.
    10030    2    1    2    0    0  0.00000000000E+00  0.00000000000E+00  0.57576499183E+03  0.34972767699E+04  0.34495564178E+04 0.  0.
        1    1    3    3  502    0  0.62511470736E+03  0.56034270211E+03  0.18154132594E+04  0.20001194073E+04  0.50400001928E-02 0. -1.
       -1    1    3    3    0  502 -0.62511470736E+03 -0.56034270211E+03 -0.12396482675E+04  0.14971573626E+04  0.50400001928E-02 0.  1.
</event>
<event>
 5   0  0.7610412E-07  0.3417785E+04  0.7818609E-02  0.8133555E-01
        2   -1    0    0  501    0  0.00000000000E+00  0.00000000000E+00  0.10460978306E+04  0.10460978306E+04  0.25500000920E-02 0.  1.
       -2   -1    0    0    0  501  0.00000000000E+00  0.00000000000E+00 -0.27916256692E+04  0.27916256692E+04  0.25500000920E-02 0. -1.
    10030    2    1    2    0    0  0.00000000000E+00  0.00000000000E+00 -0.17455278386E+04  0.38377234998E+04  0.34177849882E+04 0.  0.
        4    1    3    3  502    0  0.16155276784E+04  0.18833353706E+03 -0.28402007567E+03  0.16510809239E+04  0.12699999809E+01 0.  1.
       -4    1    3    3    0  502 -0.16155276784E+04 -0.18833353706E+03 -0.14615077630E+04  0.21866425759E+04  0.12699999809E+01 0. -1.
</event>
<event>
 5   0  0.2553250E-07  0.3404842E+04  0.7818609E-02  0.8136719E-01
        3   -1    0    0  501    0  0.00000000000E+00  0.00000000000E+00  0.16431164873E+04  0.16431164904E+04  0.10100000352E+00 0.  1.
       -3   -1    0    0    0  501  0.00000000000E+00  0.00000000000E+00 -0.17638663676E+04  0.17638663705E+04  0.10100000352E+00 0. -1.
    10030    2    1    2    0    0  0.00000000000E+00  0.00000000000E+00 -0.12074988035E+03  0.34069828609E+04  0.34048423871E+04 0.  0.
        4    1    3    3  502    0 -0.11303905606E+04  0.40070713583E+03  0.11486425904E+04  0.16606415753E+04  0.12699999809E+01 0.  1.
       -4    1    3    3    0  502  0.11303905606E+04 -0.40070713583E+03 -0.12693924708E+04  0.17463412856E+04  0.12699999809E+01 0. -1.
</event>
<event>
 5   0  0.8489228E-07  0.3394513E+04  0.7818609E-02  0.8139254E-01
        2   -1    0    0  501    0  0.00000000000E+00  0.00000000000E+00  0.18307034192E+04  0.18307034192E+04  0.25500000920E-02 0.  1.
       -2   -1    0    0    0  501  0.00000000000E+00  0.00000000000E+00 -0.15735374825E+04  0.15735374825E+04  0.25500000920E-02 0. -1.
    10030    2    1    2    0    0  0.00000000000E+00  0.00000000000E+00  0.25716593668E+03  0.34042409018E+04  0.33945134848E+04 0.  0.
        3    1    3    3  502    0  0.23734225698E+03  0.15590178014E+04 -0.50076023129E+03  0.16545780947E+04  0.10100000352E+00 0. -1.
       -3    1    3    3    0  502 -0.23734225698E+03 -0.15590178014E+04  0.75792616797E+03  0.17496628070E+04  0.10100000352E+00 0.  1.
</event>
<event>
 5   0  0.7899402E-07  0.3449692E+04  0.7818609E-02  0.8125817E-01
        2   -1    0    0  501    0  0.00000000000E+00  0.00000000000E+00  0.16334694695E+04  0.16334694695E+04  0.25500000920E-02 0. -1.
       -2   -1    0    0    0  501  0.00000000000E+00  0.00000000000E+00 -0.18213336304E+04  0.18213336304E+04  0.25500000920E-02 0.  1.
    10030    2    1    2    0    0  0.00000000000E+00  0.00000000000E+00 -0.18786416092E+03  0.34548030999E+04  0.34496915103E+04 0.  0.
        2    1    3    3  502    0  0.26289057120E+03  0.26266316254E+03 -0.17807643638E+04  0.18191275680E+04  0.25500000920E-02 0.  1.
       -2    1    3    3    0  502 -0.26289057120E+03 -0.26266316254E+03  0.15929002028E+04  0.16356755319E+04  0.25500000920E-02 0. -1.
</event>
<event>
 5   0  0.7838333E-07  0.3403777E+04  0.7818609E-02  0.8136980E-01
       -2   -1    0    0    0  501  0.00000000000E+00  0.00000000000E+00  0.97898993072E+03  0.97898993072E+03  0.25500000920E-02 0. -1.
        2   -1    0    0  501    0  0.00000000000E+00  0.00000000000E+00 -0.29585850066E+04  0.29585850066E+04  0.25500000920E-02 0.  1.
    10030    2    1    2    0    0  0.00000000000E+00  0.00000000000E+00 -0.19795950759E+04  0.39375749374E+04  0.34037772728E+04 0.  0.
        1    1    3    3  502    0 -0.12433018527E+04 -0.61198262221E+03  0.15312147067E+03  0.13941909524E+04  0.50400001928E-02 0. -1.
       -1    1    3    3    0  502  0.12433018527E+04  0.61198262221E+03 -0.21327165466E+04  0.25433839850E+04  0.50400001928E-02 0.  1.
</event>
<event>
 5   0  0.2592200E-07  0.3385253E+04  0.7818609E-02  0.8141535E-01
       -1   -1    0    0    0  501  0.00000000000E+00  0.00000000000E+00  0.17842220704E+04  0.17842220704E+04  0.50400001928E-02 0. -1.
        1   -1    0    0  501    0  0.00000000000E+00  0.00000000000E+00 -0.16057332262E+04  0.16057332262E+04  0.50400001928E-02 0.  1.
    10030    2    1    2    0    0  0.00000000000E+00  0.00000000000E+00  0.17848884419E+03  0.33899552966E+04  0.33852531139E+04 0.  0.
        4    1    3    3  502    0  0.68552755280E+03 -0.69721487770E+03 -0.12943137416E+04  0.16221301692E+04  0.12699999809E+01 0.  1.
       -4    1    3    3    0  502 -0.68552755280E+03  0.69721487770E+03  0.14728025858E+04  0.17678251274E+04  0.12699999809E+01 0. -1.
</event>
<event>
 5   0  0.7899402E-07  0.3232797E+04  0.7818609E-02  0.8180209E-01
       -2   -1    0    0    0  501  0.00000000000E+00  0.00000000000E+00  0.97261316319E+03  0.97261316319E+03  0.25500000920E-02 0. -1.
        2   -1    0    0  501    0  0.00000000000E+00  0.00000000000E+00 -0.26863135678E+04  0.26863135678E+04  0.25500000920E-02 0.  1.
    10030    2    1    2    0    0  0.00000000000E+00  0.00000000000E+00 -0.17137004046E+04  0.36589267310E+04  0.32327968922E+04 0.  0.
        2    1    3    3  502    0  0.83397248981E+03 -0.94021569045E+02  0.70669084717E+03  0.10971609375E+04  0.25500000920E-02 0. -1.
       -2    1    3    3    0  502 -0.83397248981E+03  0.94021569045E+02 -0.24203912518E+04  0.25617657936E+04  0.25500000920E-02 0.  1.
</event>
<event>
 5   0  0.2622205E-07  0.3372991E+04  0.7818609E-02  0.8144567E-01
        1   -1    0    0  501    0  0.00000000000E+00  0.00000000000E+00  0.25021003227E+04  0.25021003228E+04  0.50400001928E-02 0.  1.
       -1   -1    0    0    0  501  0.00000000000E+00  0.00000000000E+00 -0.11367519552E+04  0.11367519552E+04  0.50400001928E-02 0. -1.
    10030    2    1    2    0    0  0.00000000000E+00  0.00000000000E+00  0.13653483675E+04  0.36388522780E+04  0.33729912150E+04 0.  0.
        3    1    3    3  502    0 -0.36169234100E+03 -0.52325989213E+03  0.23677232340E+04  0.24516801560E+04  0.10100000352E+00 0.  1.
       -3    1    3    3    0  502  0.36169234100E+03  0.52325989213E+03 -0.10023748664E+04  0.11871721220E+04  0.10100000352E+00 0. -1.
</event>
<event>
 5   0  0.2592200E-07  0.3364973E+04  0.7818609E-02  0.8146557E-01
        1   -1    0    0  501    0  0.00000000000E+00  0.00000000000E+00  0.20846120697E+04  0.20846120697E+04  0.50400001928E-02 0.  1.
       -1   -1    0    0    0  501  0.00000000000E+00  0.00000000000E+00 -0.13579319655E+04  0.13579319655E+04  0.50400001928E-02 0. -1.
    10030    2    1    2    0    0  0.00000000000E+00  0.00000000000E+00  0.72668010422E+03  0.34425440352E+04  0.33649733224E+04 0.  0.
        4    1    3    3  502    0 -0.26270728330E+03  0.16618496843E+04  0.36281604578E+03  0.17211614061E+04  0.12699999809E+01 0.  1.
       -4    1    3    3    0  502  0.26270728330E+03 -0.16618496843E+04  0.36386405845E+03  0.17213826291E+04  0.12699999809E+01 0. -1.
</event>
<event>
 5   0  0.2599367E-07  0.3390442E+04  0.7818609E-02  0.8140256E-01
       -1   -1    0    0    0  501  0.00000000000E+00  0.00000000000E+00  0.15901808571E+04  0.15901808571E+04  0.50400001928E-02 0. -1.
        1   -1    0    0  501    0  0.00000000000E+00  0.00000000000E+00 -0.18071997591E+04  0.18071997591E+04  0.50400001928E-02 0.  1.
    10030    2    1    2    0    0  0.00000000000E+00  0.00000000000E+00 -0.21701890193E+03  0.33973806162E+04  0.33904421316E+04 0.  0.
        2    1    3    3  502    0 -0.16434275432E+03 -0.62973421540E+03 -0.16770245425E+04  0.17988843874E+04  0.25500000920E-02 0.  1.
       -2    1    3    3    0  502  0.16434275432E+03  0.62973421540E+03  0.14600056406E+04  0.15984962288E+04  0.25500000920E-02 0. -1.
</event>
<event>
 5   0  0.2553250E-07  0.3399987E+04  0.7818609E-02  0.8137910E-01
       -1   -1    0    0    0  501  0.00000000000E+00  0.00000000000E+00  0.12031211022E+04  0.12031211022E+04  0.50400001928E-02 0.  1.
        1   -1    0    0  501    0  0.00000000000E+00  0.00000000000E+00 -0.24020673658E+04  0.24020673658E+04  0.50400001928E-02 0. -1.
    10030    2    1    2    0    0  0.00000000000E+00  0.00000000000E+00 -0.11989462636E+04  0.36051884680E+04  0.33999870215E+04 0.  0.
        5    1    3    3  502    0 -0.35820148972E+03 -0.39538238066E+03  0.11120441026E+04  0.12334097901E+04  0.46999998093E+01 0.  1.
       -5    1    3    3    0  502  0.35820148972E+03  0.39538238066E+03 -0.23109903662E+04  0.23717786779E+04  0.46999998093E+01 0. -1.
</event>
<event>
 5   0  0.7838333E-07  0.3355136E+04  0.7818609E-02  0.8149006E-01
        2   -1    0    0  501    0  0.00000000000E+00  0.00000000000E+00  0.16733172596E+04  0.16733172596E+04  0.25500000920E-02 0.  1.
       -2   -1    0    0    0  501  0.00000000000E+00  0.00000000000E+00 -0.16818292437E+04  0.16818292437E+04  0.25500000920E-02 0. -1.
    10030    2    1    2    0    0  0.00000000000E+00  0.00000000000E+00 -0.85119841405E+01  0.33551465032E+04  0.33551357058E+04 0.  0.
        1    1    3    3  502    0  0.67227962237E+02 -0.39375253076E+03 -0.16335780392E+04  0.16817068307E+04  0.50400001928E-02 0. -1.
       -1    1    3    3    0  502 -0.67227962237E+02  0.39375253076E+03  0.16250660550E+04  0.16734396725E+04  0.50400001928E-02 0.  1.
</event>
<event>
 5   0  0.7610412E-07  0.3395406E+04  0.7818609E-02  0.8139035E-01
       -2   -1    0    0    0  501  0.00000000000E+00  0.00000000000E+00  0.12997545903E+04  0.12997545903E+04  0.25500000920E-02 0.  1.
        2   -1    0    0  501    0  0.00000000000E+00  0.00000000000E+00 -0.22174925207E+04  0.22174925207E+04  0.25500000920E-02 0. -1.
    10030    2    1    2    0    0  0.00000000000E+00  0.00000000000E+00 -0.91773793034E+03  0.35172471110E+04  0.33954063573E+04 0.  0.
        4    1    3    3  502    0 -0.15763397456E+04  0.24267110651E+02 -0.11113596108E+04  0.19288747195E+04  0.12699999809E+01 0. -1.
       -4    1    3    3    0  502  0.15763397456E+04 -0.24267110651E+02  0.19362168047E+03  0.15883723915E+04  0.12699999809E+01 0.  1.
</event>
<event>
 5   0  0.8489228E-07  0.3401577E+04  0.7818609E-02  0.8137519E-01
        2   -1    0    0  501    0  0.00000000000E+00  0.00000000000E+00  0.17000826433E+04  0.17000826433E+04  0.25500000920E-02 0.  1.
       -2   -1    0    0    0  501  0.00000000000E+00  0.00000000000E+00 -0.17014944625E+04  0.17014944625E+04  0.25500000920E-02 0. -1.
    10030    2    1    2    0    0  0.00000000000E+00  0.00000000000E+00 -0.14118191779E+01  0.34015771058E+04  0.34015768128E+04 0.  0.
        3    1    3    3  502    0 -0.23262044122E+03 -0.78157349176E+03  0.14918463288E+04  0.17001690714E+04  0.10100000352E+00 0.  1.
       -3    1    3    3    0  502  0.23262044122E+03  0.78157349176E+03 -0.14932581479E+04  0.17014080343E+04  0.10100000352E+00 0. -1.
</event>
<event>
 5   0  0.2599367E-07  0.3426149E+04  0.7818609E-02  0.8131518E-01
        1   -1    0    0  501    0  0.00000000000E+00  0.00000000000E+00  0.18800933456E+04  0.18800933456E+04  0.50400001928E-02 0.  1.
       -1   -1    0    0    0  501  0.00000000000E+00  0.00000000000E+00 -0.15608932726E+04  0.15608932726E+04  0.50400001928E-02 0. -1.
    10030    2    1    2    0    0  0.00000000000E+00  0.00000000000E+00  0.31920007305E+03  0.34409866182E+04  0.34261494743E+04 0.  0.
        2    1    3    3  502    0 -0.78527607405E+03 -0.65942026400E+03 -0.12186150407E+04  0.15926444093E+04  0.25500000920E-02 0. -1.
       -2    1    3    3    0  502  0.78527607405E+03  0.65942026400E+03  0.15378151138E+04  0.18483422089E+04  0.25500000920E-02 0.  1.
</event>
<event>
 5   0  0.2599367E-07  0.3404330E+04  0.7818609E-02  0.8136844E-01
       -1   -1    0    0    0  501  0.00000000000E+00  0.00000000000E+00  0.12392920282E+04  0.12392920282E+04  0.50400001928E-02 0. -1.
        1   -1    0    0  501    0  0.00000000000E+00  0.00000000000E+00 -0.23379196773E+04  0.23379196773E+04  0.50400001928E-02 0.  1.
    10030    2    1    2    0    0  0.00000000000E+00  0.00000000000E+00 -0.10986276491E+04  0.35772117056E+04  0.34043297248E+04 0.  0.
        2    1    3    3  502    0 -0.15534709868E+03 -0.15132528652E+04  0.25321080200E+03  0.15421357480E+04  0.25500000920E-02 0. -1.
       -2    1    3    3    0  502  0.15534709868E+03  0.15132528652E+04 -0.13518384511E+04  0.20350759575E+04  0.25500000920E-02 0.  1.
</event>
<event>
 5   0  0.2553250E-07  0.3425300E+04  0.7818609E-02  0.8131725E-01
       -3   -1    0    0    0  501  0.00000000000E+00  0.00000000000E+00  0.13427369312E+04  0.13427369350E+04  0.10100000352E+00 0.  1.
        3   -1    0    0  501    0  0.00000000000E+00  0.00000000000E+00 -0.21844706363E+04  0.21844706386E+04  0.10100000352E+00 0. -1.
    10030    2    1    2    0    0  0.00000000000E+00  0.00000000000E+00 -0.84173370505E+03  0.35272075736E+04  0.34252996419E+04 0.  0.
        3    1    3    3  502    0 -0.14592418226E+04  0.38003262881E+03 -0.12570339170E+04  0.19631469060E+04  0.10100000352E+00 0. -1.
       -3    1    3    3    0  502  0.14592418226E+04 -0.38003262881E+03  0.41530021197E+03  0.15640606676E+04  0.10100000352E+00 0.  1.
</event>
<event>
 5   0  0.2553250E-07  0.3391314E+04  0.7818609E-02  0.8140041E-01
        3   -1    0    0  501    0  0.00000000000E+00  0.00000000000E+00  0.13691965789E+04  0.13691965826E+04  0.10100000352E+00 0.  1.
       -3   -1    0    0    0  501  0.00000000000E+00  0.00000000000E+00 -0.20999565849E+04  0.20999565873E+04  0.10100000352E+00 0. -1.
    10030    2    1    2    0    0  0.00000000000E+00  0.00000000000E+00 -0.73076000601E+03  0.34691531700E+04  0.33913144252E+04 0.  0.
        4    1    3    3  502    0 -0.70242321834E+03 -0.15428818855E+04 -0.40322757543E+03  0.17425489895E+04  0.12699999809E+01 0.  1.
       -4    1    3    3    0  502  0.70242321834E+03  0.15428818855E+04 -0.32753243058E+03  0.17266041805E+04  0.12699999809E+01 0. -1.
</event>
<event>
 5   0  0.2592200E-07  0.3395042E+04  0.7818609E-02  0.8139124E-01
        1   -1    0    0  501    0  0.00000000000E+00  0.00000000000E+00  0.21549671136E+04  0.21549671136E+04  0.50400001928E-02 0. -1.
       -1   -1    0    0    0  501  0.00000000000E+00  0.00000000000E+00 -0.13371796797E+04  0.13371796797E+04  0.50400001928E-02 0.  1.
    10030    2    1    2    0    0  0.00000000000E+00  0.00000000000E+00  0.81778743384E+03  0.34921467933E+04  0.33950424061E+04 0.  0.
        4    1    3    3  502    0  0.14255318049E+04 -0.19565418598E+02 -0.53890182152E+03  0.15241195880E+04  0.12699999809E+01 0.  1.
       -4    1    3    3    0  502 -0.14255318049E+04  0.19565418598E+02  0.13566892554E+04  0.19680272053E+04  0.12699999809E+01 0. -1.
</event>
<event>
 5   0  0.2641442E-07  0.3366368E+04  0.7818609E-02  0.8146210E-01
       -1   -1    0    0    0  501  0.00000000000E+00  0.00000000000E+00  0.11935011792E+04  0.11935011792E+04  0.50400001928E-02 0. -1.
        1   -1    0    0  501    0  0.00000000000E+00  0.00000000000E+00 -0.23737797121E+04  0.23737797121E+04  0.50400001928E-02 0.  1.
    10030    2    1    2    0    0  0.00000000000E+00  0.00000000000E+00 -0.11802785329E+04  0.35672808913E+04  0.33663683017E+04 0.  0.
        1    1    3    3  502    0  0.11687450901E+04  0.74681800247E+03  0.42040361379E+03  0.14492899685E+04  0.50400001928E-02 0. -1.
       -1    1    3    3    0  502 -0.11687450901E+04 -0.74681800247E+03 -0.16006821467E+04  0.21179909228E+04  0.50400001928E-02 0.  1.
</event>
<event>
 5   0  0.7610412E-07  0.3400662E+04  0.7818609E-02  0.8137744E-01
       -2   -1    0    0    0  501  0.00000000000E+00  0.00000000000E+00  0.29285709882E+04  0.29285709882E+04  0.25500000920E-02 0. -1.
        2   -1    0    0  501    0  0.00000000000E+00  0.00000000000E+00 -0.98721383923E+03  0.98721383923E+03  0.25500000920E-02 0.  1.
    10030    2    1    2    0    0  0.00000000000E+00  0.00000000000E+00  0.19413571490E+04  0.39157848274E+04  0.34006621759E+04 0.  0.
        4    1    3    3  502    0  0.10406016251E+04  0.49832847184E+03 -0.46748882822E+03  0.12448816913E+04  0.12699999809E+01 0.  1.
       -4    1    3    3    0  502 -0.10406016251E+04 -0.49832847184E+03  0.24088459772E+04  0.26709031361E+04  0.12699999809E+01 0. -1.
</event>
<event>
 5   0  0.7822003E-07  0.3381891E+04  0.7818609E-02  0.8142365E-01
       -2   -1    0    0    0  501  0.00000000000E+00  0.00000000000E+00  0.15767539430E+04  0.15767539430E+04  0.25500000920E-02 0. -1.
        2   -1    0    0  501    0  0.00000000000E+00  0.00000000000E+00 -0.18134069060E+04  0.18134069060E+04  0.25500000920E-02 0.  1.
    10030    2    1    2    0    0  0.00000000000E+00  0.00000000000E+00 -0.23665296301E+03  0.33901608490E+04  0.33818908848E+04 0.  0.
        5    1    3    3  502    0  0.31750750520E+03 -0.13895394782E+04 -0.10303002502E+04  0.17587415026E+04  0.46999998093E+01 0.  1.
       -5    1    3    3    0  502 -0.31750750520E+03  0.13895394782E+04  0.79364728718E+03  0.16314193464E+04  0.46999998093E+01 0. -1.
</event>
<event>
 5   0  0.2553250E-07  0.3401149E+04  0.7818609E-02  0.8137624E-01
        1   -1    0    0  501    0  0.00000000000E+00  0.00000000000E+00  0.19208391009E+04  0.19208391009E+04  0.50400001928E-02 0. -1.
       -1   -1    0    0    0  501  0.00000000000E+00  0.00000000000E+00 -0.15055676316E+04  0.15055676316E+04  0.50400001928E-02 0.  1.
    10030    2    1    2    0    0  0.00000000000E+00  0.00000000000E+00  0.41527146933E+03  0.34264067325E+04  0.34011487329E+04 0.  0.
        5    1    3    3  502    0  0.11021104711E+04 -0.10495858559E+04  0.97198829466E+03  0.18058408829E+04  0.46999998093E+01 0. -1.
       -5    1    3    3    0  502 -0.11021104711E+04  0.10495858559E+04 -0.55671682532E+03  0.16205658496E+04  0.46999998093E+01 0.  1.
</event>
<event>
 5   0  0.7838333E-07  0.3390510E+04  0.7818609E-02  0.8140239E-01
       -2   -1    0    0    0  501  0.00000000000E+00  0.00000000000E+00  0.30031362023E+04  0.30031362023E+04  0.25500000920E-02 0.  1.
        2   -1    0    0  501    0  0.00000000000E+00  0.00000000000E+00 -0.95696297462E+03  0.95696297462E+03  0.25500000920E-02 0. -1.
    10030    2    1    2    0    0  0.00000000000E+00  0.00000000000E+00  0.20461732277E+04  0.39600991770E+04  0.33905103766E+04 0.  0.
        1    1    3    3  502    0  0.87008561218E+03  0.55478698932E+03 -0.54787863898E+03  0.11683358161E+04  0.50400001928E-02 0. -1.
       -1    1    3    3    0  502 -0.87008561218E+03 -0.55478698932E+03  0.25940518667E+04  0.27917633609E+04  0.50400001928E-02 0.  1.
</event>
<event>
 5   0  0.7899402E-07  0.3421736E+04  0.7818609E-02  0.8132592E-01
       -2   -1    0    0    0  501  0.00000000000E+00  0.00000000000E+00  0.12304099007E+04  0.12304099007E+04  0.25500000920E-02 0. -1.
        2   -1    0    0  501    0  0.00000000000E+00  0.00000000000E+00 -0.23789377592E+04  0.23789377592E+04  0.25500000920E-02 0.  1.
    10030    2    1    2    0    0  0.00000000000E+00  0.00000000000E+00 -0.11485278585E+04  0.36093476598E+04  0.34217355666E+04 0.  0.
        2    1    3    3  502    0  0.11009492985E+04 -0.59421103947E+03  0.65672367323E+03  0.14129621722E+04  0.25500000920E-02 0. -1.
       -2    1    3    3    0  502 -0.11009492985E+04  0.59421103947E+03 -0.18052515317E+04  0.21963854876E+04  0.25500000920E-02 0.  1.
</event>
<event>
 5   0  0.7899402E-07  0.3413023E+04  0.7818609E-02  0.8134717E-01
       -2   -1    0    0    0  501  0.00000000000E+00  0.00000000000E+00  0.13655722607E+04  0.13655722607E+04  0.25500000920E-02 0.  1.
        2   -1    0    0  501    0  0.00000000000E+00  0.00000000000E+00 -0.21325720271E+04  0.21325720271E+04  0.25500000920E-02 0. -1.
    10030    2    1    2    0    0  0.00000000000E+00  0.00000000000E+00 -0.76699976639E+03  0.34981442878E+04  0.34130228269E+04 0.  0.
        2    1    3    3  502    0  0.14766895643E+04  0.76785720683E+03  0.26788201850E+01  0.16643989712E+04  0.25500000920E-02 0.  1.
       -2    1    3    3    0  502 -0.14766895643E+04 -0.76785720683E+03 -0.76967858657E+03  0.18337453166E+04  0.25500000920E-02 0. -1.
</event>
<event>
 5   0  0.2592200E-07  0.3370624E+04  0.7818609E-02  0.8145154E-01
        1   -1    0    0  501    0  0.00000000000E+00  0.00000000000E+00  0.22409813030E+04  0.22409813030E+04  0.50400001928E-02 0. -1.
       -1   -1    0    0    0  501  0.00000000000E+00  0.00000000000E+00 -0.12674257123E+04  0.12674257124E+04  0.50400001928E-02 0.  1.
    10030    2    1    2    0    0  0.00000000000E+00  0.00000000000E+00  0.97355559064E+03  0.35084070153E+04  0.33706244670E+04 0.  0.
        4    1    3    3  502    0  0.32295073552E+03  0.22438973130E+03 -0.12190002181E+04  0.12808634094E+04  0.12699999809E+01 0.  1.
       -4    1    3    3    0  502 -0.32295073552E+03 -0.22438973130E+03  0.21925558087E+04  0.22275436059E+04  0.12699999809E+01 0. -1.
</event>
<event>
 5   0  0.2641442E-07  0.3399314E+04  0.7818609E-02  0.8138075E-01
       -1   -1    0    0    0  501  0.00000000000E+00  0.00000000000E+00  0.13531651382E+04  0.13531651382E+04  0.50400001928E-02 0. -1.
        1   -1    0    0  501    0  0.00000000000E+00  0.00000000000E+00 -0.21348721830E+04  0.21348721830E+04  0.50400001928E-02 0.  1.
    10030    2    1    2    0    0  0.00000000000E+00  0.00000000000E+00 -0.78170704473E+03  0.34880373212E+04  0.33993144088E+04 0.  0.
        1    1    3    3  502    0 -0.36661080837E+03  0.53860024254E+03  0.12199411371E+04  0.13830220837E+04  0.50400001928E-02 0. -1.
       -1    1    3    3    0  502  0.36661080837E+03 -0.53860024254E+03 -0.20016481818E+04  0.21050152375E+04  0.50400001928E-02 0.  1.
</event>
<event>
 5   0  0.7822003E-07  0.3415035E+04  0.7818609E-02  0.8134226E-01
        2   -1    0    0  501    0  0.00000000000E+00  0.00000000000E+00  0.12498817781E+04  0.12498817781E+04  0.25500000920E-02 0.  1.
       -2   -1    0    0    0  501  0.00000000000E+00  0.00000000000E+00 -0.23327130980E+04  0.23327130980E+04  0.25500000920E-02 0. -1.
    10030    2    1    2    0    0  0.00000000000E+00  0.00000000000E+00 -0.10828313200E+04  0.35825948761E+04  0.34150347551E+04 0.  0.
        5    1    3    3  502    0  0.39641431611E+03 -0.33917152848E+03 -0.22470463050E+04  0.23068205007E+04  0.46999998093E+01 0. -1.
       -5    1    3    3    0  502 -0.39641431611E+03  0.33917152848E+03  0.11642149850E+04  0.12757743754E+04  0.46999998093E+01 0.  1.
</event>
<event>
 5   0  0.2553250E-07  0.3404048E+04  0.7818609E-02  0.8136914E-01
       -1   -1    0    0    0  501  0.00000000000E+00  0.00000000000E+00  0.10637906272E+04  0.10637906272E+04  0.50400001928E-02 0. -1.
        1   -1    0    0  501    0  0.00000000000E+00  0.00000000000E+00 -0.27231720156E+04  0.27231720156E+04  0.50400001928E-02 0.  1.
    10030    2    1    2    0    0  0.00000000000E+00  0.00000000000E+00 -0.16593813884E+04  0.37869626428E+04  0.34040475123E+04 0.  0.
        5    1    3    3  502    0  0.14400042615E+04 -0.78249062887E+03 -0.31872192839E+03  0.16695836652E+04  0.46999998093E+01 0. -1.
       -5    1    3    3    0  502 -0.14400042615E+04  0.78249062887E+03 -0.13406594600E+04  0.21173789777E+04  0.46999998093E+01 0.  1.
</event>
<event>
 5   0  0.7899402E-07  0.3400118E+04  0.7818609E-02  0.8137877E-01
        2   -1    0    0  501    0  0.00000000000E+00  0.00000000000E+00  0.15026290652E+04  0.15026290652E+04  0.25500000920E-02 0. -1.
       -2   -1    0    0    0  501  0.00000000000E+00  0.00000000000E+00 -0.19234289558E+04  0.19234289558E+04  0.25500000920E-02 0.  1.
    10030    2    1    2    0    0  0.00000000000E+00  0.00000000000E+00 -0.42079989059E+03  0.34260580210E+04  0.34001177943E+04 0.  0.
        2    1    3    3  502    0 -0.14221875827E+04  0.92588820350E+03 -0.31273146653E+03  0.17255977097E+04  0.25500000920E-02 0.  1.
       -2    1    3    3    0  502  0.14221875827E+04 -0.92588820350E+03 -0.10806842406E+03  0.17004603112E+04  0.25500000920E-02 0. -1.
</event>
<event>
 5   0  0.7610412E-07  0.3414229E+04  0.7818609E-02  0.8134423E-01
        2   -1    0    0  501    0  0.00000000000E+00  0.00000000000E+00  0.22460428502E+04  0.22460428502E+04  0.25500000920E-02 0. -1.
       -2   -1    0    0    0  501  0.00000000000E+00  0.00000000000E+00 -0.12974994142E+04  0.12974994142E+04  0.25500000920E-02 0.  1.
    10030    2    1    2    0    0  0.00000000000E+00  0.00000000000E+00  0.94854343602E+03  0.35435422644E+04  0.34142286287E+04 0.  0.
        4    1    3    3  502    0  0.63623848490E+03  0.32734421919E+03 -0.11343620970E+04  0.13411683815E+04  0.12699999809E+01 0.  1.
       -4    1    3    3    0  502 -0.63623848490E+03 -0.32734421919E+03  0.20829055330E+04  0.22023738829E+04  0.12699999809E+01 0. -1.
</event>
<event>
 5   0  0.2592200E-07  0.3398996E+04  0.7818609E-02  0.8138153E-01
       -1   -1    0    0    0  501  0.00000000000E+00  0.00000000000E+00  0.23326998557E+04  0.23326998558E+04  0.50400001928E-02 0. -1.
        1   -1    0    0  501    0  0.00000000000E+00  0.00000000000E+00 -0.12381760550E+04  0.12381760550E+04  0.50400001928E-02 0.  1.
    10030    2    1    2    0    0  0.00000000000E+00  0.00000000000E+00  0.10945238008E+04  0.35708759107E+04  0.33989957957E+04 0.  0.
        4    1    3    3  502    0  0.75063067796E+03 -0.15222222772E+04  0.45516827667E+03  0.17572099616E+04  0.12699999809E+01 0. -1.
       -4    1    3    3    0  502 -0.75063067796E+03  0.15222222772E+04  0.63935552411E+03  0.18136659492E+04  0.12699999809E+01 0.  1.
</event>
<event>
 5   0  0.7822003E-07  0.3224058E+04  0.7818609E-02  0.8182492E-01
        2   -1    0    0  501    0  0.00000000000E+00  0.00000000000E+00  0.15320592409E+04  0.15320592409E+04  0.25500000920E-02 0.  1.
       -2   -1    0    0    0  501  0.00000000000E+00  0.00000000000E+00 -0.16961732962E+04  0.16961732963E+04  0.25500000920E-02 0. -1.
    10030    2    1    2    0    0  0.00000000000E+00  0.00000000000E+00 -0.16411405534E+03  0.32282325372E+04  0.32240582952E+04 0.  0.
        5    1    3    3  502    0 -0.11154905623E+04 -0.10844576545E+04  0.34068419890E+03  0.15926253207E+04  0.46999998093E+01 0.  1.
       -5    1    3    3    0  502  0.11154905623E+04  0.10844576545E+04 -0.50479825424E+03  0.16356072164E+04  0.46999998093E+01 0. -1.
</event>
<event>
 5   0  0.8489228E-07  0.3379536E+04  0.7818609E-02  0.8142947E-01
        2   -1    0    0  501    0  0.00000000000E+00  0.00000000000E+00  0.19246289593E+04  0.19246289593E+04  0.25500000920E-02 0. -1.
       -2   -1    0    0    0  501  0.00000000000E+00  0.00000000000E+00 -0.14835672808E+04  0.14835672808E+04  0.25500000920E-02 0.  1.
    10030    2    1    2    0    0  0.00000000000E+00  0.00000000000E+00  0.44106167848E+03  0.34081962401E+04  0.33795363894E+04 0.  0.
        3    1    3    3  502    0 -0.60062105180E+03  0.11920015578E+04 -0.82445302764E+03  0.15688646107E+04  0.10100000352E+00 0.  1.
       -3    1    3    3    0  502  0.60062105180E+03 -0.11920015578E+04  0.12655147061E+04  0.18393316295E+04  0.10100000352E+00 0. -1.
</event>
<event>
 5   0  0.7610412E-07  0.3388127E+04  0.7818609E-02  0.8140826E-01
        2   -1    0    0  501    0  0.00000000000E+00  0.00000000000E+00  0.15444788465E+04  0.15444788465E+04  0.25500000920E-02 0. -1.
       -2   -1    0    0    0  501  0.00000000000E+00  0.00000000000E+00 -0.18581356690E+04  0.18581356690E+04  0.25500000920E-02 0.  1.
    10030    2    1    2    0    0  0.00000000000E+00  0.00000000000E+00 -0.31365682250E+03  0.34026145154E+04  0.33881270546E+04 0.  0.
        4    1    3    3  502    0 -0.22291548730E+03 -0.19050882296E+03 -0.18324545407E+04  0.18557683538E+04  0.12699999809E+01 0.  1.
       -4    1    3    3    0  502  0.22291548730E+03  0.19050882296E+03  0.15187977182E+04  0.15468461617E+04  0.12699999809E+01 0. -1.
</event>
<event>
 5   0  0.2599367E-07  0.3413927E+04  0.7818609E-02  0.8134497E-01
       -1   -1    0    0    0  501  0.00000000000E+00  0.00000000000E+00  0.12228639578E+04  0.12228639578E+04  0.50400001928E-02 0. -1.
        1   -1    0    0  501    0  0.00000000000E+00  0.00000000000E+00 -0.23827056049E+04  0.23827056049E+04  0.50400001928E-02 0.  1.
    10030    2    1    2    0    0  0.00000000000E+00  0.00000000000E+00 -0.11598416471E+04  0.36055695627E+04  0.34139272437E+04 0.  0.
        2    1    3    3  502    0  0.71000133282E+03  0.95224347200E+03 -0.18746478056E+04  0.22192732859E+04  0.25500000920E-02 0.  1.
       -2    1    3    3    0  502 -0.71000133282E+03 -0.95224347200E+03  0.71480615856E+03  0.13862962767E+04  0.25500000920E-02 0. -1.
</event>
<event>
 5   0  0.8489228E-07  0.3404197E+04  0.7818609E-02  0.8136877E-01
        2   -1    0    0  501    0  0.00000000000E+00  0.00000000000E+00  0.21237857549E+04  0.21237857549E+04  0.25500000920E-02 0.  1.
       -2   -1    0    0    0  501  0.00000000000E+00  0.00000000000E+00 -0.13641395130E+04  0.13641395130E+04  0.25500000920E-02 0. -1.
    10030    2    1    2    0    0  0.00000000000E+00  0.00000000000E+00  0.75964624187E+03  0.34879252680E+04  0.34041974476E+04 0.  0.
        3    1    3    3  502    0 -0.49614241182E+03  0.95318187435E+03 -0.97265340197E+03  0.14494025076E+04  0.10100000352E+00 0. -1.
       -3    1    3    3    0  502  0.49614241182E+03 -0.95318187435E+03  0.17322996438E+04  0.20385227604E+04  0.10100000352E+00 0.  1.
</event>
<event>
 5   0  0.2553250E-07  0.3412838E+04  0.7818609E-02  0.8134763E-01
       -1   -1    0    0    0  501  0.00000000000E+00  0.00000000000E+00  0.18756147283E+04  0.18756147283E+04  0.50400001928E-02 0. -1.
        1   -1    0    0  501    0  0.00000000000E+00  0.00000000000E+00 -0.15524860437E+04  0.15524860437E+04  0.50400001928E-02 0.  1.
    10030    2    1    2    0    0  0.00000000000E+00  0.00000000000E+00  0.32312868465E+03  0.34281007720E+04  0.34128379329E+04 0.  0.
        5    1    3    3  502    0  0.16027945430E+04 -0.46112359731E+03 -0.20096284723E+03  0.16798790061E+04  0.46999998093E+01 0.  1.
       -5    1    3    3    0  502 -0.16027945430E+04  0.46112359731E+03  0.52409153187E+03  0.17482217659E+04  0.46999998093E+01 0. -1.
</event>
<event>
 5   0  0.7610412E-07  0.3378758E+04  0.7818609E-02  0.8143140E-01
       -2   -1    0    0    0  501  0.00000000000E+00  0.00000000000E+00  0.16659624870E+04  0.16659624870E+04  0.25500000920E-02 0. -1.
        2   -1    0    0  501    0  0.00000000000E+00  0.00000000000E+00 -0.17131246556E+04  0.17131246556E+04  0.25500000920E-02 0.  1.
    10030    2    1    2    0    0  0.00000000000E+00  0.00000000000E+00 -0.47162168577E+02  0.33790871427E+04  0.33787580037E+04 0.  0.
        4    1    3    3  502    0 -0.51169489284E+03 -0.27164669812E+03 -0.16106749322E+04  0.17116947573E+04  0.12699999809E+01 0.  1.
       -4    1    3    3    0  502  0.51169489284E+03  0.27164669812E+03  0.15635127636E+04  0.16673923854E+04  0.12699999809E+01 0. -1.
</event>
<event>
 5   0  0.2641442E-07  0.3397717E+04  0.7818609E-02  0.8138467E-01
       -1   -1    0    0    0  501  0.00000000000E+00  0.00000000000E+00  0.15147283022E+04  0.15147283023E+04  0.50400001928E-02 0. -1.
        1   -1    0    0  501    0  0.00000000000E+00  0.00000000000E+00 -0.19053710596E+04  0.19053710596E+04  0.50400001928E-02 0.  1.
    10030    2    1    2    0    0  0.00000000000E+00  0.00000000000E+00 -0.39064275733E+03  0.34200993618E+04  0.33977165687E+04 0.  0.
        1    1    3    3  502    0  0.37190985961E+03  0.15421141607E+04 -0.80734521549E+03  0.17799548661E+04  0.50400001928E-02 0.  1.
       -1    1    3    3    0  502 -0.37190985961E+03 -0.15421141607E+04  0.41670245816E+03  0.16401444958E+04  0.50400001928E-02 0. -1.
</event>
<event>
 5   0  0.7822003E-07  0.3398389E+04  0.7818609E-02  0.8138302E-01
        2   -1    0    0  501    0  0.00000000000E+00  0.00000000000E+00  0.13702763002E+04  0.13702763002E+04  0.25500000920E-02 0. -1.
       -2   -1    0    0    0  501  0.00000000000E+00  0.00000000000E+00 -0.21070658267E+04  0.21070658267E+04  0.25500000920E-02 0.  1.
    10030    2    1    2    0    0  0.00000000000E+00  0.00000000000E+00 -0.73678952655E+03  0.34773421269E+04  0.33983892451E+04 0.  0.
        5    1    3    3  502    0  0.15081112852E+04 -0.75199343175E+03 -0.59104249048E+03  0.17858463219E+04  0.46999998093E+01 0.  1.
       -5    1    3    3    0  502 -0.15081112852E+04  0.75199343175E+03 -0.14574703607E+03  0.16914958050E+04  0.46999998093E+01 0. -1.
</event>
<event>
 5   0  0.2553250E-07  0.3403230E+04  0.7818609E-02  0.8137114E-01
        1   -1    0    0  501    0  0.00000000000E+00  0.00000000000E+00  0.13516420627E+04  0.13516420627E+04  0.50400001928E-02 0. -1.
       -1   -1    0    0    0  501  0.00000000000E+00  0.00000000000E+00 -0.21422048782E+04  0.21422048782E+04  0.50400001928E-02 0.  1.
    10030    2    1    2    0    0  0.00000000000E+00  0.00000000000E+00 -0.79056281551E+03  0.34938469409E+04  0.34032303597E+04 0.  0.
        5    1    3    3  502    0  0.10296841426E+04 -0.12274224398E+04 -0.98383209817E+03  0.18800965312E+04  0.46999998093E+01 0.  1.
       -5    1    3    3    0  502 -0.10296841426E+04  0.12274224398E+04  0.19326928266E+03  0.16137504097E+04  0.46999998093E+01 0. -1.
</event>
<event>
 5   0  0.2553250E-07  0.3398015E+04  0.7818609E-02  0.8138394E-01
       -1   -1    0    0    0  501  0.00000000000E+00  0.00000000000E+00  0.15795933727E+04  0.15795933727E+04  0.50400001928E-02 0.  1.
        1   -1    0    0  501    0  0.00000000000E+00  0.00000000000E+00 -0.18274486919E+04  0.18274486919E+04  0.50400001928E-02 0. -1.
    10030    2    1    2    0    0  0.00000000000E+00  0.00000000000E+00 -0.24785531928E+03  0.34070420646E+04  0.33980146219E+04 0.  0.
        5    1    3    3  502    0  0.10608945088E+04 -0.13213283733E+04 -0.24753503409E+03  0.17125132152E+04  0.46999998093E+01 0.  1.
       -5    1    3    3    0  502 -0.10608945088E+04  0.13213283733E+04 -0.32028518400E+00  0.16945288494E+04  0.46999998093E+01 0. -1.
</event>
<event>
 5   0  0.7822003E-07  0.3393920E+04  0.7818609E-02  0.8139400E-01
        2   -1    0    0  501    0  0.00000000000E+00  0.00000000000E+00  0.17840726959E+04  0.17840726959E+04  0.25500000920E-02 0.  1.
       -2   -1    0    0    0  501  0.00000000000E+00  0.00000000000E+00 -0.16141005169E+04  0.16141005169E+04  0.25500000920E-02 0. -1.
    10030    2    1    2    0    0  0.00000000000E+00  0.00000000000E+00  0.16997217904E+03  0.33981732128E+04  0.33939196577E+04 0.  0.
        5    1    3    3  502    0 -0.22539047036E+03 -0.40149960706E+03 -0.15503544311E+04  0.16172890127E+04  0.46999998093E+01 0. -1.
       -5    1    3    3    0  502  0.22539047036E+03  0.40149960706E+03  0.17203266102E+04  0.17808842001E+04  0.46999998093E+01 0.  1.
</event>
<event>
 5   0  0.2592200E-07  0.3566523E+04  0.7818609E-02  0.8098203E-01
        1   -1    0    0  501    0  0.00000000000E+00  0.00000000000E+00  0.10828535092E+04  0.10828535093E+04  0.50400001928E-02 0.  1.
       -1   -1    0    0    0  501  0.00000000000E+00  0.00000000000E+00 -0.29367051628E+04  0.29367051628E+04  0.50400001928E-02 0. -1.
    10030    2    1    2    0    0  0.00000000000E+00  0.00000000000E+00 -0.18538516536E+04  0.40195586721E+04  0.35665229517E+04 0.  0.
        4    1    3    3  502    0  0.15942713347E+04 -0.34080726448E+03 -0.17413280940E+04  0.23853879819E+04  0.12699999809E+01 0. -1.
       -4    1    3    3    0  502 -0.15942713347E+04  0.34080726448E+03 -0.11252355954E+03  0.16341706902E+04  0.12699999809E+01 0.  1.
</event>
<event>
 5   0  0.2592200E-07  0.3433969E+04  0.7818609E-02  0.8129619E-01
       -1   -1    0    0    0  501  0.00000000000E+00  0.00000000000E+00  0.12467720240E+04  0.12467720240E+04  0.50400001928E-02 0.  1.
        1   -1    0    0  501    0  0.00000000000E+00  0.00000000000E+00 -0.23645343733E+04  0.23645343734E+04  0.50400001928E-02 0. -1.
    10030    2    1    2    0    0  0.00000000000E+00  0.00000000000E+00 -0.11177623493E+04  0.36113063974E+04  0.34339687282E+04 0.  0.
        4    1    3    3  502    0  0.69895509321E+02  0.53682226312E+03  0.11546729403E+04  0.12752782976E+04  0.12699999809E+01 0.  1.
       -4    1    3    3    0  502 -0.69895509321E+02 -0.53682226312E+03 -0.22724352896E+04  0.23360280998E+04  0.12699999809E+01 0. -1.
</event>
<event>
 5   0  0.2553250E-07  0.3321326E+04  0.7818609E-02  0.8157490E-01
        1   -1    0    0  501    0  0.00000000000E+00  0.00000000000E+00  0.16898103504E+04  0.16898103504E+04  0.50400001928E-02 0.  1.
       -1   -1    0    0    0  501  0.00000000000E+00  0.00000000000E+00 -0.16320179453E+04  0.16320179453E+04  0.50400001928E-02 0. -1.
    10030    2    1    2    0    0  0.00000000000E+00  0.00000000000E+00  0.57792405024E+02  0.33218282957E+04  0.33213255282E+04 0.  0.
        5    1    3    3  502    0 -0.97815727482E+01 -0.56966377919E+02 -0.16310049545E+04  0.16320355691E+04  0.46999998093E+01 0. -1.
       -5    1    3    3    0  502  0.97815727482E+01  0.56966377919E+02  0.16887973595E+04  0.16897927266E+04  0.46999998093E+01 0.  1.
</event>
<event>
 5   0  0.2592200E-07  0.3404512E+04  0.7818609E-02  0.8136800E-01
       -1   -1    0    0    0  501  0.00000000000E+00  0.00000000000E+00  0.13707392354E+04  0.13707392354E+04  0.50400001928E-02 0. -1.
        1   -1    0    0  501    0  0.00000000000E+00  0.00000000000E+00 -0.21139514772E+04  0.21139514772E+04  0.50400001928E-02 0.  1.
    10030    2    1    2    0    0  0.00000000000E+00  0.00000000000E+00 -0.74321224178E+03  0.34846907126E+04  0.34045124359E+04 0.  0.
        4    1    3    3  502    0  0.86567667640E+03 -0.65417487723E+03  0.97089812085E+03  0.14560170507E+04  0.12699999809E+01 0. -1.
       -4    1    3    3    0  502 -0.86567667640E+03  0.65417487723E+03 -0.17141103626E+04  0.20286736618E+04  0.12699999809E+01 0.  1.
</event>
<event>
 5   0  0.2592200E-07  0.3204495E+04  0.7818609E-02  0.8187631E-01
       -1   -1    0    0    0  501  0.00000000000E+00  0.00000000000E+00  0.10926241522E+04  0.10926241522E+04  0.50400001928E-02 0.  1.
        1   -1    0    0  501    0  0.00000000000E+00  0.00000000000E+00 -0.23495705156E+04  0.23495705157E+04  0.50400001928E-02 0. -1.
    10030    2    1    2    0    0  0.00000000000E+00  0.00000000000E+00 -0.12569463635E+04  0.34421946679E+04  0.32044952755E+04 0.  0.
        4    1    3    3  502    0  0.88093411839E+03 -0.70109939125E+03 -0.18530397954E+04  0.21682581428E+04  0.12699999809E+01 0. -1.
       -4    1    3    3    0  502 -0.88093411839E+03  0.70109939125E+03  0.59609343199E+03  0.12739365251E+04  0.12699999809E+01 0.  1.
</event>
<event>
 5   0  0.2592200E-07  0.3301118E+04  0.7818609E-02  0.8162611E-01
        1   -1    0    0  501    0  0.00000000000E+00  0.00000000000E+00  0.16547377973E+04  0.16547377973E+04  0.50400001928E-02 0.  1.
       -1   -1    0    0    0  501  0.00000000000E+00  0.00000000000E+00 -0.16463907187E+04  0.16463907187E+04  0.50400001928E-02 0. -1.
    10030    2    1    2    0    0  0.00000000000E+00  0.00000000000E+00  0.83470786214E+01  0.33011285160E+04  0.33011179630E+04 0.  0.
        4    1    3    3  502    0 -0.13486581383E+04  0.38845933149E+02 -0.94659527470E+03  0.16481601886E+04  0.12699999809E+01 0. -1.
       -4    1    3    3    0  502  0.13486581383E+04 -0.38845933149E+02  0.95494235332E+03  0.16529683274E+04  0.12699999809E+01 0.  1.
</event>
<event>
 5   0  0.2641442E-07  0.3419419E+04  0.7818609E-02  0.8133157E-01
       -1   -1    0    0    0  501  0.00000000000E+00  0.00000000000E+00  0.22616181130E+04  0.22616181130E+04  0.50400001928E-02 0. -1.
        1   -1    0    0  501    0  0.00000000000E+00  0.00000000000E+00 -0.12924843244E+04  0.12924843244E+04  0.50400001928E-02 0.  1.
    10030    2    1    2    0    0  0.00000000000E+00  0.00000000000E+00  0.96913378867E+03  0.35541024374E+04  0.34194186399E+04 0.  0.
        1    1    3    3  502    0  0.53698835252E+03  0.62637792593E+03 -0.10718797027E+04  0.13526388631E+04  0.50400001928E-02 0.  1.
       -1    1    3    3    0  502 -0.53698835252E+03 -0.62637792593E+03  0.20410134914E+04  0.22014635743E+04  0.50400001928E-02 0. -1.
</event>
<event>
 5   0  0.7899402E-07  0.3354785E+04  0.7818609E-02  0.8149094E-01
       -2   -1    0    0    0  501  0.00000000000E+00  0.00000000000E+00  0.12997245118E+04  0.12997245118E+04  0.25500000920E-02 0.  1.
        2   -1    0    0  501    0  0.00000000000E+00  0.00000000000E+00 -0.21648015716E+04  0.21648015716E+04  0.25500000920E-02 0. -1.
    10030    2    1    2    0    0  0.00000000000E+00  0.00000000000E+00 -0.86507705986E+03  0.34645260834E+04  0.33547850397E+04 0.  0.
        2    1    3    3  502    0  0.26567096768E+03  0.92960489598E+03  0.98302998541E+03  0.13788017544E+04  0.25500000920E-02 0.  1.
       -2    1    3    3    0  502 -0.26567096768E+03 -0.92960489598E+03 -0.18481070453E+04  0.20857243290E+04  0.25500000920E-02 0. -1.
</event>
<event>
 5   0  0.2641442E-07  0.3698323E+04  0.7818609E-02  0.8068334E-01
       -1   -1    0    0    0  501  0.00000000000E+00  0.00000000000E+00  0.24960540626E+04  0.24960540626E+04  0.50400001928E-02 0.  1.
        1   -1    0    0  501    0  0.00000000000E+00  0.00000000000E+00 -0.13699216017E+04  0.13699216017E+04  0.50400001928E-02 0. -1.
    10030    2    1    2    0    0  0.00000000000E+00  0.00000000000E+00  0.11261324609E+04  0.38659756642E+04  0.36983230682E+04 0.  0.
        1    1    3    3  502    0 -0.10126359158E+04  0.15406759766E+04  0.71194594433E+03  0.19763554819E+04  0.50400001928E-02 0.  1.
       -1    1    3    3    0  502  0.10126359158E+04 -0.15406759766E+04  0.41418651658E+03  0.18896201824E+04  0.50400001928E-02 0. -1.
</event>
<event>
 5   0  0.2641442E-07  0.3405641E+04  0.7818609E-02  0.8136523E-01
       -1   -1    0    0    0  501  0.00000000000E+00  0.00000000000E+00  0.19729718741E+04  0.19729718741E+04  0.50400001928E-02 0. -1.
        1   -1    0    0  501    0  0.00000000000E+00  0.00000000000E+00 -0.14696596256E+04  0.14696596256E+04  0.50400001928E-02 0.  1.
    10030    2    1    2    0    0  0.00000000000E+00  0.00000000000E+00  0.50331224859E+03  0.34426314997E+04  0.34056406773E+04 0.  0.
        1    1    3    3  502    0 -0.23379089907E+03 -0.50537605414E+03  0.18783375946E+04  0.19591363556E+04  0.50400001928E-02 0. -1.
       -1    1    3    3    0  502  0.23379089907E+03  0.50537605414E+03 -0.13750253460E+04  0.14834951441E+04  0.50400001928E-02 0.  1.
</event>
<event>
 5   0  0.7822003E-07  0.3238723E+04  0.7818609E-02  0.8178665E-01
        2   -1    0    0  501    0  0.00000000000E+00  0.00000000000E+00  0.14415507614E+04  0.14415507614E+04  0.25500000920E-02 0. -1.
       -2   -1    0    0    0  501  0.00000000000E+00  0.00000000000E+00 -0.18191043119E+04  0.18191043119E+04  0.25500000920E-02 0.  1.
    10030    2    1    2    0    0  0.00000000000E+00  0.00000000000E+00 -0.37755355049E+03  0.32606550733E+04  0.32387227148E+04 0.  0.
        5    1    3    3  502    0 -0.28621435852E+03 -0.15137255905E+04  0.31362691752E+03  0.15721538588E+04  0.46999998093E+01 0. -1.
       -5    1    3    3    0  502  0.28621435852E+03  0.15137255905E+04 -0.69118046801E+03  0.16885012146E+04  0.46999998093E+01 0.  1.
</event>
<event>
 5   0  0.7822003E-07  0.3329355E+04  0.7818609E-02  0.8155466E-01
        2   -1    0    0  501    0  0.00000000000E+00  0.00000000000E+00  0.20567417562E+04  0.20567417562E+04  0.25500000920E-02 0. -1.
       -2   -1    0    0    0  501  0.00000000000E+00  0.00000000000E+00 -0.13473502135E+04  0.13473502135E+04  0.25500000920E-02 0.  1.
    10030    2    1    2    0    0  0.00000000000E+00  0.00000000000E+00  0.70939154272E+03  0.34040919696E+04  0.33293551593E+04 0.  0.
        5    1    3    3  502    0 -0.96194688643E+03 -0.63112555071E+02  0.17422913453E+04  0.19912122511E+04  0.46999998093E+01 0. -1.
       -5    1    3    3    0  502  0.96194688643E+03  0.63112555071E+02 -0.10328998026E+04  0.14128797186E+04  0.46999998093E+01 0.  1.
</event>
<event>
 5   0  0.2622205E-07  0.3355775E+04  0.7818609E-02  0.8148847E-01
       -1   -1    0    0    0  501  0.00000000000E+00  0.00000000000E+00  0.21628023104E+04  0.21628023104E+04  0.50400001928E-02 0.  1.
        1   -1    0    0  501    0  0.00000000000E+00  0.00000000000E+00 -0.13016941187E+04  0.13016941187E+04  0.50400001928E-02 0. -1.
    10030    2    1    2    0    0  0.00000000000E+00  0.00000000000E+00  0.86110819163E+03  0.34644964291E+04  0.33557753485E+04 0.  0.
        3    1    3    3  502    0 -0.80404147501E+03 -0.69922567207E+03 -0.90755019194E+03  0.13996594568E+04  0.10100000352E+00 0. -1.
       -3    1    3    3    0  502  0.80404147501E+03  0.69922567207E+03  0.17686583836E+04  0.20648369723E+04  0.10100000352E+00 0.  1.
</event>
<event>
 5   0  0.2592200E-07  0.3384376E+04  0.7818609E-02  0.8141752E-01
       -1   -1    0    0    0  501  0.00000000000E+00  0.00000000000E+00  0.16600421177E+04  0.16600421177E+04  0.50400001928E-02 0.  1.
        1   -1    0    0  501    0  0.00000000000E+00  0.00000000000E+00 -0.17249567791E+04  0.17249567791E+04  0.50400001928E-02 0. -1.
    10030    2    1    2    0    0  0.00000000000E+00  0.00000000000E+00 -0.64914661372E+02  0.33849988967E+04  0.33843764001E+04 0.  0.
        4    1    3    3  502    0 -0.12136588468E+04  0.80365296337E+03  0.83064600838E+03  0.16759475786E+04  0.12699999809E+01 0.  1.
       -4    1    3    3    0  502  0.12136588468E+04 -0.80365296337E+03 -0.89556066975E+03  0.17090513182E+04  0.12699999809E+01 0. -1.
</event>
<event>
 5   0  0.2592200E-07  0.3393173E+04  0.7818609E-02  0.8139584E-01
       -1   -1    0    0    0  501  0.00000000000E+00  0.00000000000E+00  0.14463241797E+04  0.14463241797E+04  0.50400001928E-02 0. -1.
        1   -1    0    0  501    0  0.00000000000E+00  0.00000000000E+00 -0.19901530752E+04  0.19901530752E+04  0.50400001928E-02 0.  1.
    10030    2    1    2    0    0  0.00000000000E+00  0.00000000000E+00 -0.54382889548E+03  0.34364772549E+04  0.33931734491E+04 0.  0.
        4    1    3    3  502    0  0.69264602447E+03 -0.15378603601E+04 -0.45764489545E+03  0.17476308151E+04  0.12699999809E+01 0.  1.
       -4    1    3    3    0  502 -0.69264602447E+03  0.15378603601E+04 -0.86184000027E+02  0.16888464398E+04  0.12699999809E+01 0. -1.
</event>
<event>
 5   0  0.7610412E-07  0.3395112E+04  0.7818609E-02  0.8139107E-01
        2   -1    0    0  501    0  0.00000000000E+00  0.00000000000E+00  0.16724753497E+04  0.16724753497E+04  0.25500000920E-02 0. -1.
       -2   -1    0    0    0  501  0.00000000000E+00  0.00000000000E+00 -0.17230125845E+04  0.17230125845E+04  0.25500000920E-02 0.  1.
    10030    2    1    2    0    0  0.00000000000E+00  0.00000000000E+00 -0.50537234809E+02  0.33954879342E+04  0.33951118243E+04 0.  0.
        4    1    3    3  502    0 -0.80840789564E+03 -0.13168832444E+04  0.67765322110E+03  0.16872819284E+04  0.12699999809E+01 0. -1.
       -4    1    3    3    0  502  0.80840789564E+03  0.13168832444E+04 -0.72819045591E+03  0.17082060057E+04  0.12699999809E+01 0.  1.
</event>
<event>
 5   0  0.2553250E-07  0.3439885E+04  0.7818609E-02  0.8128186E-01
       -3   -1    0    0    0  501  0.00000000000E+00  0.00000000000E+00  0.11745951543E+04  0.11745951587E+04  0.10100000352E+00 0.  1.
        3   -1    0    0  501    0  0.00000000000E+00  0.00000000000E+00 -0.25184861312E+04  0.25184861332E+04  0.10100000352E+00 0. -1.
    10030    2    1    2    0    0  0.00000000000E+00  0.00000000000E+00 -0.13438909769E+04  0.36930812919E+04  0.34398846595E+04 0.  0.
        1    1    3    3  502    0 -0.61663236483E+03  0.38956077133E+03  0.10003347245E+04  0.12380075238E+04  0.50400001928E-02 0.  1.
       -1    1    3    3    0  502  0.61663236483E+03 -0.38956077133E+03 -0.23442257014E+04  0.24550737681E+04  0.50400001928E-02 0. -1.
</event>
<event>
 5   0  0.2622205E-07  0.3428754E+04  0.7818609E-02  0.8130885E-01
        1   -1    0    0  501    0  0.00000000000E+00  0.00000000000E+00  0.24728533921E+04  0.24728533921E+04  0.50400001928E-02 0.  1.
       -1   -1    0    0    0  501  0.00000000000E+00  0.00000000000E+00 -0.11885411718E+04  0.11885411718E+04  0.50400001928E-02 0. -1.
    10030    2    1    2    0    0  0.00000000000E+00  0.00000000000E+00  0.12843122202E+04  0.36613945639E+04  0.34287537493E+04 0.  0.
        3    1    3    3  502    0  0.26561577810E+02 -0.13194105540E+03  0.24672032641E+04  0.24708714892E+04  0.10100000352E+00 0.  1.
       -3    1    3    3    0  502 -0.26561577810E+02  0.13194105540E+03 -0.11828910439E+04  0.11905230747E+04  0.10100000352E+00 0. -1.
</event>
<event>
 5   0  0.7899402E-07  0.3306210E+04  0.7818609E-02  0.8161317E-01
        2   -1    0    0  501    0  0.00000000000E+00  0.00000000000E+00  0.12064958774E+04  0.12064958774E+04  0.25500000920E-02 0.  1.
       -2   -1    0    0    0  501  0.00000000000E+00  0.00000000000E+00 -0.22650350565E+04  0.22650350565E+04  0.25500000920E-02 0. -1.
    10030    2    1    2    0    0  0.00000000000E+00  0.00000000000E+00 -0.10585391790E+04  0.34715309339E+04  0.33062095867E+04 0.  0.
        2    1    3    3  502    0 -0.10516653499E+04 -0.73623486198E+03 -0.16228436919E+04  0.20692180717E+04  0.25500000920E-02 0. -1.
       -2    1    3    3    0  502  0.10516653499E+04  0.73623486198E+03  0.56430451284E+03  0.14023128622E+04  0.25500000920E-02 0.  1.
</event>
<event>
 5   0  0.7822003E-07  0.3361567E+04  0.7818609E-02  0.8147404E-01
        2   -1    0    0  501    0  0.00000000000E+00  0.00000000000E+00  0.14437458729E+04  0.14437458729E+04  0.25500000920E-02 0.  1.
       -2   -1    0    0    0  501  0.00000000000E+00  0.00000000000E+00 -0.19567384284E+04  0.19567384284E+04  0.25500000920E-02 0. -1.
    10030    2    1    2    0    0  0.00000000000E+00  0.00000000000E+00 -0.51299255553E+03  0.34004843013E+04  0.33615669146E+04 0.  0.
        5    1    3    3  502    0 -0.18289225683E+02 -0.49369996038E+03  0.13686321901E+04  0.14550774235E+04  0.46999998093E+01 0.  1.
       -5    1    3    3    0  502  0.18289225683E+02  0.49369996038E+03 -0.18816247456E+04  0.19454068777E+04  0.46999998093E+01 0. -1.
</event>
<event>
 5   0  0.8489228E-07  0.3401144E+04  0.7818609E-02  0.8137626E-01
       -2   -1    0    0    0  501  0.00000000000E+00  0.00000000000E+00  0.15556963953E+04  0.15556963953E+04  0.25500000920E-02 0. -1.
        2   -1    0    0  501    0  0.00000000000E+00  0.00000000000E+00 -0.18589396682E+04  0.18589396682E+04  0.25500000920E-02 0.  1.
    10030    2    1    2    0    0  0.00000000000E+00  0.00000000000E+00 -0.30324327287E+03  0.34146360635E+04  0.34011443609E+04 0.  0.
        3    1    3    3  502    0  0.15131646448E+04 -0.71356802856E+03 -0.45795354121E+03  0.17345224212E+04  0.10100000352E+00 0.  1.
       -3    1    3    3    0  502 -0.15131646448E+04  0.71356802856E+03  0.15471026834E+03  0.16801136423E+04  0.10100000352E+00 0. -1.
</event>
<event>
 5   0  0.2599367E-07  0.3377307E+04  0.7818609E-02  0.8143498E-01
        1   -1    0    0  501    0  0.00000000000E+00  0.00000000000E+00  0.20047292356E+04  0.20047292356E+04  0.50400001928E-02 0.  1.
       -1   -1    0    0    0  501  0.00000000000E+00  0.00000000000E+00 -0.14224119995E+04  0.14224119996E+04  0.50400001928E-02 0. -1.
    10030    2    1    2    0    0  0.00000000000E+00  0.00000000000E+00  0.58231723605E+03  0.34271412352E+04  0.33773071643E+04 0.  0.
        2    1    3    3  502    0 -0.16854750460E+04 -0.35141708465E+01  0.18613048290E+03  0.16957249295E+04  0.25500000920E-02 0.  1.
       -2    1    3    3    0  502  0.16854750460E+04  0.35141708465E+01  0.39618675314E+03  0.17314163056E+04  0.25500000920E-02 0. -1.
</event>
<event>
 5   0  0.8489228E-07  0.3401286E+04  0.7818609E-02  0.8137591E-01
        2   -1    0    0  501    0  0.00000000000E+00  0.00000000000E+00  0.25225569726E+04  0.25225569726E+04  0.25500000920E-02 0.  1.
       -2   -1    0    0    0  501  0.00000000000E+00  0.00000000000E+00 -0.11465294140E+04  0.11465294140E+04  0.25500000920E-02 0. -1.
    10030    2    1    2    0    0  0.00000000000E+00  0.00000000000E+00  0.13760275586E+04  0.36690863866E+04  0.34012855026E+04 0.  0.
        3    1    3    3  502    0 -0.13964903477E+02  0.69377376803E+03 -0.98686589990E+03  0.12064084608E+04  0.10100000352E+00 0. -1.
       -3    1    3    3    0  502  0.13964903477E+02 -0.69377376803E+03  0.23628934585E+04  0.24626779258E+04  0.10100000352E+00 0.  1.
</event>
<event>
 5   0  0.2553250E-07  0.3407725E+04  0.7818609E-02  0.8136013E-01
        1   -1    0    0  501    0  0.00000000000E+00  0.00000000000E+00  0.23225523839E+04  0.23225523839E+04  0.50400001928E-02 0. -1.
       -1   -1    0    0    0  501  0.00000000000E+00  0.00000000000E+00 -0.12499813386E+04  0.12499813386E+04  0.50400001928E-02 0.  1.
    10030    2    1    2    0    0  0.00000000000E+00  0.00000000000E+00  0.10725710453E+04  0.35725337225E+04  0.34077248350E+04 0.  0.
        5    1    3    3  502    0 -0.81184241727E+03  0.42540595500E+03  0.20420895464E+04  0.22383498705E+04  0.46999998093E+01 0. -1.
       -5    1    3    3    0  502  0.81184241727E+03 -0.42540595500E+03 -0.96951850112E+03  0.13341838520E+04  0.46999998093E+01 0.  1.
</event>
<event>
 5   0  0.2622205E-07  0.3389688E+04  0.7818609E-02  0.8140442E-01
        1   -1    0    0  501    0  0.00000000000E+00  0.00000000000E+00  0.15880939585E+04  0.15880939585E+04  0.50400001928E-02 0. -1.
       -1   -1    0    0    0  501  0.00000000000E+00  0.00000000000E+00 -0.18087692723E+04  0.18087692723E+04  0.50400001928E-02 0.  1.
    10030    2    1    2    0    0  0.00000000000E+00  0.00000000000E+00 -0.22067531381E+03  0.33968632308E+04  0.33896876279E+04 0.  0.
        3    1    3    3  502    0 -0.51752663333E+03  0.15506291534E+04  0.33805893421E+03  0.16693017825E+04  0.10100000352E+00 0. -1.
       -3    1    3    3    0  502  0.51752663333E+03 -0.15506291534E+04 -0.55873424802E+03  0.17275614484E+04  0.10100000352E+00 0.  1.
</event>
<event>
 5   0  0.2592200E-07  0.3407975E+04  0.7818609E-02  0.8135952E-01
        1   -1    0    0  501    0  0.00000000000E+00  0.00000000000E+00  0.26104291853E+04  0.26104291853E+04  0.50400001928E-02 0.  1.
       -1   -1    0    0    0  501  0.00000000000E+00  0.00000000000E+00 -0.11122972873E+04  0.11122972873E+04  0.50400001928E-02 0. -1.
    10030    2    1    2    0    0  0.00000000000E+00  0.00000000000E+00  0.14981318980E+04  0.37227264726E+04  0.34079749422E+04 0.  0.
        4    1    3    3  502    0  0.50223115689E+03  0.31415748282E+03 -0.99619179410E+03  0.11590214677E+04  0.12699999809E+01 0. -1.
       -4    1    3    3    0  502 -0.50223115689E+03 -0.31415748282E+03  0.24943236921E+04  0.25637050050E+04  0.12699999809E+01 0.  1.
</event>
<event>
 5   0  0.7610412E-07  0.3368498E+04  0.7818609E-02  0.8145682E-01
        2   -1    0    0  501    0  0.00000000000E+00  0.00000000000E+00  0.18306791123E+04  0.18306791123E+04  0.25500000920E-02 0.  1.
       -2   -1    0    0    0  501  0.00000000000E+00  0.00000000000E+00 -0.15495309228E+04  0.15495309228E+04  0.25500000920E-02 0. -1.
    10030    2    1    2    0    0  0.00000000000E+00  0.00000000000E+00  0.28114818942E+03  0.33802100351E+04  0.33684975252E+04 0.  0.
        4    1    3    3  502    0 -0.27606069658E+03  0.13400645892E+04 -0.84503742310E+03  0.16081270071E+04  0.12699999809E+01 0. -1.
       -4    1    3    3    0  502  0.27606069658E+03 -0.13400645892E+04  0.11261856125E+04  0.17720830280E+04  0.12699999809E+01 0.  1.
</event>
<event>
 5   0  0.2592200E-07  0.3253128E+04  0.7818609E-02  0.8174926E-01
        1   -1    0    0  501    0  0.00000000000E+00  0.00000000000E+00  0.24503787495E+04  0.24503787495E+04  0.50400001928E-02 0. -1.
       -1   -1    0    0    0  501  0.00000000000E+00  0.00000000000E+00 -0.10797146124E+04  0.10797146124E+04  0.50400001928E-02 0.  1.
    10030    2    1    2    0    0  0.00000000000E+00  0.00000000000E+00  0.13706641371E+04  0.35300933619E+04  0.32531275669E+04 0.  0.
        4    1    3    3  502    0  0.39725810785E+03 -0.15616988150E+04  0.44514868162E+03  0.16717883104E+04  0.12699999809E+01 0.  1.
       -4    1    3    3    0  502 -0.39725810785E+03  0.15616988150E+04  0.92551545547E+03  0.18583050515E+04  0.12699999809E+01 0. -1.
</event>
<event>
 5   0  0.7822003E-07  0.3416195E+04  0.7818609E-02  0.8133943E-01
        2   -1    0    0  501    0  0.00000000000E+00  0.00000000000E+00  0.25931562882E+04  0.25931562882E+04  0.25500000920E-02 0.  1.
       -2   -1    0    0    0  501  0.00000000000E+00  0.00000000000E+00 -0.11251144104E+04  0.11251144104E+04  0.25500000920E-02 0. -1.
    10030    2    1    2    0    0  0.00000000000E+00  0.00000000000E+00  0.14680418778E+04  0.37182706986E+04  0.34161952568E+04 0.  0.
        5    1    3    3  502    0 -0.10390386383E+04  0.11924888633E+04  0.32055097928E+02  0.15819862833E+04  0.46999998093E+01 0. -1.
       -5    1    3    3    0  502  0.10390386383E+04 -0.11924888633E+04  0.14359867799E+04  0.21362844153E+04  0.46999998093E+01 0.  1.
</event>
<event>
 5   0  0.2622205E-07  0.3406261E+04  0.7818609E-02  0.8136371E-01
        1   -1    0    0  501    0  0.00000000000E+00  0.00000000000E+00  0.23141957013E+04  0.23141957013E+04  0.50400001928E-02 0.  1.
       -1   -1    0    0    0  501  0.00000000000E+00  0.00000000000E+00 -0.12534178557E+04  0.12534178557E+04  0.50400001928E-02 0. -1.
    10030    2    1    2    0    0  0.00000000000E+00  0.00000000000E+00  0.10607778455E+04  0.35676135570E+04  0.34062614190E+04 0.  0.
        3    1    3    3  502    0 -0.92750809310E+03 -0.64942882748E+03  0.18629065739E+04  0.21800114628E+04  0.10100000352E+00 0.  1.
       -3    1    3    3    0  502  0.92750809310E+03  0.64942882748E+03 -0.80212872837E+03  0.13876020942E+04  0.10100000352E+00 0. -1.
</event>
<event>
 5   0  0.7899402E-07  0.3346548E+04  0.7818609E-02  0.8151151E-01
       -2   -1    0    0    0  501  0.00000000000E+00  0.00000000000E+00  0.15518631589E+04  0.15518631589E+04  0.25500000920E-02 0. -1.
        2   -1    0    0  501    0  0.00000000000E+00  0.00000000000E+00 -0.18041831056E+04  0.18041831056E+04  0.25500000920E-02 0.  1.
    10030    2    1    2    0    0  0.00000000000E+00  0.00000000000E+00 -0.25231994674E+03  0.33560462645E+04  0.33465476501E+04 0.  0.
        2    1    3    3  502    0 -0.69223900434E+03  0.12981228108E+04  0.67330260846E+03  0.16179165842E+04  0.25500000920E-02 0. -1.
       -2    1    3    3    0  502  0.69223900434E+03 -0.12981228108E+04 -0.92562255520E+03  0.17381296803E+04  0.25500000920E-02 0.  1.
</event>
<event>
 5   0  0.7610412E-07  0.3428557E+04  0.7818609E-02  0.8130933E-01
       -2   -1    0    0    0  501  0.00000000000E+00  0.00000000000E+00  0.12943809414E+04  0.12943809414E+04  0.25500000920E-02 0. -1.
        2   -1    0    0  501    0  0.00000000000E+00  0.00000000000E+00 -0.22703909182E+04  0.22703909182E+04  0.25500000920E-02 0.  1.
    10030    2    1    2    0    0  0.00000000000E+00  0.00000000000E+00 -0.97600997688E+03  0.35647718596E+04  0.34285569758E+04 0.  0.
        4    1    3    3  502    0 -0.87840056833E+03  0.85982598080E+02  0.10399972020E+04  0.13640294567E+04  0.12699999809E+01 0. -1.
       -4    1    3    3    0  502  0.87840056833E+03 -0.85982598080E+02 -0.20160071789E+04  0.22007424029E+04  0.12699999809E+01 0.  1.
</event>
<event>
 5   0  0.7899402E-07  0.3408802E+04  0.7818609E-02  0.8135749E-01
        2   -1    0    0  501    0  0.00000000000E+00  0.00000000000E+00  0.22846596811E+04  0.22846596811E+04  0.25500000920E-02 0. -1.
       -2   -1    0    0    0  501  0.00000000000E+00  0.00000000000E+00 -0.12715166560E+04  0.12715166560E+04  0.25500000920E-02 0.  1.
    10030    2    1    2    0    0  0.00000000000E+00  0.00000000000E+00  0.10131430252E+04  0.35561763371E+04  0.34088020404E+04 0.  0.
        2    1    3    3  502    0  0.86678021246E+03  0.57589190167E+03 -0.90160949958E+03  0.13769019968E+04  0.25500000920E-02 0.  1.
       -2    1    3    3    0  502 -0.86678021246E+03 -0.57589190167E+03  0.19147525247E+04  0.21792743403E+04  0.25500000920E-02 0. -1.
</event>
<event>
 5   0  0.2592200E-07  0.3445266E+04  0.7818609E-02  0.8126885E-01
        1   -1    0    0  501    0  0.00000000000E+00  0.00000000000E+00  0.26464964631E+04  0.26464964631E+04  0.50400001928E-02 0.  1.
       -1   -1    0    0    0  501  0.00000000000E+00  0.00000000000E+00 -0.11212804292E+04  0.11212804293E+04  0.50400001928E-02 0. -1.
    10030    2    1    2    0    0  0.00000000000E+00  0.00000000000E+00  0.15252160339E+04  0.37677768924E+04  0.34452661379E+04 0.  0.
        4    1    3    3  502    0 -0.16510354253E+04 -0.49113703657E+03  0.74275627279E+03  0.18758523551E+04  0.12699999809E+01 0.  1.
       -4    1    3    3    0  502  0.16510354253E+04  0.49113703657E+03  0.78245976107E+03  0.18919245373E+04  0.12699999809E+01 0. -1.
</event>
<event>
 5   0  0.7822003E-07  0.3461312E+04  0.7818609E-02  0.8123020E-01
        2   -1    0    0  501    0  0.00000000000E+00  0.00000000000E+00  0.26603456523E+04  0.26603456523E+04  0.25500000920E-02 0. -1.
       -2   -1    0    0    0  501  0.00000000000E+00  0.00000000000E+00 -0.11258572467E+04  0.11258572467E+04  0.25500000920E-02 0.  1.
    10030    2    1    2    0    0  0.00000000000E+00  0.00000000000E+00  0.15344884056E+04  0.37862028989E+04  0.34613115614E+04 0.  0.
        5    1    3    3  502    0  0.17052509697E+04  0.29126643351E+03  0.82116997509E+03  0.19149567157E+04  0.46999998093E+01 0. -1.
       -5    1    3    3    0  502 -0.17052509697E+04 -0.29126643351E+03  0.71331843051E+03  0.18712461832E+04  0.46999998093E+01 0.  1.
</event>
<event>
 5   0  0.2599367E-07  0.3386764E+04  0.7818609E-02  0.8141162E-01
        1   -1    0    0  501    0  0.00000000000E+00  0.00000000000E+00  0.17775274452E+04  0.17775274452E+04  0.50400001928E-02 0.  1.
       -1   -1    0    0    0  501  0.00000000000E+00  0.00000000000E+00 -0.16132201930E+04  0.16132201930E+04  0.50400001928E-02 0. -1.
    10030    2    1    2    0    0  0.00000000000E+00  0.00000000000E+00  0.16430725229E+03  0.33907476382E+04  0.33867643368E+04 0.  0.
        2    1    3    3  502    0 -0.73072378984E+03  0.47971788845E+03  0.15341892586E+04  0.17657358780E+04  0.25500000920E-02 0.  1.
       -2    1    3    3    0  502  0.73072378984E+03 -0.47971788845E+03 -0.13698820063E+04  0.16250117602E+04  0.25500000920E-02 0. -1.
</event>
<event>
 5   0  0.2641442E-07  0.3390933E+04  0.7818609E-02  0.8140135E-01
        1   -1    0    0  501    0  0.00000000000E+00  0.00000000000E+00  0.21565326343E+04  0.21565326343E+04  0.50400001928E-02 0.  1.
       -1   -1    0    0    0  501  0.00000000000E+00  0.00000000000E+00 -0.13329761325E+04  0.13329761325E+04  0.50400001928E-02 0. -1.
    10030    2    1    2    0    0  0.00000000000E+00  0.00000000000E+00  0.82355650183E+03  0.34895087668E+04  0.33909329279E+04 0.  0.
        1    1    3    3  502    0 -0.52502068519E+02  0.66670700955E+03  0.20150659424E+04  0.21231451802E+04  0.50400001928E-02 0.  1.
       -1    1    3    3    0  502  0.52502068519E+02 -0.66670700955E+03 -0.11915094406E+04  0.13663635866E+04  0.50400001928E-02 0. -1.
</event>
<event>
 5   0  0.2553250E-07  0.3410658E+04  0.7818609E-02  0.8135295E-01
       -1   -1    0    0    0  501  0.00000000000E+00  0.00000000000E+00  0.15629163878E+04  0.15629163878E+04  0.50400001928E-02 0. -1.
        1   -1    0    0  501    0  0.00000000000E+00  0.00000000000E+00 -0.18607185428E+04  0.18607185428E+04  0.50400001928E-02 0.  1.
    10030    2    1    2    0    0  0.00000000000E+00  0.00000000000E+00 -0.29780215499E+03  0.34236349306E+04  0.34106582963E+04 0.  0.
        5    1    3    3  502    0 -0.10179509135E+04 -0.14705790414E+03  0.12165225582E+04  0.15930471789E+04  0.46999998093E+01 0. -1.
       -5    1    3    3    0  502  0.10179509135E+04  0.14705790414E+03 -0.15143247132E+04  0.18305877517E+04  0.46999998093E+01 0.  1.
</event>
<event>
 5   0  0.2592200E-07  0.3349069E+04  0.7818609E-02  0.8150521E-01
       -1   -1    0    0    0  501  0.00000000000E+00  0.00000000000E+00  0.21227043980E+04  0.21227043980E+04  0.50400001928E-02 0. -1.
        1   -1    0    0  501    0  0.00000000000E+00  0.00000000000E+00 -0.13209876114E+04  0.13209876114E+04  0.50400001928E-02 0.  1.
    10030    2    1    2    0    0  0.00000000000E+00  0.00000000000E+00  0.80171678657E+03  0.34436920094E+04  0.33490692512E+04 0.  0.
        4    1    3    3  502    0  0.24447437876E+02 -0.11619582143E+04 -0.83873942922E+03  0.14332585293E+04  0.12699999809E+01 0.  1.
       -4    1    3    3    0  502 -0.24447437876E+02  0.11619582143E+04  0.16404562158E+04  0.20104334800E+04  0.12699999809E+01 0. -1.
</event>
<event>
 5   0  0.7838333E-07  0.3356447E+04  0.7818609E-02  0.8148679E-01
       -2   -1    0    0    0  501  0.00000000000E+00  0.00000000000E+00  0.15306428327E+04  0.15306428327E+04  0.25500000920E-02 0.  1.
        2   -1    0    0  501    0  0.00000000000E+00  0.00000000000E+00 -0.18400337743E+04  0.18400337743E+04  0.25500000920E-02 0. -1.
    10030    2    1    2    0    0  0.00000000000E+00  0.00000000000E+00 -0.30939094157E+03  0.33706766069E+04  0.33564472339E+04 0.  0.
        1    1    3    3  502    0 -0.12880602130E+04  0.93066821712E+03 -0.69660530389E+03  0.17350796501E+04  0.50400001928E-02 0. -1.
       -1    1    3    3    0  502  0.12880602130E+04 -0.93066821712E+03  0.38721436232E+03  0.16355969568E+04  0.50400001928E-02 0.  1.
</event>
<event>
 5   0  0.2641442E-07  0.3410493E+04  0.7818609E-02  0.8135336E-01
        1   -1    0    0  501    0  0.00000000000E+00  0.00000000000E+00  0.19996948973E+04  0.19996948973E+04  0.50400001928E-02 0. -1.
       -1   -1    0    0    0  501  0.00000000000E+00  0.00000000000E+00 -0.14541547384E+04  0.14541547384E+04  0.50400001928E-02 0.  1.
    10030    2    1    2    0    0  0.00000000000E+00  0.00000000000E+00  0.54554015887E+03  0.34538496357E+04  0.34104931082E+04 0.  0.
        1    1    3    3  502    0 -0.48317064170E+03  0.12415867302E+04  0.13506667211E+04  0.18971800308E+04  0.50400001928E-02 0. -1.
       -1    1    3    3    0  502  0.48317064170E+03 -0.12415867302E+04 -0.80512656227E+03  0.15566696049E+04  0.50400001928E-02 0.  1.
</event>
<event>
 5   0  0.8489228E-07  0.3373806E+04  0.7818609E-02  0.8144365E-01
       -2   -1    0    0    0  501  0.00000000000E+00  0.00000000000E+00  0.12578517144E+04  0.12578517144E+04  0.25500000920E-02 0.  1.
        2   -1    0    0  501    0  0.00000000000E+00  0.00000000000E+00 -0.22623029582E+04  0.22623029582E+04  0.25500000920E-02 0. -1.
    10030    2    1    2    0    0  0.00000000000E+00  0.00000000000E+00 -0.10044512438E+04  0.35201546727E+04  0.33738059544E+04 0.  0.
        3    1    3    3  502    0 -0.45044302021E+03  0.15415731714E+04 -0.10406479480E+04  0.19137123397E+04  0.10100000352E+00 0.  1.
       -3    1    3    3    0  502  0.45044302021E+03 -0.15415731714E+04  0.36196704195E+02  0.16064423329E+04  0.10100000352E+00 0. -1.
</event>
<event>
 5   0  0.7838333E-07  0.3248631E+04  0.7818609E-02  0.8176091E-01
        2   -1    0    0  501    0  0.00000000000E+00  0.00000000000E+00  0.20062884580E+04  0.20062884580E+04  0.25500000920E-02 0.  1.
       -2   -1    0    0    0  501  0.00000000000E+00  0.00000000000E+00 -0.13150652193E+04  0.13150652193E+04  0.25500000920E-02 0. -1.
    10030    2    1    2    0    0  0.00000000000E+00  0.00000000000E+00  0.69122323862E+03  0.33213536773E+04  0.32486305860E+04 0.  0.
        1    1    3    3  502    0  0.10125839518E+04 -0.10336390574E+04  0.11001463156E+04  0.18177067629E+04  0.50400001928E-02 0.  1.
       -1    1    3    3    0  502 -0.10125839518E+04  0.10336390574E+04 -0.40892307694E+03  0.15036469144E+04  0.50400001928E-02 0. -1.
</event>
<event>
 5   0  0.7838333E-07  0.3413752E+04  0.7818609E-02  0.8134539E-01
       -2   -1    0    0    0  501  0.00000000000E+00  0.00000000000E+00  0.10475692734E+04  0.10475692734E+04  0.25500000920E-02 0. -1.
        2   -1    0    0  501    0  0.00000000000E+00  0.00000000000E+00 -0.27811298081E+04  0.27811298081E+04  0.25500000920E-02 0.  1.
    10030    2    1    2    0    0  0.00000000000E+00  0.00000000000E+00 -0.17335605347E+04  0.38286990814E+04  0.34137522653E+04 0.  0.
        1    1    3    3  502    0  0.40990131309E+02 -0.40905152589E+02  0.10464672254E+04  0.10480682593E+04  0.50400001928E-02 0. -1.
       -1    1    3    3    0  502 -0.40990131309E+02  0.40905152589E+02 -0.27800277600E+04  0.27806308221E+04  0.50400001928E-02 0.  1.
</event>
<event>
 5   0  0.7822003E-07  0.3415598E+04  0.7818609E-02  0.8134089E-01
        2   -1    0    0  501    0  0.00000000000E+00  0.00000000000E+00  0.15830536339E+04  0.15830536339E+04  0.25500000920E-02 0. -1.
       -2   -1    0    0    0  501  0.00000000000E+00  0.00000000000E+00 -0.18423744459E+04  0.18423744459E+04  0.25500000920E-02 0.  1.
    10030    2    1    2    0    0  0.00000000000E+00  0.00000000000E+00 -0.25932081202E+03  0.34254280798E+04  0.34155980803E+04 0.  0.
        5    1    3    3  502    0 -0.25811724131E+03 -0.14159962495E+04  0.79216153805E+03  0.16429278381E+04  0.46999998093E+01 0. -1.
       -5    1    3    3    0  502  0.25811724131E+03  0.14159962495E+04 -0.10514823501E+04  0.17825002416E+04  0.46999998093E+01 0.  1.
</event>
<event>
 5   0  0.2553250E-07  0.3404808E+04  0.7818609E-02  0.8136727E-01
        1   -1    0    0  501    0  0.00000000000E+00  0.00000000000E+00  0.18736795438E+04  0.18736795438E+04  0.50400001928E-02 0. -1.
       -1   -1    0    0    0  501  0.00000000000E+00  0.00000000000E+00 -0.15467851817E+04  0.15467851818E+04  0.50400001928E-02 0.  1.
    10030    2    1    2    0    0  0.00000000000E+00  0.00000000000E+00  0.32689436208E+03  0.34204647256E+04  0.34048082200E+04 0.  0.
        5    1    3    3  502    0 -0.10914474478E+04 -0.64137850737E+03 -0.98000188913E+03  0.16009527519E+04  0.46999998093E+01 0.  1.
       -5    1    3    3    0  502  0.10914474478E+04  0.64137850737E+03  0.13068962512E+04  0.18195119737E+04  0.46999998093E+01 0. -1.
</event>
<event>
 5   0  0.8489228E-07  0.3392394E+04  0.7818609E-02  0.8139776E-01
       -2   -1    0    0    0  501  0.00000000000E+00  0.00000000000E+00  0.12145819963E+04  0.12145819963E+04  0.25500000920E-02 0.  1.
        2   -1    0    0  501    0  0.00000000000E+00  0.00000000000E+00 -0.23687851615E+04  0.23687851615E+04  0.25500000920E-02 0. -1.
    10030    2    1    2    0    0  0.00000000000E+00  0.00000000000E+00 -0.11542031652E+04  0.35833671578E+04  0.33923937332E+04 0.  0.
        3    1    3    3  502    0  0.10383406707E+04 -0.11389869682E+04 -0.13252394354E+04  0.20326589074E+04  0.10100000352E+00 0.  1.
       -3    1    3    3    0  502 -0.10383406707E+04  0.11389869682E+04  0.17103627023E+03  0.15507082505E+04  0.10100000352E+00 0. -1.
</event>
<event>
 5   0  0.2599367E-07  0.3130875E+04  0.7818609E-02  0.8207315E-01
       -1   -1    0    0    0  501  0.00000000000E+00  0.00000000000E+00  0.13775142086E+04  0.13775142086E+04  0.50400001928E-02 0.  1.
        1   -1    0    0  501    0  0.00000000000E+00  0.00000000000E+00 -0.17789971211E+04  0.17789971211E+04  0.50400001928E-02 0. -1.
    10030    2    1    2    0    0  0.00000000000E+00  0.00000000000E+00 -0.40148291257E+03  0.31565113297E+04  0.31308745177E+04 0.  0.
        2    1    3    3  502    0 -0.92977416148E+03 -0.23459062714E+03 -0.14482421114E+04  0.17369277379E+04  0.25500000920E-02 0. -1.
       -2    1    3    3    0  502  0.92977416148E+03  0.23459062714E+03  0.10467591988E+04  0.14195835918E+04  0.25500000920E-02 0.  1.
</event>
<event>
 5   0  0.2641442E-07  0.3419687E+04  0.7818609E-02  0.8133091E-01
        1   -1    0    0  501    0  0.00000000000E+00  0.00000000000E+00  0.17456283326E+04  0.17456283326E+04  0.50400001928E-02 0.  1.
       -1   -1    0    0    0  501  0.00000000000E+00  0.00000000000E+00 -0.16747919788E+04  0.16747919788E+04  0.50400001928E-02 0. -1.
    10030    2    1    2    0    0  0.00000000000E+00  0.00000000000E+00  0.70836353754E+02  0.34204203114E+04  0.34196867280E+04 0.  0.
        1    1    3    3  502    0 -0.57692113934E+03  0.16092234455E+04  0.18516133469E+01  0.17095149976E+04  0.50400001928E-02 0. -1.
       -1    1    3    3    0  502  0.57692113934E+03 -0.16092234455E+04  0.68984740407E+02  0.17109053138E+04  0.50400001928E-02 0.  1.
</event>
<event>
 5   0  0.2622205E-07  0.3138533E+04  0.7818609E-02  0.8205242E-01
       -1   -1    0    0    0  501  0.00000000000E+00  0.00000000000E+00  0.15178521933E+04  0.15178521933E+04  0.50400001928E-02 0.  1.
        1   -1    0    0  501    0  0.00000000000E+00  0.00000000000E+00 -0.16224222312E+04  0.16224222312E+04  0.50400001928E-02 0. -1.
    10030    2    1    2    0    0  0.00000000000E+00  0.00000000000E+00 -0.10457003788E+03  0.31402744246E+04  0.31385328688E+04 0.  0.
        3    1    3    3  502    0  0.10514752590E+04  0.11633499574E+04  0.78631322893E+01  0.15681342999E+04  0.10100000352E+00 0.  1.
       -3    1    3    3    0  502 -0.10514752590E+04 -0.11633499574E+04 -0.11243317017E+03  0.15721401246E+04  0.10100000352E+00 0. -1.
</event>
<event>
 5   0  0.2622205E-07  0.3524828E+04  0.7818609E-02  0.8107931E-01
       -1   -1    0    0    0  501  0.00000000000E+00  0.00000000000E+00  0.11820364764E+04  0.11820364764E+04  0.50400001928E-02 0.  1.
        1   -1    0    0  501    0  0.00000000000E+00  0.00000000000E+00 -0.26277563155E+04  0.26277563155E+04  0.50400001928E-02 0. -1.
    10030    2    1    2    0    0  0.00000000000E+00  0.00000000000E+00 -0.14457198391E+04  0.38097927919E+04  0.35248284021E+04 0.  0.
        3    1    3    3  502    0 -0.60573408312E+03 -0.30782121010E+03 -0.24804998788E+04  0.25718762287E+04  0.10100000352E+00 0. -1.
       -3    1    3    3    0  502  0.60573408312E+03  0.30782121010E+03  0.10347800396E+04  0.12379165632E+04  0.10100000352E+00 0.  1.
</event>
<event>
 5   0  0.7899402E-07  0.3310872E+04  0.7818609E-02  0.8160134E-01
       -2   -1    0    0    0  501  0.00000000000E+00  0.00000000000E+00  0.19315164668E+04  0.19315164668E+04  0.25500000920E-02 0. -1.
        2   -1    0    0  501    0  0.00000000000E+00  0.00000000000E+00 -0.14188171293E+04  0.14188171293E+04  0.25500000920E-02 0.  1.
    10030    2    1    2    0    0  0.00000000000E+00  0.00000000000E+00  0.51269933744E+03  0.33503335961E+04  0.33108721803E+04 0.  0.
        2    1    3    3  502    0 -0.14106787145E+04  0.23808773583E+02  0.11326311887E+04  0.18092635803E+04  0.25500000920E-02 0. -1.
       -2    1    3    3    0  502  0.14106787145E+04 -0.23808773583E+02 -0.61993185129E+03  0.15410700158E+04  0.25500000920E-02 0.  1.
</event>
<event>
 5   0  0.2553250E-07  0.3406962E+04  0.7818609E-02  0.8136200E-01
       -1   -1    0    0    0  501  0.00000000000E+00  0.00000000000E+00  0.14069309743E+04  0.14069309743E+04  0.50400001928E-02 0.  1.
        1   -1    0    0  501    0  0.00000000000E+00  0.00000000000E+00 -0.20625370167E+04  0.20625370167E+04  0.50400001928E-02 0. -1.
    10030    2    1    2    0    0  0.00000000000E+00  0.00000000000E+00 -0.65560604242E+03  0.34694679911E+04  0.34069618222E+04 0.  0.
        5    1    3    3  502    0  0.92053275318E+03 -0.62993735831E+03 -0.16389113178E+04  0.19824868279E+04  0.46999998093E+01 0. -1.
       -5    1    3    3    0  502 -0.92053275318E+03  0.62993735831E+03  0.98330527539E+03  0.14869811632E+04  0.46999998093E+01 0.  1.
</event>
<event>
 5   0  0.7822003E-07  0.3438713E+04  0.7818609E-02  0.8128470E-01
       -2   -1    0    0    0  501  0.00000000000E+00  0.00000000000E+00  0.16435111859E+04  0.16435111859E+04  0.25500000920E-02 0. -1.
        2   -1    0    0  501    0  0.00000000000E+00  0.00000000000E+00 -0.17987024636E+04  0.17987024636E+04  0.25500000920E-02 0.  1.
    10030    2    1    2    0    0  0.00000000000E+00  0.00000000000E+00 -0.15519127771E+03  0.34422136495E+04  0.34387134915E+04 0.  0.
        5    1    3    3  502    0 -0.59536025731E+03 -0.68197333701E+03 -0.15408030332E+04  0.17870751371E+04  0.46999998093E+01 0.  1.
       -5    1    3    3    0  502  0.59536025731E+03  0.68197333701E+03  0.13856117555E+04  0.16551385124E+04  0.46999998093E+01 0. -1.
</event>
<event>
 5   0  0.2599367E-07  0.3388097E+04  0.7818609E-02  0.8140834E-01
       -1   -1    0    0    0  501  0.00000000000E+00  0.00000000000E+00  0.18231409438E+04  0.18231409438E+04  0.50400001928E-02 0. -1.
        1   -1    0    0  501    0  0.00000000000E+00  0.00000000000E+00 -0.15740970354E+04  0.15740970355E+04  0.50400001928E-02 0.  1.
    10030    2    1    2    0    0  0.00000000000E+00  0.00000000000E+00  0.24904390839E+03  0.33972379793E+04  0.33880972565E+04 0.  0.
        2    1    3    3  502    0  0.16730441646E+04 -0.13438640993E+03  0.35462805923E+03  0.17154875529E+04  0.25500000920E-02 0. -1.
       -2    1    3    3    0  502 -0.16730441646E+04  0.13438640993E+03 -0.10558415084E+03  0.16817504264E+04  0.25500000920E-02 0.  1.
</event>
<event>
 5   0  0.2553250E-07  0.3419724E+04  0.7818609E-02  0.8133082E-01
        4   -1    0    0  501    0  0.00000000000E+00  0.00000000000E+00  0.16642201298E+04  0.16642206144E+04  0.12699999809E+01 0.  1.
       -4   -1    0    0    0  501  0.00000000000E+00  0.00000000000E+00 -0.17567548626E+04  0.17567553217E+04  0.12699999809E+01 0. -1.
    10030    2    1    2    0    0  0.00000000000E+00  0.00000000000E+00 -0.92534732797E+02  0.34209759360E+04  0.34197242108E+04 0.  0.
        5    1    3    3  502    0 -0.14650424367E+04 -0.28109778777E+03  0.78964666693E+03  0.16878771449E+04  0.46999998093E+01 0. -1.
       -5    1    3    3    0  502  0.14650424367E+04  0.28109778777E+03 -0.88218139973E+03  0.17330987911E+04  0.46999998093E+01 0.  1.
</event>
<event>
 5   0  0.2641442E-07  0.3331296E+04  0.7818609E-02  0.8154977E-01
        1   -1    0    0  501    0  0.00000000000E+00  0.00000000000E+00  0.13683251472E+04  0.13683251472E+04  0.50400001928E-02 0. -1.
       -1   -1    0    0    0  501  0.00000000000E+00  0.00000000000E+00 -0.20275761476E+04  0.20275761476E+04  0.50400001928E-02 0.  1.
    10030    2    1    2    0    0  0.00000000000E+00  0.00000000000E+00 -0.65925100044E+03  0.33959012948E+04  0.33312961025E+04 0.  0.
        1    1    3    3  502    0  0.13813180570E+04 -0.10921396504E+03  0.61264707291E+03  0.15150259736E+04  0.50400001928E-02 0. -1.
       -1    1    3    3    0  502 -0.13813180570E+04  0.10921396504E+03 -0.12718980733E+04  0.18808753212E+04  0.50400001928E-02 0.  1.
</event>
<event>
 5   0  0.2599367E-07  0.3406130E+04  0.7818609E-02  0.8136404E-01
        1   -1    0    0  501    0  0.00000000000E+00  0.00000000000E+00  0.15089676941E+04  0.15089676941E+04  0.50400001928E-02 0.  1.
       -1   -1    0    0    0  501  0.00000000000E+00  0.00000000000E+00 -0.19221284969E+04  0.19221284969E+04  0.50400001928E-02 0. -1.
    10030    2    1    2    0    0  0.00000000000E+00  0.00000000000E+00 -0.41316080284E+03  0.34310961910E+04  0.34061296544E+04 0.  0.
        2    1    3    3  502    0  0.97481446346E+03 -0.13964270455E+04 -0.21924530683E+03  0.17170731598E+04  0.25500000920E-02 0.  1.
       -2    1    3    3    0  502 -0.97481446346E+03  0.13964270455E+04 -0.19391549601E+03  0.17140230311E+04  0.25500000920E-02 0. -1.
</event>
<event>
 5   0  0.7838333E-07  0.3361858E+04  0.7818609E-02  0.8147331E-01
       -2   -1    0    0    0  501  0.00000000000E+00  0.00000000000E+00  0.32126683240E+04  0.32126683240E+04  0.25500000920E-02 0.  1.
        2   -1    0    0  501    0  0.00000000000E+00  0.00000000000E+00 -0.87949411304E+03  0.87949411304E+03  0.25500000920E-02 0. -1.
    10030    2    1    2    0    0  0.00000000000E+00  0.00000000000E+00  0.23331742110E+04  0.40921624371E+04  0.33618583421E+04 0.  0.
        1    1    3    3  502    0 -0.95742334629E+03 -0.12495911701E+04  0.44915767761E+03  0.16370339568E+04  0.50400001928E-02 0.  1.
       -1    1    3    3    0  502  0.95742334629E+03  0.12495911701E+04  0.18840165334E+04  0.24551284802E+04  0.50400001928E-02 0. -1.
</event>
<event>
 5   0  0.7838333E-07  0.3446754E+04  0.7818609E-02  0.8126526E-01
       -2   -1    0    0    0  501  0.00000000000E+00  0.00000000000E+00  0.15471995743E+04  0.15471995743E+04  0.25500000920E-02 0. -1.
        2   -1    0    0  501    0  0.00000000000E+00  0.00000000000E+00 -0.19196155640E+04  0.19196155640E+04  0.25500000920E-02 0.  1.
    10030    2    1    2    0    0  0.00000000000E+00  0.00000000000E+00 -0.37241598971E+03  0.34668151384E+04  0.34467540577E+04 0.  0.
        1    1    3    3  502    0 -0.31483513635E+03  0.16539444927E+04 -0.55628266427E+03  0.17731621332E+04  0.50400001928E-02 0.  1.
       -1    1    3    3    0  502  0.31483513635E+03 -0.16539444927E+04  0.18386667455E+03  0.16936530052E+04  0.50400001928E-02 0. -1.
</event>
<event>
 5   0  0.2553250E-07  0.3305513E+04  0.7818609E-02  0.8161494E-01
       -3   -1    0    0    0  501  0.00000000000E+00  0.00000000000E+00  0.15020180398E+04  0.15020180432E+04  0.10100000352E+00 0. -1.
        3   -1    0    0  501    0  0.00000000000E+00  0.00000000000E+00 -0.18186226886E+04  0.18186226914E+04  0.10100000352E+00 0.  1.
    10030    2    1    2    0    0  0.00000000000E+00  0.00000000000E+00 -0.31660464884E+03  0.33206407346E+04  0.33055130289E+04 0.  0.
        3    1    3    3  502    0 -0.12187943235E+04 -0.10121850290E+04 -0.63122846812E+03  0.17054112481E+04  0.10100000352E+00 0.  1.
       -3    1    3    3    0  502  0.12187943235E+04  0.10121850290E+04  0.31462381928E+03  0.16152294864E+04  0.10100000352E+00 0. -1.
</event>
<event>
 5   0  0.2592200E-07  0.3422322E+04  0.7818609E-02  0.8132449E-01
       -1   -1    0    0    0  501  0.00000000000E+00  0.00000000000E+00  0.12887918174E+04  0.12887918174E+04  0.50400001928E-02 0. -1.
        1   -1    0    0  501    0  0.00000000000E+00  0.00000000000E+00 -0.22719512827E+04  0.22719512827E+04  0.50400001928E-02 0.  1.
    10030    2    1    2    0    0  0.00000000000E+00  0.00000000000E+00 -0.98315946535E+03  0.35607431001E+04  0.34223221489E+04 0.  0.
        4    1    3    3  502    0 -0.56832034211E+03  0.11389677793E+04 -0.16814407346E+04  0.21089049695E+04  0.12699999809E+01 0.  1.
       -4    1    3    3    0  502  0.56832034211E+03 -0.11389677793E+04  0.69828126924E+03  0.14518381306E+04  0.12699999809E+01 0. -1.
</event>
<event>
 5   0  0.7822003E-07  0.3396562E+04  0.7818609E-02  0.8138751E-01
        2   -1    0    0  501    0  0.00000000000E+00  0.00000000000E+00  0.17771642332E+04  0.17771642332E+04  0.25500000920E-02 0.  1.
       -2   -1    0    0    0  501  0.00000000000E+00  0.00000000000E+00 -0.16228988672E+04  0.16228988672E+04  0.25500000920E-02 0. -1.
    10030    2    1    2    0    0  0.00000000000E+00  0.00000000000E+00  0.15426536599E+03  0.34000631004E+04  0.33965616855E+04 0.  0.
        5    1    3    3  502    0  0.73021302369E+03 -0.15331409021E+04  0.57021044308E+02  0.16991190585E+04  0.46999998093E+01 0. -1.
       -5    1    3    3    0  502 -0.73021302369E+03  0.15331409021E+04  0.97244321685E+02  0.17009440419E+04  0.46999998093E+01 0.  1.
</event>
<event>
 5   0  0.2553250E-07  0.3395620E+04  0.7818609E-02  0.8138982E-01
       -1   -1    0    0    0  501  0.00000000000E+00  0.00000000000E+00  0.14071199195E+04  0.14071199195E+04  0.50400001928E-02 0. -1.
        1   -1    0    0  501    0  0.00000000000E+00  0.00000000000E+00 -0.20485525832E+04  0.20485525832E+04  0.50400001928E-02 0.  1.
    10030    2    1    2    0    0  0.00000000000E+00  0.00000000000E+00 -0.64143266367E+03  0.34556725027E+04  0.33956202060E+04 0.  0.
        5    1    3    3  502    0 -0.15249804435E+04  0.25265036575E+03 -0.10353744991E+04  0.18604891840E+04  0.46999998093E+01 0.  1.
       -5    1    3    3    0  502  0.15249804435E+04 -0.25265036575E+03  0.39394183544E+03  0.15951833187E+04  0.46999998093E+01 0. -1.
</event>
<event>
 5   0  0.2599367E-07  0.3402260E+04  0.7818609E-02  0.8137352E-01
        1   -1    0    0  501    0  0.00000000000E+00  0.00000000000E+00  0.20477989376E+04  0.20477989376E+04  0.50400001928E-02 0. -1.
       -1   -1    0    0    0  501  0.00000000000E+00  0.00000000000E+00 -0.14131483357E+04  0.14131483357E+04  0.50400001928E-02 0.  1.
    10030    2    1    2    0    0  0.00000000000E+00  0.00000000000E+00  0.63465060188E+03  0.34609472733E+04  0.34022602255E+04 0.  0.
        2    1    3    3  502    0  0.30567056297E+03 -0.16370159209E+04  0.67057319119E+03  0.17952504068E+04  0.25500000920E-02 0. -1.
       -2    1    3    3    0  502 -0.30567056297E+03  0.16370159209E+04 -0.35922589314E+02  0.16656968665E+04  0.25500000920E-02 0.  1.
</event>
<event>
 5   0  0.7822003E-07  0.3398447E+04  0.7818609E-02  0.8138288E-01
       -2   -1    0    0    0  501  0.00000000000E+00  0.00000000000E+00  0.13141197613E+04  0.13141197613E+04  0.25500000920E-02 0. -1.
        2   -1    0    0  501    0  0.00000000000E+00  0.00000000000E+00 -0.21971823036E+04  0.21971823036E+04  0.25500000920E-02 0.  1.
    10030    2    1    2    0    0  0.00000000000E+00  0.00000000000E+00 -0.88306254227E+03  0.35113020649E+04  0.33984471067E+04 0.  0.
        5    1    3    3  502    0  0.81518373300E+03 -0.13106608675E+04 -0.11757504037E+04  0.19403008865E+04  0.46999998093E+01 0.  1.
       -5    1    3    3    0  502 -0.81518373300E+03  0.13106608675E+04  0.29268786147E+03  0.15710011784E+04  0.46999998093E+01 0. -1.
</event>
<event>
 5   0  0.7838333E-07  0.3266521E+04  0.7818609E-02  0.8171467E-01
        2   -1    0    0  501    0  0.00000000000E+00  0.00000000000E+00  0.18699844286E+04  0.18699844286E+04  0.25500000920E-02 0.  1.
       -2   -1    0    0    0  501  0.00000000000E+00  0.00000000000E+00 -0.14265037701E+04  0.14265037701E+04  0.25500000920E-02 0. -1.
    10030    2    1    2    0    0  0.00000000000E+00  0.00000000000E+00  0.44348065852E+03  0.32964881987E+04  0.32665209856E+04 0.  0.
        1    1    3    3  502    0  0.26456056545E+03 -0.12173623194E+04  0.12876385976E+04  0.17916407194E+04  0.50400001928E-02 0.  1.
       -1    1    3    3    0  502 -0.26456056545E+03  0.12173623194E+04 -0.84415793909E+03  0.15048474792E+04  0.50400001928E-02 0. -1.
</event>
<event>
 5   0  0.2599367E-07  0.3306107E+04  0.7818609E-02  0.8161343E-01
       -1   -1    0    0    0  501  0.00000000000E+00  0.00000000000E+00  0.12663773087E+04  0.12663773087E+04  0.50400001928E-02 0.  1.
        1   -1    0    0  501    0  0.00000000000E+00  0.00000000000E+00 -0.21577981852E+04  0.21577981852E+04  0.50400001928E-02 0. -1.
    10030    2    1    2    0    0  0.00000000000E+00  0.00000000000E+00 -0.89142087653E+03  0.34241754940E+04  0.33061074747E+04 0.  0.
        2    1    3    3  502    0  0.30737141349E+03  0.46852341883E+03  0.11650117738E+04  0.12927659544E+04  0.25500000920E-02 0.  1.
       -2    1    3    3    0  502 -0.30737141349E+03 -0.46852341883E+03 -0.20564326503E+04  0.21314095395E+04  0.25500000920E-02 0. -1.
</event>
<event>
 5   0  0.2553250E-07  0.3439451E+04  0.7818609E-02  0.8128291E-01
        1   -1    0    0  501    0  0.00000000000E+00  0.00000000000E+00  0.23065898958E+04  0.23065898959E+04  0.50400001928E-02 0.  1.
       -1   -1    0    0    0  501  0.00000000000E+00  0.00000000000E+00 -0.12821765742E+04  0.12821765742E+04  0.50400001928E-02 0. -1.
    10030    2    1    2    0    0  0.00000000000E+00  0.00000000000E+00  0.10244133216E+04  0.35887664701E+04  0.34394508462E+04 0.  0.
        5    1    3    3  502    0  0.83161587988E+03 -0.14275516455E+04  0.10103690163E+04  0.19365836701E+04  0.46999998093E+01 0.  1.
       -5    1    3    3    0  502 -0.83161587988E+03  0.14275516455E+04  0.14044305295E+02  0.16521828000E+04  0.46999998093E+01 0. -1.
</event>
<event>
 5   0  0.2622205E-07  0.3417536E+04  0.7818609E-02  0.8133616E-01
        1   -1    0    0  501    0  0.00000000000E+00  0.00000000000E+00  0.21568086059E+04  0.21568086059E+04  0.50400001928E-02 0.  1.
       -1   -1    0    0    0  501  0.00000000000E+00  0.00000000000E+00 -0.13538005321E+04  0.13538005322E+04  0.50400001928E-02 0. -1.
    10030    2    1    2    0    0  0.00000000000E+00  0.00000000000E+00  0.80300807377E+03  0.35106091381E+04  0.34175363281E+04 0.  0.
        3    1    3    3  502    0 -0.81941926252E+03 -0.14971602946E+04  0.31585618112E+03  0.17357136898E+04  0.10100000352E+00 0. -1.
       -3    1    3    3    0  502  0.81941926252E+03  0.14971602946E+04  0.48715189265E+03  0.17748954483E+04  0.10100000352E+00 0.  1.
</event>
<event>
 5   0  0.2622205E-07  0.3402104E+04  0.7818609E-02  0.8137390E-01
        1   -1    0    0  501    0  0.00000000000E+00  0.00000000000E+00  0.22603221956E+04  0.22603221956E+04  0.50400001928E-02 0.  1.
       -1   -1    0    0    0  501  0.00000000000E+00  0.00000000000E+00 -0.12801615480E+04  0.12801615480E+04  0.50400001928E-02 0. -1.
    10030    2    1    2    0    0  0.00000000000E+00  0.00000000000E+00  0.98016064759E+03  0.35404837437E+04  0.34021037968E+04 0.  0.
        3    1    3    3  502    0  0.16416158756E+04 -0.17409562673E+03  0.91709391775E+03  0.18884578985E+04  0.10100000352E+00 0.  1.
       -3    1    3    3    0  502 -0.16416158756E+04  0.17409562673E+03  0.63066729837E+02  0.16520258451E+04  0.10100000352E+00 0. -1.
</event>
<event>
 5   0  0.2553250E-07  0.3378183E+04  0.7818609E-02  0.8143282E-01
       -1   -1    0    0    0  501  0.00000000000E+00  0.00000000000E+00  0.12247475787E+04  0.12247475787E+04  0.50400001928E-02 0.  1.
        1   -1    0    0  501    0  0.00000000000E+00  0.00000000000E+00 -0.23294840565E+04  0.23294840565E+04  0.50400001928E-02 0. -1.
    10030    2    1    2    0    0  0.00000000000E+00  0.00000000000E+00 -0.11047364778E+04  0.35542316352E+04  0.33781829186E+04 0.  0.
        5    1    3    3  502    0 -0.85862643136E+03 -0.86365542482E+03  0.67903955863E+03  0.13943661118E+04  0.46999998093E+01 0.  1.
       -5    1    3    3    0  502  0.85862643136E+03  0.86365542482E+03 -0.17837760364E+04  0.21598655235E+04  0.46999998093E+01 0. -1.
</event>
<event>
 5   0  0.2592200E-07  0.3440359E+04  0.7818609E-02  0.8128071E-01
        1   -1    0    0  501    0  0.00000000000E+00  0.00000000000E+00  0.14868964657E+04  0.14868964657E+04  0.50400001928E-02 0.  1.
       -1   -1    0    0    0  501  0.00000000000E+00  0.00000000000E+00 -0.19900633521E+04  0.19900633521E+04  0.50400001928E-02 0. -1.
    10030    2    1    2    0    0  0.00000000000E+00  0.00000000000E+00 -0.50316688641E+03  0.34769598178E+04  0.34403593793E+04 0.  0.
        4    1    3    3  502    0 -0.85707154631E+03  0.11793799665E+04  0.67109568683E+03  0.16049547578E+04  0.12699999809E+01 0.  1.
       -4    1    3    3    0  502  0.85707154631E+03 -0.11793799665E+04 -0.11742625732E+04  0.18720050600E+04  0.12699999809E+01 0. -1.
</event>
<event>
 5   0  0.2553250E-07  0.3478732E+04  0.7818609E-02  0.8118849E-01
        1   -1    0    0  501    0  0.00000000000E+00  0.00000000000E+00  0.18695198623E+04  0.18695198624E+04  0.50400001928E-02 0. -1.
       -1   -1    0    0    0  501  0.00000000000E+00  0.00000000000E+00 -0.16182737668E+04  0.16182737668E+04  0.50400001928E-02 0.  1.
    10030    2    1    2    0    0  0.00000000000E+00  0.00000000000E+00  0.25124609558E+03  0.34877936291E+04  0.34787324989E+04 0.  0.
        5    1    3    3  502    0  0.14672417806E+04 -0.89174045456E+02  0.10578957944E+04  0.18110538521E+04  0.46999998093E+01 0. -1.
       -5    1    3    3    0  502 -0.14672417806E+04  0.89174045456E+02 -0.80664969886E+03  0.16767397770E+04  0.46999998093E+01 0.  1.
</event>
<event>
 5   0  0.7610412E-07  0.3409033E+04  0.7818609E-02  0.8135693E-01
       -2   -1    0    0    0  501  0.00000000000E+00  0.00000000000E+00  0.16343710808E+04  0.16343710808E+04  0.25500000920E-02 0.  1.
        2   -1    0    0  501    0  0.00000000000E+00  0.00000000000E+00 -0.17776725052E+04  0.17776725052E+04  0.25500000920E-02 0. -1.
    10030    2    1    2    0    0  0.00000000000E+00  0.00000000000E+00 -0.14330142444E+03  0.34120435860E+04  0.34090330205E+04 0.  0.
        4    1    3    3  502    0 -0.12599031080E+04 -0.62047698225E+03 -0.10384371731E+04  0.17466255759E+04  0.12699999809E+01 0. -1.
       -4    1    3    3    0  502  0.12599031080E+04  0.62047698225E+03  0.89513574865E+03  0.16654180101E+04  0.12699999809E+01 0.  1.
</event>
<event>
 5   0  0.2553250E-07  0.3401513E+04  0.7818609E-02  0.8137535E-01
       -1   -1    0    0    0  501  0.00000000000E+00  0.00000000000E+00  0.10654526494E+04  0.10654526494E+04  0.50400001928E-02 0. -1.
        1   -1    0    0  501    0  0.00000000000E+00  0.00000000000E+00 -0.27148774851E+04  0.27148774851E+04  0.50400001928E-02 0.  1.
    10030    2    1    2    0    0  0.00000000000E+00  0.00000000000E+00 -0.16494248357E+04  0.37803301345E+04  0.34015134333E+04 0.  0.
        5    1    3    3  502    0 -0.12410652934E+04  0.11534707265E+04 -0.66057008115E+03  0.18185468654E+04  0.46999998093E+01 0.  1.
       -5    1    3    3    0  502  0.12410652934E+04 -0.11534707265E+04 -0.98885475457E+03  0.19617832691E+04  0.46999998093E+01 0. -1.
</event>
<event>
 5   0  0.8489228E-07  0.3389822E+04  0.7818609E-02  0.8140409E-01
       -2   -1    0    0    0  501  0.00000000000E+00  0.00000000000E+00  0.15460732727E+04  0.15460732727E+04  0.25500000920E-02 0. -1.
        2   -1    0    0  501    0  0.00000000000E+00  0.00000000000E+00 -0.18580775326E+04  0.18580775326E+04  0.25500000920E-02 0.  1.
    10030    2    1    2    0    0  0.00000000000E+00  0.00000000000E+00 -0.31200425986E+03  0.34041508053E+04  0.33898224212E+04 0.  0.
        3    1    3    3  502    0  0.49310544314E+02  0.71002973474E+03  0.13887293694E+04  0.15604944811E+04  0.10100000352E+00 0. -1.
       -3    1    3    3    0  502 -0.49310544314E+02 -0.71002973474E+03 -0.17007336292E+04  0.18436563242E+04  0.10100000352E+00 0.  1.
</event>
<event>
 5   0  0.8489228E-07  0.3354973E+04  0.7818609E-02  0.8149047E-01
        2   -1    0    0  501    0  0.00000000000E+00  0.00000000000E+00  0.19758082748E+04  0.19758082748E+04  0.25500000920E-02 0. -1.
       -2   -1    0    0    0  501  0.00000000000E+00  0.00000000000E+00 -0.14242070815E+04  0.14242070815E+04  0.25500000920E-02 0.  1.
    10030    2    1    2    0    0  0.00000000000E+00  0.00000000000E+00  0.55160119330E+03  0.34000153563E+04  0.33549725106E+04 0.  0.
        3    1    3    3  502    0  0.11711577373E+04  0.32388905005E+03  0.14478069604E+04  0.18901480279E+04  0.10100000352E+00 0. -1.
       -3    1    3    3    0  502 -0.11711577373E+04 -0.32388905005E+03 -0.89620576710E+03  0.15098673285E+04  0.10100000352E+00 0.  1.
</event>
<event>
 5   0  0.2599367E-07  0.3409757E+04  0.7818609E-02  0.8135516E-01
       -1   -1    0    0    0  501  0.00000000000E+00  0.00000000000E+00  0.11042560182E+04  0.11042560182E+04  0.50400001928E-02 0. -1.
        1   -1    0    0  501    0  0.00000000000E+00  0.00000000000E+00 -0.26321891352E+04  0.26321891352E+04  0.50400001928E-02 0.  1.
    10030    2    1    2    0    0  0.00000000000E+00  0.00000000000E+00 -0.15279331170E+04  0.37364451534E+04  0.34097569964E+04 0.  0.
        2    1    3    3  502    0  0.53612417713E+03  0.65486813240E+03  0.85780577700E+03  0.12050361634E+04  0.25500000920E-02 0. -1.
       -2    1    3    3    0  502 -0.53612417713E+03 -0.65486813240E+03 -0.23857388940E+04  0.25314089900E+04  0.25500000920E-02 0.  1.
</event>
<event>
 5   0  0.7822003E-07  0.3395973E+04  0.7818609E-02  0.8138895E-01
        2   -1    0    0  501    0  0.00000000000E+00  0.00000000000E+00  0.21797921772E+04  0.21797921772E+04  0.25500000920E-02 0. -1.
       -2   -1    0    0    0  501  0.00000000000E+00  0.00000000000E+00 -0.13226755002E+04  0.13226755002E+04  0.25500000920E-02 0.  1.
    10030    2    1    2    0    0  0.00000000000E+00  0.00000000000E+00  0.85711667699E+03  0.35024676774E+04  0.33959727374E+04 0.  0.
        5    1    3    3  502    0  0.17726658300E+03  0.11852440410E+04  0.16691547226E+04  0.20548300309E+04  0.46999998093E+01 0. -1.
       -5    1    3    3    0  502 -0.17726658300E+03 -0.11852440410E+04 -0.81203804560E+03  0.14476376465E+04  0.46999998093E+01 0.  1.
</event>
<event>
 5   0  0.2553250E-07  0.3387007E+04  0.7818609E-02  0.8141102E-01
        1   -1    0    0  501    0  0.00000000000E+00  0.00000000000E+00  0.21666445581E+04  0.21666445581E+04  0.50400001928E-02 0.  1.
       -1   -1    0    0    0  501  0.00000000000E+00  0.00000000000E+00 -0.13236850163E+04  0.13236850163E+04  0.50400001928E-02 0. -1.
    10030    2    1    2    0    0  0.00000000000E+00  0.00000000000E+00  0.84295954173E+03  0.34903295744E+04  0.33870074917E+04 0.  0.
        5    1    3    3  502    0 -0.93925258437E+03  0.81487394630E+03 -0.76325098428E+03  0.14590370525E+04  0.46999998093E+01 0. -1.
       -5    1    3    3    0  502  0.93925258437E+03 -0.81487394630E+03  0.16062105260E+04  0.20312925219E+04  0.46999998093E+01 0.  1.
</event>
<event>
 5   0  0.2599367E-07  0.3455277E+04  0.7818609E-02  0.8124471E-01
        1   -1    0    0  501    0  0.00000000000E+00  0.00000000000E+00  0.23520246206E+04  0.23520246206E+04  0.50400001928E-02 0. -1.
       -1   -1    0    0    0  501  0.00000000000E+00  0.00000000000E+00 -0.12690065201E+04  0.12690065201E+04  0.50400001928E-02 0.  1.
    10030    2    1    2    0    0  0.00000000000E+00  0.00000000000E+00  0.10830181005E+04  0.36210311407E+04  0.34552768798E+04 0.  0.
        2    1    3    3  502    0 -0.30433999589E+02 -0.17232224091E+04  0.41613348307E+03  0.17730168570E+04  0.25500000920E-02 0.  1.
       -2    1    3    3    0  502  0.30433999589E+02  0.17232224091E+04  0.66688461746E+03  0.18480142837E+04  0.25500000920E-02 0. -1.
</event>
<event>
 5   0  0.7822003E-07  0.3387523E+04  0.7818609E-02  0.8140975E-01
       -2   -1    0    0    0  501  0.00000000000E+00  0.00000000000E+00  0.19256364814E+04  0.19256364814E+04  0.25500000920E-02 0.  1.
        2   -1    0    0  501    0  0.00000000000E+00  0.00000000000E+00 -0.14898076458E+04  0.14898076458E+04  0.25500000920E-02 0. -1.
    10030    2    1    2    0    0  0.00000000000E+00  0.00000000000E+00  0.43582883561E+03  0.34154441271E+04  0.33875229611E+04 0.  0.
        5    1    3    3  502    0  0.35057846644E+03 -0.56187544012E+03  0.17896722794E+04  0.19082867261E+04  0.46999998093E+01 0.  1.
       -5    1    3    3    0  502 -0.35057846644E+03  0.56187544012E+03 -0.13538434438E+04  0.15071574011E+04  0.46999998093E+01 0. -1.
</event>
<event>
 5   0  0.7838333E-07  0.3349825E+04  0.7818609E-02  0.8150332E-01
        2   -1    0    0  501    0  0.00000000000E+00  0.00000000000E+00  0.17721461111E+04  0.17721461111E+04  0.25500000920E-02 0. -1.
       -2   -1    0    0    0  501  0.00000000000E+00  0.00000000000E+00 -0.15830136392E+04  0.15830136392E+04  0.25500000920E-02 0.  1.
    10030    2    1    2    0    0  0.00000000000E+00  0.00000000000E+00  0.18913247183E+03  0.33551597503E+04  0.33498247504E+04 0.  0.
        1    1    3    3  502    0 -0.12367575062E+04 -0.89592733559E+03  0.78346725027E+03  0.17164136599E+04  0.50400001928E-02 0. -1.
       -1    1    3    3    0  502  0.12367575062E+04  0.89592733559E+03 -0.59433477844E+03  0.16387460904E+04  0.50400001928E-02 0.  1.
</event>
<event>
 5   0  0.2599367E-07  0.3507661E+04  0.7818609E-02  0.8111977E-01
       -1   -1    0    0    0  501  0.00000000000E+00  0.00000000000E+00  0.17104492481E+04  0.17104492481E+04  0.50400001928E-02 0. -1.
        1   -1    0    0  501    0  0.00000000000E+00  0.00000000000E+00 -0.17983118199E+04  0.17983118199E+04  0.50400001928E-02 0.  1.
    10030    2    1    2    0    0  0.00000000000E+00  0.00000000000E+00 -0.87862571814E+02  0.35087610679E+04  0.35076608160E+04 0.  0.
        2    1    3    3  502    0  0.51442084786E+03  0.74739575766E+03 -0.15452990967E+04  0.17919761509E+04  0.25500000920E-02 0.  1.
       -2    1    3    3    0  502 -0.51442084786E+03 -0.74739575766E+03  0.14574365249E+04  0.17167849170E+04  0.25500000920E-02 0. -1.
</event>
<event>
 5   0  0.7838333E-07  0.3382421E+04  0.7818609E-02  0.8142234E-01
        2   -1    0    0  501    0  0.00000000000E+00  0.00000000000E+00  0.30462624231E+04  0.30462624231E+04  0.25500000920E-02 0. -1.
       -2   -1    0    0    0  501  0.00000000000E+00  0.00000000000E+00 -0.93891868179E+03  0.93891868179E+03  0.25500000920E-02 0.  1.
    10030    2    1    2    0    0  0.00000000000E+00  0.00000000000E+00  0.21073437413E+04  0.39851811048E+04  0.33824208482E+04 0.  0.
        1    1    3    3  502    0 -0.66869673630E+03  0.21292599638E+03  0.28666131904E+04  0.29512648116E+04  0.50400001928E-02 0. -1.
       -1    1    3    3    0  502  0.66869673630E+03 -0.21292599638E+03 -0.75926944909E+03  0.10339162932E+04  0.50400001928E-02 0.  1.
</event>
<event>
 5   0  0.2592200E-07  0.3466399E+04  0.7818609E-02  0.8121799E-01
       -1   -1    0    0    0  501  0.00000000000E+00  0.00000000000E+00  0.11012940134E+04  0.11012940134E+04  0.50400001928E-02 0. -1.
        1   -1    0    0  501    0  0.00000000000E+00  0.00000000000E+00 -0.27276832019E+04  0.27276832019E+04  0.50400001928E-02 0.  1.
    10030    2    1    2    0    0  0.00000000000E+00  0.00000000000E+00 -0.16263891884E+04  0.38289772153E+04  0.34663993888E+04 0.  0.
        4    1    3    3  502    0 -0.37752035261E+03  0.10098654606E+04 -0.23122073829E+04  0.25512064714E+04  0.12699999809E+01 0.  1.
       -4    1    3    3    0  502  0.37752035261E+03 -0.10098654606E+04  0.68581819445E+03  0.12777707439E+04  0.12699999809E+01 0. -1.
</event>
<event>
 5   0  0.8489228E-07  0.3389241E+04  0.7818609E-02  0.8140552E-01
        2   -1    0    0  501    0  0.00000000000E+00  0.00000000000E+00  0.27285086989E+04  0.27285086989E+04  0.25500000920E-02 0. -1.
       -2   -1    0    0    0  501  0.00000000000E+00  0.00000000000E+00 -0.10524935612E+04  0.10524935612E+04  0.25500000920E-02 0.  1.
    10030    2    1    2    0    0  0.00000000000E+00  0.00000000000E+00  0.16760151377E+04  0.37810022601E+04  0.33892405268E+04 0.  0.
        3    1    3    3  502    0 -0.18828954574E+03  0.16559114086E+04  0.49553369967E+03  0.17386918082E+04  0.10100000352E+00 0.  1.
       -3    1    3    3    0  502  0.18828954574E+03 -0.16559114086E+04  0.11804814380E+04  0.20423104519E+04  0.10100000352E+00 0. -1.
</event>
<event>
 5   0  0.2592200E-07  0.3415499E+04  0.7818609E-02  0.8134113E-01
       -1   -1    0    0    0  501  0.00000000000E+00  0.00000000000E+00  0.16981159228E+04  0.16981159229E+04  0.50400001928E-02 0. -1.
        1   -1    0    0  501    0  0.00000000000E+00  0.00000000000E+00 -0.17174376833E+04  0.17174376833E+04  0.50400001928E-02 0.  1.
    10030    2    1    2    0    0  0.00000000000E+00  0.00000000000E+00 -0.19321760482E+02  0.34155536062E+04  0.34154989542E+04 0.  0.
        4    1    3    3  502    0 -0.34935678476E+03  0.92478672108E+03 -0.14022082145E+04  0.17156544327E+04  0.12699999809E+01 0.  1.
       -4    1    3    3    0  502  0.34935678476E+03 -0.92478672108E+03  0.13828864540E+04  0.16998991735E+04  0.12699999809E+01 0. -1.
</event>
<event>
 5   0  0.8489228E-07  0.3405118E+04  0.7818609E-02  0.8136651E-01
        2   -1    0    0  501    0  0.00000000000E+00  0.00000000000E+00  0.23673194661E+04  0.23673194661E+04  0.25500000920E-02 0.  1.
       -2   -1    0    0    0  501  0.00000000000E+00  0.00000000000E+00 -0.12244680019E+04  0.12244680019E+04  0.25500000920E-02 0. -1.
    10030    2    1    2    0    0  0.00000000000E+00  0.00000000000E+00  0.11428514642E+04  0.35917874681E+04  0.34051178756E+04 0.  0.
        3    1    3    3  502    0 -0.16015114762E+04  0.70675656922E+02 -0.33486691422E+02  0.16034199156E+04  0.10100000352E+00 0.  1.
       -3    1    3    3    0  502  0.16015114762E+04 -0.70675656922E+02  0.11763381556E+04  0.19883675525E+04  0.10100000352E+00 0. -1.
</event>
<event>
 5   0  0.7610412E-07  0.3388399E+04  0.7818609E-02  0.8140759E-01
       -2   -1    0    0    0  501  0.00000000000E+00  0.00000000000E+00  0.22830835514E+04  0.22830835514E+04  0.25500000920E-02 0.  1.
        2   -1    0    0  501    0  0.00000000000E+00  0.00000000000E+00 -0.12572084718E+04  0.12572084718E+04  0.25500000920E-02 0. -1.
    10030    2    1    2    0    0  0.00000000000E+00  0.00000000000E+00  0.10258750796E+04  0.35402920232E+04  0.33883990218E+04 0.  0.
        4    1    3    3  502    0  0.46806687044E+03 -0.14259865931E+04 -0.30829013023E+03  0.15321777887E+04  0.12699999809E+01 0. -1.
       -4    1    3    3    0  502 -0.46806687044E+03  0.14259865931E+04  0.13341652098E+04  0.20081142345E+04  0.12699999809E+01 0.  1.
</event>
<event>
 5   0  0.7899402E-07  0.3428626E+04  0.7818609E-02  0.8130916E-01
       -2   -1    0    0    0  501  0.00000000000E+00  0.00000000000E+00  0.12816579981E+04  0.12816579981E+04  0.25500000920E-02 0. -1.
        2   -1    0    0  501    0  0.00000000000E+00  0.00000000000E+00 -0.22930210135E+04  0.22930210135E+04  0.25500000920E-02 0.  1.
    10030    2    1    2    0    0  0.00000000000E+00  0.00000000000E+00 -0.10113630154E+04  0.35746790116E+04  0.34286258016E+04 0.  0.
        2    1    3    3  502    0 -0.36612514385E+03 -0.15273176377E+04  0.21069947816E+03  0.15846580254E+04  0.25500000920E-02 0. -1.
       -2    1    3    3    0  502  0.36612514385E+03  0.15273176377E+04 -0.12220624936E+04  0.19900209862E+04  0.25500000920E-02 0.  1.
</event>
<event>
 5   0  0.7899402E-07  0.3527421E+04  0.7818609E-02  0.8107322E-01
       -2   -1    0    0    0  501  0.00000000000E+00  0.00000000000E+00  0.15178186734E+04  0.15178186734E+04  0.25500000920E-02 0. -1.
        2   -1    0    0  501    0  0.00000000000E+00  0.00000000000E+00 -0.20494371600E+04  0.20494371600E+04  0.25500000920E-02 0.  1.
    10030    2    1    2    0    0  0.00000000000E+00  0.00000000000E+00 -0.53161848667E+03  0.35672558334E+04  0.35274205825E+04 0.  0.
        2    1    3    3  502    0 -0.31628730770E+03 -0.12808801471E+04  0.91787128309E+03  0.16072272100E+04  0.25500000920E-02 0. -1.
       -2    1    3    3    0  502  0.31628730770E+03  0.12808801471E+04 -0.14494897698E+04  0.19600286235E+04  0.25500000920E-02 0.  1.
</event>
<event>
 5   0  0.2592200E-07  0.3424179E+04  0.7818609E-02  0.8131997E-01
        1   -1    0    0  501    0  0.00000000000E+00  0.00000000000E+00  0.21642437938E+04  0.21642437938E+04  0.50400001928E-02 0.  1.
       -1   -1    0    0    0  501  0.00000000000E+00  0.00000000000E+00 -0.13543990610E+04  0.13543990610E+04  0.50400001928E-02 0. -1.
    10030    2    1    2    0    0  0.00000000000E+00  0.00000000000E+00  0.80984473279E+03  0.35186428547E+04  0.34241785946E+04 0.  0.
        4    1    3    3  502    0  0.34838900524E+03  0.81212361480E+03  0.19117763955E+04  0.21061363355E+04  0.12699999809E+01 0.  1.
       -4    1    3    3    0  502 -0.34838900524E+03 -0.81212361480E+03 -0.11019316627E+04  0.14125065192E+04  0.12699999809E+01 0. -1.
</event>
<event>
 5   0  0.7899402E-07  0.3398320E+04  0.7818609E-02  0.8138319E-01
       -2   -1    0    0    0  501  0.00000000000E+00  0.00000000000E+00  0.15266871466E+04  0.15266871467E+04  0.25500000920E-02 0.  1.
        2   -1    0    0  501    0  0.00000000000E+00  0.00000000000E+00 -0.18911173974E+04  0.18911173974E+04  0.25500000920E-02 0. -1.
    10030    2    1    2    0    0  0.00000000000E+00  0.00000000000E+00 -0.36443025073E+03  0.34178045440E+04  0.33983199516E+04 0.  0.
        2    1    3    3  502    0 -0.95804117973E+03 -0.42192754957E+02 -0.15929412216E+04  0.18593237658E+04  0.25500000920E-02 0. -1.
       -2    1    3    3    0  502  0.95804117973E+03  0.42192754957E+02  0.12285109709E+04  0.15584807782E+04  0.25500000920E-02 0.  1.
</event>
<event>
 5   0  0.7822003E-07  0.3422027E+04  0.7818609E-02  0.8132521E-01
       -2   -1    0    0    0  501  0.00000000000E+00  0.00000000000E+00  0.20031653078E+04  0.20031653078E+04  0.25500000920E-02 0.  1.
        2   -1    0    0  501    0  0.00000000000E+00  0.00000000000E+00 -0.14614701823E+04  0.14614701823E+04  0.25500000920E-02 0. -1.
    10030    2    1    2    0    0  0.00000000000E+00  0.00000000000E+00  0.54169512559E+03  0.34646354901E+04  0.34220265151E+04 0.  0.
        5    1    3    3  502    0  0.17065688053E+03 -0.42152657495E+03 -0.13991558910E+04  0.14712130103E+04  0.46999998093E+01 0. -1.
       -5    1    3    3    0  502 -0.17065688053E+03  0.42152657495E+03  0.19408510166E+04  0.19934224798E+04  0.46999998093E+01 0.  1.
</event>
<event>
 5   0  0.7822003E-07  0.3351533E+04  0.7818609E-02  0.8149905E-01
       -2   -1    0    0    0  501  0.00000000000E+00  0.00000000000E+00  0.14482833520E+04  0.14482833520E+04  0.25500000920E-02 0.  1.
        2   -1    0    0  501    0  0.00000000000E+00  0.00000000000E+00 -0.19389808547E+04  0.19389808547E+04  0.25500000920E-02 0. -1.
    10030    2    1    2    0    0  0.00000000000E+00  0.00000000000E+00 -0.49069750277E+03  0.33872642067E+04  0.33515331964E+04 0.  0.
        5    1    3    3  502    0  0.84495463102E+03  0.99972836345E+03 -0.13028144572E+04  0.18468223328E+04  0.46999998093E+01 0. -1.
       -5    1    3    3    0  502 -0.84495463102E+03 -0.99972836345E+03  0.81211695439E+03  0.15404418739E+04  0.46999998093E+01 0.  1.
</event>
<event>
 5   0  0.8489228E-07  0.3395026E+04  0.7818609E-02  0.8139128E-01
       -2   -1    0    0    0  501  0.00000000000E+00  0.00000000000E+00  0.16482897139E+04  0.16482897139E+04  0.25500000920E-02 0. -1.
        2   -1    0    0  501    0  0.00000000000E+00  0.00000000000E+00 -0.17482058134E+04  0.17482058134E+04  0.25500000920E-02 0.  1.
    10030    2    1    2    0    0  0.00000000000E+00  0.00000000000E+00 -0.99916099460E+02  0.33964955273E+04  0.33950255728E+04 0.  0.
        3    1    3    3  502    0 -0.16804618398E+04  0.21876316713E+03  0.48777798839E+02  0.16953432108E+04  0.10100000352E+00 0.  1.
       -3    1    3    3    0  502  0.16804618398E+04 -0.21876316713E+03 -0.14869389830E+03  0.17011523165E+04  0.10100000352E+00 0. -1.
</event>
<event>
 5   0  0.2553250E-07  0.3405216E+04  0.7818609E-02  0.8136627E-01
       -1   -1    0    0    0  501  0.00000000000E+00  0.00000000000E+00  0.13165189992E+04  0.13165189992E+04  0.50400001928E-02 0. -1.
        1   -1    0    0  501    0  0.00000000000E+00  0.00000000000E+00 -0.22019230603E+04  0.22019230603E+04  0.50400001928E-02 0.  1.
    10030    2    1    2    0    0  0.00000000000E+00  0.00000000000E+00 -0.88540406110E+03  0.35184420596E+04  0.34052157311E+04 0.  0.
        5    1    3    3  502    0 -0.12581824599E+04  0.11469699141E+04 -0.46024806710E+03  0.17636364306E+04  0.46999998093E+01 0. -1.
       -5    1    3    3    0  502  0.12581824599E+04 -0.11469699141E+04 -0.42515599400E+03  0.17548056289E+04  0.46999998093E+01 0.  1.
</event>
<event>
 5   0  0.2641442E-07  0.3374564E+04  0.7818609E-02  0.8144178E-01
        1   -1    0    0  501    0  0.00000000000E+00  0.00000000000E+00  0.23620586355E+04  0.23620586355E+04  0.50400001928E-02 0. -1.
       -1   -1    0    0    0  501  0.00000000000E+00  0.00000000000E+00 -0.12052705646E+04  0.12052705646E+04  0.50400001928E-02 0.  1.
    10030    2    1    2    0    0  0.00000000000E+00  0.00000000000E+00  0.11567880709E+04  0.35673292002E+04  0.33745635246E+04 0.  0.
        1    1    3    3  502    0 -0.17382404600E+03  0.16722556038E+04  0.42790283021E+03  0.17348643853E+04  0.50400001928E-02 0.  1.
       -1    1    3    3    0  502  0.17382404600E+03 -0.16722556038E+04  0.72888524071E+03  0.18324648148E+04  0.50400001928E-02 0. -1.
</event>
<event>
 5   0  0.8489228E-07  0.3472998E+04  0.7818609E-02  0.8120219E-01
        2   -1    0    0  501    0  0.00000000000E+00  0.00000000000E+00  0.27800858896E+04  0.27800858896E+04  0.25500000920E-02 0.  1.
       -2   -1    0    0    0  501  0.00000000000E+00  0.00000000000E+00 -0.10846528006E+04  0.10846528006E+04  0.25500000920E-02 0. -1.
    10030    2    1    2    0    0  0.00000000000E+00  0.00000000000E+00  0.16954330889E+04  0.38647386902E+04  0.34729975215E+04 0.  0.
        3    1    3    3  502    0  0.74470703992E+03 -0.12401830817E+04 -0.22125462356E+03  0.14634193760E+04  0.10100000352E+00 0. -1.
       -3    1    3    3    0  502 -0.74470703992E+03  0.12401830817E+04  0.19166877125E+04  0.24013193142E+04  0.10100000352E+00 0.  1.
</event>
<event>
 5   0  0.2599367E-07  0.3423863E+04  0.7818609E-02  0.8132074E-01
       -1   -1    0    0    0  501  0.00000000000E+00  0.00000000000E+00  0.16030040821E+04  0.16030040821E+04  0.50400001928E-02 0.  1.
        1   -1    0    0  501    0  0.00000000000E+00  0.00000000000E+00 -0.18282610453E+04  0.18282610453E+04  0.50400001928E-02 0. -1.
    10030    2    1    2    0    0  0.00000000000E+00  0.00000000000E+00 -0.22525696324E+03  0.34312651274E+04  0.34238632676E+04 0.  0.
        2    1    3    3  502    0  0.44584455679E+03 -0.16512753027E+04 -0.18505105641E+03  0.17203869877E+04  0.25500000920E-02 0. -1.
       -2    1    3    3    0  502 -0.44584455679E+03  0.16512753027E+04 -0.40205906835E+02  0.17108781397E+04  0.25500000920E-02 0.  1.
</event>
<event>
 5   0  0.7610412E-07  0.3389304E+04  0.7818609E-02  0.8140537E-01
        2   -1    0    0  501    0  0.00000000000E+00  0.00000000000E+00  0.25006368931E+04  0.25006368931E+04  0.25500000920E-02 0. -1.
       -2   -1    0    0    0  501  0.00000000000E+00  0.00000000000E+00 -0.11484453841E+04  0.11484453841E+04  0.25500000920E-02 0.  1.
    10030    2    1    2    0    0  0.00000000000E+00  0.00000000000E+00  0.13521915090E+04  0.36490822772E+04  0.33893037027E+04 0.  0.
        4    1    3    3  502    0 -0.31459519585E+03 -0.16650616604E+04  0.69875179113E+03  0.18329364824E+04  0.12699999809E+01 0. -1.
       -4    1    3    3    0  502  0.31459519585E+03  0.16650616604E+04  0.65343971785E+03  0.18161457948E+04  0.12699999809E+01 0.  1.
</event>
<event>
 5   0  0.2592200E-07  0.3378369E+04  0.7818609E-02  0.8143236E-01
       -1   -1    0    0    0  501  0.00000000000E+00  0.00000000000E+00  0.11529741399E+04  0.11529741399E+04  0.50400001928E-02 0. -1.
        1   -1    0    0  501    0  0.00000000000E+00  0.00000000000E+00 -0.24747679527E+04  0.24747679527E+04  0.50400001928E-02 0.  1.
    10030    2    1    2    0    0  0.00000000000E+00  0.00000000000E+00 -0.13217938128E+04  0.36277420926E+04  0.33783685126E+04 0.  0.
        4    1    3    3  502    0  0.36255217719E+01 -0.14298447791E+04 -0.16266574231E+04  0.21657528072E+04  0.12699999809E+01 0.  1.
       -4    1    3    3    0  502 -0.36255217719E+01  0.14298447791E+04  0.30486361033E+03  0.14619892854E+04  0.12699999809E+01 0. -1.
</event>
<event>
 5   0  0.7610412E-07  0.3431158E+04  0.7818609E-02  0.8130301E-01
        2   -1    0    0  501    0  0.00000000000E+00  0.00000000000E+00  0.27150821889E+04  0.27150821889E+04  0.25500000920E-02 0. -1.
       -2   -1    0    0    0  501  0.00000000000E+00  0.00000000000E+00 -0.10840230282E+04  0.10840230282E+04  0.25500000920E-02 0.  1.
    10030    2    1    2    0    0  0.00000000000E+00  0.00000000000E+00  0.16310591606E+04  0.37991052171E+04  0.34311581813E+04 0.  0.
        4    1    3    3  502    0  0.33258731128E+03  0.11063830476E+04 -0.58874736513E+03  0.12966583361E+04  0.12699999809E+01 0.  1.
       -4    1    3    3    0  502 -0.33258731128E+03 -0.11063830476E+04  0.22198065257E+04  0.25024468810E+04  0.12699999809E+01 0. -1.
</event>
<event>
 5   0  0.7838333E-07  0.3392280E+04  0.7818609E-02  0.8139804E-01
       -2   -1    0    0    0  501  0.00000000000E+00  0.00000000000E+00  0.10332130594E+04  0.10332130594E+04  0.25500000920E-02 0.  1.
        2   -1    0    0  501    0  0.00000000000E+00  0.00000000000E+00 -0.27844120619E+04  0.27844120619E+04  0.25500000920E-02 0. -1.
    10030    2    1    2    0    0  0.00000000000E+00  0.00000000000E+00 -0.17511990025E+04  0.38176251213E+04  0.33922800032E+04 0.  0.
        1    1    3    3  502    0 -0.11482518900E+04  0.90615751616E+03 -0.18419171083E+04  0.23520762065E+04  0.50400001928E-02 0. -1.
       -1    1    3    3    0  502  0.11482518900E+04 -0.90615751616E+03  0.90718105809E+02  0.14655489148E+04  0.50400001928E-02 0.  1.
</event>
<event>
 5   0  0.7899402E-07  0.3713645E+04  0.7818609E-02  0.8064945E-01
        2   -1    0    0  501    0  0.00000000000E+00  0.00000000000E+00  0.14393237134E+04  0.14393237134E+04  0.25500000920E-02 0. -1.
       -2   -1    0    0    0  501  0.00000000000E+00  0.00000000000E+00 -0.23954237765E+04  0.23954237765E+04  0.25500000920E-02 0.  1.
    10030    2    1    2    0    0  0.00000000000E+00  0.00000000000E+00 -0.95610006310E+03  0.38347474899E+04  0.37136452416E+04 0.  0.
        2    1    3    3  502    0 -0.56198662384E+03 -0.18415314260E+03 -0.22955754451E+04  0.23705290484E+04  0.25500000920E-02 0.  1.
       -2    1    3    3    0  502  0.56198662384E+03  0.18415314260E+03  0.13394753820E+04  0.14642184415E+04  0.25500000920E-02 0. -1.
</event>
<event>
 5   0  0.2622205E-07  0.3411194E+04  0.7818609E-02  0.8135164E-01
       -1   -1    0    0    0  501  0.00000000000E+00  0.00000000000E+00  0.16470988191E+04  0.16470988191E+04  0.50400001928E-02 0.  1.
        1   -1    0    0  501    0  0.00000000000E+00  0.00000000000E+00 -0.17661729649E+04  0.17661729649E+04  0.50400001928E-02 0. -1.
    10030    2    1    2    0    0  0.00000000000E+00  0.00000000000E+00 -0.11907414581E+03  0.34132717840E+04  0.34111941633E+04 0.  0.
        3    1    3    3  502    0 -0.30183982232E+03 -0.11754617130E+03 -0.17351127434E+04  0.17650894094E+04  0.10100000352E+00 0. -1.
       -3    1    3    3    0  502  0.30183982232E+03  0.11754617130E+03  0.16160385976E+04  0.16481823746E+04  0.10100000352E+00 0.  1.
</event>
<event>
 5   0  0.2641442E-07  0.3383030E+04  0.7818609E-02  0.8142084E-01
       -1   -1    0    0    0  501  0.00000000000E+00  0.00000000000E+00  0.15782013369E+04  0.15782013369E+04  0.50400001928E-02 0.  1.
        1   -1    0    0  501    0  0.00000000000E+00  0.00000000000E+00 -0.18129644138E+04  0.18129644138E+04  0.50400001928E-02 0. -1.
    10030    2    1    2    0    0  0.00000000000E+00  0.00000000000E+00 -0.23476307695E+03  0.33911657507E+04  0.33830299210E+04 0.  0.
        1    1    3    3  502    0  0.42197012115E+03  0.16043744900E+04  0.21378636095E+03  0.16726568373E+04  0.50400001928E-02 0.  1.
       -1    1    3    3    0  502 -0.42197012115E+03 -0.16043744900E+04 -0.44854943790E+03  0.17185089134E+04  0.50400001928E-02 0. -1.
</event>
<event>
 5   0  0.2599367E-07  0.3393836E+04  0.7818609E-02  0.8139421E-01
       -1   -1    0    0    0  501  0.00000000000E+00  0.00000000000E+00  0.17017409749E+04  0.17017409749E+04  0.50400001928E-02 0.  1.
        1   -1    0    0  501    0  0.00000000000E+00  0.00000000000E+00 -0.16921084645E+04  0.16921084645E+04  0.50400001928E-02 0. -1.
    10030    2    1    2    0    0  0.00000000000E+00  0.00000000000E+00  0.96325103260E+01  0.33938494394E+04  0.33938357698E+04 0.  0.
        2    1    3    3  502    0 -0.21449312265E+03 -0.12548166304E+04  0.11268538544E+04  0.17001093155E+04  0.25500000920E-02 0.  1.
       -2    1    3    3    0  502  0.21449312265E+03  0.12548166304E+04 -0.11172213441E+04  0.16937401239E+04  0.25500000920E-02 0. -1.
</event>
<event>
 5   0  0.7899402E-07  0.3252337E+04  0.7818609E-02  0.8175130E-01
       -2   -1    0    0    0  501  0.00000000000E+00  0.00000000000E+00  0.22199298233E+04  0.22199298233E+04  0.25500000920E-02 0.  1.
        2   -1    0    0  501    0  0.00000000000E+00  0.00000000000E+00 -0.11912195567E+04  0.11912195567E+04  0.25500000920E-02 0. -1.
    10030    2    1    2    0    0  0.00000000000E+00  0.00000000000E+00  0.10287102666E+04  0.34111493800E+04  0.32523368952E+04 0.  0.
        2    1    3    3  502    0  0.78311386807E+03  0.54923196610E+03 -0.86496662827E+03  0.12896086038E+04  0.25500000920E-02 0. -1.
       -2    1    3    3    0  502 -0.78311386807E+03 -0.54923196610E+03  0.18936768949E+04  0.21215407762E+04  0.25500000920E-02 0.  1.
</event>
<event>
 5   0  0.7822003E-07  0.3427003E+04  0.7818609E-02  0.8131310E-01
        2   -1    0    0  501    0  0.00000000000E+00  0.00000000000E+00  0.17877906359E+04  0.17877906359E+04  0.25500000920E-02 0. -1.
       -2   -1    0    0    0  501  0.00000000000E+00  0.00000000000E+00 -0.16422997511E+04  0.16422997511E+04  0.25500000920E-02 0.  1.
    10030    2    1    2    0    0  0.00000000000E+00  0.00000000000E+00  0.14549088483E+03  0.34300903871E+04  0.34270034237E+04 0.  0.
        5    1    3    3  502    0 -0.11479977466E+04  0.24388806007E+03 -0.11768525463E+04  0.16620421830E+04  0.46999998093E+01 0.  1.
       -5    1    3    3    0  502  0.11479977466E+04 -0.24388806007E+03  0.13223434311E+04  0.17680482041E+04  0.46999998093E+01 0. -1.
</event>
<event>
 5   0  0.2641442E-07  0.3438367E+04  0.7818609E-02  0.8128554E-01
       -1   -1    0    0    0  501  0.00000000000E+00  0.00000000000E+00  0.14882407319E+04  0.14882407319E+04  0.50400001928E-02 0. -1.
        1   -1    0    0  501    0  0.00000000000E+00  0.00000000000E+00 -0.19859630962E+04  0.19859630963E+04  0.50400001928E-02 0.  1.
    10030    2    1    2    0    0  0.00000000000E+00  0.00000000000E+00 -0.49772236434E+03  0.34742038282E+04  0.34383665726E+04 0.  0.
        1    1    3    3  502    0 -0.16495412807E+04 -0.48436009224E+03 -0.24905381291E+03  0.17371295108E+04  0.50400001928E-02 0. -1.
       -1    1    3    3    0  502  0.16495412807E+04  0.48436009224E+03 -0.24866855142E+03  0.17370743174E+04  0.50400001928E-02 0.  1.
</event>
<event>
 5   0  0.7838333E-07  0.3416326E+04  0.7818609E-02  0.8133911E-01
       -2   -1    0    0    0  501  0.00000000000E+00  0.00000000000E+00  0.15604137226E+04  0.15604137226E+04  0.25500000920E-02 0.  1.
        2   -1    0    0  501    0  0.00000000000E+00  0.00000000000E+00 -0.18699020873E+04  0.18699020873E+04  0.25500000920E-02 0. -1.
    10030    2    1    2    0    0  0.00000000000E+00  0.00000000000E+00 -0.30948836471E+03  0.34303158098E+04  0.34163260247E+04 0.  0.
        1    1    3    3  502    0 -0.11829667524E+04  0.26813677298E+02  0.10822468637E+04  0.16035546715E+04  0.50400001928E-02 0.  1.
       -1    1    3    3    0  502  0.11829667524E+04 -0.26813677298E+02 -0.13917352284E+04  0.18267611383E+04  0.50400001928E-02 0. -1.
</event>
<event>
 5   0  0.2641442E-07  0.3414301E+04  0.7818609E-02  0.8134405E-01
        1   -1    0    0  501    0  0.00000000000E+00  0.00000000000E+00  0.12741440173E+04  0.12741440173E+04  0.50400001928E-02 0.  1.
       -1   -1    0    0    0  501  0.00000000000E+00  0.00000000000E+00 -0.22873106512E+04  0.22873106512E+04  0.50400001928E-02 0. -1.
    10030    2    1    2    0    0  0.00000000000E+00  0.00000000000E+00 -0.10131666339E+04  0.35614546685E+04  0.34143012063E+04 0.  0.
        1    1    3    3  502    0 -0.50995408106E+02  0.10179834701E+04  0.92191889432E+03  0.13743454168E+04  0.50400001928E-02 0.  1.
       -1    1    3    3    0  502  0.50995408106E+02 -0.10179834701E+04 -0.19350855282E+04  0.21871092516E+04  0.50400001928E-02 0. -1.
</event>
<event>
 5   0  0.7822003E-07  0.3380494E+04  0.7818609E-02  0.8142710E-01
       -2   -1    0    0    0  501  0.00000000000E+00  0.00000000000E+00  0.19641435731E+04  0.19641435731E+04  0.25500000920E-02 0.  1.
        2   -1    0    0  501    0  0.00000000000E+00  0.00000000000E+00 -0.14545447921E+04  0.14545447921E+04  0.25500000920E-02 0. -1.
    10030    2    1    2    0    0  0.00000000000E+00  0.00000000000E+00  0.50959878102E+03  0.34186883652E+04  0.33804939314E+04 0.  0.
        5    1    3    3  502    0 -0.20312486177E+03  0.15137534289E+04  0.98699873736E+03  0.18184877648E+04  0.46999998093E+01 0.  1.
       -5    1    3    3    0  502  0.20312486177E+03 -0.15137534289E+04 -0.47739995635E+03  0.16002006004E+04  0.46999998093E+01 0. -1.
</event>
<event>
 5   0  0.7610412E-07  0.3659978E+04  0.7818609E-02  0.8076889E-01
        2   -1    0    0  501    0  0.00000000000E+00  0.00000000000E+00  0.20959407785E+04  0.20959407785E+04  0.25500000920E-02 0.  1.
       -2   -1    0    0    0  501  0.00000000000E+00  0.00000000000E+00 -0.15977837158E+04  0.15977837158E+04  0.25500000920E-02 0. -1.
    10030    2    1    2    0    0  0.00000000000E+00  0.00000000000E+00  0.49815706265E+03  0.36937244943E+04  0.36599781667E+04 0.  0.
        4    1    3    3  502    0 -0.89610637056E+03 -0.13699903052E+04 -0.57637388337E+03  0.17355369572E+04  0.12699999809E+01 0. -1.
       -4    1    3    3    0  502  0.89610637056E+03  0.13699903052E+04  0.10745309460E+04  0.19581875371E+04  0.12699999809E+01 0.  1.
</event>
<event>
 5   0  0.7822003E-07  0.3343121E+04  0.7818609E-02  0.8152009E-01
       -2   -1    0    0    0  501  0.00000000000E+00  0.00000000000E+00  0.18748777016E+04  0.18748777016E+04  0.25500000920E-02 0.  1.
        2   -1    0    0  501    0  0.00000000000E+00  0.00000000000E+00 -0.14902920430E+04  0.14902920430E+04  0.25500000920E-02 0. -1.
    10030    2    1    2    0    0  0.00000000000E+00  0.00000000000E+00  0.38458565863E+03  0.33651697447E+04  0.33431214877E+04 0.  0.
        5    1    3    3  502    0 -0.35578325477E+03  0.10223006979E+04  0.14744329704E+04  0.18291132046E+04  0.46999998093E+01 0.  1.
       -5    1    3    3    0  502  0.35578325477E+03 -0.10223006979E+04 -0.10898473117E+04  0.15360565400E+04  0.46999998093E+01 0. -1.
</event>
<event>
 5   0  0.7822003E-07  0.3374804E+04  0.7818609E-02  0.8144118E-01
        2   -1    0    0  501    0  0.00000000000E+00  0.00000000000E+00  0.28027798666E+04  0.28027798666E+04  0.25500000920E-02 0. -1.
       -2   -1    0    0    0  501  0.00000000000E+00  0.00000000000E+00 -0.10158936220E+04  0.10158936220E+04  0.25500000920E-02 0.  1.
    10030    2    1    2    0    0  0.00000000000E+00  0.00000000000E+00  0.17868862445E+04  0.38186734886E+04  0.33748044035E+04 0.  0.
        5    1    3    3  502    0  0.14130580039E+04  0.63646566290E+03  0.16486732566E+04  0.22627344209E+04  0.46999998093E+01 0. -1.
       -5    1    3    3    0  502 -0.14130580039E+04 -0.63646566290E+03  0.13821298797E+03  0.15559390677E+04  0.46999998093E+01 0.  1.
</event>
<event>
 5   0  0.2599367E-07  0.3387726E+04  0.7818609E-02  0.8140925E-01
        1   -1    0    0  501    0  0.00000000000E+00  0.00000000000E+00  0.22920171250E+04  0.22920171250E+04  0.50400001928E-02 0. -1.
       -1   -1    0    0    0  501  0.00000000000E+00  0.00000000000E+00 -0.12518110059E+04  0.12518110059E+04  0.50400001928E-02 0.  1.
    10030    2    1    2    0    0  0.00000000000E+00  0.00000000000E+00  0.10402061191E+04  0.35438281310E+04  0.33877262363E+04 0.  0.
        2    1    3    3  502    0  0.11935168467E+04  0.84537815795E+03 -0.37368259450E+03  0.15095646309E+04  0.25500000920E-02 0.  1.
       -2    1    3    3    0  502 -0.11935168467E+04 -0.84537815795E+03  0.14138887136E+04  0.20342635001E+04  0.25500000920E-02 0. -1.
</event>
<event>
 5   0  0.7838333E-07  0.3134101E+04  0.7818609E-02  0.8206441E-01
        2   -1    0    0  501    0  0.00000000000E+00  0.00000000000E+00  0.28700180836E+04  0.28700180836E+04  0.25500000920E-02 0. -1.
       -2   -1    0    0    0  501  0.00000000000E+00  0.00000000000E+00 -0.85562103430E+03  0.85562103431E+03  0.25500000920E-02 0.  1.
    10030    2    1    2    0    0  0.00000000000E+00  0.00000000000E+00  0.20143970493E+04  0.37256391179E+04  0.31341013647E+04 0.  0.
        1    1    3    3  502    0  0.18197868903E+03  0.13268816211E+04  0.40058324254E+02  0.13399013953E+04  0.50400001928E-02 0.  1.
       -1    1    3    3    0  502 -0.18197868903E+03 -0.13268816211E+04  0.19743387250E+04  0.23857377226E+04  0.50400001928E-02 0. -1.
</event>
<event>
 5   0  0.2599367E-07  0.3374039E+04  0.7818609E-02  0.8144308E-01
        1   -1    0    0  501    0  0.00000000000E+00  0.00000000000E+00  0.14673878563E+04  0.14673878563E+04  0.50400001928E-02 0. -1.
       -1   -1    0    0    0  501  0.00000000000E+00  0.00000000000E+00 -0.19395245763E+04  0.19395245763E+04  0.50400001928E-02 0.  1.
    10030    2    1    2    0    0  0.00000000000E+00  0.00000000000E+00 -0.47213672004E+03  0.34069124326E+04  0.33740390100E+04 0.  0.
        2    1    3    3  502    0  0.93202418010E+03 -0.19562821422E+03 -0.16421497263E+04  0.18983137765E+04  0.25500000920E-02 0.  1.
       -2    1    3    3    0  502 -0.93202418010E+03  0.19562821422E+03  0.11700130062E+04  0.15085986561E+04  0.25500000920E-02 0. -1.
</event>
<event>
 5   0  0.7610412E-07  0.3458117E+04  0.7818609E-02  0.8123788E-01
        2   -1    0    0  501    0  0.00000000000E+00  0.00000000000E+00  0.12336455735E+04  0.12336455735E+04  0.25500000920E-02 0. -1.
       -2   -1    0    0    0  501  0.00000000000E+00  0.00000000000E+00 -0.24234211868E+04  0.24234211868E+04  0.25500000920E-02 0.  1.
    10030    2    1    2    0    0  0.00000000000E+00  0.00000000000E+00 -0.11897756133E+04  0.36570667603E+04  0.34581167244E+04 0.  0.
        4    1    3    3  502    0  0.60155584121E+03 -0.12045401484E+04 -0.17421288696E+04  0.22017722431E+04  0.12699999809E+01 0.  1.
       -4    1    3    3    0  502 -0.60155584121E+03  0.12045401484E+04  0.55235325636E+03  0.14552945172E+04  0.12699999809E+01 0. -1.
</event>
<event>
 5   0  0.2622205E-07  0.3429926E+04  0.7818609E-02  0.8130600E-01
       -1   -1    0    0    0  501  0.00000000000E+00  0.00000000000E+00  0.16820459206E+04  0.16820459207E+04  0.50400001928E-02 0. -1.
        1   -1    0    0  501    0  0.00000000000E+00  0.00000000000E+00 -0.17485247626E+04  0.17485247626E+04  0.50400001928E-02 0.  1.
    10030    2    1    2    0    0  0.00000000000E+00  0.00000000000E+00 -0.66478841990E+02  0.34305706833E+04  0.34299264973E+04 0.  0.
        3    1    3    3  502    0 -0.35494019681E+03 -0.10707273652E+04 -0.13252479937E+04  0.17403223520E+04  0.10100000352E+00 0.  1.
       -3    1    3    3    0  502  0.35494019681E+03  0.10707273652E+04  0.12587691517E+04  0.16902483313E+04  0.10100000352E+00 0. -1.
</event>
<event>
 5   0  0.8489228E-07  0.3400457E+04  0.7818609E-02  0.8137794E-01
       -2   -1    0    0    0  501  0.00000000000E+00  0.00000000000E+00  0.18121249647E+04  0.18121249648E+04  0.25500000920E-02 0.  1.
        2   -1    0    0  501    0  0.00000000000E+00  0.00000000000E+00 -0.15952418382E+04  0.15952418382E+04  0.25500000920E-02 0. -1.
    10030    2    1    2    0    0  0.00000000000E+00  0.00000000000E+00  0.21688312654E+03  0.34073668030E+04  0.34004573574E+04 0.  0.
        3    1    3    3  502    0 -0.23832667281E+02  0.90143695402E+03  0.15527658531E+04  0.17956164354E+04  0.10100000352E+00 0.  1.
       -3    1    3    3    0  502  0.23832667281E+02 -0.90143695402E+03 -0.13358827266E+04  0.16117503676E+04  0.10100000352E+00 0. -1.
</event>
<event>
 5   0  0.2592200E-07  0.3399686E+04  0.7818609E-02  0.8137983E-01
        1   -1    0    0  501    0  0.00000000000E+00  0.00000000000E+00  0.15428739277E+04  0.15428739277E+04  0.50400001928E-02 0. -1.
       -1   -1    0    0    0  501  0.00000000000E+00  0.00000000000E+00 -0.18727814776E+04  0.18727814776E+04  0.50400001928E-02 0.  1.
    10030    2    1    2    0    0  0.00000000000E+00  0.00000000000E+00 -0.32990754990E+03  0.34156554053E+04  0.33996856997E+04 0.  0.
        4    1    3    3  502    0  0.28209230645E+03  0.16608877340E+04  0.62693823981E+02  0.16858399279E+04  0.12699999809E+01 0.  1.
       -4    1    3    3    0  502 -0.28209230645E+03 -0.16608877340E+04 -0.39260137388E+03  0.17298154774E+04  0.12699999809E+01 0. -1.
</event>
<event>
 5   0  0.7838333E-07  0.3397583E+04  0.7818609E-02  0.8138500E-01
        2   -1    0    0  501    0  0.00000000000E+00  0.00000000000E+00  0.17981862350E+04  0.17981862350E+04  0.25500000920E-02 0. -1.
       -2   -1    0    0    0  501  0.00000000000E+00  0.00000000000E+00 -0.16048906680E+04  0.16048906680E+04  0.25500000920E-02 0.  1.
    10030    2    1    2    0    0  0.00000000000E+00  0.00000000000E+00  0.19329556707E+03  0.34030769030E+04  0.33975828513E+04 0.  0.
        1    1    3    3  502    0  0.72105446336E+02 -0.15956779996E+04  0.67594695393E+03  0.17344427804E+04  0.50400001928E-02 0. -1.
       -1    1    3    3    0  502 -0.72105446336E+02  0.15956779996E+04 -0.48265138686E+03  0.16686341226E+04  0.50400001928E-02 0.  1.
</event>
<event>
 5   0  0.2553250E-07  0.3413885E+04  0.7818609E-02  0.8134507E-01
       -1   -1    0    0    0  501  0.00000000000E+00  0.00000000000E+00  0.14323318976E+04  0.14323318976E+04  0.50400001928E-02 0. -1.
        1   -1    0    0  501    0  0.00000000000E+00  0.00000000000E+00 -0.20342019303E+04  0.20342019303E+04  0.50400001928E-02 0.  1.
    10030    2    1    2    0    0  0.00000000000E+00  0.00000000000E+00 -0.60187003264E+03  0.34665338279E+04  0.34138847731E+04 0.  0.
        5    1    3    3  502    0 -0.43559229980E+03 -0.20411754211E+03  0.13620725897E+04  0.14445305301E+04  0.46999998093E+01 0. -1.
       -5    1    3    3    0  502  0.43559229980E+03  0.20411754211E+03 -0.19639426223E+04  0.20220032978E+04  0.46999998093E+01 0.  1.
</event>
<event>
 5   0  0.2592200E-07  0.3368078E+04  0.7818609E-02  0.8145786E-01
       -1   -1    0    0    0  501  0.00000000000E+00  0.00000000000E+00  0.16925558314E+04  0.16925558314E+04  0.50400001928E-02 0. -1.
        1   -1    0    0  501    0  0.00000000000E+00  0.00000000000E+00 -0.16755653416E+04  0.16755653416E+04  0.50400001928E-02 0.  1.
    10030    2    1    2    0    0  0.00000000000E+00  0.00000000000E+00  0.16990489794E+02  0.33681211730E+04  0.33680783184E+04 0.  0.
        4    1    3    3  502    0 -0.85755367809E+03 -0.12035425805E+04 -0.79902553916E+03  0.16799870473E+04  0.12699999809E+01 0.  1.
       -4    1    3    3    0  502  0.85755367809E+03  0.12035425805E+04  0.81601602896E+03  0.16881341257E+04  0.12699999809E+01 0. -1.
</event>
<event>
 5   0  0.8489228E-07  0.3373575E+04  0.7818609E-02  0.8144422E-01
       -2   -1    0    0    0  501  0.00000000000E+00  0.00000000000E+00  0.17152388692E+04  0.17152388692E+04  0.25500000920E-02 0.  1.
        2   -1    0    0  501    0  0.00000000000E+00  0.00000000000E+00 -0.16588084498E+04  0.16588084498E+04  0.25500000920E-02 0. -1.
    10030    2    1    2    0    0  0.00000000000E+00  0.00000000000E+00  0.56430419369E+02  0.33740473189E+04  0.33735753909E+04 0.  0.
        3    1    3    3  502    0 -0.15515805050E+04  0.42935748819E+03 -0.47534584221E+03  0.16786016788E+04  0.10100000352E+00 0.  1.
       -3    1    3    3    0  502  0.15515805050E+04 -0.42935748819E+03  0.53177626158E+03  0.16954456402E+04  0.10100000352E+00 0. -1.
</event>
<event>
 5   0  0.2553250E-07  0.3402371E+04  0.7818609E-02  0.8137325E-01
       -1   -1    0    0    0  501  0.00000000000E+00  0.00000000000E+00  0.17518968466E+04  0.17518968467E+04  0.50400001928E-02 0. -1.
        1   -1    0    0  501    0  0.00000000000E+00  0.00000000000E+00 -0.16519420645E+04  0.16519420645E+04  0.50400001928E-02 0.  1.
    10030    2    1    2    0    0  0.00000000000E+00  0.00000000000E+00  0.99954782109E+02  0.34038389112E+04  0.34023709931E+04 0.  0.
        5    1    3    3  502    0  0.81564492674E+03 -0.25096614382E+03  0.15222608338E+04  0.17451535141E+04  0.46999998093E+01 0. -1.
       -5    1    3    3    0  502 -0.81564492674E+03  0.25096614382E+03 -0.14223060517E+04  0.16586853971E+04  0.46999998093E+01 0.  1.
</event>
<event>
 5   0  0.2622205E-07  0.3402229E+04  0.7818609E-02  0.8137359E-01
        1   -1    0    0  501    0  0.00000000000E+00  0.00000000000E+00  0.13310491784E+04  0.13310491784E+04  0.50400001928E-02 0. -1.
       -1   -1    0    0    0  501  0.00000000000E+00  0.00000000000E+00 -0.21740673937E+04  0.21740673937E+04  0.50400001928E-02 0.  1.
    10030    2    1    2    0    0  0.00000000000E+00  0.00000000000E+00 -0.84301821525E+03  0.35051165721E+04  0.34022290448E+04 0.  0.
        3    1    3    3  502    0 -0.13960166673E+04  0.51709749806E+03 -0.12695285854E+04  0.19565160866E+04  0.10100000352E+00 0.  1.
       -3    1    3    3    0  502  0.13960166673E+04 -0.51709749806E+03  0.42651037012E+03  0.15486004855E+04  0.10100000352E+00 0. -1.
</event>
<event>
 5   0  0.2599367E-07  0.3015838E+04  0.7818609E-02  0.8239223E-01
        1   -1    0    0  501    0  0.00000000000E+00  0.00000000000E+00  0.14455319680E+04  0.14455319680E+04  0.50400001928E-02 0.  1.
       -1   -1    0    0    0  501  0.00000000000E+00  0.00000000000E+00 -0.15729981502E+04  0.15729981502E+04  0.50400001928E-02 0. -1.
    10030    2    1    2    0    0  0.00000000000E+00  0.00000000000E+00 -0.12746618219E+03  0.30185301183E+04  0.30158376029E+04 0.  0.
        2    1    3    3  502    0  0.13881681511E+04 -0.54004884075E+03 -0.29879494386E+03  0.15191912271E+04  0.25500000920E-02 0.  1.
       -2    1    3    3    0  502 -0.13881681511E+04  0.54004884075E+03  0.17132876167E+03  0.14993388912E+04  0.25500000920E-02 0. -1.
</event>
<event>
 5   0  0.7899402E-07  0.3397529E+04  0.7818609E-02  0.8138513E-01
       -2   -1    0    0    0  501  0.00000000000E+00  0.00000000000E+00  0.29258975329E+04  0.29258975329E+04  0.25500000920E-02 0. -1.
        2   -1    0    0  501    0  0.00000000000E+00  0.00000000000E+00 -0.98629571280E+03  0.98629571281E+03  0.25500000920E-02 0.  1.
    10030    2    1    2    0    0  0.00000000000E+00  0.00000000000E+00  0.19396018201E+04  0.39121932457E+04  0.33975286270E+04 0.  0.
        2    1    3    3  502    0 -0.11895902991E+04 -0.11778107005E+04  0.63718984783E+03  0.17911934647E+04  0.25500000920E-02 0. -1.
       -2    1    3    3    0  502  0.11895902991E+04  0.11778107005E+04  0.13024119723E+04  0.21209997811E+04  0.25500000920E-02 0.  1.
</event>
<event>
 5   0  0.2599367E-07  0.3416898E+04  0.7818609E-02  0.8133771E-01
        1   -1    0    0  501    0  0.00000000000E+00  0.00000000000E+00  0.15739896454E+04  0.15739896455E+04  0.50400001928E-02 0.  1.
       -1   -1    0    0    0  501  0.00000000000E+00  0.00000000000E+00 -0.18543945952E+04  0.18543945952E+04  0.50400001928E-02 0. -1.
    10030    2    1    2    0    0  0.00000000000E+00  0.00000000000E+00 -0.28040494972E+03  0.34283842406E+04  0.34168979449E+04 0.  0.
        2    1    3    3  502    0  0.95862769202E+03  0.12068684806E+04 -0.87976868271E+03  0.17746806802E+04  0.25500000920E-02 0. -1.
       -2    1    3    3    0  502 -0.95862769202E+03 -0.12068684806E+04  0.59936373299E+03  0.16537035605E+04  0.25500000920E-02 0.  1.
</event>
<event>
 5   0  0.2599367E-07  0.3414134E+04  0.7818609E-02  0.8134446E-01
        1   -1    0    0  501    0  0.00000000000E+00  0.00000000000E+00  0.21768914360E+04  0.21768914360E+04  0.50400001928E-02 0. -1.
       -1   -1    0    0    0  501  0.00000000000E+00  0.00000000000E+00 -0.13386420747E+04  0.13386420748E+04  0.50400001928E-02 0.  1.
    10030    2    1    2    0    0  0.00000000000E+00  0.00000000000E+00  0.83824936126E+03  0.35155335108E+04  0.34141344252E+04 0.  0.
        2    1    3    3  502    0  0.11130339911E+04  0.10003391739E+04 -0.42658133114E+03  0.15561152786E+04  0.25500000920E-02 0.  1.
       -2    1    3    3    0  502 -0.11130339911E+04 -0.10003391739E+04  0.12648306924E+04  0.19594182322E+04  0.25500000920E-02 0. -1.
</event>
<event>
 5   0  0.2622205E-07  0.3392280E+04  0.7818609E-02  0.8139804E-01
       -1   -1    0    0    0  501  0.00000000000E+00  0.00000000000E+00  0.19920799518E+04  0.19920799518E+04  0.50400001928E-02 0. -1.
        1   -1    0    0  501    0  0.00000000000E+00  0.00000000000E+00 -0.14441639761E+04  0.14441639761E+04  0.50400001928E-02 0.  1.
    10030    2    1    2    0    0  0.00000000000E+00  0.00000000000E+00  0.54791597571E+03  0.34362439278E+04  0.33922795308E+04 0.  0.
        3    1    3    3  502    0  0.93755146379E+03  0.14056738116E+04  0.42409659238E+03  0.17420618651E+04  0.10100000352E+00 0. -1.
       -3    1    3    3    0  502 -0.93755146379E+03 -0.14056738116E+04  0.12381938333E+03  0.16941820628E+04  0.10100000352E+00 0.  1.
</event>
<event>
 5   0  0.7838333E-07  0.3407499E+04  0.7818609E-02  0.8136068E-01
        2   -1    0    0  501    0  0.00000000000E+00  0.00000000000E+00  0.25914878668E+04  0.25914878668E+04  0.25500000920E-02 0. -1.
       -2   -1    0    0    0  501  0.00000000000E+00  0.00000000000E+00 -0.11201139093E+04  0.11201139093E+04  0.25500000920E-02 0.  1.
    10030    2    1    2    0    0  0.00000000000E+00  0.00000000000E+00  0.14713739575E+04  0.37116017761E+04  0.34074985578E+04 0.  0.
        1    1    3    3  502    0 -0.66900062883E+03  0.68049014278E+03  0.22730798053E+04  0.24652627603E+04  0.50400001928E-02 0. -1.
       -1    1    3    3    0  502  0.66900062883E+03 -0.68049014278E+03 -0.80170584782E+03  0.12463390158E+04  0.50400001928E-02 0.  1.
</event>
<event>
 5   0  0.7610412E-07  0.3406352E+04  0.7818609E-02  0.8136349E-01
       -2   -1    0    0    0  501  0.00000000000E+00  0.00000000000E+00  0.11102060120E+04  0.11102060120E+04  0.25500000920E-02 0.  1.
        2   -1    0    0  501    0  0.00000000000E+00  0.00000000000E+00 -0.26128565011E+04  0.26128565011E+04  0.25500000920E-02 0. -1.
    10030    2    1    2    0    0  0.00000000000E+00  0.00000000000E+00 -0.15026504891E+04  0.37230625131E+04  0.34063522988E+04 0.  0.
        4    1    3    3  502    0 -0.69737587148E+03 -0.47875737698E+03  0.86438279372E+03  0.12094217458E+04  0.12699999809E+01 0.  1.
       -4    1    3    3    0  502  0.69737587148E+03  0.47875737698E+03 -0.23670332828E+04  0.25136407673E+04  0.12699999809E+01 0. -1.
</event>
<event>
 5   0  0.2641442E-07  0.3074838E+04  0.7818609E-02  0.8222678E-01
        1   -1    0    0  501    0  0.00000000000E+00  0.00000000000E+00  0.15895257659E+04  0.15895257659E+04  0.50400001928E-02 0. -1.
       -1   -1    0    0    0  501  0.00000000000E+00  0.00000000000E+00 -0.14870199531E+04  0.14870199531E+04  0.50400001928E-02 0.  1.
    10030    2    1    2    0    0  0.00000000000E+00  0.00000000000E+00  0.10250581278E+03  0.30765457190E+04  0.30748375761E+04 0.  0.
        1    1    3    3  502    0 -0.12132102726E+04 -0.83678335021E+03  0.48918428495E+03  0.15528640654E+04  0.50400001928E-02 0. -1.
       -1    1    3    3    0  502  0.12132102726E+04  0.83678335021E+03 -0.38667847217E+03  0.15236816536E+04  0.50400001928E-02 0.  1.
</event>
<event>
 5   0  0.7838333E-07  0.3392522E+04  0.7818609E-02  0.8139744E-01
       -2   -1    0    0    0  501  0.00000000000E+00  0.00000000000E+00  0.15153315607E+04  0.15153315607E+04  0.25500000920E-02 0.  1.
        2   -1    0    0  501    0  0.00000000000E+00  0.00000000000E+00 -0.18987937922E+04  0.18987937922E+04  0.25500000920E-02 0. -1.
    10030    2    1    2    0    0  0.00000000000E+00  0.00000000000E+00 -0.38346223150E+03  0.34141253528E+04  0.33925224600E+04 0.  0.
        1    1    3    3  502    0  0.14781763276E+04 -0.35728779184E+03  0.56448068627E+03  0.16221276974E+04  0.50400001928E-02 0.  1.
       -1    1    3    3    0  502 -0.14781763276E+04  0.35728779184E+03 -0.94794291777E+03  0.17919976554E+04  0.50400001928E-02 0. -1.
</event>
<event>
 5   0  0.7610412E-07  0.3505358E+04  0.7818609E-02  0.8112521E-01
        2   -1    0    0  501    0  0.00000000000E+00  0.00000000000E+00  0.22206647686E+04  0.22206647686E+04  0.25500000920E-02 0.  1.
       -2   -1    0    0    0  501  0.00000000000E+00  0.00000000000E+00 -0.13833174154E+04  0.13833174154E+04  0.25500000920E-02 0. -1.
    10030    2    1    2    0    0  0.00000000000E+00  0.00000000000E+00  0.83734735317E+03  0.36039821839E+04  0.35053583258E+04 0.  0.
        4    1    3    3  502    0  0.75206568180E+03  0.41668784532E+02 -0.12084273190E+04  0.14239512898E+04  0.12699999809E+01 0. -1.
       -4    1    3    3    0  502 -0.75206568180E+03 -0.41668784532E+02  0.20457746722E+04  0.21800308942E+04  0.12699999809E+01 0.  1.
</event>
<event>
 5   0  0.7822003E-07  0.3411382E+04  0.7818609E-02  0.8135118E-01
       -2   -1    0    0    0  501  0.00000000000E+00  0.00000000000E+00  0.17101487726E+04  0.17101487726E+04  0.25500000920E-02 0.  1.
        2   -1    0    0  501    0  0.00000000000E+00  0.00000000000E+00 -0.17012448539E+04  0.17012448539E+04  0.25500000920E-02 0. -1.
    10030    2    1    2    0    0  0.00000000000E+00  0.00000000000E+00  0.89039186375E+01  0.34113936265E+04  0.34113820066E+04 0.  0.
        5    1    3    3  502    0  0.49199262817E+03 -0.11101694247E+04  0.12022986046E+04  0.17088232566E+04  0.46999998093E+01 0.  1.
       -5    1    3    3    0  502 -0.49199262817E+03  0.11101694247E+04 -0.11933946860E+04  0.17025703698E+04  0.46999998093E+01 0. -1.
</event>
<event>
 5   0  0.7838333E-07  0.3392082E+04  0.7818609E-02  0.8139852E-01
        2   -1    0    0  501    0  0.00000000000E+00  0.00000000000E+00  0.19932609049E+04  0.19932609049E+04  0.25500000920E-02 0. -1.
       -2   -1    0    0    0  501  0.00000000000E+00  0.00000000000E+00 -0.14431400274E+04  0.14431400274E+04  0.25500000920E-02 0.  1.
    10030    2    1    2    0    0  0.00000000000E+00  0.00000000000E+00  0.55012087751E+03  0.34364009323E+04  0.33920817189E+04 0.  0.
        1    1    3    3  502    0 -0.55019091179E+03  0.85214168358E+03  0.16521213365E+04  0.19386491170E+04  0.50400001928E-02 0. -1.
       -1    1    3    3    0  502  0.55019091179E+03 -0.85214168358E+03 -0.11020004590E+04  0.14977518152E+04  0.50400001928E-02 0.  1.
</event>
<event>
 5   0  0.7822003E-07  0.3410593E+04  0.7818609E-02  0.8135311E-01
        2   -1    0    0  501    0  0.00000000000E+00  0.00000000000E+00  0.26794152205E+04  0.26794152205E+04  0.25500000920E-02 0. -1.
       -2   -1    0    0    0  501  0.00000000000E+00  0.00000000000E+00 -0.10853252397E+04  0.10853252397E+04  0.25500000920E-02 0.  1.
    10030    2    1    2    0    0  0.00000000000E+00  0.00000000000E+00  0.15940899808E+04  0.37647404602E+04  0.34105934771E+04 0.  0.
        5    1    3    3  502    0  0.68202651432E+03 -0.15484734454E+04  0.56266546376E+03  0.17831277832E+04  0.46999998093E+01 0. -1.
       -5    1    3    3    0  502 -0.68202651432E+03  0.15484734454E+04  0.10314245170E+04  0.19816126770E+04  0.46999998093E+01 0.  1.
</event>
<event>
 5   0  0.7838333E-07  0.3402761E+04  0.7818609E-02  0.8137229E-01
        2   -1    0    0  501    0  0.00000000000E+00  0.00000000000E+00  0.12253159705E+04  0.12253159705E+04  0.25500000920E-02 0.  1.
       -2   -1    0    0    0  501  0.00000000000E+00  0.00000000000E+00 -0.23624069279E+04  0.23624069279E+04  0.25500000920E-02 0. -1.
    10030    2    1    2    0    0  0.00000000000E+00  0.00000000000E+00 -0.11370909574E+04  0.35877228985E+04  0.34027606073E+04 0.  0.
        1    1    3    3  502    0 -0.11897898809E+04  0.23716670215E+03 -0.18262151468E+04  0.21924665945E+04  0.50400001928E-02 0. -1.
       -1    1    3    3    0  502  0.11897898809E+04 -0.23716670215E+03  0.68912418945E+03  0.13952563040E+04  0.50400001928E-02 0.  1.
</event>
<event>
 5   0  0.2592200E-07  0.3373972E+04  0.7818609E-02  0.8144324E-01
       -1   -1    0    0    0  501  0.00000000000E+00  0.00000000000E+00  0.10742043115E+04  0.10742043115E+04  0.50400001928E-02 0. -1.
        1   -1    0    0  501    0  0.00000000000E+00  0.00000000000E+00 -0.26493298501E+04  0.26493298501E+04  0.50400001928E-02 0.  1.
    10030    2    1    2    0    0  0.00000000000E+00  0.00000000000E+00 -0.15751255386E+04  0.37235341616E+04  0.33739718716E+04 0.  0.
        4    1    3    3  502    0  0.90367944144E+03 -0.79960515954E+03  0.51352922460E+03  0.13113805022E+04  0.12699999809E+01 0. -1.
       -4    1    3    3    0  502 -0.90367944144E+03  0.79960515954E+03 -0.20886547632E+04  0.24121536594E+04  0.12699999809E+01 0.  1.
</event>
<event>
 5   0  0.2622205E-07  0.3424610E+04  0.7818609E-02  0.8131893E-01
       -1   -1    0    0    0  501  0.00000000000E+00  0.00000000000E+00  0.14856747381E+04  0.14856747382E+04  0.50400001928E-02 0. -1.
        1   -1    0    0  501    0  0.00000000000E+00  0.00000000000E+00 -0.19735057449E+04  0.19735057449E+04  0.50400001928E-02 0.  1.
    10030    2    1    2    0    0  0.00000000000E+00  0.00000000000E+00 -0.48783100671E+03  0.34591804830E+04  0.34246095432E+04 0.  0.
        3    1    3    3  502    0  0.63738418627E+03  0.12031276024E+04  0.80493704966E+03  0.15816757862E+04  0.10100000352E+00 0. -1.
       -3    1    3    3    0  502 -0.63738418627E+03 -0.12031276024E+04 -0.12927680564E+04  0.18775046968E+04  0.10100000352E+00 0.  1.
</event>
<event>
 5   0  0.7838333E-07  0.3387035E+04  0.7818609E-02  0.8141096E-01
       -2   -1    0    0    0  501  0.00000000000E+00  0.00000000000E+00  0.13778724706E+04  0.13778724706E+04  0.25500000920E-02 0. -1.
        2   -1    0    0  501    0  0.00000000000E+00  0.00000000000E+00 -0.20814710111E+04  0.20814710111E+04  0.25500000920E-02 0.  1.
    10030    2    1    2    0    0  0.00000000000E+00  0.00000000000E+00 -0.70359854045E+03  0.34593434817E+04  0.33870350483E+04 0.  0.
        1    1    3    3  502    0  0.14687433525E+04 -0.42028055970E+03 -0.10982638363E+04  0.18814957450E+04  0.50400001928E-02 0.  1.
       -1    1    3    3    0  502 -0.14687433525E+04  0.42028055970E+03  0.39466529587E+03  0.15778477367E+04  0.50400001928E-02 0. -1.
</event>
<event>
 5   0  0.2599367E-07  0.3371792E+04  0.7818609E-02  0.8144864E-01
        1   -1    0    0  501    0  0.00000000000E+00  0.00000000000E+00  0.18018840438E+04  0.18018840438E+04  0.50400001928E-02 0. -1.
       -1   -1    0    0    0  501  0.00000000000E+00  0.00000000000E+00 -0.15773737273E+04  0.15773737273E+04  0.50400001928E-02 0.  1.
    10030    2    1    2    0    0  0.00000000000E+00  0.00000000000E+00  0.22451031651E+03  0.33792577711E+04  0.33717915418E+04 0.  0.
        2    1    3    3  502    0 -0.98442906370E+03 -0.62580206903E+03 -0.11076153704E+04  0.16085834202E+04  0.25500000920E-02 0.  1.
       -2    1    3    3    0  502  0.98442906370E+03  0.62580206903E+03  0.13321256869E+04  0.17706743509E+04  0.25500000920E-02 0. -1.
</event>
<event>
 5   0  0.7899402E-07  0.3378560E+04  0.7818609E-02  0.8143188E-01
       -2   -1    0    0    0  501  0.00000000000E+00  0.00000000000E+00  0.28430606048E+04  0.28430606048E+04  0.25500000920E-02 0. -1.
        2   -1    0    0  501    0  0.00000000000E+00  0.00000000000E+00 -0.10037306978E+04  0.10037306978E+04  0.25500000920E-02 0.  1.
    10030    2    1    2    0    0  0.00000000000E+00  0.00000000000E+00  0.18393299070E+04  0.38467913026E+04  0.33785601695E+04 0.  0.
        2    1    3    3  502    0  0.22302788477E+03 -0.42968623411E+03 -0.92305448314E+03  0.10423057498E+04  0.25500000920E-02 0.  1.
       -2    1    3    3    0  502 -0.22302788477E+03  0.42968623411E+03  0.27623843901E+04  0.28044855528E+04  0.25500000920E-02 0. -1.
</event>
<event>
 5   0  0.2592200E-07  0.3419781E+04  0.7818609E-02  0.8133068E-01
        1   -1    0    0  501    0  0.00000000000E+00  0.00000000000E+00  0.18258806341E+04  0.18258806341E+04  0.50400001928E-02 0. -1.
       -1   -1    0    0    0  501  0.00000000000E+00  0.00000000000E+00 -0.16012686153E+04  0.16012686153E+04  0.50400001928E-02 0.  1.
    10030    2    1    2    0    0  0.00000000000E+00  0.00000000000E+00  0.22461201879E+03  0.34271492493E+04  0.34197809021E+04 0.  0.
        4    1    3    3  502    0  0.47963720059E+02 -0.99238559911E+03 -0.12823080255E+04  0.16221729812E+04  0.12699999809E+01 0.  1.
       -4    1    3    3    0  502 -0.47963720059E+02  0.99238559911E+03  0.15069200443E+04  0.18049762681E+04  0.12699999809E+01 0. -1.
</event>
<event>
 5   0  0.7822003E-07  0.3397986E+04  0.7818609E-02  0.8138401E-01
        2   -1    0    0  501    0  0.00000000000E+00  0.00000000000E+00  0.17568597136E+04  0.17568597136E+04  0.25500000920E-02 0.  1.
       -2   -1    0    0    0  501  0.00000000000E+00  0.00000000000E+00 -0.16430319737E+04  0.16430319737E+04  0.25500000920E-02 0. -1.
    10030    2    1    2    0    0  0.00000000000E+00  0.00000000000E+00  0.11382773990E+03  0.33998916873E+04  0.33979856873E+04 0.  0.
        5    1    3    3  502    0 -0.67715641172E+03  0.13840393915E+04 -0.65934292552E+03  0.16759656997E+04  0.46999998093E+01 0. -1.
       -5    1    3    3    0  502  0.67715641172E+03 -0.13840393915E+04  0.77317066542E+03  0.17239259877E+04  0.46999998093E+01 0.  1.
</event>
<event>
 5   0  0.2592200E-07  0.3414644E+04  0.7818609E-02  0.8134322E-01
        1   -1    0    0  501    0  0.00000000000E+00  0.00000000000E+00  0.22654367785E+04  0.22654367785E+04  0.50400001928E-02 0. -1.
       -1   -1    0    0    0  501  0.00000000000E+00  0.00000000000E+00 -0.12867047058E+04  0.12867047058E+04  0.50400001928E-02 0.  1.
    10030    2    1    2    0    0  0.00000000000E+00  0.00000000000E+00  0.97873207267E+03  0.35521414844E+04  0.34146438548E+04 0.  0.
        4    1    3    3  502    0  0.13696420027E+04  0.80751734636E+02  0.15464055876E+04  0.20673199831E+04  0.12699999809E+01 0. -1.
       -4    1    3    3    0  502 -0.13696420027E+04 -0.80751734636E+02 -0.56767351491E+03  0.14848215013E+04  0.12699999809E+01 0.  1.
</event>
<event>
 5   0  0.7838333E-07  0.3447419E+04  0.7818609E-02  0.8126365E-01
        2   -1    0    0  501    0  0.00000000000E+00  0.00000000000E+00  0.19698508970E+04  0.19698508970E+04  0.25500000920E-02 0. -1.
       -2   -1    0    0    0  501  0.00000000000E+00  0.00000000000E+00 -0.15083241152E+04  0.15083241152E+04  0.25500000920E-02 0.  1.
    10030    2    1    2    0    0  0.00000000000E+00  0.00000000000E+00  0.46152678178E+03  0.34781750123E+04  0.34474185191E+04 0.  0.
        1    1    3    3  502    0  0.80339581880E+03  0.74355624659E+02  0.17675732313E+04  0.19430102235E+04  0.50400001928E-02 0. -1.
       -1    1    3    3    0  502 -0.80339581880E+03 -0.74355624659E+02 -0.13060464495E+04  0.15351647888E+04  0.50400001928E-02 0.  1.
</event>
<event>
 5   0  0.2599367E-07  0.3406495E+04  0.7818609E-02  0.8136314E-01
       -1   -1    0    0    0  501  0.00000000000E+00  0.00000000000E+00  0.15152813994E+04  0.15152813994E+04  0.50400001928E-02 0.  1.
        1   -1    0    0  501    0  0.00000000000E+00  0.00000000000E+00 -0.19145296771E+04  0.19145296771E+04  0.50400001928E-02 0. -1.
    10030    2    1    2    0    0  0.00000000000E+00  0.00000000000E+00 -0.39924827772E+03  0.34298110766E+04  0.34064945081E+04 0.  0.
        2    1    3    3  502    0 -0.97003341855E+03 -0.11279536131E+04  0.63539380479E+03  0.16177050020E+04  0.25500000920E-02 0.  1.
       -2    1    3    3    0  502  0.97003341855E+03  0.11279536131E+04 -0.10346420825E+04  0.18121060745E+04  0.25500000920E-02 0. -1.
</event>
<event>
 5   0  0.2599367E-07  0.3397367E+04  0.7818609E-02  0.8138553E-01
       -1   -1    0    0    0  501  0.00000000000E+00  0.00000000000E+00  0.27020713340E+04  0.27020713340E+04  0.50400001928E-02 0.  1.
        1   -1    0    0  501    0  0.00000000000E+00  0.00000000000E+00 -0.10678937705E+04  0.10678937705E+04  0.50400001928E-02 0. -1.
    10030    2    1    2    0    0  0.00000000000E+00  0.00000000000E+00  0.16341775636E+04  0.37699651045E+04  0.33973667126E+04 0.  0.
        2    1    3    3  502    0  0.52452785123E+03  0.15358589530E+04  0.26055395158E+03  0.16437398066E+04  0.25500000920E-02 0. -1.
       -2    1    3    3    0  502 -0.52452785123E+03 -0.15358589530E+04  0.13736236120E+04  0.21262252979E+04  0.25500000920E-02 0.  1.
</event>
<event>
 5   0  0.2622205E-07  0.3336351E+04  0.7818609E-02  0.8153707E-01
       -1   -1    0    0    0  501  0.00000000000E+00  0.00000000000E+00  0.10867919675E+04  0.10867919675E+04  0.50400001928E-02 0. -1.
        1   -1    0    0  501    0  0.00000000000E+00  0.00000000000E+00 -0.25605731134E+04  0.25605731134E+04  0.50400001928E-02 0.  1.
    10030    2    1    2    0    0  0.00000000000E+00  0.00000000000E+00 -0.14737811458E+04  0.36473650809E+04  0.33363514754E+04 0.  0.
        3    1    3    3  502    0  0.11513859100E+04  0.12070163602E+04 -0.75355183887E+03  0.18304148141E+04  0.10100000352E+00 0.  1.
       -3    1    3    3    0  502 -0.11513859100E+04 -0.12070163602E+04 -0.72022930698E+03  0.18169502669E+04  0.10100000352E+00 0. -1.
</event>
<event>
 5   0  0.2553250E-07  0.3126719E+04  0.7818609E-02  0.8208443E-01
        1   -1    0    0  501    0  0.00000000000E+00  0.00000000000E+00  0.11446066179E+04  0.11446066179E+04  0.50400001928E-02 0.  1.
       -1   -1    0    0    0  501  0.00000000000E+00  0.00000000000E+00 -0.21353127753E+04  0.21353127753E+04  0.50400001928E-02 0. -1.
    10030    2    1    2    0    0  0.00000000000E+00  0.00000000000E+00 -0.99070615746E+03  0.32799193932E+04  0.31267191328E+04 0.  0.
        5    1    3    3  502    0 -0.11096837394E+04 -0.53859594123E+02 -0.16491412901E+04  0.19884637140E+04  0.46999998093E+01 0. -1.
       -5    1    3    3    0  502  0.11096837394E+04  0.53859594123E+02  0.65843513262E+03  0.12914556792E+04  0.46999998093E+01 0.  1.
</event>
<event>
 5   0  0.2592200E-07  0.3397449E+04  0.7818609E-02  0.8138533E-01
       -1   -1    0    0    0  501  0.00000000000E+00  0.00000000000E+00  0.22307174290E+04  0.22307174290E+04  0.50400001928E-02 0.  1.
        1   -1    0    0  501    0  0.00000000000E+00  0.00000000000E+00 -0.12936041075E+04  0.12936041075E+04  0.50400001928E-02 0. -1.
    10030    2    1    2    0    0  0.00000000000E+00  0.00000000000E+00  0.93711332152E+03  0.35243215366E+04  0.33974491778E+04 0.  0.
        4    1    3    3  502    0 -0.30136921634E+03 -0.57157618927E+03 -0.11611428187E+04  0.13288254223E+04  0.12699999809E+01 0. -1.
       -4    1    3    3    0  502  0.30136921634E+03  0.57157618927E+03  0.20982561402E+04  0.21954961142E+04  0.12699999809E+01 0.  1.
</event>
<event>
 5   0  0.7610412E-07  0.3395479E+04  0.7818609E-02  0.8139017E-01
        2   -1    0    0  501    0  0.00000000000E+00  0.00000000000E+00  0.19053165062E+04  0.19053165062E+04  0.25500000920E-02 0.  1.
       -2   -1    0    0    0  501  0.00000000000E+00  0.00000000000E+00 -0.15127771775E+04  0.15127771775E+04  0.25500000920E-02 0. -1.
    10030    2    1    2    0    0  0.00000000000E+00  0.00000000000E+00  0.39253932871E+03  0.34180936837E+04  0.33954789509E+04 0.  0.
        4    1    3    3  502    0  0.83410982194E+03 -0.79231371421E+03 -0.10605719595E+04  0.15647091458E+04  0.12699999809E+01 0. -1.
       -4    1    3    3    0  502 -0.83410982194E+03  0.79231371421E+03  0.14531112882E+04  0.18533845380E+04  0.12699999809E+01 0.  1.
</event>
<event>
 5   0  0.7838333E-07  0.3393565E+04  0.7818609E-02  0.8139487E-01
       -2   -1    0    0    0  501  0.00000000000E+00  0.00000000000E+00  0.14233430379E+04  0.14233430379E+04  0.25500000920E-02 0.  1.
        2   -1    0    0  501    0  0.00000000000E+00  0.00000000000E+00 -0.20227530529E+04  0.20227530529E+04  0.25500000920E-02 0. -1.
    10030    2    1    2    0    0  0.00000000000E+00  0.00000000000E+00 -0.59941001504E+03  0.34460960908E+04  0.33935653672E+04 0.  0.
        1    1    3    3  502    0  0.12006506381E+04 -0.56240747992E+03  0.77555658041E+03  0.15360182739E+04  0.50400001928E-02 0.  1.
       -1    1    3    3    0  502 -0.12006506381E+04  0.56240747992E+03 -0.13749665955E+04  0.19100778170E+04  0.50400001928E-02 0. -1.
</event>
<event>
 5   0  0.7822003E-07  0.3455947E+04  0.7818609E-02  0.8124310E-01
        2   -1    0    0  501    0  0.00000000000E+00  0.00000000000E+00  0.24120778587E+04  0.24120778587E+04  0.25500000920E-02 0. -1.
       -2   -1    0    0    0  501  0.00000000000E+00  0.00000000000E+00 -0.12378924303E+04  0.12378924303E+04  0.25500000920E-02 0.  1.
    10030    2    1    2    0    0  0.00000000000E+00  0.00000000000E+00  0.11741854284E+04  0.36499702889E+04  0.34559472927E+04 0.  0.
        5    1    3    3  502    0  0.30050610566E+03 -0.12486998201E+04 -0.63379788531E+03  0.14322279881E+04  0.46999998093E+01 0.  1.
       -5    1    3    3    0  502 -0.30050610566E+03  0.12486998201E+04  0.18079833137E+04  0.22177423009E+04  0.46999998093E+01 0. -1.
</event>
<event>
 5   0  0.7899402E-07  0.3406077E+04  0.7818609E-02  0.8136416E-01
       -2   -1    0    0    0  501  0.00000000000E+00  0.00000000000E+00  0.13448979015E+04  0.13448979015E+04  0.25500000920E-02 0. -1.
        2   -1    0    0  501    0  0.00000000000E+00  0.00000000000E+00 -0.21565501304E+04  0.21565501304E+04  0.25500000920E-02 0.  1.
    10030    2    1    2    0    0  0.00000000000E+00  0.00000000000E+00 -0.81165222888E+03  0.35014480319E+04  0.34060767724E+04 0.  0.
        2    1    3    3  502    0  0.10449610476E+03 -0.89793321649E+03  0.10778943619E+04  0.14067905859E+04  0.25500000920E-02 0. -1.
       -2    1    3    3    0  502 -0.10449610476E+03  0.89793321649E+03 -0.18895465908E+04  0.20946574460E+04  0.25500000920E-02 0.  1.
</event>
<event>
 5   0  0.2599367E-07  0.3435274E+04  0.7818609E-02  0.8129303E-01
        1   -1    0    0  501    0  0.00000000000E+00  0.00000000000E+00  0.12000744240E+04  0.12000744241E+04  0.50400001928E-02 0. -1.
       -1   -1    0    0    0  501  0.00000000000E+00  0.00000000000E+00 -0.24584110565E+04  0.24584110565E+04  0.50400001928E-02 0.  1.
    10030    2    1    2    0    0  0.00000000000E+00  0.00000000000E+00 -0.12583366325E+04  0.36584854806E+04  0.34352736326E+04 0.  0.
        2    1    3    3  502    0 -0.69351406373E+03 -0.11314123473E+04  0.53220329882E+03  0.14297887982E+04  0.25500000920E-02 0. -1.
       -2    1    3    3    0  502  0.69351406373E+03  0.11314123473E+04 -0.17905399313E+04  0.22286966823E+04  0.25500000920E-02 0.  1.
</event>
<event>
 5   0  0.2641442E-07  0.3358911E+04  0.7818609E-02  0.8148065E-01
        1   -1    0    0  501    0  0.00000000000E+00  0.00000000000E+00  0.24418126894E+04  0.24418126894E+04  0.50400001928E-02 0.  1.
       -1   -1    0    0    0  501  0.00000000000E+00  0.00000000000E+00 -0.11551132109E+04  0.11551132109E+04  0.50400001928E-02 0. -1.
    10030    2    1    2    0    0  0.00000000000E+00  0.00000000000E+00  0.12866994786E+04  0.35969259003E+04  0.33589105949E+04 0.  0.
        1    1    3    3  502    0 -0.53026634777E+03  0.15853043184E+04  0.81667681402E+03  0.18604658557E+04  0.50400001928E-02 0.  1.
       -1    1    3    3    0  502  0.53026634777E+03 -0.15853043184E+04  0.47002266454E+03  0.17364600447E+04  0.50400001928E-02 0. -1.
</event>
<event>
 5   0  0.7822003E-07  0.3392290E+04  0.7818609E-02  0.8139801E-01
        2   -1    0    0  501    0  0.00000000000E+00  0.00000000000E+00  0.18013397523E+04  0.18013397523E+04  0.25500000920E-02 0.  1.
       -2   -1    0    0    0  501  0.00000000000E+00  0.00000000000E+00 -0.15970938563E+04  0.15970938563E+04  0.25500000920E-02 0. -1.
    10030    2    1    2    0    0  0.00000000000E+00  0.00000000000E+00  0.20424589600E+03  0.33984336086E+04  0.33922904661E+04 0.  0.
        5    1    3    3  502    0 -0.11432350195E+04 -0.66449059877E+03  0.11662859489E+04  0.17631730120E+04  0.46999998093E+01 0.  1.
       -5    1    3    3    0  502  0.11432350195E+04  0.66449059877E+03 -0.96204005288E+03  0.16352605966E+04  0.46999998093E+01 0. -1.
</event>
<event>
 5   0  0.7838333E-07  0.3417989E+04  0.7818609E-02  0.8133505E-01
        2   -1    0    0  501    0  0.00000000000E+00  0.00000000000E+00  0.30076454657E+04  0.30076454657E+04  0.25500000920E-02 0.  1.
       -2   -1    0    0    0  501  0.00000000000E+00  0.00000000000E+00 -0.97107949618E+03  0.97107949618E+03  0.25500000920E-02 0. -1.
    10030    2    1    2    0    0  0.00000000000E+00  0.00000000000E+00  0.20365659695E+04  0.39787249619E+04  0.34179893759E+04 0.  0.
        1    1    3    3  502    0 -0.14526757407E+04 -0.10102347077E+03  0.20595685542E+04  0.25223590503E+04  0.50400001928E-02 0.  1.
       -1    1    3    3    0  502  0.14526757407E+04  0.10102347077E+03 -0.23002584731E+02  0.14563659115E+04  0.50400001928E-02 0. -1.
</event>
<event>
 5   0  0.2553250E-07  0.3406930E+04  0.7818609E-02  0.8136208E-01
       -1   -1    0    0    0  501  0.00000000000E+00  0.00000000000E+00  0.16025341788E+04  0.16025341788E+04  0.50400001928E-02 0.  1.
        1   -1    0    0  501    0  0.00000000000E+00  0.00000000000E+00 -0.18107528713E+04  0.18107528713E+04  0.50400001928E-02 0. -1.
    10030    2    1    2    0    0  0.00000000000E+00  0.00000000000E+00 -0.20821869250E+03  0.34132870500E+04  0.34069302109E+04 0.  0.
        5    1    3    3  502    0  0.51619540321E+03  0.11045516497E+04  0.10877654686E+04  0.16339363041E+04  0.46999998093E+01 0.  1.
       -5    1    3    3    0  502 -0.51619540321E+03 -0.11045516497E+04 -0.12959841611E+04  0.17793507459E+04  0.46999998093E+01 0. -1.
</event>
<event>
 5   0  0.2622205E-07  0.3400677E+04  0.7818609E-02  0.8137740E-01
        1   -1    0    0  501    0  0.00000000000E+00  0.00000000000E+00  0.11647667697E+04  0.11647667697E+04  0.50400001928E-02 0.  1.
       -1   -1    0    0    0  501  0.00000000000E+00  0.00000000000E+00 -0.24821723009E+04  0.24821723009E+04  0.50400001928E-02 0. -1.
    10030    2    1    2    0    0  0.00000000000E+00  0.00000000000E+00 -0.13174055312E+04  0.36469390706E+04  0.34006774694E+04 0.  0.
        3    1    3    3  502    0 -0.15699813520E+04 -0.43207962013E+03 -0.13374739514E+03  0.16338367788E+04  0.10100000352E+00 0. -1.
       -3    1    3    3    0  502  0.15699813520E+04  0.43207962013E+03 -0.11836581361E+04  0.20131022918E+04  0.10100000352E+00 0.  1.
</event>
<event>
 5   0  0.7822003E-07  0.3251399E+04  0.7818609E-02  0.8175373E-01
       -2   -1    0    0    0  501  0.00000000000E+00  0.00000000000E+00  0.22709073963E+04  0.22709073963E+04  0.25500000920E-02 0. -1.
        2   -1    0    0  501    0  0.00000000000E+00  0.00000000000E+00 -0.11638074307E+04  0.11638074307E+04  0.25500000920E-02 0.  1.
    10030    2    1    2    0    0  0.00000000000E+00  0.00000000000E+00  0.11070999656E+04  0.34347148271E+04  0.32513990234E+04 0.  0.
        5    1    3    3  502    0  0.14541759162E+04  0.72350428350E+03  0.48043219943E+03  0.16937896067E+04  0.46999998093E+01 0.  1.
       -5    1    3    3    0  502 -0.14541759162E+04 -0.72350428350E+03  0.62666776617E+03  0.17409252203E+04  0.46999998093E+01 0. -1.
</event>
<event>
 5   0  0.2622205E-07  0.3397651E+04  0.7818609E-02  0.8138483E-01
       -1   -1    0    0    0  501  0.00000000000E+00  0.00000000000E+00  0.97839626926E+03  0.97839626928E+03  0.50400001928E-02 0. -1.
        1   -1    0    0  501    0  0.00000000000E+00  0.00000000000E+00 -0.29497331281E+04  0.29497331281E+04  0.50400001928E-02 0.  1.
    10030    2    1    2    0    0  0.00000000000E+00  0.00000000000E+00 -0.19713368588E+04  0.39281293974E+04  0.33976508872E+04 0.  0.
        3    1    3    3  502    0  0.11376726715E+04 -0.81922964640E+02  0.46986206888E+03  0.12336048207E+04  0.10100000352E+00 0. -1.
       -3    1    3    3    0  502 -0.11376726715E+04  0.81922964640E+02 -0.24411989277E+04  0.26945245767E+04  0.10100000352E+00 0.  1.
</event>
<event>
 5   0  0.7822003E-07  0.3379146E+04  0.7818609E-02  0.8143044E-01
        2   -1    0    0  501    0  0.00000000000E+00  0.00000000000E+00  0.20832193165E+04  0.20832193165E+04  0.25500000920E-02 0. -1.
       -2   -1    0    0    0  501  0.00000000000E+00  0.00000000000E+00 -0.13703104044E+04  0.13703104044E+04  0.25500000920E-02 0.  1.
    10030    2    1    2    0    0  0.00000000000E+00  0.00000000000E+00  0.71290891214E+03  0.34535297209E+04  0.33791461075E+04 0.  0.
        5    1    3    3  502    0 -0.12506837849E+04 -0.10621314671E+04 -0.55280687031E+02  0.16417707597E+04  0.46999998093E+01 0.  1.
       -5    1    3    3    0  502  0.12506837849E+04  0.10621314671E+04  0.76818959917E+03  0.18117589612E+04  0.46999998093E+01 0. -1.
</event>
<event>
 5   0  0.2599367E-07  0.3360772E+04  0.7818609E-02  0.8147602E-01
       -1   -1    0    0    0  501  0.00000000000E+00  0.00000000000E+00  0.11346508920E+04  0.11346508920E+04  0.50400001928E-02 0. -1.
        1   -1    0    0  501    0  0.00000000000E+00  0.00000000000E+00 -0.24886042458E+04  0.24886042458E+04  0.50400001928E-02 0.  1.
    10030    2    1    2    0    0  0.00000000000E+00  0.00000000000E+00 -0.13539533538E+04  0.36232551378E+04  0.33607719514E+04 0.  0.
        2    1    3    3  502    0  0.90115392994E+03 -0.27886415396E+03 -0.21762183573E+04  0.23718705615E+04  0.25500000920E-02 0.  1.
       -2    1    3    3    0  502 -0.90115392994E+03  0.27886415396E+03  0.82226500351E+03  0.12513845763E+04  0.25500000920E-02 0. -1.
</event>
<event>
 5   0  0.7838333E-07  0.3396665E+04  0.7818609E-02  0.8138725E-01
        2   -1    0    0  501    0  0.00000000000E+00  0.00000000000E+00  0.18264319167E+04  0.18264319167E+04  0.25500000920E-02 0.  1.
       -2   -1    0    0    0  501  0.00000000000E+00  0.00000000000E+00 -0.15792175953E+04  0.15792175953E+04  0.25500000920E-02 0. -1.
    10030    2    1    2    0    0  0.00000000000E+00  0.00000000000E+00  0.24721432147E+03  0.34056495120E+04  0.33966650818E+04 0.  0.
        1    1    3    3  502    0  0.14021109847E+04 -0.40334744028E+03  0.99523337313E+03  0.17660956481E+04  0.50400001928E-02 0.  1.
       -1    1    3    3    0  502 -0.14021109847E+04  0.40334744028E+03 -0.74801905166E+03  0.16395538639E+04  0.50400001928E-02 0. -1.
</event>
<event>
 5   0  0.2599367E-07  0.3404804E+04  0.7818609E-02  0.8136728E-01
       -1   -1    0    0    0  501  0.00000000000E+00  0.00000000000E+00  0.10304120964E+04  0.10304120964E+04  0.50400001928E-02 0.  1.
        1   -1    0    0  501    0  0.00000000000E+00  0.00000000000E+00 -0.28126351566E+04  0.28126351566E+04  0.50400001928E-02 0. -1.
    10030    2    1    2    0    0  0.00000000000E+00  0.00000000000E+00 -0.17822230602E+04  0.38430472530E+04  0.34048044220E+04 0.  0.
        2    1    3    3  502    0  0.13217692876E+04  0.12861780454E+03 -0.20933667083E+04  0.24790725614E+04  0.25500000920E-02 0. -1.
       -2    1    3    3    0  502 -0.13217692876E+04 -0.12861780454E+03  0.31114364815E+03  0.13639746915E+04  0.25500000920E-02 0.  1.
</event>
<event>
 5   0  0.7610412E-07  0.3383509E+04  0.7818609E-02  0.8141966E-01
        2   -1    0    0  501    0  0.00000000000E+00  0.00000000000E+00  0.28085779537E+04  0.28085779537E+04  0.25500000920E-02 0.  1.
       -2   -1    0    0    0  501  0.00000000000E+00  0.00000000000E+00 -0.10190330165E+04  0.10190330165E+04  0.25500000920E-02 0. -1.
    10030    2    1    2    0    0  0.00000000000E+00  0.00000000000E+00  0.17895449372E+04  0.38276109703E+04  0.33835092223E+04 0.  0.
        4    1    3    3  502    0 -0.14890734591E+04 -0.14109999385E+03  0.17889526806E+04  0.23318666945E+04  0.12699999809E+01 0.  1.
       -4    1    3    3    0  502  0.14890734591E+04  0.14109999385E+03  0.59225665974E+00  0.14957442757E+04  0.12699999809E+01 0. -1.
</event>
<event>
 5   0  0.2592200E-07  0.3475038E+04  0.7818609E-02  0.8119731E-01
        1   -1    0    0  501    0  0.00000000000E+00  0.00000000000E+00  0.21033505766E+04  0.21033505766E+04  0.50400001928E-02 0.  1.
       -1   -1    0    0    0  501  0.00000000000E+00  0.00000000000E+00 -0.14353158111E+04  0.14353158112E+04  0.50400001928E-02 0. -1.
    10030    2    1    2    0    0  0.00000000000E+00  0.00000000000E+00  0.66803476548E+03  0.35386663878E+04  0.34750380366E+04 0.  0.
        4    1    3    3  502    0 -0.23353342411E+03 -0.24044716157E+03 -0.14020798298E+04  0.14415901497E+04  0.12699999809E+01 0. -1.
       -4    1    3    3    0  502  0.23353342411E+03  0.24044716157E+03  0.20701145953E+04  0.20970762381E+04  0.12699999809E+01 0.  1.
</event>
<event>
 5   0  0.2599367E-07  0.3392016E+04  0.7818609E-02  0.8139869E-01
        1   -1    0    0  501    0  0.00000000000E+00  0.00000000000E+00  0.23316619960E+04  0.23316619960E+04  0.50400001928E-02 0.  1.
       -1   -1    0    0    0  501  0.00000000000E+00  0.00000000000E+00 -0.12336448040E+04  0.12336448040E+04  0.50400001928E-02 0. -1.
    10030    2    1    2    0    0  0.00000000000E+00  0.00000000000E+00  0.10980171920E+04  0.35653068000E+04  0.33920157465E+04 0.  0.
        2    1    3    3  502    0 -0.50145827004E+03  0.80261524013E+03  0.20283158410E+04  0.22382396590E+04  0.25500000920E-02 0.  1.
       -2    1    3    3    0  502  0.50145827004E+03 -0.80261524013E+03 -0.93029864902E+03  0.13270671410E+04  0.25500000920E-02 0. -1.
</event>
<event>
 5   0  0.2553250E-07  0.3397441E+04  0.7818609E-02  0.8138535E-01
        1   -1    0    0  501    0  0.00000000000E+00  0.00000000000E+00  0.14697996603E+04  0.14697996603E+04  0.50400001928E-02 0. -1.
       -1   -1    0    0    0  501  0.00000000000E+00  0.00000000000E+00 -0.19632960007E+04  0.19632960007E+04  0.50400001928E-02 0.  1.
    10030    2    1    2    0    0  0.00000000000E+00  0.00000000000E+00 -0.49349634037E+03  0.34330956610E+04  0.33974412695E+04 0.  0.
        5    1    3    3  502    0  0.34871569335E+03 -0.57470013506E+03  0.13296707765E+04  0.14899427318E+04  0.46999998093E+01 0. -1.
       -5    1    3    3    0  502 -0.34871569335E+03  0.57470013506E+03 -0.18231671169E+04  0.19431529292E+04  0.46999998093E+01 0.  1.
</event>
<event>
 5   0  0.2599367E-07  0.3392703E+04  0.7818609E-02  0.8139700E-01
       -1   -1    0    0    0  501  0.00000000000E+00  0.00000000000E+00  0.17830359902E+04  0.17830359902E+04  0.50400001928E-02 0. -1.
        1   -1    0    0  501    0  0.00000000000E+00  0.00000000000E+00 -0.16138812082E+04  0.16138812082E+04  0.50400001928E-02 0.  1.
    10030    2    1    2    0    0  0.00000000000E+00  0.00000000000E+00  0.16915478202E+03  0.33969171984E+04  0.33927029213E+04 0.  0.
        2    1    3    3  502    0 -0.77156379720E+03 -0.14694314786E+04 -0.26666988139E+03  0.16809676942E+04  0.25500000920E-02 0. -1.
       -2    1    3    3    0  502  0.77156379720E+03  0.14694314786E+04  0.43582466341E+03  0.17159495041E+04  0.25500000920E-02 0.  1.
</event>
<event>
 5   0  0.2622205E-07  0.3413628E+04  0.7818609E-02  0.8134570E-01
       -1   -1    0    0    0  501  0.00000000000E+00  0.00000000000E+00  0.10205111879E+04  0.10205111879E+04  0.50400001928E-02 0.  1.
        1   -1    0    0  501    0  0.00000000000E+00  0.00000000000E+00 -0.28546618862E+04  0.28546618862E+04  0.50400001928E-02 0. -1.
    10030    2    1    2    0    0  0.00000000000E+00  0.00000000000E+00 -0.18341506983E+04  0.38751730741E+04  0.34136282121E+04 0.  0.
        3    1    3    3  502    0 -0.12401406276E+04  0.10929816036E+04 -0.13995806241E+04  0.21659601787E+04  0.10100000352E+00 0. -1.
       -3    1    3    3    0  502  0.12401406276E+04 -0.10929816036E+04 -0.43457007420E+03  0.17092128954E+04  0.10100000352E+00 0.  1.
</event>
<event>
 5   0  0.2553250E-07  0.3297084E+04  0.7818609E-02  0.8163638E-01
       -1   -1    0    0    0  501  0.00000000000E+00  0.00000000000E+00  0.13774495059E+04  0.13774495059E+04  0.50400001928E-02 0. -1.
        1   -1    0    0  501    0  0.00000000000E+00  0.00000000000E+00 -0.19729874847E+04  0.19729874847E+04  0.50400001928E-02 0.  1.
    10030    2    1    2    0    0  0.00000000000E+00  0.00000000000E+00 -0.59553797880E+03  0.33504369906E+04  0.32970839455E+04 0.  0.
        5    1    3    3  502    0 -0.38270386623E+03  0.13914799415E+04  0.51198826685E+03  0.15312846738E+04  0.46999998093E+01 0. -1.
       -5    1    3    3    0  502  0.38270386623E+03 -0.13914799415E+04 -0.11075262457E+04  0.18191523168E+04  0.46999998093E+01 0.  1.
</event>
<event>
 5   0  0.2553250E-07  0.3405255E+04  0.7818609E-02  0.8136618E-01
       -1   -1    0    0    0  501  0.00000000000E+00  0.00000000000E+00  0.15074010951E+04  0.15074010951E+04  0.50400001928E-02 0.  1.
        1   -1    0    0  501    0  0.00000000000E+00  0.00000000000E+00 -0.19231379191E+04  0.19231379191E+04  0.50400001928E-02 0. -1.
    10030    2    1    2    0    0  0.00000000000E+00  0.00000000000E+00 -0.41573682407E+03  0.34305390142E+04  0.34052548834E+04 0.  0.
        5    1    3    3  502    0  0.14420371935E+04 -0.82580982785E+03  0.16567437903E+03  0.16700009668E+04  0.46999998093E+01 0.  1.
       -5    1    3    3    0  502 -0.14420371935E+04  0.82580982785E+03 -0.58141120310E+03  0.17605380474E+04  0.46999998093E+01 0. -1.
</event>
<event>
 5   0  0.2553250E-07  0.3350582E+04  0.7818609E-02  0.8150143E-01
       -1   -1    0    0    0  501  0.00000000000E+00  0.00000000000E+00  0.13064294914E+04  0.13064294914E+04  0.50400001928E-02 0. -1.
        1   -1    0    0  501    0  0.00000000000E+00  0.00000000000E+00 -0.21482985116E+04  0.21482985116E+04  0.50400001928E-02 0.  1.
    10030    2    1    2    0    0  0.00000000000E+00  0.00000000000E+00 -0.84186902019E+03  0.34547280030E+04  0.33505823564E+04 0.  0.
        5    1    3    3  502    0  0.13201467357E+04 -0.10213367206E+04 -0.56914649624E+03  0.17634811949E+04  0.46999998093E+01 0.  1.
       -5    1    3    3    0  502 -0.13201467357E+04  0.10213367206E+04 -0.27272252395E+03  0.16912468080E+04  0.46999998093E+01 0. -1.
</event>
<event>
 5   0  0.7610412E-07  0.3394516E+04  0.7818609E-02  0.8139254E-01
       -2   -1    0    0    0  501  0.00000000000E+00  0.00000000000E+00  0.18191715630E+04  0.18191715630E+04  0.25500000920E-02 0. -1.
        2   -1    0    0  501    0  0.00000000000E+00  0.00000000000E+00 -0.15835144275E+04  0.15835144275E+04  0.25500000920E-02 0.  1.
    10030    2    1    2    0    0  0.00000000000E+00  0.00000000000E+00  0.23565713551E+03  0.34026859906E+04  0.33945158219E+04 0.  0.
        4    1    3    3  502    0  0.55631775752E+03 -0.15610392516E+04 -0.24959124022E+03  0.16758968919E+04  0.12699999809E+01 0.  1.
       -4    1    3    3    0  502 -0.55631775752E+03  0.15610392516E+04  0.48524837573E+03  0.17267890987E+04  0.12699999809E+01 0. -1.
</event>
<event>
 5   0  0.2592200E-07  0.3379084E+04  0.7818609E-02  0.8143059E-01
       -1   -1    0    0    0  501  0.00000000000E+00  0.00000000000E+00  0.13426655775E+04  0.13426655775E+04  0.50400001928E-02 0. -1.
        1   -1    0    0  501    0  0.00000000000E+00  0.00000000000E+00 -0.21260331475E+04  0.21260331475E+04  0.50400001928E-02 0.  1.
    10030    2    1    2    0    0  0.00000000000E+00  0.00000000000E+00 -0.78336757001E+03  0.34686987250E+04  0.33790836177E+04 0.  0.
        4    1    3    3  502    0  0.13443506375E+04 -0.54684214412E+03  0.49626237856E+03  0.15338164585E+04  0.12699999809E+01 0. -1.
       -4    1    3    3    0  502 -0.13443506375E+04  0.54684214412E+03 -0.12796299486E+04  0.19348822665E+04  0.12699999809E+01 0.  1.
</event>
<event>
 5   0  0.8489228E-07  0.3400853E+04  0.7818609E-02  0.8137697E-01
        2   -1    0    0  501    0  0.00000000000E+00  0.00000000000E+00  0.20463808862E+04  0.20463808862E+04  0.25500000920E-02 0. -1.
       -2   -1    0    0    0  501  0.00000000000E+00  0.00000000000E+00 -0.14129579858E+04  0.14129579858E+04  0.25500000920E-02 0.  1.
    10030    2    1    2    0    0  0.00000000000E+00  0.00000000000E+00  0.63342290041E+03  0.34593388721E+04  0.34008529608E+04 0.  0.
        3    1    3    3  502    0  0.60811437596E+03  0.21622617591E+03 -0.12835225598E+04  0.14366582841E+04  0.10100000352E+00 0.  1.
       -3    1    3    3    0  502 -0.60811437596E+03 -0.21622617591E+03  0.19169454602E+04  0.20226805880E+04  0.10100000352E+00 0. -1.
</event>
<event>
 5   0  0.7838333E-07  0.3409126E+04  0.7818609E-02  0.8135670E-01
        2   -1    0    0  501    0  0.00000000000E+00  0.00000000000E+00  0.19799188703E+04  0.19799188703E+04  0.25500000920E-02 0. -1.
       -2   -1    0    0    0  501  0.00000000000E+00  0.00000000000E+00 -0.14675016307E+04  0.14675016307E+04  0.25500000920E-02 0.  1.
    10030    2    1    2    0    0  0.00000000000E+00  0.00000000000E+00  0.51241723955E+03  0.34474205010E+04  0.34091255012E+04 0.  0.
        1    1    3    3  502    0 -0.40948725704E+03 -0.15132470434E+04 -0.42059098922E+03  0.16231121983E+04  0.50400001928E-02 0. -1.
       -1    1    3    3    0  502  0.40948725704E+03  0.15132470434E+04  0.93300822876E+03  0.18243083026E+04  0.50400001928E-02 0.  1.
</event>
<event>
 5   0  0.2592200E-07  0.3404658E+04  0.7818609E-02  0.8136764E-01
        1   -1    0    0  501    0  0.00000000000E+00  0.00000000000E+00  0.21246085438E+04  0.21246085438E+04  0.50400001928E-02 0.  1.
       -1   -1    0    0    0  501  0.00000000000E+00  0.00000000000E+00 -0.13639802937E+04  0.13639802937E+04  0.50400001928E-02 0. -1.
    10030    2    1    2    0    0  0.00000000000E+00  0.00000000000E+00  0.76062825008E+03  0.34885888374E+04  0.34046580947E+04 0.  0.
        4    1    3    3  502    0 -0.44907368243E+03  0.16371833311E+04  0.25116678030E+03  0.17161360076E+04  0.12699999809E+01 0. -1.
       -4    1    3    3    0  502  0.44907368243E+03 -0.16371833311E+04  0.50946146979E+03  0.17724528299E+04  0.12699999809E+01 0.  1.
</event>
<event>
 5   0  0.7838333E-07  0.3279551E+04  0.7818609E-02  0.8168118E-01
       -2   -1    0    0    0  501  0.00000000000E+00  0.00000000000E+00  0.12660081214E+04  0.12660081214E+04  0.25500000920E-02 0. -1.
        2   -1    0    0  501    0  0.00000000000E+00  0.00000000000E+00 -0.21238907210E+04  0.21238907210E+04  0.25500000920E-02 0.  1.
    10030    2    1    2    0    0  0.00000000000E+00  0.00000000000E+00 -0.85788259964E+03  0.33898988424E+04  0.32795505191E+04 0.  0.
        1    1    3    3  502    0 -0.43059823761E+03 -0.97118328437E+03  0.86218777298E+03  0.13682030441E+04  0.50400001928E-02 0. -1.
       -1    1    3    3    0  502  0.43059823761E+03  0.97118328437E+03 -0.17200703726E+04  0.20216957983E+04  0.50400001928E-02 0.  1.
</event>
<event>
 5   0  0.7838333E-07  0.3418556E+04  0.7818609E-02  0.8133367E-01
        2   -1    0    0  501    0  0.00000000000E+00  0.00000000000E+00  0.19015870559E+04  0.19015870559E+04  0.25500000920E-02 0.  1.
       -2   -1    0    0    0  501  0.00000000000E+00  0.00000000000E+00 -0.15364170528E+04  0.15364170528E+04  0.25500000920E-02 0. -1.
    10030    2    1    2    0    0  0.00000000000E+00  0.00000000000E+00  0.36517000312E+03  0.34380041087E+04  0.34185557068E+04 0.  0.
        1    1    3    3  502    0 -0.16142428519E+04 -0.44133132929E+03  0.53252643635E+03  0.17561713278E+04  0.50400001928E-02 0. -1.
       -1    1    3    3    0  502  0.16142428519E+04  0.44133132929E+03 -0.16735643323E+03  0.16818327809E+04  0.50400001928E-02 0.  1.
</event>
<event>
 5   0  0.2599367E-07  0.3418399E+04  0.7818609E-02  0.8133405E-01
       -1   -1    0    0    0  501  0.00000000000E+00  0.00000000000E+00  0.14780546226E+04  0.14780546226E+04  0.50400001928E-02 0.  1.
        1   -1    0    0  501    0  0.00000000000E+00  0.00000000000E+00 -0.19764919829E+04  0.19764919829E+04  0.50400001928E-02 0. -1.
    10030    2    1    2    0    0  0.00000000000E+00  0.00000000000E+00 -0.49843736025E+03  0.34545466055E+04  0.34183991059E+04 0.  0.
        2    1    3    3  502    0 -0.66099829341E+03 -0.10069162477E+04  0.97627269919E+03  0.15504539519E+04  0.25500000920E-02 0.  1.
       -2    1    3    3    0  502  0.66099829341E+03  0.10069162477E+04 -0.14747100594E+04  0.19040926535E+04  0.25500000920E-02 0. -1.
</event>
<event>
 5   0  0.7838333E-07  0.3252201E+04  0.7818609E-02  0.8175165E-01
       -2   -1    0    0    0  501  0.00000000000E+00  0.00000000000E+00  0.89376352865E+03  0.89376352866E+03  0.25500000920E-02 0. -1.
        2   -1    0    0  501    0  0.00000000000E+00  0.00000000000E+00 -0.29585039105E+04  0.29585039105E+04  0.25500000920E-02 0.  1.
    10030    2    1    2    0    0  0.00000000000E+00  0.00000000000E+00 -0.20647403819E+04  0.38522674392E+04  0.32522010360E+04 0.  0.
        1    1    3    3  502    0  0.88198706307E+03 -0.13067258566E+04 -0.15043487214E+04  0.21791050272E+04  0.50400001928E-02 0. -1.
       -1    1    3    3    0  502 -0.88198706307E+03  0.13067258566E+04 -0.56039166044E+03  0.16731624120E+04  0.50400001928E-02 0.  1.
</event>
<event>
 5   0  0.2592200E-07  0.3400563E+04  0.7818609E-02  0.8137768E-01
       -1   -1    0    0    0  501  0.00000000000E+00  0.00000000000E+00  0.22897919557E+04  0.22897919557E+04  0.50400001928E-02 0. -1.
        1   -1    0    0  501    0  0.00000000000E+00  0.00000000000E+00 -0.12625413461E+04  0.12625413462E+04  0.50400001928E-02 0.  1.
    10030    2    1    2    0    0  0.00000000000E+00  0.00000000000E+00  0.10272506095E+04  0.35523333019E+04  0.34005629053E+04 0.  0.
        4    1    3    3  502    0  0.84495654918E+03 -0.88035131670E+02 -0.10249475387E+04  0.13312478449E+04  0.12699999809E+01 0.  1.
       -4    1    3    3    0  502 -0.84495654918E+03  0.88035131670E+02  0.20521981483E+04  0.22210854570E+04  0.12699999809E+01 0. -1.
</event>
<event>
 5   0  0.2599367E-07  0.3390891E+04  0.7818609E-02  0.8140145E-01
       -1   -1    0    0    0  501  0.00000000000E+00  0.00000000000E+00  0.17016469975E+04  0.17016469975E+04  0.50400001928E-02 0. -1.
        1   -1    0    0  501    0  0.00000000000E+00  0.00000000000E+00 -0.16892669979E+04  0.16892669979E+04  0.50400001928E-02 0.  1.
    10030    2    1    2    0    0  0.00000000000E+00  0.00000000000E+00  0.12379999565E+02  0.33909139954E+04  0.33908913960E+04 0.  0.
        2    1    3    3  502    0  0.10687521169E+04 -0.50696367874E+03  0.12208144359E+04  0.16998915100E+04  0.25500000920E-02 0. -1.
       -2    1    3    3    0  502 -0.10687521169E+04  0.50696367874E+03 -0.12084344363E+04  0.16910224853E+04  0.25500000920E-02 0.  1.
</event>
<event>
 5   0  0.2641442E-07  0.3370848E+04  0.7818609E-02  0.8145099E-01
        1   -1    0    0  501    0  0.00000000000E+00  0.00000000000E+00  0.96513888523E+03  0.96513888525E+03  0.50400001928E-02 0. -1.
       -1   -1    0    0    0  501  0.00000000000E+00  0.00000000000E+00 -0.29432587308E+04  0.29432587308E+04  0.50400001928E-02 0.  1.
    10030    2    1    2    0    0  0.00000000000E+00  0.00000000000E+00 -0.19781198455E+04  0.39083976160E+04  0.33708476384E+04 0.  0.
        1    1    3    3  502    0  0.48649020117E+03  0.11729663903E+04 -0.22739970849E+04  0.26045317450E+04  0.50400001928E-02 0.  1.
       -1    1    3    3    0  502 -0.48649020117E+03 -0.11729663903E+04  0.29587723939E+03  0.13038658710E+04  0.50400001928E-02 0. -1.
</event>
<event>
 5   0  0.7838333E-07  0.3310458E+04  0.7818609E-02  0.8160240E-01
       -2   -1    0    0    0  501  0.00000000000E+00  0.00000000000E+00  0.15764027173E+04  0.15764027173E+04  0.25500000920E-02 0. -1.
        2   -1    0    0  501    0  0.00000000000E+00  0.00000000000E+00 -0.17379965572E+04  0.17379965572E+04  0.25500000920E-02 0.  1.
    10030    2    1    2    0    0  0.00000000000E+00  0.00000000000E+00 -0.16159383997E+03  0.33143992745E+04  0.33104576695E+04 0.  0.
        1    1    3    3  502    0 -0.13635503050E+04  0.68621645632E+03 -0.72157460943E+03  0.16884408121E+04  0.50400001928E-02 0.  1.
       -1    1    3    3    0  502  0.13635503050E+04 -0.68621645632E+03  0.55998076947E+03  0.16259584623E+04  0.50400001928E-02 0. -1.
</event>
<event>
 5   0  0.2641442E-07  0.3399956E+04  0.7818609E-02  0.8137917E-01
       -1   -1    0    0    0  501  0.00000000000E+00  0.00000000000E+00  0.16482274259E+04  0.16482274259E+04  0.50400001928E-02 0.  1.
        1   -1    0    0  501    0  0.00000000000E+00  0.00000000000E+00 -0.17533537602E+04  0.17533537602E+04  0.50400001928E-02 0. -1.
    10030    2    1    2    0    0  0.00000000000E+00  0.00000000000E+00 -0.10512633429E+03  0.34015811860E+04  0.33999563260E+04 0.  0.
        1    1    3    3  502    0 -0.11041695874E+03 -0.12158389037E+04  0.11309939967E+04  0.16642125961E+04  0.50400001928E-02 0.  1.
       -1    1    3    3    0  502  0.11041695874E+03  0.12158389037E+04 -0.12361203310E+04  0.17373685899E+04  0.50400001928E-02 0. -1.
</event>
<event>
 5   0  0.2592200E-07  0.3060810E+04  0.7818609E-02  0.8226576E-01
       -1   -1    0    0    0  501  0.00000000000E+00  0.00000000000E+00  0.10886494458E+04  0.10886494458E+04  0.50400001928E-02 0.  1.
        1   -1    0    0  501    0  0.00000000000E+00  0.00000000000E+00 -0.21514168525E+04  0.21514168525E+04  0.50400001928E-02 0. -1.
    10030    2    1    2    0    0  0.00000000000E+00  0.00000000000E+00 -0.10627674067E+04  0.32400662983E+04  0.30608095426E+04 0.  0.
        4    1    3    3  502    0  0.16804215343E+03 -0.44097524048E+03  0.10097067683E+04  0.11145432692E+04  0.12699999809E+01 0.  1.
       -4    1    3    3    0  502 -0.16804215343E+03  0.44097524048E+03 -0.20724741750E+04  0.21255230291E+04  0.12699999809E+01 0. -1.
</event>
<event>
 5   0  0.7899402E-07  0.3388561E+04  0.7818609E-02  0.8140719E-01
       -2   -1    0    0    0  501  0.00000000000E+00  0.00000000000E+00  0.12806928800E+04  0.12806928800E+04  0.25500000920E-02 0. -1.
        2   -1    0    0  501    0  0.00000000000E+00  0.00000000000E+00 -0.22414325151E+04  0.22414325151E+04  0.25500000920E-02 0.  1.
    10030    2    1    2    0    0  0.00000000000E+00  0.00000000000E+00 -0.96073963506E+03  0.35221253951E+04  0.33885611479E+04 0.  0.
        2    1    3    3  502    0 -0.13292988711E+04  0.96267893938E+03 -0.43319791565E+02  0.16418473843E+04  0.25500000920E-02 0.  1.
       -2    1    3    3    0  502  0.13292988711E+04 -0.96267893938E+03 -0.91741984350E+03  0.18802780109E+04  0.25500000920E-02 0. -1.
</event>
<event>
 5   0  0.7899402E-07  0.3392947E+04  0.7818609E-02  0.8139640E-01
       -2   -1    0    0    0  501  0.00000000000E+00  0.00000000000E+00  0.19017862740E+04  0.19017862740E+04  0.25500000920E-02 0.  1.
        2   -1    0    0  501    0  0.00000000000E+00  0.00000000000E+00 -0.15133255401E+04  0.15133255401E+04  0.25500000920E-02 0. -1.
    10030    2    1    2    0    0  0.00000000000E+00  0.00000000000E+00  0.38846073391E+03  0.34151118141E+04  0.33929466487E+04 0.  0.
        2    1    3    3  502    0  0.98899978665E+03 -0.29796159900E+03 -0.11603398286E+04  0.15534768136E+04  0.25500000920E-02 0. -1.
       -2    1    3    3    0  502 -0.98899978665E+03  0.29796159900E+03  0.15488005625E+04  0.18616350005E+04  0.25500000920E-02 0.  1.
</event>
<event>
 5   0  0.7822003E-07  0.3383907E+04  0.7818609E-02  0.8141867E-01
       -2   -1    0    0    0  501  0.00000000000E+00  0.00000000000E+00  0.12635063015E+04  0.12635063015E+04  0.25500000920E-02 0. -1.
        2   -1    0    0  501    0  0.00000000000E+00  0.00000000000E+00 -0.22656848373E+04  0.22656848373E+04  0.25500000920E-02 0.  1.
    10030    2    1    2    0    0  0.00000000000E+00  0.00000000000E+00 -0.10021785358E+04  0.35291911389E+04  0.33839072500E+04 0.  0.
        5    1    3    3  502    0  0.38673724963E+03 -0.13864370959E+04  0.42642513625E+03  0.15012108473E+04  0.46999998093E+01 0. -1.
       -5    1    3    3    0  502 -0.38673724963E+03  0.13864370959E+04 -0.14286036720E+04  0.20279802916E+04  0.46999998093E+01 0.  1.
</event>
<event>
 5   0  0.7838333E-07  0.3370930E+04  0.7818609E-02  0.8145078E-01
        2   -1    0    0  501    0  0.00000000000E+00  0.00000000000E+00  0.97887416660E+03  0.97887416660E+03  0.25500000920E-02 0. -1.
       -2   -1    0    0    0  501  0.00000000000E+00  0.00000000000E+00 -0.29021018889E+04  0.29021018889E+04  0.25500000920E-02 0.  1.
    10030    2    1    2    0    0  0.00000000000E+00  0.00000000000E+00 -0.19232277223E+04  0.38809760555E+04  0.33709301790E+04 0.  0.
        1    1    3    3  502    0  0.28761116801E+03 -0.64232504818E+03 -0.27248402775E+04  0.28142594388E+04  0.50400001928E-02 0.  1.
       -1    1    3    3    0  502 -0.28761116801E+03  0.64232504818E+03  0.80161255519E+03  0.10667166166E+04  0.50400001928E-02 0. -1.
</event>
<event>
 5   0  0.2622205E-07  0.3372742E+04  0.7818609E-02  0.8144629E-01
       -1   -1    0    0    0  501  0.00000000000E+00  0.00000000000E+00  0.14670040335E+04  0.14670040336E+04  0.50400001928E-02 0.  1.
        1   -1    0    0  501    0  0.00000000000E+00  0.00000000000E+00 -0.19385403282E+04  0.19385403282E+04  0.50400001928E-02 0. -1.
    10030    2    1    2    0    0  0.00000000000E+00  0.00000000000E+00 -0.47153629469E+03  0.34055443618E+04  0.33727416033E+04 0.  0.
        3    1    3    3  502    0 -0.28837198817E+03  0.10908239122E+04 -0.15012697812E+04  0.18779952548E+04  0.10100000352E+00 0. -1.
       -3    1    3    3    0  502  0.28837198817E+03 -0.10908239122E+04  0.10297334865E+04  0.15275491070E+04  0.10100000352E+00 0.  1.
</event>
<event>
 5   0  0.7610412E-07  0.3389547E+04  0.7818609E-02  0.8140477E-01
       -2   -1    0    0    0  501  0.00000000000E+00  0.00000000000E+00  0.18125375014E+04  0.18125375014E+04  0.25500000920E-02 0.  1.
        2   -1    0    0  501    0  0.00000000000E+00  0.00000000000E+00 -0.15846611904E+04  0.15846611904E+04  0.25500000920E-02 0. -1.
    10030    2    1    2    0    0  0.00000000000E+00  0.00000000000E+00  0.22787631107E+03  0.33971986918E+04  0.33895473648E+04 0.  0.
        4    1    3    3  502    0  0.14244030198E+04  0.11751451483E+02  0.10342670063E+04  0.17603328983E+04  0.12699999809E+01 0.  1.
       -4    1    3    3    0  502 -0.14244030198E+04 -0.11751451483E+02 -0.80639069527E+03  0.16368657935E+04  0.12699999809E+01 0. -1.
</event>
<event>
 5   0  0.7822003E-07  0.3416902E+04  0.7818609E-02  0.8133770E-01
       -2   -1    0    0    0  501  0.00000000000E+00  0.00000000000E+00  0.12635409295E+04  0.12635409295E+04  0.25500000920E-02 0. -1.
        2   -1    0    0  501    0  0.00000000000E+00  0.00000000000E+00 -0.23100197429E+04  0.23100197429E+04  0.25500000920E-02 0.  1.
    10030    2    1    2    0    0  0.00000000000E+00  0.00000000000E+00 -0.10464788134E+04  0.35735606725E+04  0.34169018091E+04 0.  0.
        5    1    3    3  502    0  0.90320328533E+03 -0.96652446919E+03 -0.16539346812E+04  0.21178922880E+04  0.46999998093E+01 0. -1.
       -5    1    3    3    0  502 -0.90320328533E+03  0.96652446919E+03  0.60745586775E+03  0.14556683844E+04  0.46999998093E+01 0.  1.
</event>
<event>
 5   0  0.7838333E-07  0.3404366E+04  0.7818609E-02  0.8136836E-01
        2   -1    0    0  501    0  0.00000000000E+00  0.00000000000E+00  0.93311285037E+03  0.93311285037E+03  0.25500000920E-02 0.  1.
       -2   -1    0    0    0  501  0.00000000000E+00  0.00000000000E+00 -0.31051191214E+04  0.31051191214E+04  0.25500000920E-02 0. -1.
    10030    2    1    2    0    0  0.00000000000E+00  0.00000000000E+00 -0.21720062710E+04  0.40382319717E+04  0.34043657583E+04 0.  0.
        1    1    3    3  502    0 -0.67735059798E+03  0.61999584150E+03 -0.27861222830E+04  0.29335432589E+04  0.50400001928E-02 0. -1.
       -1    1    3    3    0  502  0.67735059798E+03 -0.61999584150E+03  0.61411601199E+03  0.11046887128E+04  0.50400001928E-02 0.  1.
</event>
<event>
 5   0  0.2641442E-07  0.3522682E+04  0.7818609E-02  0.8108435E-01
       -1   -1    0    0    0  501  0.00000000000E+00  0.00000000000E+00  0.15332769736E+04  0.15332769737E+04  0.50400001928E-02 0.  1.
        1   -1    0    0  501    0  0.00000000000E+00  0.00000000000E+00 -0.20233283293E+04  0.20233283293E+04  0.50400001928E-02 0. -1.
    10030    2    1    2    0    0  0.00000000000E+00  0.00000000000E+00 -0.49005135567E+03  0.35566053030E+04  0.35226823516E+04 0.  0.
        1    1    3    3  502    0 -0.88115795085E+03 -0.14392764900E+04  0.26417880766E+03  0.17081412680E+04  0.50400001928E-02 0. -1.
       -1    1    3    3    0  502  0.88115795085E+03  0.14392764900E+04 -0.75423016333E+03  0.18484640349E+04  0.50400001928E-02 0.  1.
</event>
<event>
 5   0  0.2599367E-07  0.3409113E+04  0.7818609E-02  0.8135673E-01
       -1   -1    0    0    0  501  0.00000000000E+00  0.00000000000E+00  0.16348585499E+04  0.16348585499E+04  0.50400001928E-02 0.  1.
        1   -1    0    0  501    0  0.00000000000E+00  0.00000000000E+00 -0.17772253634E+04  0.17772253634E+04  0.50400001928E-02 0. -1.
    10030    2    1    2    0    0  0.00000000000E+00  0.00000000000E+00 -0.14236681347E+03  0.34120839134E+04  0.34091125417E+04 0.  0.
        2    1    3    3  502    0  0.13743000448E+04 -0.80753015785E+03 -0.67561912936E+03  0.17312616142E+04  0.25500000920E-02 0. -1.
       -2    1    3    3    0  502 -0.13743000448E+04  0.80753015785E+03  0.53325231589E+03  0.16808222991E+04  0.25500000920E-02 0.  1.
</event>
<event>
 5   0  0.2599367E-07  0.3408682E+04  0.7818609E-02  0.8135779E-01
       -1   -1    0    0    0  501  0.00000000000E+00  0.00000000000E+00  0.13192209673E+04  0.13192209673E+04  0.50400001928E-02 0. -1.
        1   -1    0    0  501    0  0.00000000000E+00  0.00000000000E+00 -0.22018892006E+04  0.22018892006E+04  0.50400001928E-02 0.  1.
    10030    2    1    2    0    0  0.00000000000E+00  0.00000000000E+00 -0.88266823330E+03  0.35211101679E+04  0.34086820920E+04 0.  0.
        2    1    3    3  502    0 -0.10401036872E+04  0.11973307276E+04  0.20323547411E+03  0.15989750496E+04  0.25500000920E-02 0. -1.
       -2    1    3    3    0  502  0.10401036872E+04 -0.11973307276E+04 -0.10859037074E+04  0.19221351183E+04  0.25500000920E-02 0.  1.
</event>
<event>
 5   0  0.7899402E-07  0.3395492E+04  0.7818609E-02  0.8139014E-01
       -2   -1    0    0    0  501  0.00000000000E+00  0.00000000000E+00  0.13955938734E+04  0.13955938734E+04  0.25500000920E-02 0.  1.
        2   -1    0    0  501    0  0.00000000000E+00  0.00000000000E+00 -0.20653155305E+04  0.20653155305E+04  0.25500000920E-02 0. -1.
    10030    2    1    2    0    0  0.00000000000E+00  0.00000000000E+00 -0.66972165715E+03  0.34609094039E+04  0.33954921299E+04 0.  0.
        2    1    3    3  502    0  0.15966577393E+04 -0.56045009560E+03 -0.47506623711E+03  0.17575858942E+04  0.25500000920E-02 0.  1.
       -2    1    3    3    0  502 -0.15966577393E+04  0.56045009560E+03 -0.19465542004E+03  0.17033235097E+04  0.25500000920E-02 0. -1.
</event>
<event>
 5   0  0.7610412E-07  0.3419373E+04  0.7818609E-02  0.8133168E-01
       -2   -1    0    0    0  501  0.00000000000E+00  0.00000000000E+00  0.13117238130E+04  0.13117238130E+04  0.25500000920E-02 0.  1.
        2   -1    0    0  501    0  0.00000000000E+00  0.00000000000E+00 -0.22283861256E+04  0.22283861256E+04  0.25500000920E-02 0. -1.
    10030    2    1    2    0    0  0.00000000000E+00  0.00000000000E+00 -0.91666231262E+03  0.35401099386E+04  0.34193725422E+04 0.  0.
        4    1    3    3  502    0 -0.56177048180E+03  0.11971466076E+04 -0.15802360988E+04  0.20605566760E+04  0.12699999809E+01 0. -1.
       -4    1    3    3    0  502  0.56177048180E+03 -0.11971466076E+04  0.66357378618E+03  0.14795532626E+04  0.12699999809E+01 0.  1.
</event>
<event>
 5   0  0.7822003E-07  0.3406823E+04  0.7818609E-02  0.8136234E-01
        2   -1    0    0  501    0  0.00000000000E+00  0.00000000000E+00  0.21104861594E+04  0.21104861594E+04  0.25500000920E-02 0. -1.
       -2   -1    0    0    0  501  0.00000000000E+00  0.00000000000E+00 -0.13748539577E+04  0.13748539577E+04  0.25500000920E-02 0.  1.
    10030    2    1    2    0    0  0.00000000000E+00  0.00000000000E+00  0.73563220170E+03  0.34853401171E+04  0.34068227127E+04 0.  0.
        5    1    3    3  502    0 -0.33786539673E+03  0.15383664438E+04  0.10315078616E+04  0.18827519487E+04  0.46999998093E+01 0. -1.
       -5    1    3    3    0  502  0.33786539673E+03 -0.15383664438E+04 -0.29587565991E+03  0.16025881685E+04  0.46999998093E+01 0.  1.
</event>
<event>
 5   0  0.2641442E-07  0.3397891E+04  0.7818609E-02  0.8138424E-01
       -1   -1    0    0    0  501  0.00000000000E+00  0.00000000000E+00  0.21292777875E+04  0.21292777876E+04  0.50400001928E-02 0. -1.
        1   -1    0    0  501    0  0.00000000000E+00  0.00000000000E+00 -0.13555841622E+04  0.13555841622E+04  0.50400001928E-02 0.  1.
    10030    2    1    2    0    0  0.00000000000E+00  0.00000000000E+00  0.77369362539E+03  0.34848619497E+04  0.33978906667E+04 0.  0.
        1    1    3    3  502    0  0.73029079287E+03  0.91769854871E+03  0.16475037257E+04  0.20223164428E+04  0.50400001928E-02 0. -1.
       -1    1    3    3    0  502 -0.73029079287E+03 -0.91769854871E+03 -0.87381010032E+03  0.14625455069E+04  0.50400001928E-02 0.  1.
</event>
<event>
 5   0  0.2592200E-07  0.3381414E+04  0.7818609E-02  0.8142483E-01
        1   -1    0    0  501    0  0.00000000000E+00  0.00000000000E+00  0.26273030560E+04  0.26273030560E+04  0.50400001928E-02 0.  1.
       -1   -1    0    0    0  501  0.00000000000E+00  0.00000000000E+00 -0.10879939115E+04  0.10879939115E+04  0.50400001928E-02 0. -1.
    10030    2    1    2    0    0  0.00000000000E+00  0.00000000000E+00  0.15393091445E+04  0.37152969675E+04  0.33814137450E+04 0.  0.
        4    1    3    3  502    0  0.10250577464E+04 -0.12437264986E+04  0.13308617421E+04  0.20901659207E+04  0.12699999809E+01 0. -1.
       -4    1    3    3    0  502 -0.10250577464E+04  0.12437264986E+04  0.20844740242E+03  0.16251310468E+04  0.12699999809E+01 0.  1.
</event>
<event>
 5   0  0.7899402E-07  0.3409760E+04  0.7818609E-02  0.8135515E-01
        2   -1    0    0  501    0  0.00000000000E+00  0.00000000000E+00  0.13584618364E+04  0.13584618364E+04  0.25500000920E-02 0. -1.
       -2   -1    0    0    0  501  0.00000000000E+00  0.00000000000E+00 -0.21396371932E+04  0.21396371932E+04  0.25500000920E-02 0.  1.
    10030    2    1    2    0    0  0.00000000000E+00  0.00000000000E+00 -0.78117535675E+03  0.34980990296E+04  0.34097597984E+04 0.  0.
        2    1    3    3  502    0 -0.10286486061E+04  0.14480186936E+03 -0.17774730379E+04  0.20587607769E+04  0.25500000920E-02 0.  1.
       -2    1    3    3    0  502  0.10286486061E+04 -0.14480186936E+03  0.99629768111E+03  0.14393382527E+04  0.25500000920E-02 0. -1.
</event>
<event>
 5   0  0.7838333E-07  0.3397073E+04  0.7818609E-02  0.8138625E-01
       -2   -1    0    0    0  501  0.00000000000E+00  0.00000000000E+00  0.10498998490E+04  0.10498998490E+04  0.25500000920E-02 0. -1.
        2   -1    0    0  501    0  0.00000000000E+00  0.00000000000E+00 -0.27479063496E+04  0.27479063496E+04  0.25500000920E-02 0.  1.
    10030    2    1    2    0    0  0.00000000000E+00  0.00000000000E+00 -0.16980065006E+04  0.37978061986E+04  0.33970731293E+04 0.  0.
        1    1    3    3  502    0 -0.15564760517E+04 -0.27863777295E+03 -0.15553215270E+03  0.15888508296E+04  0.50400001928E-02 0. -1.
       -1    1    3    3    0  502  0.15564760517E+04  0.27863777295E+03 -0.15424743479E+04  0.22089553690E+04  0.50400001928E-02 0.  1.
</event>
<event>
 5   0  0.7610412E-07  0.3403555E+04  0.7818609E-02  0.8137034E-01
       -2   -1    0    0    0  501  0.00000000000E+00  0.00000000000E+00  0.14035033757E+04  0.14035033757E+04  0.25500000920E-02 0.  1.
        2   -1    0    0  501    0  0.00000000000E+00  0.00000000000E+00 -0.20634410353E+04  0.20634410353E+04  0.25500000920E-02 0. -1.
    10030    2    1    2    0    0  0.00000000000E+00  0.00000000000E+00 -0.65993765960E+03  0.34669444110E+04  0.34035548819E+04 0.  0.
        4    1    3    3  502    0  0.29476242882E+03 -0.15493311197E+04 -0.98119821950E+03  0.18574346198E+04  0.12699999809E+01 0. -1.
       -4    1    3    3    0  502 -0.29476242882E+03  0.15493311197E+04  0.32126055990E+03  0.16095097912E+04  0.12699999809E+01 0.  1.
</event>
<event>
 5   0  0.2599367E-07  0.3399349E+04  0.7818609E-02  0.8138066E-01
       -1   -1    0    0    0  501  0.00000000000E+00  0.00000000000E+00  0.14190118072E+04  0.14190118072E+04  0.50400001928E-02 0. -1.
        1   -1    0    0  501    0  0.00000000000E+00  0.00000000000E+00 -0.20358490253E+04  0.20358490253E+04  0.50400001928E-02 0.  1.
    10030    2    1    2    0    0  0.00000000000E+00  0.00000000000E+00 -0.61683721810E+03  0.34548608325E+04  0.33993492345E+04 0.  0.
        2    1    3    3  502    0 -0.11771211912E+04 -0.66929206418E+03 -0.13524857545E+04  0.19138400879E+04  0.25500000920E-02 0.  1.
       -2    1    3    3    0  502  0.11771211912E+04  0.66929206418E+03  0.73564853643E+03  0.15410207445E+04  0.25500000920E-02 0. -1.
</event>
<event>
 5   0  0.7822003E-07  0.3408437E+04  0.7818609E-02  0.8135839E-01
       -2   -1    0    0    0  501  0.00000000000E+00  0.00000000000E+00  0.14463116379E+04  0.14463116379E+04  0.25500000920E-02 0.  1.
        2   -1    0    0  501    0  0.00000000000E+00  0.00000000000E+00 -0.20081156180E+04  0.20081156180E+04  0.25500000920E-02 0. -1.
    10030    2    1    2    0    0  0.00000000000E+00  0.00000000000E+00 -0.56180398011E+03  0.34544272558E+04  0.34084371718E+04 0.  0.
        5    1    3    3  502    0  0.98076433551E+03 -0.76050206648E+03  0.90279399265E+03  0.15347055607E+04  0.46999998093E+01 0.  1.
       -5    1    3    3    0  502 -0.98076433551E+03  0.76050206648E+03 -0.14645979728E+04  0.19197216951E+04  0.46999998093E+01 0. -1.
</event>
<event>
 5   0  0.2592200E-07  0.3503705E+04  0.7818609E-02  0.8112913E-01
       -1   -1    0    0    0  501  0.00000000000E+00  0.00000000000E+00  0.14856578786E+04  0.14856578786E+04  0.50400001928E-02 0. -1.
        1   -1    0    0  501    0  0.00000000000E+00  0.00000000000E+00 -0.20657424273E+04  0.20657424273E+04  0.50400001928E-02 0.  1.
    10030    2    1    2    0    0  0.00000000000E+00  0.00000000000E+00 -0.58008454869E+03  0.35514003059E+04  0.35037046179E+04 0.  0.
        4    1    3    3  502    0 -0.33891504623E+02  0.74193779940E+03 -0.18982613152E+04  0.20383861180E+04  0.12699999809E+01 0.  1.
       -4    1    3    3    0  502  0.33891504623E+02 -0.74193779940E+03  0.13181767665E+04  0.15130141880E+04  0.12699999809E+01 0. -1.
</event>
<event>
 5   0  0.2641442E-07  0.3392828E+04  0.7818609E-02  0.8139669E-01
        1   -1    0    0  501    0  0.00000000000E+00  0.00000000000E+00  0.28758092198E+04  0.28758092198E+04  0.50400001928E-02 0.  1.
       -1   -1    0    0    0  501  0.00000000000E+00  0.00000000000E+00 -0.10006993335E+04  0.10006993335E+04  0.50400001928E-02 0. -1.
    10030    2    1    2    0    0  0.00000000000E+00  0.00000000000E+00  0.18751098863E+04  0.38765085533E+04  0.33928279470E+04 0.  0.
        1    1    3    3  502    0  0.63166092252E+03 -0.13371341595E+04  0.18872530906E+04  0.23976337313E+04  0.50400001928E-02 0.  1.
       -1    1    3    3    0  502 -0.63166092252E+03  0.13371341595E+04 -0.12143204310E+02  0.14788748220E+04  0.50400001928E-02 0. -1.
</event>
<event>
 5   0  0.2641442E-07  0.3363821E+04  0.7818609E-02  0.8146843E-01
       -1   -1    0    0    0  501  0.00000000000E+00  0.00000000000E+00  0.13447889868E+04  0.13447889868E+04  0.50400001928E-02 0.  1.
        1   -1    0    0  501    0  0.00000000000E+00  0.00000000000E+00 -0.21035440003E+04  0.21035440003E+04  0.50400001928E-02 0. -1.
    10030    2    1    2    0    0  0.00000000000E+00  0.00000000000E+00 -0.75875501350E+03  0.34483329871E+04  0.33638209256E+04 0.  0.
        1    1    3    3  502    0 -0.65688685725E+03  0.30201152067E+03 -0.19361189233E+04  0.20667045718E+04  0.50400001928E-02 0. -1.
       -1    1    3    3    0  502  0.65688685725E+03 -0.30201152067E+03  0.11773639098E+04  0.13816284153E+04  0.50400001928E-02 0.  1.
</event>
<event>
 5   0  0.2599367E-07  0.3391170E+04  0.7818609E-02  0.8140077E-01
        1   -1    0    0  501    0  0.00000000000E+00  0.00000000000E+00  0.17212119406E+04  0.17212119406E+04  0.50400001928E-02 0.  1.
       -1   -1    0    0    0  501  0.00000000000E+00  0.00000000000E+00 -0.16703399996E+04  0.16703399996E+04  0.50400001928E-02 0. -1.
    10030    2    1    2    0    0  0.00000000000E+00  0.00000000000E+00  0.50871941065E+02  0.33915519402E+04  0.33911703892E+04 0.  0.
        2    1    3    3  502    0  0.98760548375E+03 -0.42708231150E+03 -0.12851485199E+04  0.16761177198E+04  0.25500000920E-02 0. -1.
       -2    1    3    3    0  502 -0.98760548375E+03  0.42708231150E+03  0.13360204610E+04  0.17154342204E+04  0.25500000920E-02 0.  1.
</event>
<event>
 5   0  0.2622205E-07  0.3386703E+04  0.7818609E-02  0.8141178E-01
       -1   -1    0    0    0  501  0.00000000000E+00  0.00000000000E+00  0.15253320744E+04  0.15253320744E+04  0.50400001928E-02 0.  1.
        1   -1    0    0  501    0  0.00000000000E+00  0.00000000000E+00 -0.18798783908E+04  0.18798783908E+04  0.50400001928E-02 0. -1.
    10030    2    1    2    0    0  0.00000000000E+00  0.00000000000E+00 -0.35454631635E+03  0.34052104652E+04  0.33867027065E+04 0.  0.
        3    1    3    3  502    0  0.11004487340E+04  0.11351475807E+04  0.43258195926E+03  0.16391078695E+04  0.10100000352E+00 0. -1.
       -3    1    3    3    0  502 -0.11004487340E+04 -0.11351475807E+04 -0.78712827561E+03  0.17661025957E+04  0.10100000352E+00 0.  1.
</event>
<event>
 5   0  0.7838333E-07  0.3394715E+04  0.7818609E-02  0.8139205E-01
        2   -1    0    0  501    0  0.00000000000E+00  0.00000000000E+00  0.17442411704E+04  0.17442411704E+04  0.25500000920E-02 0. -1.
       -2   -1    0    0    0  501  0.00000000000E+00  0.00000000000E+00 -0.16517340333E+04  0.16517340333E+04  0.25500000920E-02 0.  1.
    10030    2    1    2    0    0  0.00000000000E+00  0.00000000000E+00  0.92507137062E+02  0.33959752037E+04  0.33947150122E+04 0.  0.
        1    1    3    3  502    0 -0.36553730684E+03 -0.10937235567E+04 -0.11996700384E+04  0.16640483594E+04  0.50400001928E-02 0.  1.
       -1    1    3    3    0  502  0.36553730684E+03  0.10937235567E+04  0.12921771755E+04  0.17319268443E+04  0.50400001928E-02 0. -1.
</event>
<event>
 5   0  0.2622205E-07  0.3299707E+04  0.7818609E-02  0.8162970E-01
        1   -1    0    0  501    0  0.00000000000E+00  0.00000000000E+00  0.10820814580E+04  0.10820814580E+04  0.50400001928E-02 0.  1.
       -1   -1    0    0    0  501  0.00000000000E+00  0.00000000000E+00 -0.25155368505E+04  0.25155368505E+04  0.50400001928E-02 0. -1.
    10030    2    1    2    0    0  0.00000000000E+00  0.00000000000E+00 -0.14334553925E+04  0.35976183085E+04  0.32997065220E+04 0.  0.
        3    1    3    3  502    0  0.88797042836E+03 -0.82896172265E+03  0.50046465023E+03  0.13138241494E+04  0.10100000352E+00 0.  1.
       -3    1    3    3    0  502 -0.88797042836E+03  0.82896172265E+03 -0.19339200427E+04  0.22837941591E+04  0.10100000352E+00 0. -1.
</event>
<event>
 5   0  0.7610412E-07  0.3389780E+04  0.7818609E-02  0.8140419E-01
        2   -1    0    0  501    0  0.00000000000E+00  0.00000000000E+00  0.14385461399E+04  0.14385461399E+04  0.25500000920E-02 0. -1.
       -2   -1    0    0    0  501  0.00000000000E+00  0.00000000000E+00 -0.19969135516E+04  0.19969135516E+04  0.25500000920E-02 0.  1.
    10030    2    1    2    0    0  0.00000000000E+00  0.00000000000E+00 -0.55836741170E+03  0.34354596915E+04  0.33897800999E+04 0.  0.
        4    1    3    3  502    0  0.15741825212E+04  0.24956229749E+03  0.30505554861E+03  0.16227730744E+04  0.12699999809E+01 0. -1.
       -4    1    3    3    0  502 -0.15741825212E+04 -0.24956229749E+03 -0.86342296031E+03  0.18126866171E+04  0.12699999809E+01 0.  1.
</event>
<event>
 5   0  0.8489228E-07  0.3409266E+04  0.7818609E-02  0.8135636E-01
       -2   -1    0    0    0  501  0.00000000000E+00  0.00000000000E+00  0.12257847997E+04  0.12257847997E+04  0.25500000920E-02 0. -1.
        2   -1    0    0  501    0  0.00000000000E+00  0.00000000000E+00 -0.23705416757E+04  0.23705416757E+04  0.25500000920E-02 0.  1.
    10030    2    1    2    0    0  0.00000000000E+00  0.00000000000E+00 -0.11447568759E+04  0.35963264754E+04  0.34092661692E+04 0.  0.
        3    1    3    3  502    0  0.12566684775E+04  0.19616837202E+03  0.62482784592E+03  0.14170771114E+04  0.10100000352E+00 0. -1.
       -3    1    3    3    0  502 -0.12566684775E+04 -0.19616837202E+03 -0.17695847218E+04  0.21792493640E+04  0.10100000352E+00 0.  1.
</event>
<event>
 5   0  0.7899402E-07  0.3443419E+04  0.7818609E-02  0.8127331E-01
       -2   -1    0    0    0  501  0.00000000000E+00  0.00000000000E+00  0.22292316929E+04  0.22292316929E+04  0.25500000920E-02 0.  1.
        2   -1    0    0  501    0  0.00000000000E+00  0.00000000000E+00 -0.13297330030E+04  0.13297330030E+04  0.25500000920E-02 0. -1.
    10030    2    1    2    0    0  0.00000000000E+00  0.00000000000E+00  0.89949868995E+03  0.35589646959E+04  0.34434186230E+04 0.  0.
        2    1    3    3  502    0  0.72104305535E+03  0.15605922513E+04  0.35207046013E+03  0.17547948232E+04  0.25500000920E-02 0. -1.
       -2    1    3    3    0  502 -0.72104305535E+03 -0.15605922513E+04  0.54742822982E+03  0.18041698727E+04  0.25500000920E-02 0.  1.
</event>
<event>
 5   0  0.2553250E-07  0.3405116E+04  0.7818609E-02  0.8136652E-01
        1   -1    0    0  501    0  0.00000000000E+00  0.00000000000E+00  0.23117836169E+04  0.23117836169E+04  0.50400001928E-02 0.  1.
       -1   -1    0    0    0  501  0.00000000000E+00  0.00000000000E+00 -0.12538819085E+04  0.12538819085E+04  0.50400001928E-02 0. -1.
    10030    2    1    2    0    0  0.00000000000E+00  0.00000000000E+00  0.10579017084E+04  0.35656655253E+04  0.34051159472E+04 0.  0.
        5    1    3    3  502    0 -0.11391721820E+04 -0.10932818442E+04 -0.13802923155E+03  0.15849456173E+04  0.46999998093E+01 0. -1.
       -5    1    3    3    0  502  0.11391721820E+04  0.10932818442E+04  0.11959309400E+04  0.19807199081E+04  0.46999998093E+01 0.  1.
</event>
<event>
 5   0  0.2641442E-07  0.3447734E+04  0.7818609E-02  0.8126289E-01
        1   -1    0    0  501    0  0.00000000000E+00  0.00000000000E+00  0.26882272798E+04  0.26882272798E+04  0.50400001928E-02 0. -1.
       -1   -1    0    0    0  501  0.00000000000E+00  0.00000000000E+00 -0.11054562622E+04  0.11054562623E+04  0.50400001928E-02 0.  1.
    10030    2    1    2    0    0  0.00000000000E+00  0.00000000000E+00  0.15827710175E+04  0.37936835420E+04  0.34477341433E+04 0.  0.
        1    1    3    3  502    0  0.49916611898E+03  0.14527105555E+03  0.25999149017E+04  0.26513822791E+04  0.50400001928E-02 0. -1.
       -1    1    3    3    0  502 -0.49916611898E+03 -0.14527105555E+03 -0.10171438842E+04  0.11423012629E+04  0.50400001928E-02 0.  1.
</event>
<event>
 5   0  0.7610412E-07  0.3402000E+04  0.7818609E-02  0.8137416E-01
       -2   -1    0    0    0  501  0.00000000000E+00  0.00000000000E+00  0.16269711469E+04  0.16269711469E+04  0.25500000920E-02 0. -1.
        2   -1    0    0  501    0  0.00000000000E+00  0.00000000000E+00 -0.17783972852E+04  0.17783972853E+04  0.25500000920E-02 0.  1.
    10030    2    1    2    0    0  0.00000000000E+00  0.00000000000E+00 -0.15142613839E+03  0.34053684321E+04  0.34020000416E+04 0.  0.
        4    1    3    3  502    0  0.90498533650E+03 -0.90227682115E+03  0.10480282112E+04  0.16527149378E+04  0.12699999809E+01 0. -1.
       -4    1    3    3    0  502 -0.90498533650E+03  0.90227682115E+03 -0.11994543496E+04  0.17526534943E+04  0.12699999809E+01 0.  1.
</event>
<event>
 5   0  0.7610412E-07  0.3455496E+04  0.7818609E-02  0.8124418E-01
       -2   -1    0    0    0  501  0.00000000000E+00  0.00000000000E+00  0.20136526907E+04  0.20136526907E+04  0.25500000920E-02 0.  1.
        2   -1    0    0  501    0  0.00000000000E+00  0.00000000000E+00 -0.14824371951E+04  0.14824371951E+04  0.25500000920E-02 0. -1.
    10030    2    1    2    0    0  0.00000000000E+00  0.00000000000E+00  0.53121549567E+03  0.34960898858E+04  0.34554962866E+04 0.  0.
        4    1    3    3  502    0 -0.23085905882E+03 -0.15467594252E+04 -0.47742519406E+03  0.16351443524E+04  0.12699999809E+01 0. -1.
       -4    1    3    3    0  502  0.23085905882E+03  0.15467594252E+04  0.10086406897E+04  0.18609455334E+04  0.12699999809E+01 0.  1.
</event>
<event>
 5   0  0.7822003E-07  0.3407856E+04  0.7818609E-02  0.8135981E-01
       -2   -1    0    0    0  501  0.00000000000E+00  0.00000000000E+00  0.21894947116E+04  0.21894947116E+04  0.25500000920E-02 0. -1.
        2   -1    0    0  501    0  0.00000000000E+00  0.00000000000E+00 -0.13260457184E+04  0.13260457184E+04  0.25500000920E-02 0.  1.
    10030    2    1    2    0    0  0.00000000000E+00  0.00000000000E+00  0.86344899319E+03  0.35155404300E+04  0.34078556823E+04 0.  0.
        5    1    3    3  502    0  0.39038340110E+03 -0.15908061516E+04 -0.52451167467E+02  0.16388522284E+04  0.46999998093E+01 0. -1.
       -5    1    3    3    0  502 -0.39038340110E+03  0.15908061516E+04  0.91590016066E+03  0.18766882016E+04  0.46999998093E+01 0.  1.
</event>
<event>
 5   0  0.8489228E-07  0.3388042E+04  0.7818609E-02  0.8140847E-01
       -2   -1    0    0    0  501  0.00000000000E+00  0.00000000000E+00  0.10328145312E+04  0.10328145312E+04  0.25500000920E-02 0. -1.
        2   -1    0    0  501    0  0.00000000000E+00  0.00000000000E+00 -0.27785315926E+04  0.27785315926E+04  0.25500000920E-02 0.  1.
    10030    2    1    2    0    0  0.00000000000E+00  0.00000000000E+00 -0.17457170614E+04  0.38113461238E+04  0.33880423871E+04 0.  0.
        3    1    3    3  502    0  0.13862517013E+03  0.14728942955E+04  0.55522947325E+02  0.14804449842E+04  0.10100000352E+00 0.  1.
       -3    1    3    3    0  502 -0.13862517013E+03 -0.14728942955E+04 -0.18012400087E+04  0.23309011396E+04  0.10100000352E+00 0. -1.
</event>
<event>
 5   0  0.7610412E-07  0.3296009E+04  0.7818609E-02  0.8163912E-01
       -2   -1    0    0    0  501  0.00000000000E+00  0.00000000000E+00  0.13610451291E+04  0.13610451291E+04  0.25500000920E-02 0.  1.
        2   -1    0    0  501    0  0.00000000000E+00  0.00000000000E+00 -0.19954654416E+04  0.19954654416E+04  0.25500000920E-02 0. -1.
    10030    2    1    2    0    0  0.00000000000E+00  0.00000000000E+00 -0.63442031252E+03  0.33565105708E+04  0.32960088105E+04 0.  0.
        4    1    3    3  502    0 -0.16409446860E+04 -0.14865663997E+03 -0.28315002542E+03  0.16718175166E+04  0.12699999809E+01 0.  1.
       -4    1    3    3    0  502  0.16409446860E+04  0.14865663997E+03 -0.35127028710E+03  0.16846930541E+04  0.12699999809E+01 0. -1.
</event>
<event>
 5   0  0.2553250E-07  0.3394663E+04  0.7818609E-02  0.8139217E-01
       -1   -1    0    0    0  501  0.00000000000E+00  0.00000000000E+00  0.12468182251E+04  0.12468182251E+04  0.50400001928E-02 0. -1.
        1   -1    0    0  501    0  0.00000000000E+00  0.00000000000E+00 -0.23106294750E+04  0.23106294750E+04  0.50400001928E-02 0.  1.
    10030    2    1    2    0    0  0.00000000000E+00  0.00000000000E+00 -0.10638112499E+04  0.35574477001E+04  0.33946634242E+04 0.  0.
        5    1    3    3  502    0 -0.38663659167E+03 -0.13729139150E+04  0.43228652196E+03  0.14903939744E+04  0.46999998093E+01 0. -1.
       -5    1    3    3    0  502  0.38663659167E+03  0.13729139150E+04 -0.14960977718E+04  0.20670537257E+04  0.46999998093E+01 0.  1.
</event>
<event>
 5   0  0.2599367E-07  0.3434893E+04  0.7818609E-02  0.8129395E-01
       -1   -1    0    0    0  501  0.00000000000E+00  0.00000000000E+00  0.26657149726E+04  0.26657149726E+04  0.50400001928E-02 0.  1.
        1   -1    0    0  501    0  0.00000000000E+00  0.00000000000E+00 -0.11065031081E+04  0.11065031081E+04  0.50400001928E-02 0. -1.
    10030    2    1    2    0    0  0.00000000000E+00  0.00000000000E+00  0.15592118645E+04  0.37722180807E+04  0.34348926635E+04 0.  0.
        2    1    3    3  502    0 -0.79370118316E+03 -0.27304755993E+03  0.24251214635E+04  0.25662678447E+04  0.25500000920E-02 0.  1.
       -2    1    3    3    0  502  0.79370118316E+03  0.27304755993E+03 -0.86590959895E+03  0.12059502360E+04  0.25500000920E-02 0. -1.
</event>
<event>
 5   0  0.7610412E-07  0.3419074E+04  0.7818609E-02  0.8133241E-01
        2   -1    0    0  501    0  0.00000000000E+00  0.00000000000E+00  0.22056007995E+04  0.22056007995E+04  0.25500000920E-02 0.  1.
       -2   -1    0    0    0  501  0.00000000000E+00  0.00000000000E+00 -0.13250435551E+04  0.13250435551E+04  0.25500000920E-02 0. -1.
    10030    2    1    2    0    0  0.00000000000E+00  0.00000000000E+00  0.88055724445E+03  0.35306443546E+04  0.34190742165E+04 0.  0.
        4    1    3    3  502    0 -0.19332052534E+03 -0.48497599390E+03  0.21212624872E+04  0.21845664770E+04  0.12699999809E+01 0.  1.
       -4    1    3    3    0  502  0.19332052534E+03  0.48497599390E+03 -0.12407052427E+04  0.13460778775E+04  0.12699999809E+01 0. -1.
</event>
<event>
 5   0  0.8489228E-07  0.3677159E+04  0.7818609E-02  0.8073042E-01
        2   -1    0    0  501    0  0.00000000000E+00  0.00000000000E+00  0.14922734372E+04  0.14922734372E+04  0.25500000920E-02 0.  1.
       -2   -1    0    0    0  501  0.00000000000E+00  0.00000000000E+00 -0.22652520038E+04  0.22652520038E+04  0.25500000920E-02 0. -1.
    10030    2    1    2    0    0  0.00000000000E+00  0.00000000000E+00 -0.77297856659E+03  0.37575254410E+04  0.36771594438E+04 0.  0.
        3    1    3    3  502    0  0.13843348440E+04 -0.10398909129E+04  0.24559197264E+03  0.17487342560E+04  0.10100000352E+00 0.  1.
       -3    1    3    3    0  502 -0.13843348440E+04  0.10398909129E+04 -0.10185705392E+04  0.20087911849E+04  0.10100000352E+00 0. -1.
</event>
<event>
 5   0  0.2553250E-07  0.3401605E+04  0.7818609E-02  0.8137512E-01
        3   -1    0    0  501    0  0.00000000000E+00  0.00000000000E+00  0.19281125136E+04  0.19281125162E+04  0.10100000352E+00 0.  1.
       -3   -1    0    0    0  501  0.00000000000E+00  0.00000000000E+00 -0.15002907591E+04  0.15002907625E+04  0.10100000352E+00 0. -1.
    10030    2    1    2    0    0  0.00000000000E+00  0.00000000000E+00  0.42782175449E+03  0.34284032787E+04  0.34016051487E+04 0.  0.
        4    1    3    3  502    0 -0.22911156258E+03  0.14053317565E+04  0.11514424783E+04  0.18311938313E+04  0.12699999809E+01 0.  1.
       -4    1    3    3    0  502  0.22911156258E+03 -0.14053317565E+04 -0.72362072382E+03  0.15972094474E+04  0.12699999809E+01 0. -1.
</event>
<event>
 5   0  0.7899402E-07  0.3348121E+04  0.7818609E-02  0.8150758E-01
       -2   -1    0    0    0  501  0.00000000000E+00  0.00000000000E+00  0.12344655802E+04  0.12344655802E+04  0.25500000920E-02 0.  1.
        2   -1    0    0  501    0  0.00000000000E+00  0.00000000000E+00 -0.22701960431E+04  0.22701960431E+04  0.25500000920E-02 0. -1.
    10030    2    1    2    0    0  0.00000000000E+00  0.00000000000E+00 -0.10357304629E+04  0.35046616232E+04  0.33481211898E+04 0.  0.
        2    1    3    3  502    0 -0.83981401269E+03  0.32126504657E+03 -0.19959703810E+04  0.21891543042E+04  0.25500000920E-02 0. -1.
       -2    1    3    3    0  502  0.83981401269E+03 -0.32126504657E+03  0.96023991807E+03  0.13155073190E+04  0.25500000920E-02 0.  1.
</event>
<event>
 5   0  0.7610412E-07  0.3395256E+04  0.7818609E-02  0.8139072E-01
        2   -1    0    0  501    0  0.00000000000E+00  0.00000000000E+00  0.16245820378E+04  0.16245820378E+04  0.25500000920E-02 0. -1.
       -2   -1    0    0    0  501  0.00000000000E+00  0.00000000000E+00 -0.17739579290E+04  0.17739579290E+04  0.25500000920E-02 0.  1.
    10030    2    1    2    0    0  0.00000000000E+00  0.00000000000E+00 -0.14937589122E+03  0.33985399668E+04  0.33952556235E+04 0.  0.
        4    1    3    3  502    0 -0.30849314541E+03 -0.10429666319E+04  0.12300264787E+04  0.16419239225E+04  0.12699999809E+01 0. -1.
       -4    1    3    3    0  502  0.30849314541E+03  0.10429666319E+04 -0.13794023699E+04  0.17566160443E+04  0.12699999809E+01 0.  1.
</event>
<event>
 5   0  0.2641442E-07  0.3416744E+04  0.7818609E-02  0.8133809E-01
       -1   -1    0    0    0  501  0.00000000000E+00  0.00000000000E+00  0.13513887734E+04  0.13513887734E+04  0.50400001928E-02 0.  1.
        1   -1    0    0  501    0  0.00000000000E+00  0.00000000000E+00 -0.21596563208E+04  0.21596563208E+04  0.50400001928E-02 0. -1.
    10030    2    1    2    0    0  0.00000000000E+00  0.00000000000E+00 -0.80826754747E+03  0.35110450942E+04  0.34167442435E+04 0.  0.
        1    1    3    3  502    0 -0.45643203693E+03  0.79652121196E+03 -0.18846473941E+04  0.20963473103E+04  0.50400001928E-02 0. -1.
       -1    1    3    3    0  502  0.45643203693E+03 -0.79652121196E+03  0.10763798466E+04  0.14146977839E+04  0.50400001928E-02 0.  1.
</event>
<event>
 5   0  0.7899402E-07  0.3524765E+04  0.7818609E-02  0.8107946E-01
       -2   -1    0    0    0  501  0.00000000000E+00  0.00000000000E+00  0.16803724999E+04  0.16803724999E+04  0.25500000920E-02 0.  1.
        2   -1    0    0  501    0  0.00000000000E+00  0.00000000000E+00 -0.18483954667E+04  0.18483954667E+04  0.25500000920E-02 0. -1.
    10030    2    1    2    0    0  0.00000000000E+00  0.00000000000E+00 -0.16802296684E+03  0.35287679666E+04  0.35247654738E+04 0.  0.
        2    1    3    3  502    0 -0.40559677627E+03 -0.37760114879E+03 -0.17589030162E+04  0.18441342665E+04  0.25500000920E-02 0. -1.
       -2    1    3    3    0  502  0.40559677627E+03  0.37760114879E+03  0.15908800493E+04  0.16846337002E+04  0.25500000920E-02 0.  1.
</event>
<event>
 5   0  0.2553250E-07  0.3429599E+04  0.7818609E-02  0.8130680E-01
       -1   -1    0    0    0  501  0.00000000000E+00  0.00000000000E+00  0.15239262501E+04  0.15239262501E+04  0.50400001928E-02 0. -1.
        1   -1    0    0  501    0  0.00000000000E+00  0.00000000000E+00 -0.19295803594E+04  0.19295803594E+04  0.50400001928E-02 0.  1.
    10030    2    1    2    0    0  0.00000000000E+00  0.00000000000E+00 -0.40565410934E+03  0.34535066095E+04  0.34295994876E+04 0.  0.
        5    1    3    3  502    0 -0.56802111062E+03  0.61709498261E+03  0.13032801423E+04  0.15498436756E+04  0.46999998093E+01 0. -1.
       -5    1    3    3    0  502  0.56802111062E+03 -0.61709498261E+03 -0.17089342516E+04  0.19036629339E+04  0.46999998093E+01 0.  1.
</event>
<event>
 5   0  0.2622205E-07  0.3427125E+04  0.7818609E-02  0.8131281E-01
       -1   -1    0    0    0  501  0.00000000000E+00  0.00000000000E+00  0.17793878887E+04  0.17793878887E+04  0.50400001928E-02 0. -1.
        1   -1    0    0  501    0  0.00000000000E+00  0.00000000000E+00 -0.16501720407E+04  0.16501720407E+04  0.50400001928E-02 0.  1.
    10030    2    1    2    0    0  0.00000000000E+00  0.00000000000E+00  0.12921584804E+03  0.34295599294E+04  0.34271248262E+04 0.  0.
        3    1    3    3  502    0  0.78581143655E+03  0.13025838837E+03 -0.14536481510E+04  0.16575764895E+04  0.10100000352E+00 0.  1.
       -3    1    3    3    0  502 -0.78581143655E+03 -0.13025838837E+03  0.15828639991E+04  0.17719834399E+04  0.10100000352E+00 0. -1.
</event>
<event>
 5   0  0.7822003E-07  0.3402148E+04  0.7818609E-02  0.8137379E-01
       -2   -1    0    0    0  501  0.00000000000E+00  0.00000000000E+00  0.13345553853E+04  0.13345553853E+04  0.25500000920E-02 0. -1.
        2   -1    0    0  501    0  0.00000000000E+00  0.00000000000E+00 -0.21682524306E+04  0.21682524306E+04  0.25500000920E-02 0.  1.
    10030    2    1    2    0    0  0.00000000000E+00  0.00000000000E+00 -0.83369704529E+03  0.35028078159E+04  0.34021481202E+04 0.  0.
        5    1    3    3  502    0 -0.13748816367E+03 -0.16729461775E+04 -0.70064680625E+03  0.18189502316E+04  0.46999998093E+01 0. -1.
       -5    1    3    3    0  502  0.13748816367E+03  0.16729461775E+04 -0.13305023904E+03  0.16838575843E+04  0.46999998093E+01 0.  1.
</event>
<event>
 5   0  0.2553250E-07  0.3428148E+04  0.7818609E-02  0.8131032E-01
        1   -1    0    0  501    0  0.00000000000E+00  0.00000000000E+00  0.21863913875E+04  0.21863913875E+04  0.50400001928E-02 0. -1.
       -1   -1    0    0    0  501  0.00000000000E+00  0.00000000000E+00 -0.13437897689E+04  0.13437897689E+04  0.50400001928E-02 0.  1.
    10030    2    1    2    0    0  0.00000000000E+00  0.00000000000E+00  0.84260161863E+03  0.35301811564E+04  0.34281484083E+04 0.  0.
        5    1    3    3  502    0  0.39975465150E+03  0.10957177326E+04  0.17147207862E+04  0.20738106461E+04  0.46999998093E+01 0. -1.
       -5    1    3    3    0  502 -0.39975465150E+03 -0.10957177326E+04 -0.87211916762E+03  0.14563705104E+04  0.46999998093E+01 0.  1.
</event>
<event>
 5   0  0.8489228E-07  0.3393638E+04  0.7818609E-02  0.8139469E-01
       -2   -1    0    0    0  501  0.00000000000E+00  0.00000000000E+00  0.24034942265E+04  0.24034942265E+04  0.25500000920E-02 0.  1.
        2   -1    0    0  501    0  0.00000000000E+00  0.00000000000E+00 -0.11979205844E+04  0.11979205844E+04  0.25500000920E-02 0. -1.
    10030    2    1    2    0    0  0.00000000000E+00  0.00000000000E+00  0.12055736420E+04  0.36014148109E+04  0.33936382886E+04 0.  0.
        3    1    3    3  502    0  0.13780683671E+04  0.48691219038E+03 -0.31198648999E+03  0.14944870309E+04  0.10100000352E+00 0. -1.
       -3    1    3    3    0  502 -0.13780683671E+04 -0.48691219038E+03  0.15175601320E+04  0.21069277800E+04  0.10100000352E+00 0.  1.
</event>
<event>
 5   0  0.2641442E-07  0.3336303E+04  0.7818609E-02  0.8153719E-01
        1   -1    0    0  501    0  0.00000000000E+00  0.00000000000E+00  0.18500970371E+04  0.18500970371E+04  0.50400001928E-02 0. -1.
       -1   -1    0    0    0  501  0.00000000000E+00  0.00000000000E+00 -0.15040995998E+04  0.15040995998E+04  0.50400001928E-02 0.  1.
    10030    2    1    2    0    0  0.00000000000E+00  0.00000000000E+00  0.34599743734E+03  0.33541966369E+04  0.33363034713E+04 0.  0.
        1    1    3    3  502    0  0.11394425986E+04 -0.99349529059E+03 -0.53602675982E+03  0.16039597923E+04  0.50400001928E-02 0.  1.
       -1    1    3    3    0  502 -0.11394425986E+04  0.99349529059E+03  0.88202419716E+03  0.17502368446E+04  0.50400001928E-02 0. -1.
</event>
<event>
 5   0  0.2553250E-07  0.3337821E+04  0.7818609E-02  0.8153338E-01
        1   -1    0    0  501    0  0.00000000000E+00  0.00000000000E+00  0.18358567719E+04  0.18358567719E+04  0.50400001928E-02 0.  1.
       -1   -1    0    0    0  501  0.00000000000E+00  0.00000000000E+00 -0.15171458997E+04  0.15171458997E+04  0.50400001928E-02 0. -1.
    10030    2    1    2    0    0  0.00000000000E+00  0.00000000000E+00  0.31871087226E+03  0.33530026716E+04  0.33378211899E+04 0.  0.
        5    1    3    3  502    0 -0.10957285769E+04  0.10595938096E+04  0.84206433688E+03  0.17413944392E+04  0.46999998093E+01 0.  1.
       -5    1    3    3    0  502  0.10957285769E+04 -0.10595938096E+04 -0.52335346462E+03  0.16116082323E+04  0.46999998093E+01 0. -1.
</event>
<event>
 5   0  0.8489228E-07  0.3367576E+04  0.7818609E-02  0.8145910E-01
       -2   -1    0    0    0  501  0.00000000000E+00  0.00000000000E+00  0.10231703647E+04  0.10231703647E+04  0.25500000920E-02 0.  1.
        2   -1    0    0  501    0  0.00000000000E+00  0.00000000000E+00 -0.27709378186E+04  0.27709378186E+04  0.25500000920E-02 0. -1.
    10030    2    1    2    0    0  0.00000000000E+00  0.00000000000E+00 -0.17477674540E+04  0.37941081833E+04  0.33675756611E+04 0.  0.
        3    1    3    3  502    0  0.12465045112E+04 -0.54027894178E+03  0.24682543175E+03  0.13807960151E+04  0.10100000352E+00 0.  1.
       -3    1    3    3    0  502 -0.12465045112E+04  0.54027894178E+03 -0.19945928857E+04  0.24133121682E+04  0.10100000352E+00 0. -1.
</event>
<event>
 5   0  0.7822003E-07  0.3379762E+04  0.7818609E-02  0.8142891E-01
       -2   -1    0    0    0  501  0.00000000000E+00  0.00000000000E+00  0.13112851284E+04  0.13112851284E+04  0.25500000920E-02 0. -1.
        2   -1    0    0  501    0  0.00000000000E+00  0.00000000000E+00 -0.21777859670E+04  0.21777859670E+04  0.25500000920E-02 0.  1.
    10030    2    1    2    0    0  0.00000000000E+00  0.00000000000E+00 -0.86650083869E+03  0.34890710954E+04  0.33797623297E+04 0.  0.
        5    1    3    3  502    0 -0.62690410159E+03 -0.15561833495E+04 -0.64218405339E+03  0.17964236188E+04  0.46999998093E+01 0.  1.
       -5    1    3    3    0  502  0.62690410159E+03  0.15561833495E+04 -0.22431678530E+03  0.16926474766E+04  0.46999998093E+01 0. -1.
</event>
<event>
 5   0  0.7822003E-07  0.3402922E+04  0.7818609E-02  0.8137190E-01
        2   -1    0    0  501    0  0.00000000000E+00  0.00000000000E+00  0.20081286951E+04  0.20081286951E+04  0.25500000920E-02 0.  1.
       -2   -1    0    0    0  501  0.00000000000E+00  0.00000000000E+00 -0.14416252227E+04  0.14416252227E+04  0.25500000920E-02 0. -1.
    10030    2    1    2    0    0  0.00000000000E+00  0.00000000000E+00  0.56650347243E+03  0.34497539178E+04  0.34029216725E+04 0.  0.
        5    1    3    3  502    0  0.16977470153E+04 -0.94935275330E+02  0.22251685468E+03  0.17149033428E+04  0.46999998093E+01 0. -1.
       -5    1    3    3    0  502 -0.16977470153E+04  0.94935275330E+02  0.34398661775E+03  0.17348505750E+04  0.46999998093E+01 0.  1.
</event>
<event>
 5   0  0.2592200E-07  0.3395065E+04  0.7818609E-02  0.8139119E-01
        1   -1    0    0  501    0  0.00000000000E+00  0.00000000000E+00  0.88514442018E+03  0.88514442019E+03  0.50400001928E-02 0.  1.
       -1   -1    0    0    0  501  0.00000000000E+00  0.00000000000E+00 -0.32555318194E+04  0.32555318194E+04  0.50400001928E-02 0. -1.
    10030    2    1    2    0    0  0.00000000000E+00  0.00000000000E+00 -0.23703873993E+04  0.41406762396E+04  0.33950645500E+04 0.  0.
        4    1    3    3  502    0 -0.99627653949E+03  0.93993381965E+02 -0.28575419019E+04  0.30276969850E+04  0.12699999809E+01 0. -1.
       -4    1    3    3    0  502  0.99627653949E+03 -0.93993381965E+02  0.48715450261E+03  0.11129792547E+04  0.12699999809E+01 0.  1.
</event>
<event>
 5   0  0.2553250E-07  0.3377132E+04  0.7818609E-02  0.8143542E-01
        1   -1    0    0  501    0  0.00000000000E+00  0.00000000000E+00  0.18431984895E+04  0.18431984895E+04  0.50400001928E-02 0. -1.
       -1   -1    0    0    0  501  0.00000000000E+00  0.00000000000E+00 -0.15469058436E+04  0.15469058436E+04  0.50400001928E-02 0.  1.
    10030    2    1    2    0    0  0.00000000000E+00  0.00000000000E+00  0.29629264590E+03  0.33901043331E+04  0.33771316316E+04 0.  0.
        5    1    3    3  502    0 -0.16655063445E+04  0.22243808634E+02  0.42638653992E+03  0.17193701585E+04  0.46999998093E+01 0. -1.
       -5    1    3    3    0  502  0.16655063445E+04 -0.22243808634E+02 -0.13009389402E+03  0.16707341745E+04  0.46999998093E+01 0.  1.
</event>
<event>
 5   0  0.2592200E-07  0.3296765E+04  0.7818609E-02  0.8163719E-01
       -1   -1    0    0    0  501  0.00000000000E+00  0.00000000000E+00  0.19196357989E+04  0.19196357989E+04  0.50400001928E-02 0.  1.
        1   -1    0    0  501    0  0.00000000000E+00  0.00000000000E+00 -0.14154584200E+04  0.14154584200E+04  0.50400001928E-02 0. -1.
    10030    2    1    2    0    0  0.00000000000E+00  0.00000000000E+00  0.50417737886E+03  0.33350942189E+04  0.32967648717E+04 0.  0.
        4    1    3    3  502    0  0.65053955282E+01  0.11718359771E+04 -0.92066560060E+03  0.14902579100E+04  0.12699999809E+01 0. -1.
       -4    1    3    3    0  502 -0.65053955282E+01 -0.11718359771E+04  0.14248429795E+04  0.18448363088E+04  0.12699999809E+01 0.  1.
</event>
<event>
 5   0  0.2622205E-07  0.3447016E+04  0.7818609E-02  0.8126462E-01
       -1   -1    0    0    0  501  0.00000000000E+00  0.00000000000E+00  0.14942188160E+04  0.14942188160E+04  0.50400001928E-02 0. -1.
        1   -1    0    0  501    0  0.00000000000E+00  0.00000000000E+00 -0.19879823775E+04  0.19879823775E+04  0.50400001928E-02 0.  1.
    10030    2    1    2    0    0  0.00000000000E+00  0.00000000000E+00 -0.49376356156E+03  0.34822011935E+04  0.34470164922E+04 0.  0.
        3    1    3    3  502    0  0.36466288393E+03  0.39532836957E+03  0.14072743202E+04  0.15065472317E+04  0.10100000352E+00 0. -1.
       -3    1    3    3    0  502 -0.36466288393E+03 -0.39532836957E+03 -0.19010378818E+04  0.19756539618E+04  0.10100000352E+00 0.  1.
</event>
<event>
 5   0  0.2592200E-07  0.3352195E+04  0.7818609E-02  0.8149740E-01
       -1   -1    0    0    0  501  0.00000000000E+00  0.00000000000E+00  0.16677092428E+04  0.16677092428E+04  0.50400001928E-02 0. -1.
        1   -1    0    0  501    0  0.00000000000E+00  0.00000000000E+00 -0.16845276622E+04  0.16845276622E+04  0.50400001928E-02 0.  1.
    10030    2    1    2    0    0  0.00000000000E+00  0.00000000000E+00 -0.16818419344E+02  0.33522369050E+04  0.33521947151E+04 0.  0.
        4    1    3    3  502    0  0.28926799171E+03  0.10534606831E+04  0.12627658494E+04  0.16697408737E+04  0.12699999809E+01 0. -1.
       -4    1    3    3    0  502 -0.28926799171E+03 -0.10534606831E+04 -0.12795842687E+04  0.16824960314E+04  0.12699999809E+01 0.  1.
</event>
<event>
 5   0  0.8489228E-07  0.3393626E+04  0.7818609E-02  0.8139472E-01
       -2   -1    0    0    0  501  0.00000000000E+00  0.00000000000E+00  0.15230118935E+04  0.15230118935E+04  0.25500000920E-02 0. -1.
        2   -1    0    0  501    0  0.00000000000E+00  0.00000000000E+00 -0.18904480753E+04  0.18904480753E+04  0.25500000920E-02 0.  1.
    10030    2    1    2    0    0  0.00000000000E+00  0.00000000000E+00 -0.36743618180E+03  0.34134599688E+04  0.33936263216E+04 0.  0.
        3    1    3    3  502    0  0.25889521888E+03 -0.10682608367E+04 -0.14839317482E+04  0.18466893061E+04  0.10100000352E+00 0.  1.
       -3    1    3    3    0  502 -0.25889521888E+03  0.10682608367E+04  0.11164955664E+04  0.15667706627E+04  0.10100000352E+00 0. -1.
</event>
<event>
 5   0  0.7822003E-07  0.3383489E+04  0.7818609E-02  0.8141971E-01
       -2   -1    0    0    0  501  0.00000000000E+00  0.00000000000E+00  0.11687093268E+04  0.11687093268E+04  0.25500000920E-02 0.  1.
        2   -1    0    0  501    0  0.00000000000E+00  0.00000000000E+00 -0.24488547685E+04  0.24488547685E+04  0.25500000920E-02 0. -1.
    10030    2    1    2    0    0  0.00000000000E+00  0.00000000000E+00 -0.12801454417E+04  0.36175640953E+04  0.33834889732E+04 0.  0.
        5    1    3    3  502    0  0.37994167214E+03  0.15933911312E+04 -0.18806509866E+03  0.16488303559E+04  0.46999998093E+01 0. -1.
       -5    1    3    3    0  502 -0.37994167214E+03 -0.15933911312E+04 -0.10920803431E+04  0.19687337394E+04  0.46999998093E+01 0.  1.
</event>
<event>
 5   0  0.7822003E-07  0.3390475E+04  0.7818609E-02  0.8140248E-01
       -2   -1    0    0    0  501  0.00000000000E+00  0.00000000000E+00  0.13901787827E+04  0.13901787827E+04  0.25500000920E-02 0. -1.
        2   -1    0    0  501    0  0.00000000000E+00  0.00000000000E+00 -0.20672382916E+04  0.20672382916E+04  0.25500000920E-02 0.  1.
    10030    2    1    2    0    0  0.00000000000E+00  0.00000000000E+00 -0.67705950889E+03  0.34574170743E+04  0.33904753718E+04 0.  0.
        5    1    3    3  502    0  0.18412120744E+02  0.12748742202E+03  0.13851745503E+04  0.13911587522E+04  0.46999998093E+01 0. -1.
       -5    1    3    3    0  502 -0.18412120744E+02 -0.12748742202E+03 -0.20622340592E+04  0.20662583221E+04  0.46999998093E+01 0.  1.
</event>
<event>
 5   0  0.2641442E-07  0.3252632E+04  0.7818609E-02  0.8175054E-01
        1   -1    0    0  501    0  0.00000000000E+00  0.00000000000E+00  0.19209976825E+04  0.19209976826E+04  0.50400001928E-02 0. -1.
       -1   -1    0    0    0  501  0.00000000000E+00  0.00000000000E+00 -0.13768383912E+04  0.13768383912E+04  0.50400001928E-02 0.  1.
    10030    2    1    2    0    0  0.00000000000E+00  0.00000000000E+00  0.54415929138E+03  0.32978360737E+04  0.32526317705E+04 0.  0.
        1    1    3    3  502    0 -0.71240090410E+03  0.14333096213E+04  0.56420159136E+03  0.16971196052E+04  0.50400001928E-02 0.  1.
       -1    1    3    3    0  502  0.71240090410E+03 -0.14333096213E+04 -0.20042299977E+02  0.16007164685E+04  0.50400001928E-02 0. -1.
</event>
<event>
 5   0  0.7838333E-07  0.3419315E+04  0.7818609E-02  0.8133182E-01
       -2   -1    0    0    0  501  0.00000000000E+00  0.00000000000E+00  0.97783935708E+03  0.97783935708E+03  0.25500000920E-02 0. -1.
        2   -1    0    0  501    0  0.00000000000E+00  0.00000000000E+00 -0.29891699338E+04  0.29891699338E+04  0.25500000920E-02 0.  1.
    10030    2    1    2    0    0  0.00000000000E+00  0.00000000000E+00 -0.20113305767E+04  0.39670092909E+04  0.34193145548E+04 0.  0.
        1    1    3    3  502    0  0.14463549681E+03 -0.46791466670E+03 -0.29060420657E+04  0.29470229131E+04  0.50400001928E-02 0.  1.
       -1    1    3    3    0  502 -0.14463549681E+03  0.46791466670E+03  0.89471148904E+03  0.10199863778E+04  0.50400001928E-02 0. -1.
</event>
<event>
 5   0  0.7838333E-07  0.3380877E+04  0.7818609E-02  0.8142616E-01
        2   -1    0    0  501    0  0.00000000000E+00  0.00000000000E+00  0.17844801902E+04  0.17844801902E+04  0.25500000920E-02 0. -1.
       -2   -1    0    0    0  501  0.00000000000E+00  0.00000000000E+00 -0.16013529243E+04  0.16013529243E+04  0.25500000920E-02 0.  1.
    10030    2    1    2    0    0  0.00000000000E+00  0.00000000000E+00  0.18312726594E+03  0.33858331145E+04  0.33808771470E+04 0.  0.
        1    1    3    3  502    0  0.85213807079E+03 -0.45138369324E+03  0.14820138238E+04  0.17681208964E+04  0.50400001928E-02 0. -1.
       -1    1    3    3    0  502 -0.85213807079E+03  0.45138369324E+03 -0.12988865579E+04  0.16177122181E+04  0.50400001928E-02 0.  1.
</event>
<event>
 5   0  0.2622205E-07  0.3437430E+04  0.7818609E-02  0.8128780E-01
       -1   -1    0    0    0  501  0.00000000000E+00  0.00000000000E+00  0.12925530968E+04  0.12925530968E+04  0.50400001928E-02 0.  1.
        1   -1    0    0  501    0  0.00000000000E+00  0.00000000000E+00 -0.22853849760E+04  0.22853849760E+04  0.50400001928E-02 0. -1.
    10030    2    1    2    0    0  0.00000000000E+00  0.00000000000E+00 -0.99283187919E+03  0.35779380728E+04  0.34374301029E+04 0.  0.
        3    1    3    3  502    0  0.62622284478E+03 -0.14279359665E+04 -0.12490384736E+04  0.19978121269E+04  0.10100000352E+00 0. -1.
       -3    1    3    3    0  502 -0.62622284478E+03  0.14279359665E+04  0.25620659436E+03  0.15801259459E+04  0.10100000352E+00 0.  1.
</event>
<event>
 5   0  0.7610412E-07  0.3403509E+04  0.7818609E-02  0.8137046E-01
        2   -1    0    0  501    0  0.00000000000E+00  0.00000000000E+00  0.21632883831E+04  0.21632883831E+04  0.25500000920E-02 0.  1.
       -2   -1    0    0    0  501  0.00000000000E+00  0.00000000000E+00 -0.13386881807E+04  0.13386881807E+04  0.25500000920E-02 0. -1.
    10030    2    1    2    0    0  0.00000000000E+00  0.00000000000E+00  0.82460020236E+03  0.35019765638E+04  0.34035091244E+04 0.  0.
        4    1    3    3  502    0 -0.12752422575E+04 -0.12914027696E+03 -0.73948110583E+03  0.14797817221E+04  0.12699999809E+01 0. -1.
       -4    1    3    3    0  502  0.12752422575E+04  0.12914027696E+03  0.15640813082E+04  0.20221948417E+04  0.12699999809E+01 0.  1.
</event>
<event>
 5   0  0.2599367E-07  0.3376023E+04  0.7818609E-02  0.8143816E-01
        1   -1    0    0  501    0  0.00000000000E+00  0.00000000000E+00  0.24451316233E+04  0.24451316233E+04  0.50400001928E-02 0. -1.
       -1   -1    0    0    0  501  0.00000000000E+00  0.00000000000E+00 -0.11653288887E+04  0.11653288887E+04  0.50400001928E-02 0.  1.
    10030    2    1    2    0    0  0.00000000000E+00  0.00000000000E+00  0.12798027346E+04  0.36104605120E+04  0.33760228182E+04 0.  0.
        2    1    3    3  502    0  0.26671527414E+03  0.73544276190E+03  0.22395554377E+04  0.23722608736E+04  0.25500000920E-02 0. -1.
       -2    1    3    3    0  502 -0.26671527414E+03 -0.73544276190E+03 -0.95975270313E+03  0.12381996385E+04  0.25500000920E-02 0.  1.
</event>
<event>
 5   0  0.7899402E-07  0.3383553E+04  0.7818609E-02  0.8141955E-01
       -2   -1    0    0    0  501  0.00000000000E+00  0.00000000000E+00  0.19931761346E+04  0.19931761346E+04  0.25500000920E-02 0.  1.
        2   -1    0    0  501    0  0.00000000000E+00  0.00000000000E+00 -0.14359529329E+04  0.14359529329E+04  0.25500000920E-02 0. -1.
    10030    2    1    2    0    0  0.00000000000E+00  0.00000000000E+00  0.55722320167E+03  0.34291290675E+04  0.33835526396E+04 0.  0.
        2    1    3    3  502    0  0.53014118310E+03 -0.74141816020E+03 -0.11658432579E+04  0.14798449460E+04  0.25500000920E-02 0. -1.
       -2    1    3    3    0  502 -0.53014118310E+03  0.74141816020E+03  0.17230664595E+04  0.19492841215E+04  0.25500000920E-02 0.  1.
</event>
<event>
 5   0  0.2641442E-07  0.3411584E+04  0.7818609E-02  0.8135069E-01
       -1   -1    0    0    0  501  0.00000000000E+00  0.00000000000E+00  0.12889276105E+04  0.12889276105E+04  0.50400001928E-02 0.  1.
        1   -1    0    0  501    0  0.00000000000E+00  0.00000000000E+00 -0.22574783836E+04  0.22574783836E+04  0.50400001928E-02 0. -1.
    10030    2    1    2    0    0  0.00000000000E+00  0.00000000000E+00 -0.96855077311E+03  0.35464059941E+04  0.34115839246E+04 0.  0.
        1    1    3    3  502    0  0.87609571287E+02 -0.16113755349E+04  0.90306563733E+02  0.16162802440E+04  0.50400001928E-02 0.  1.
       -1    1    3    3    0  502 -0.87609571287E+02  0.16113755349E+04 -0.10588573368E+04  0.19301257501E+04  0.50400001928E-02 0. -1.
</event>
<event>
 5   0  0.7899402E-07  0.3407918E+04  0.7818609E-02  0.8135966E-01
       -2   -1    0    0    0  501  0.00000000000E+00  0.00000000000E+00  0.27434489696E+04  0.27434489696E+04  0.25500000920E-02 0. -1.
        2   -1    0    0  501    0  0.00000000000E+00  0.00000000000E+00 -0.10583307298E+04  0.10583307298E+04  0.25500000920E-02 0.  1.
    10030    2    1    2    0    0  0.00000000000E+00  0.00000000000E+00  0.16851182397E+04  0.38017796994E+04  0.34079180449E+04 0.  0.
        2    1    3    3  502    0 -0.47505210856E+03  0.14522829291E+03  0.26608774988E+04  0.27068496128E+04  0.25500000920E-02 0. -1.
       -2    1    3    3    0  502  0.47505210856E+03 -0.14522829291E+03 -0.97575925905E+03  0.10949300866E+04  0.25500000920E-02 0.  1.
</event>
<event>
 5   0  0.7822003E-07  0.3395378E+04  0.7818609E-02  0.8139042E-01
        2   -1    0    0  501    0  0.00000000000E+00  0.00000000000E+00  0.11822837157E+04  0.11822837157E+04  0.25500000920E-02 0.  1.
       -2   -1    0    0    0  501  0.00000000000E+00  0.00000000000E+00 -0.24377807472E+04  0.24377807472E+04  0.25500000920E-02 0. -1.
    10030    2    1    2    0    0  0.00000000000E+00  0.00000000000E+00 -0.12554970315E+04  0.36200644630E+04  0.33953783177E+04 0.  0.
        5    1    3    3  502    0  0.41668012920E+03 -0.15303083626E+04  0.17846431025E+02  0.15861294398E+04  0.46999998093E+01 0.  1.
       -5    1    3    3    0  502 -0.41668012920E+03  0.15303083626E+04 -0.12733434625E+04  0.20339350231E+04  0.46999998093E+01 0. -1.
</event>
<event>
 5   0  0.7822003E-07  0.3408416E+04  0.7818609E-02  0.8135844E-01
       -2   -1    0    0    0  501  0.00000000000E+00  0.00000000000E+00  0.12249228491E+04  0.12249228491E+04  0.25500000920E-02 0. -1.
        2   -1    0    0  501    0  0.00000000000E+00  0.00000000000E+00 -0.23710265380E+04  0.23710265380E+04  0.25500000920E-02 0.  1.
    10030    2    1    2    0    0  0.00000000000E+00  0.00000000000E+00 -0.11461036889E+04  0.35959493872E+04  0.34084158093E+04 0.  0.
        5    1    3    3  502    0  0.34405359234E+03 -0.35156023467E+03  0.11483899852E+04  0.12493154610E+04  0.46999998093E+01 0. -1.
       -5    1    3    3    0  502 -0.34405359234E+03  0.35156023467E+03 -0.22944936741E+04  0.23466339262E+04  0.46999998093E+01 0.  1.
</event>
<event>
 5   0  0.7822003E-07  0.3413652E+04  0.7818609E-02  0.8134564E-01
       -2   -1    0    0    0  501  0.00000000000E+00  0.00000000000E+00  0.10600268415E+04  0.10600268415E+04  0.25500000920E-02 0. -1.
        2   -1    0    0  501    0  0.00000000000E+00  0.00000000000E+00 -0.27482840963E+04  0.27482840963E+04  0.25500000920E-02 0.  1.
    10030    2    1    2    0    0  0.00000000000E+00  0.00000000000E+00 -0.16882572548E+04  0.38083109377E+04  0.34136519506E+04 0.  0.
        5    1    3    3  502    0 -0.84988942469E+03 -0.79255490159E+03  0.55051015409E+03  0.12859000062E+04  0.46999998093E+01 0. -1.
       -5    1    3    3    0  502  0.84988942469E+03  0.79255490159E+03 -0.22387674089E+04  0.25224109315E+04  0.46999998093E+01 0.  1.
</event>
<event>
 5   0  0.2641442E-07  0.3187493E+04  0.7818609E-02  0.8192128E-01
        1   -1    0    0  501    0  0.00000000000E+00  0.00000000000E+00  0.20912106193E+04  0.20912106193E+04  0.50400001928E-02 0.  1.
       -1   -1    0    0    0  501  0.00000000000E+00  0.00000000000E+00 -0.12146204780E+04  0.12146204781E+04  0.50400001928E-02 0. -1.
    10030    2    1    2    0    0  0.00000000000E+00  0.00000000000E+00  0.87659014121E+03  0.33058310973E+04  0.31874925833E+04 0.  0.
        1    1    3    3  502    0  0.10754445524E+03 -0.69524684080E+03  0.19214551815E+04  0.20461974474E+04  0.50400001928E-02 0.  1.
       -1    1    3    3    0  502 -0.10754445524E+03  0.69524684080E+03 -0.10448650403E+04  0.12596336499E+04  0.50400001928E-02 0. -1.
</event>
<event>
 5   0  0.2622205E-07  0.3396801E+04  0.7818609E-02  0.8138692E-01
        1   -1    0    0  501    0  0.00000000000E+00  0.00000000000E+00  0.12530843203E+04  0.12530843204E+04  0.50400001928E-02 0.  1.
       -1   -1    0    0    0  501  0.00000000000E+00  0.00000000000E+00 -0.23019720035E+04  0.23019720035E+04  0.50400001928E-02 0. -1.
    10030    2    1    2    0    0  0.00000000000E+00  0.00000000000E+00 -0.10488876832E+04  0.35550563239E+04  0.33968014505E+04 0.  0.
        3    1    3    3  502    0  0.16634503533E+04  0.29338444822E+03 -0.33891834240E+03  0.17227905169E+04  0.10100000352E+00 0.  1.
       -3    1    3    3    0  502 -0.16634503533E+04 -0.29338444822E+03 -0.70996934077E+03  0.18322658069E+04  0.10100000352E+00 0. -1.
</event>
<event>
 5   0  0.2622205E-07  0.3404002E+04  0.7818609E-02  0.8136925E-01
       -1   -1    0    0    0  501  0.00000000000E+00  0.00000000000E+00  0.20729466898E+04  0.20729466898E+04  0.50400001928E-02 0.  1.
        1   -1    0    0  501    0  0.00000000000E+00  0.00000000000E+00 -0.13974347003E+04  0.13974347003E+04  0.50400001928E-02 0. -1.
    10030    2    1    2    0    0  0.00000000000E+00  0.00000000000E+00  0.67551198956E+03  0.34703813901E+04  0.34040021365E+04 0.  0.
        3    1    3    3  502    0  0.14453566029E+04 -0.84089145756E+03  0.66120197972E+03  0.17981496659E+04  0.10100000352E+00 0.  1.
       -3    1    3    3    0  502 -0.14453566029E+04  0.84089145756E+03  0.14310009842E+02  0.16722317242E+04  0.10100000352E+00 0. -1.
</event>
<event>
 5   0  0.7838333E-07  0.3369432E+04  0.7818609E-02  0.8145450E-01
        2   -1    0    0  501    0  0.00000000000E+00  0.00000000000E+00  0.30849921768E+04  0.30849921768E+04  0.25500000920E-02 0.  1.
       -2   -1    0    0    0  501  0.00000000000E+00  0.00000000000E+00 -0.92002461322E+03  0.92002461322E+03  0.25500000920E-02 0. -1.
    10030    2    1    2    0    0  0.00000000000E+00  0.00000000000E+00  0.21649675636E+04  0.40050167900E+04  0.33694324355E+04 0.  0.
        1    1    3    3  502    0 -0.10222932375E+03 -0.16490841960E+04  0.14737212407E+04  0.22139972483E+04  0.50400001928E-02 0.  1.
       -1    1    3    3    0  502  0.10222932375E+03  0.16490841960E+04  0.69124632289E+03  0.17910195418E+04  0.50400001928E-02 0. -1.
</event>
<event>
 5   0  0.2553250E-07  0.3397483E+04  0.7818609E-02  0.8138524E-01
        1   -1    0    0  501    0  0.00000000000E+00  0.00000000000E+00  0.16934759777E+04  0.16934759777E+04  0.50400001928E-02 0.  1.
       -1   -1    0    0    0  501  0.00000000000E+00  0.00000000000E+00 -0.17040233592E+04  0.17040233592E+04  0.50400001928E-02 0. -1.
    10030    2    1    2    0    0  0.00000000000E+00  0.00000000000E+00 -0.10547381551E+02  0.33974993369E+04  0.33974829649E+04 0.  0.
        5    1    3    3  502    0 -0.14717792434E+03 -0.10779045529E+04  0.12994015073E+04  0.16946993639E+04  0.46999998093E+01 0.  1.
       -5    1    3    3    0  502  0.14717792434E+03  0.10779045529E+04 -0.13099488889E+04  0.17027999730E+04  0.46999998093E+01 0. -1.
</event>
<event>
 5   0  0.7838333E-07  0.3130892E+04  0.7818609E-02  0.8207311E-01
        2   -1    0    0  501    0  0.00000000000E+00  0.00000000000E+00  0.19093819751E+04  0.19093819751E+04  0.25500000920E-02 0.  1.
       -2   -1    0    0    0  501  0.00000000000E+00  0.00000000000E+00 -0.12834627422E+04  0.12834627422E+04  0.25500000920E-02 0. -1.
    10030    2    1    2    0    0  0.00000000000E+00  0.00000000000E+00  0.62591923291E+03  0.31928447173E+04  0.31308916466E+04 0.  0.
        1    1    3    3  502    0 -0.85565885579E+03 -0.76164317631E+03  0.14010153478E+04  0.18097227441E+04  0.50400001928E-02 0.  1.
       -1    1    3    3    0  502  0.85565885579E+03  0.76164317631E+03 -0.77509611493E+03  0.13831219733E+04  0.50400001928E-02 0. -1.
</event>
<event>
 5   0  0.8489228E-07  0.3394694E+04  0.7818609E-02  0.8139210E-01
       -2   -1    0    0    0  501  0.00000000000E+00  0.00000000000E+00  0.19034250384E+04  0.19034250384E+04  0.25500000920E-02 0. -1.
        2   -1    0    0  501    0  0.00000000000E+00  0.00000000000E+00 -0.15135804873E+04  0.15135804873E+04  0.25500000920E-02 0.  1.
    10030    2    1    2    0    0  0.00000000000E+00  0.00000000000E+00  0.38984455107E+03  0.34170055258E+04  0.33946940936E+04 0.  0.
        3    1    3    3  502    0  0.40170261975E+03  0.78313764930E+03  0.16557767179E+04  0.18751709582E+04  0.10100000352E+00 0. -1.
       -3    1    3    3    0  502 -0.40170261975E+03 -0.78313764930E+03 -0.12659321669E+04  0.15418345676E+04  0.10100000352E+00 0.  1.
</event>
<event>
 5   0  0.7899402E-07  0.3393579E+04  0.7818609E-02  0.8139484E-01
       -2   -1    0    0    0  501  0.00000000000E+00  0.00000000000E+00  0.15277681362E+04  0.15277681362E+04  0.25500000920E-02 0.  1.
        2   -1    0    0  501    0  0.00000000000E+00  0.00000000000E+00 -0.18845104378E+04  0.18845104378E+04  0.25500000920E-02 0. -1.
    10030    2    1    2    0    0  0.00000000000E+00  0.00000000000E+00 -0.35674230162E+03  0.34122785741E+04  0.33935792310E+04 0.  0.
        2    1    3    3  502    0 -0.69018640127E+03 -0.59956589749E+03  0.12589312115E+04  0.15558741367E+04  0.25500000920E-02 0.  1.
       -2    1    3    3    0  502  0.69018640127E+03  0.59956589749E+03 -0.16156735131E+04  0.18564044374E+04  0.25500000920E-02 0. -1.
</event>
<event>
 5   0  0.2599367E-07  0.3403577E+04  0.7818609E-02  0.8137029E-01
        1   -1    0    0  501    0  0.00000000000E+00  0.00000000000E+00  0.25369375659E+04  0.25369375659E+04  0.50400001928E-02 0. -1.
       -1   -1    0    0    0  501  0.00000000000E+00  0.00000000000E+00 -0.11415670478E+04  0.11415670478E+04  0.50400001928E-02 0.  1.
    10030    2    1    2    0    0  0.00000000000E+00  0.00000000000E+00  0.13953705181E+04  0.36785046137E+04  0.34035771345E+04 0.  0.
        2    1    3    3  502    0 -0.10054611656E+04  0.52654982109E+03 -0.67276154058E+03  0.13193994695E+04  0.25500000920E-02 0.  1.
       -2    1    3    3    0  502  0.10054611656E+04 -0.52654982109E+03  0.20681320587E+04  0.23591051443E+04  0.25500000920E-02 0. -1.
</event>
<event>
 5   0  0.7822003E-07  0.3417585E+04  0.7818609E-02  0.8133604E-01
        2   -1    0    0  501    0  0.00000000000E+00  0.00000000000E+00  0.17528731246E+04  0.17528731246E+04  0.25500000920E-02 0. -1.
       -2   -1    0    0    0  501  0.00000000000E+00  0.00000000000E+00 -0.16658204972E+04  0.16658204972E+04  0.25500000920E-02 0.  1.
    10030    2    1    2    0    0  0.00000000000E+00  0.00000000000E+00  0.87052627469E+02  0.34186936218E+04  0.34175851006E+04 0.  0.
        5    1    3    3  502    0 -0.11005118879E+04 -0.10812978692E+04 -0.69129918148E+03  0.16906354266E+04  0.46999998093E+01 0.  1.
       -5    1    3    3    0  502  0.11005118879E+04  0.10812978692E+04  0.77835180895E+03  0.17280581952E+04  0.46999998093E+01 0. -1.
</event>
<event>
 5   0  0.2553250E-07  0.3471525E+04  0.7818609E-02  0.8120572E-01
       -3   -1    0    0    0  501  0.00000000000E+00  0.00000000000E+00  0.16347531642E+04  0.16347531673E+04  0.10100000352E+00 0. -1.
        3   -1    0    0  501    0  0.00000000000E+00  0.00000000000E+00 -0.18430129683E+04  0.18430129710E+04  0.10100000352E+00 0.  1.
    10030    2    1    2    0    0  0.00000000000E+00  0.00000000000E+00 -0.20825980402E+03  0.34777661384E+04  0.34715249052E+04 0.  0.
        3    1    3    3  502    0 -0.39405215453E+03 -0.10775438637E+04  0.12007068391E+04  0.16607452551E+04  0.10100000352E+00 0. -1.
       -3    1    3    3    0  502  0.39405215453E+03  0.10775438637E+04 -0.14089666431E+04  0.18170208833E+04  0.10100000352E+00 0.  1.
</event>
<event>
 5   0  0.7822003E-07  0.3396485E+04  0.7818609E-02  0.8138770E-01
        2   -1    0    0  501    0  0.00000000000E+00  0.00000000000E+00  0.13664717004E+04  0.13664717004E+04  0.25500000920E-02 0. -1.
       -2   -1    0    0    0  501  0.00000000000E+00  0.00000000000E+00 -0.21105654041E+04  0.21105654041E+04  0.25500000920E-02 0.  1.
    10030    2    1    2    0    0  0.00000000000E+00  0.00000000000E+00 -0.74409370366E+03  0.34770371045E+04  0.33964851812E+04 0.  0.
        5    1    3    3  502    0  0.40485992699E+03 -0.43990329572E+03  0.12551723897E+04  0.13902900014E+04  0.46999998093E+01 0. -1.
       -5    1    3    3    0  502 -0.40485992699E+03  0.43990329572E+03 -0.19992660934E+04  0.20867471031E+04  0.46999998093E+01 0.  1.
</event>
<event>
 5   0  0.7838333E-07  0.3370815E+04  0.7818609E-02  0.8145107E-01
       -2   -1    0    0    0  501  0.00000000000E+00  0.00000000000E+00  0.13281317145E+04  0.13281317145E+04  0.25500000920E-02 0.  1.
        2   -1    0    0  501    0  0.00000000000E+00  0.00000000000E+00 -0.21387922813E+04  0.21387922813E+04  0.25500000920E-02 0. -1.
    10030    2    1    2    0    0  0.00000000000E+00  0.00000000000E+00 -0.81066056680E+03  0.34669239958E+04  0.33708146550E+04 0.  0.
        1    1    3    3  502    0 -0.24143943339E+03  0.73620920421E+03  0.11341091995E+04  0.13734994244E+04  0.50400001928E-02 0.  1.
       -1    1    3    3    0  502  0.24143943339E+03 -0.73620920421E+03 -0.19447697663E+04  0.20934245714E+04  0.50400001928E-02 0. -1.
</event>
<event>
 5   0  0.7610412E-07  0.3408066E+04  0.7818609E-02  0.8135929E-01
        2   -1    0    0  501    0  0.00000000000E+00  0.00000000000E+00  0.24889691831E+04  0.24889691831E+04  0.25500000920E-02 0. -1.
       -2   -1    0    0    0  501  0.00000000000E+00  0.00000000000E+00 -0.11666392177E+04  0.11666392177E+04  0.25500000920E-02 0.  1.
    10030    2    1    2    0    0  0.00000000000E+00  0.00000000000E+00  0.13223299654E+04  0.36556084008E+04  0.34080663495E+04 0.  0.
        4    1    3    3  502    0 -0.12899829348E+04  0.20271729885E+03  0.18354800319E+04  0.22525849231E+04  0.12699999809E+01 0. -1.
       -4    1    3    3    0  502  0.12899829348E+04 -0.20271729885E+03 -0.51315006650E+03  0.14030234777E+04  0.12699999809E+01 0.  1.
</event>
<event>
 5   0  0.2599367E-07  0.3391841E+04  0.7818609E-02  0.8139912E-01
       -1   -1    0    0    0  501  0.00000000000E+00  0.00000000000E+00  0.17711057291E+04  0.17711057291E+04  0.50400001928E-02 0. -1.
        1   -1    0    0  501    0  0.00000000000E+00  0.00000000000E+00 -0.16239273375E+04  0.16239273376E+04  0.50400001928E-02 0.  1.
    10030    2    1    2    0    0  0.00000000000E+00  0.00000000000E+00  0.14717839159E+03  0.33950330667E+04  0.33918413944E+04 0.  0.
        2    1    3    3  502    0 -0.14008391487E+04 -0.93527552239E+03 -0.12422365872E+03  0.16889411300E+04  0.25500000920E-02 0.  1.
       -2    1    3    3    0  502  0.14008391487E+04  0.93527552239E+03  0.27140205030E+03  0.17060919366E+04  0.25500000920E-02 0. -1.
</event>
<event>
 5   0  0.2599367E-07  0.3401223E+04  0.7818609E-02  0.8137606E-01
       -1   -1    0    0    0  501  0.00000000000E+00  0.00000000000E+00  0.91368330367E+03  0.91368330368E+03  0.50400001928E-02 0. -1.
        1   -1    0    0  501    0  0.00000000000E+00  0.00000000000E+00 -0.31652973276E+04  0.31652973276E+04  0.50400001928E-02 0.  1.
    10030    2    1    2    0    0  0.00000000000E+00  0.00000000000E+00 -0.22516140240E+04  0.40789806313E+04  0.34012229092E+04 0.  0.
        2    1    3    3  502    0  0.77270630410E+02 -0.80088170220E+03 -0.29225891317E+04  0.30313214089E+04  0.25500000920E-02 0.  1.
       -2    1    3    3    0  502 -0.77270630410E+02  0.80088170220E+03  0.67097510771E+03  0.10476592225E+04  0.25500000920E-02 0. -1.
</event>
<event>
 5   0  0.7822003E-07  0.3393329E+04  0.7818609E-02  0.8139546E-01
       -2   -1    0    0    0  501  0.00000000000E+00  0.00000000000E+00  0.16644445829E+04  0.16644445829E+04  0.25500000920E-02 0. -1.
        2   -1    0    0  501    0  0.00000000000E+00  0.00000000000E+00 -0.17295080029E+04  0.17295080029E+04  0.25500000920E-02 0.  1.
    10030    2    1    2    0    0  0.00000000000E+00  0.00000000000E+00 -0.65063419998E+02  0.33939525859E+04  0.33933288827E+04 0.  0.
        5    1    3    3  502    0 -0.16367856495E+04 -0.40652007826E+03 -0.21782854840E+03  0.17005285070E+04  0.46999998093E+01 0. -1.
       -5    1    3    3    0  502  0.16367856495E+04  0.40652007826E+03  0.15276512840E+03  0.16934240789E+04  0.46999998093E+01 0.  1.
</event>
<event>
 5   0  0.8489228E-07  0.3397701E+04  0.7818609E-02  0.8138471E-01
       -2   -1    0    0    0  501  0.00000000000E+00  0.00000000000E+00  0.14525440028E+04  0.14525440028E+04  0.25500000920E-02 0.  1.
        2   -1    0    0  501    0  0.00000000000E+00  0.00000000000E+00 -0.19869227900E+04  0.19869227900E+04  0.25500000920E-02 0. -1.
    10030    2    1    2    0    0  0.00000000000E+00  0.00000000000E+00 -0.53437878723E+03  0.34394667928E+04  0.33977008595E+04 0.  0.
        3    1    3    3  502    0  0.12133825567E+03  0.15602284480E+04 -0.93641880017E+03  0.18237093962E+04  0.10100000352E+00 0. -1.
       -3    1    3    3    0  502 -0.12133825567E+03 -0.15602284480E+04  0.40204001293E+03  0.16157573966E+04  0.10100000352E+00 0.  1.
</event>
<event>
 5   0  0.2599367E-07  0.3258750E+04  0.7818609E-02  0.8173471E-01
        1   -1    0    0  501    0  0.00000000000E+00  0.00000000000E+00  0.13237848399E+04  0.13237848399E+04  0.50400001928E-02 0. -1.
       -1   -1    0    0    0  501  0.00000000000E+00  0.00000000000E+00 -0.20055098335E+04  0.20055098335E+04  0.50400001928E-02 0.  1.
    10030    2    1    2    0    0  0.00000000000E+00  0.00000000000E+00 -0.68172499357E+03  0.33292946734E+04  0.32587503825E+04 0.  0.
        2    1    3    3  502    0  0.41780097233E+03  0.45891521302E+03 -0.18800290835E+04  0.19798156935E+04  0.25500000920E-02 0.  1.
       -2    1    3    3    0  502 -0.41780097233E+03 -0.45891521302E+03  0.11983040900E+04  0.13494789799E+04  0.25500000920E-02 0. -1.
</event>
<event>
 5   0  0.7610412E-07  0.3367351E+04  0.7818609E-02  0.8145966E-01
       -2   -1    0    0    0  501  0.00000000000E+00  0.00000000000E+00  0.10723232758E+04  0.10723232758E+04  0.25500000920E-02 0. -1.
        2   -1    0    0  501    0  0.00000000000E+00  0.00000000000E+00 -0.26435717158E+04  0.26435717158E+04  0.25500000920E-02 0.  1.
    10030    2    1    2    0    0  0.00000000000E+00  0.00000000000E+00 -0.15712484400E+04  0.37158949916E+04  0.33673511739E+04 0.  0.
        4    1    3    3  502    0  0.24471864926E+03  0.74899351554E+03 -0.24275457241E+04  0.25522261575E+04  0.12699999809E+01 0.  1.
       -4    1    3    3    0  502 -0.24471864926E+03 -0.74899351554E+03  0.85629728413E+03  0.11636688340E+04  0.12699999809E+01 0. -1.
</event>
<event>
 5   0  0.2592200E-07  0.3404391E+04  0.7818609E-02  0.8136829E-01
       -1   -1    0    0    0  501  0.00000000000E+00  0.00000000000E+00  0.15085749517E+04  0.15085749517E+04  0.50400001928E-02 0. -1.
        1   -1    0    0  501    0  0.00000000000E+00  0.00000000000E+00 -0.19206670923E+04  0.19206670923E+04  0.50400001928E-02 0.  1.
    10030    2    1    2    0    0  0.00000000000E+00  0.00000000000E+00 -0.41209214059E+03  0.34292420439E+04  0.34043914381E+04 0.  0.
        4    1    3    3  502    0  0.18273804795E+03 -0.26641120226E+03 -0.18895027056E+04  0.19169220668E+04  0.12699999809E+01 0.  1.
       -4    1    3    3    0  502 -0.18273804795E+03  0.26641120226E+03  0.14774105650E+04  0.15123199771E+04  0.12699999809E+01 0. -1.
</event>
<event>
 5   0  0.2622205E-07  0.3422129E+04  0.7818609E-02  0.8132496E-01
       -1   -1    0    0    0  501  0.00000000000E+00  0.00000000000E+00  0.10332832487E+04  0.10332832488E+04  0.50400001928E-02 0.  1.
        1   -1    0    0  501    0  0.00000000000E+00  0.00000000000E+00 -0.28334356835E+04  0.28334356835E+04  0.50400001928E-02 0. -1.
    10030    2    1    2    0    0  0.00000000000E+00  0.00000000000E+00 -0.18001524348E+04  0.38667189323E+04  0.34221289445E+04 0.  0.
        3    1    3    3  502    0  0.14557368860E+04 -0.89375428782E+03 -0.78836292941E+03  0.18813513034E+04  0.10100000352E+00 0.  1.
       -3    1    3    3    0  502 -0.14557368860E+04  0.89375428782E+03 -0.10117895054E+04  0.19853676288E+04  0.10100000352E+00 0. -1.
</event>
<event>
 5   0  0.7838333E-07  0.3372690E+04  0.7818609E-02  0.8144642E-01
       -2   -1    0    0    0  501  0.00000000000E+00  0.00000000000E+00  0.14974831116E+04  0.14974831116E+04  0.25500000920E-02 0.  1.
        2   -1    0    0  501    0  0.00000000000E+00  0.00000000000E+00 -0.18990256399E+04  0.18990256399E+04  0.25500000920E-02 0. -1.
    10030    2    1    2    0    0  0.00000000000E+00  0.00000000000E+00 -0.40154252831E+03  0.33965087515E+04  0.33726896236E+04 0.  0.
        1    1    3    3  502    0 -0.42519875281E+03 -0.31138521567E+03 -0.18139594537E+04  0.18889689335E+04  0.50400001928E-02 0. -1.
       -1    1    3    3    0  502  0.42519875281E+03  0.31138521567E+03  0.14124169254E+04  0.15075398181E+04  0.50400001928E-02 0.  1.
</event>
<event>
 5   0  0.2599367E-07  0.3344329E+04  0.7818609E-02  0.8151707E-01
       -1   -1    0    0    0  501  0.00000000000E+00  0.00000000000E+00  0.16094979062E+04  0.16094979062E+04  0.50400001928E-02 0.  1.
        1   -1    0    0  501    0  0.00000000000E+00  0.00000000000E+00 -0.17372708321E+04  0.17372708321E+04  0.50400001928E-02 0. -1.
    10030    2    1    2    0    0  0.00000000000E+00  0.00000000000E+00 -0.12777292591E+03  0.33467687383E+04  0.33443287917E+04 0.  0.
        2    1    3    3  502    0 -0.14723272809E+04  0.74081902956E+03 -0.34617968319E+03  0.16841617588E+04  0.25500000920E-02 0. -1.
       -2    1    3    3    0  502  0.14723272809E+04 -0.74081902956E+03  0.21840675728E+03  0.16626069795E+04  0.25500000920E-02 0.  1.
</event>
<event>
 5   0  0.7838333E-07  0.3564987E+04  0.7818609E-02  0.8098559E-01
       -2   -1    0    0    0  501  0.00000000000E+00  0.00000000000E+00  0.11877978706E+04  0.11877978706E+04  0.25500000920E-02 0. -1.
        2   -1    0    0  501    0  0.00000000000E+00  0.00000000000E+00 -0.26749361481E+04  0.26749361481E+04  0.25500000920E-02 0.  1.
    10030    2    1    2    0    0  0.00000000000E+00  0.00000000000E+00 -0.14871382775E+04  0.38627340187E+04  0.35649872150E+04 0.  0.
        1    1    3    3  502    0  0.14404669411E+04  0.44410185674E+03 -0.17744013656E+04  0.23282335953E+04  0.50400001928E-02 0.  1.
       -1    1    3    3    0  502 -0.14404669411E+04 -0.44410185674E+03  0.28726308816E+03  0.15345004234E+04  0.50400001928E-02 0. -1.
</event>
<event>
 5   0  0.8489228E-07  0.3372574E+04  0.7818609E-02  0.8144670E-01
        2   -1    0    0  501    0  0.00000000000E+00  0.00000000000E+00  0.26851833372E+04  0.26851833372E+04  0.25500000920E-02 0. -1.
       -2   -1    0    0    0  501  0.00000000000E+00  0.00000000000E+00 -0.10589833120E+04  0.10589833120E+04  0.25500000920E-02 0.  1.
    10030    2    1    2    0    0  0.00000000000E+00  0.00000000000E+00  0.16262000252E+04  0.37441666492E+04  0.33725742949E+04 0.  0.
        3    1    3    3  502    0 -0.21126783675E+03 -0.16687790274E+04  0.94495840673E+03  0.19293532444E+04  0.10100000352E+00 0. -1.
       -3    1    3    3    0  502  0.21126783675E+03  0.16687790274E+04  0.68124161846E+03  0.18148134047E+04  0.10100000352E+00 0.  1.
</event>
<event>
 5   0  0.2641442E-07  0.3398459E+04  0.7818609E-02  0.8138285E-01
        1   -1    0    0  501    0  0.00000000000E+00  0.00000000000E+00  0.30171718114E+04  0.30171718114E+04  0.50400001928E-02 0. -1.
       -1   -1    0    0    0  501  0.00000000000E+00  0.00000000000E+00 -0.95698267343E+03  0.95698267344E+03  0.50400001928E-02 0.  1.
    10030    2    1    2    0    0  0.00000000000E+00  0.00000000000E+00  0.20601891380E+04  0.39741544849E+04  0.33984591487E+04 0.  0.
        1    1    3    3  502    0 -0.64022330948E+03  0.24256238490E+03  0.28487481840E+04  0.29298615347E+04  0.50400001928E-02 0. -1.
       -1    1    3    3    0  502  0.64022330948E+03 -0.24256238490E+03 -0.78855904605E+03  0.10442929501E+04  0.50400001928E-02 0.  1.
</event>
<event>
 5   0  0.2641442E-07  0.3559956E+04  0.7818609E-02  0.8099726E-01
       -1   -1    0    0    0  501  0.00000000000E+00  0.00000000000E+00  0.11169943182E+04  0.11169943182E+04  0.50400001928E-02 0.  1.
        1   -1    0    0  501    0  0.00000000000E+00  0.00000000000E+00 -0.28364705503E+04  0.28364705503E+04  0.50400001928E-02 0. -1.
    10030    2    1    2    0    0  0.00000000000E+00  0.00000000000E+00 -0.17194762320E+04  0.39534648685E+04  0.35599558921E+04 0.  0.
        1    1    3    3  502    0 -0.12549284849E+04 -0.11265715674E+04 -0.14921719617E+04  0.22517962080E+04  0.50400001928E-02 0. -1.
       -1    1    3    3    0  502  0.12549284849E+04  0.11265715674E+04 -0.22730427028E+03  0.17016686605E+04  0.50400001928E-02 0.  1.
</event>
<event>
 5   0  0.7838333E-07  0.3350428E+04  0.7818609E-02  0.8150181E-01
        2   -1    0    0  501    0  0.00000000000E+00  0.00000000000E+00  0.25804915900E+04  0.25804915900E+04  0.25500000920E-02 0.  1.
       -2   -1    0    0    0  501  0.00000000000E+00  0.00000000000E+00 -0.10875221993E+04  0.10875221993E+04  0.25500000920E-02 0. -1.
    10030    2    1    2    0    0  0.00000000000E+00  0.00000000000E+00  0.14929693907E+04  0.36680137893E+04  0.33504279662E+04 0.  0.
        1    1    3    3  502    0  0.65258845366E+02 -0.24545219742E+03 -0.10663217754E+04  0.10961512792E+04  0.50400001928E-02 0. -1.
       -1    1    3    3    0  502 -0.65258845366E+02  0.24545219742E+03  0.25592911661E+04  0.25718625101E+04  0.50400001928E-02 0.  1.
</event>
<event>
 5   0  0.2599367E-07  0.3444202E+04  0.7818609E-02  0.8127142E-01
        1   -1    0    0  501    0  0.00000000000E+00  0.00000000000E+00  0.15322590582E+04  0.15322590582E+04  0.50400001928E-02 0. -1.
       -1   -1    0    0    0  501  0.00000000000E+00  0.00000000000E+00 -0.19354636702E+04  0.19354636702E+04  0.50400001928E-02 0.  1.
    10030    2    1    2    0    0  0.00000000000E+00  0.00000000000E+00 -0.40320461195E+03  0.34677227284E+04  0.34442019340E+04 0.  0.
        2    1    3    3  502    0  0.97593022541E+03 -0.13464717036E+04 -0.65210166822E+03  0.17862425477E+04  0.25500000920E-02 0.  1.
       -2    1    3    3    0  502 -0.97593022541E+03  0.13464717036E+04  0.24889705626E+03  0.16814801807E+04  0.25500000920E-02 0. -1.
</event>
<event>
 5   0  0.2641442E-07  0.3396946E+04  0.7818609E-02  0.8138656E-01
        1   -1    0    0  501    0  0.00000000000E+00  0.00000000000E+00  0.14243561192E+04  0.14243561192E+04  0.50400001928E-02 0.  1.
       -1   -1    0    0    0  501  0.00000000000E+00  0.00000000000E+00 -0.20253433275E+04  0.20253433275E+04  0.50400001928E-02 0. -1.
    10030    2    1    2    0    0  0.00000000000E+00  0.00000000000E+00 -0.60098720826E+03  0.34496994467E+04  0.33969457823E+04 0.  0.
        1    1    3    3  502    0 -0.82894914607E+03 -0.40055164416E+03  0.11489814359E+04  0.14723303456E+04  0.50400001928E-02 0.  1.
       -1    1    3    3    0  502  0.82894914607E+03  0.40055164416E+03 -0.17499686442E+04  0.19773691011E+04  0.50400001928E-02 0. -1.
</event>
<event>
 5   0  0.8489228E-07  0.3417444E+04  0.7818609E-02  0.8133638E-01
       -2   -1    0    0    0  501  0.00000000000E+00  0.00000000000E+00  0.19252560007E+04  0.19252560007E+04  0.25500000920E-02 0.  1.
        2   -1    0    0  501    0  0.00000000000E+00  0.00000000000E+00 -0.15165417076E+04  0.15165417076E+04  0.25500000920E-02 0. -1.
    10030    2    1    2    0    0  0.00000000000E+00  0.00000000000E+00  0.40871429308E+03  0.34417977083E+04  0.34174440875E+04 0.  0.
        3    1    3    3  502    0  0.67327049406E+03  0.10184793133E+04  0.14083418456E+04  0.18638723223E+04  0.10100000352E+00 0.  1.
       -3    1    3    3    0  502 -0.67327049406E+03 -0.10184793133E+04 -0.99962755251E+03  0.15779253860E+04  0.10100000352E+00 0. -1.
</event>
<event>
 5   0  0.2592200E-07  0.3410305E+04  0.7818609E-02  0.8135382E-01
        1   -1    0    0  501    0  0.00000000000E+00  0.00000000000E+00  0.21067322154E+04  0.21067322154E+04  0.50400001928E-02 0. -1.
       -1   -1    0    0    0  501  0.00000000000E+00  0.00000000000E+00 -0.13801206056E+04  0.13801206056E+04  0.50400001928E-02 0.  1.
    10030    2    1    2    0    0  0.00000000000E+00  0.00000000000E+00  0.72661160976E+03  0.34868528210E+04  0.34103047025E+04 0.  0.
        4    1    3    3  502    0  0.10524551171E+04  0.12659133062E+04  0.81751206686E+03  0.18380766754E+04  0.12699999809E+01 0.  1.
       -4    1    3    3    0  502 -0.10524551171E+04 -0.12659133062E+04 -0.90900457103E+02  0.16487761456E+04  0.12699999809E+01 0. -1.
</event>
<event>
 5   0  0.2641442E-07  0.3406417E+04  0.7818609E-02  0.8136333E-01
       -1   -1    0    0    0  501  0.00000000000E+00  0.00000000000E+00  0.16025134415E+04  0.16025134415E+04  0.50400001928E-02 0. -1.
        1   -1    0    0  501    0  0.00000000000E+00  0.00000000000E+00 -0.18102303687E+04  0.18102303687E+04  0.50400001928E-02 0.  1.
    10030    2    1    2    0    0  0.00000000000E+00  0.00000000000E+00 -0.20771692724E+03  0.34127438102E+04  0.34064165911E+04 0.  0.
        1    1    3    3  502    0 -0.69631733014E+03 -0.14905350011E+04  0.33783011668E+03  0.16794884940E+04  0.50400001928E-02 0. -1.
       -1    1    3    3    0  502  0.69631733014E+03  0.14905350011E+04 -0.54554704391E+03  0.17332553161E+04  0.50400001928E-02 0.  1.
</event>
<event>
 5   0  0.2641442E-07  0.3402979E+04  0.7818609E-02  0.8137176E-01
       -1   -1    0    0    0  501  0.00000000000E+00  0.00000000000E+00  0.19609652746E+04  0.19609652746E+04  0.50400001928E-02 0. -1.
        1   -1    0    0  501    0  0.00000000000E+00  0.00000000000E+00 -0.14763478831E+04  0.14763478831E+04  0.50400001928E-02 0.  1.
    10030    2    1    2    0    0  0.00000000000E+00  0.00000000000E+00  0.48461739154E+03  0.34373131578E+04  0.34029792430E+04 0.  0.
        1    1    3    3  502    0 -0.16845862905E+04  0.23356566407E+03  0.18998799226E+03  0.17112800258E+04  0.50400001928E-02 0. -1.
       -1    1    3    3    0  502  0.16845862905E+04 -0.23356566407E+03  0.29462939928E+03  0.17260331319E+04  0.50400001928E-02 0.  1.
</event>
<event>
 5   0  0.7899402E-07  0.3410809E+04  0.7818609E-02  0.8135259E-01
       -2   -1    0    0    0  501  0.00000000000E+00  0.00000000000E+00  0.14903820255E+04  0.14903820255E+04  0.25500000920E-02 0. -1.
        2   -1    0    0  501    0  0.00000000000E+00  0.00000000000E+00 -0.19514485046E+04  0.19514485046E+04  0.25500000920E-02 0.  1.
    10030    2    1    2    0    0  0.00000000000E+00  0.00000000000E+00 -0.46106647908E+03  0.34418305301E+04  0.34108085698E+04 0.  0.
        2    1    3    3  502    0  0.11459649380E+03  0.95186828173E+03 -0.16537575333E+04  0.19115699206E+04  0.25500000920E-02 0.  1.
       -2    1    3    3    0  502 -0.11459649380E+03 -0.95186828173E+03  0.11926910542E+04  0.15302606095E+04  0.25500000920E-02 0. -1.
</event>
<event>
 5   0  0.7610412E-07  0.3382035E+04  0.7818609E-02  0.8142330E-01
        2   -1    0    0  501    0  0.00000000000E+00  0.00000000000E+00  0.13786510595E+04  0.13786510595E+04  0.25500000920E-02 0.  1.
       -2   -1    0    0    0  501  0.00000000000E+00  0.00000000000E+00 -0.20741576449E+04  0.20741576449E+04  0.25500000920E-02 0. -1.
    10030    2    1    2    0    0  0.00000000000E+00  0.00000000000E+00 -0.69550658534E+03  0.34528087044E+04  0.33820346744E+04 0.  0.
        4    1    3    3  502    0  0.13156078093E+04  0.68658536247E+03 -0.11754688521E+04  0.18931328540E+04  0.12699999809E+01 0. -1.
       -4    1    3    3    0  502 -0.13156078093E+04 -0.68658536247E+03  0.47996226676E+03  0.15596758504E+04  0.12699999809E+01 0.  1.
</event>
<event>
 5   0  0.8489228E-07  0.3373384E+04  0.7818609E-02  0.8144470E-01
        2   -1    0    0  501    0  0.00000000000E+00  0.00000000000E+00  0.20097212748E+04  0.20097212748E+04  0.25500000920E-02 0. -1.
       -2   -1    0    0    0  501  0.00000000000E+00  0.00000000000E+00 -0.14155841058E+04  0.14155841058E+04  0.25500000920E-02 0.  1.
    10030    2    1    2    0    0  0.00000000000E+00  0.00000000000E+00  0.59413716905E+03  0.34253053806E+04  0.33733837575E+04 0.  0.
        3    1    3    3  502    0  0.25121064750E+03 -0.83042033816E+03 -0.11716470417E+04  0.14578962679E+04  0.10100000352E+00 0.  1.
       -3    1    3    3    0  502 -0.25121064750E+03  0.83042033816E+03  0.17657842108E+04  0.19674091127E+04  0.10100000352E+00 0. -1.
</event>
<event>
 5   0  0.2622205E-07  0.3397553E+04  0.7818609E-02  0.8138507E-01
       -1   -1    0    0    0  501  0.00000000000E+00  0.00000000000E+00  0.24744881314E+04  0.24744881314E+04  0.50400001928E-02 0. -1.
        1   -1    0    0  501    0  0.00000000000E+00  0.00000000000E+00 -0.11662377225E+04  0.11662377225E+04  0.50400001928E-02 0.  1.
    10030    2    1    2    0    0  0.00000000000E+00  0.00000000000E+00  0.13082504089E+04  0.36407258539E+04  0.33975528857E+04 0.  0.
        3    1    3    3  502    0  0.82738053562E+03 -0.72990204304E+03 -0.73004093789E+03  0.13229797143E+04  0.10100000352E+00 0. -1.
       -3    1    3    3    0  502 -0.82738053562E+03  0.72990204304E+03  0.20382913468E+04  0.23177461396E+04  0.10100000352E+00 0.  1.
</event>
<event>
 5   0  0.7822003E-07  0.3358380E+04  0.7818609E-02  0.8148197E-01
        2   -1    0    0  501    0  0.00000000000E+00  0.00000000000E+00  0.13637419276E+04  0.13637419276E+04  0.25500000920E-02 0.  1.
       -2   -1    0    0    0  501  0.00000000000E+00  0.00000000000E+00 -0.20676047796E+04  0.20676047796E+04  0.25500000920E-02 0. -1.
    10030    2    1    2    0    0  0.00000000000E+00  0.00000000000E+00 -0.70386285195E+03  0.34313467072E+04  0.33583801617E+04 0.  0.
        5    1    3    3  502    0 -0.83585771263E+03 -0.14243517918E+04 -0.66220864031E+03  0.17793196778E+04  0.46999998093E+01 0.  1.
       -5    1    3    3    0  502  0.83585771263E+03  0.14243517918E+04 -0.41654211645E+02  0.16520270294E+04  0.46999998093E+01 0. -1.
</event>
<event>
 5   0  0.7899402E-07  0.3423434E+04  0.7818609E-02  0.8132179E-01
        2   -1    0    0  501    0  0.00000000000E+00  0.00000000000E+00  0.12952158276E+04  0.12952158276E+04  0.25500000920E-02 0.  1.
       -2   -1    0    0    0  501  0.00000000000E+00  0.00000000000E+00 -0.22621514712E+04  0.22621514712E+04  0.25500000920E-02 0. -1.
    10030    2    1    2    0    0  0.00000000000E+00  0.00000000000E+00 -0.96693564361E+03  0.35573672989E+04  0.34234335922E+04 0.  0.
        2    1    3    3  502    0  0.29825128418E+03  0.13516576819E+04 -0.15298607303E+04  0.20631059526E+04  0.25500000920E-02 0. -1.
       -2    1    3    3    0  502 -0.29825128418E+03 -0.13516576819E+04  0.56292508670E+03  0.14942613463E+04  0.25500000920E-02 0.  1.
</event>
<event>
 5   0  0.2622205E-07  0.3395790E+04  0.7818609E-02  0.8138940E-01
       -1   -1    0    0    0  501  0.00000000000E+00  0.00000000000E+00  0.11880245223E+04  0.11880245223E+04  0.50400001928E-02 0.  1.
        1   -1    0    0  501    0  0.00000000000E+00  0.00000000000E+00 -0.24265896738E+04  0.24265896738E+04  0.50400001928E-02 0. -1.
    10030    2    1    2    0    0  0.00000000000E+00  0.00000000000E+00 -0.12385651515E+04  0.36146141961E+04  0.33957903575E+04 0.  0.
        3    1    3    3  502    0  0.16683634796E+04 -0.30460996138E+03 -0.53264934744E+03  0.17776218006E+04  0.10100000352E+00 0.  1.
       -3    1    3    3    0  502 -0.16683634796E+04  0.30460996138E+03 -0.70591580408E+03  0.18369923955E+04  0.10100000352E+00 0. -1.
</event>
<event>
 5   0  0.7822003E-07  0.3401463E+04  0.7818609E-02  0.8137547E-01
       -2   -1    0    0    0  501  0.00000000000E+00  0.00000000000E+00  0.29744416499E+04  0.29744416499E+04  0.25500000920E-02 0.  1.
        2   -1    0    0  501    0  0.00000000000E+00  0.00000000000E+00 -0.97244713626E+03  0.97244713627E+03  0.25500000920E-02 0. -1.
    10030    2    1    2    0    0  0.00000000000E+00  0.00000000000E+00  0.20019945137E+04  0.39468887862E+04  0.34014627821E+04 0.  0.
        5    1    3    3  502    0 -0.85402688946E+03  0.84414437961E+03 -0.39650189301E+03  0.12645859017E+04  0.46999998093E+01 0. -1.
       -5    1    3    3    0  502  0.85402688946E+03 -0.84414437961E+03  0.23984964067E+04  0.26823028845E+04  0.46999998093E+01 0.  1.
</event>
<event>
 5   0  0.2553250E-07  0.3392638E+04  0.7818609E-02  0.8139716E-01
       -3   -1    0    0    0  501  0.00000000000E+00  0.00000000000E+00  0.17223176488E+04  0.17223176518E+04  0.10100000352E+00 0. -1.
        3   -1    0    0  501    0  0.00000000000E+00  0.00000000000E+00 -0.16707129591E+04  0.16707129621E+04  0.10100000352E+00 0.  1.
    10030    2    1    2    0    0  0.00000000000E+00  0.00000000000E+00  0.51604689769E+02  0.33930306139E+04  0.33926381627E+04 0.  0.
        2    1    3    3  502    0  0.15711041077E+04 -0.37182166430E+03 -0.49471819387E+03  0.16885986967E+04  0.25500000920E-02 0.  1.
       -2    1    3    3    0  502 -0.15711041077E+04  0.37182166430E+03  0.54632288364E+03  0.17044319172E+04  0.25500000920E-02 0. -1.
</event>
<event>
 5   0  0.7822003E-07  0.3398309E+04  0.7818609E-02  0.8138321E-01
        2   -1    0    0  501    0  0.00000000000E+00  0.00000000000E+00  0.21177475961E+04  0.21177475961E+04  0.25500000920E-02 0. -1.
       -2   -1    0    0    0  501  0.00000000000E+00  0.00000000000E+00 -0.13633006731E+04  0.13633006731E+04  0.25500000920E-02 0.  1.
    10030    2    1    2    0    0  0.00000000000E+00  0.00000000000E+00  0.75444692300E+03  0.34810482692E+04  0.33983094169E+04 0.  0.
        5    1    3    3  502    0 -0.78259906250E+03  0.26523610269E+03 -0.11436104995E+04  0.14109140822E+04  0.46999998093E+01 0.  1.
       -5    1    3    3    0  502  0.78259906250E+03 -0.26523610269E+03  0.18980574225E+04  0.20701341870E+04  0.46999998093E+01 0. -1.
</event>
<event>
 5   0  0.7838333E-07  0.3401736E+04  0.7818609E-02  0.8137480E-01
       -2   -1    0    0    0  501  0.00000000000E+00  0.00000000000E+00  0.16422214166E+04  0.16422214166E+04  0.25500000920E-02 0.  1.
        2   -1    0    0  501    0  0.00000000000E+00  0.00000000000E+00 -0.17616090408E+04  0.17616090408E+04  0.25500000920E-02 0. -1.
    10030    2    1    2    0    0  0.00000000000E+00  0.00000000000E+00 -0.11938762425E+03  0.34038304574E+04  0.34017360829E+04 0.  0.
        1    1    3    3  502    0  0.72551516944E+03 -0.14352395458E+04 -0.61381023718E+03  0.17213505808E+04  0.50400001928E-02 0. -1.
       -1    1    3    3    0  502 -0.72551516944E+03  0.14352395458E+04  0.49442261292E+03  0.16824798765E+04  0.50400001928E-02 0.  1.
</event>
<event>
 5   0  0.7610412E-07  0.3381425E+04  0.7818609E-02  0.8142480E-01
       -2   -1    0    0    0  501  0.00000000000E+00  0.00000000000E+00  0.12897461522E+04  0.12897461522E+04  0.25500000920E-02 0. -1.
        2   -1    0    0  501    0  0.00000000000E+00  0.00000000000E+00 -0.22163348441E+04  0.22163348441E+04  0.25500000920E-02 0.  1.
    10030    2    1    2    0    0  0.00000000000E+00  0.00000000000E+00 -0.92658869189E+03  0.35060809963E+04  0.33814253428E+04 0.  0.
        4    1    3    3  502    0  0.15775469441E+04  0.24195663460E+03  0.11522637899E+03  0.16001487760E+04  0.12699999809E+01 0. -1.
       -4    1    3    3    0  502 -0.15775469441E+04 -0.24195663460E+03 -0.10418150709E+04  0.19059322204E+04  0.12699999809E+01 0.  1.
</event>
<event>
 5   0  0.2622205E-07  0.3530473E+04  0.7818609E-02  0.8106606E-01
       -1   -1    0    0    0  501  0.00000000000E+00  0.00000000000E+00  0.16869630736E+04  0.16869630736E+04  0.50400001928E-02 0.  1.
        1   -1    0    0  501    0  0.00000000000E+00  0.00000000000E+00 -0.18471418281E+04  0.18471418281E+04  0.50400001928E-02 0. -1.
    10030    2    1    2    0    0  0.00000000000E+00  0.00000000000E+00 -0.16017875455E+03  0.35341049017E+04  0.35304730877E+04 0.  0.
        3    1    3    3  502    0  0.36493304007E+03 -0.12551070577E+01 -0.18089683531E+04  0.18454116645E+04  0.10100000352E+00 0. -1.
       -3    1    3    3    0  502 -0.36493304007E+03  0.12551070577E+01  0.16487895985E+04  0.16886932372E+04  0.10100000352E+00 0.  1.
</event>
<event>
 5   0  0.2592200E-07  0.3409385E+04  0.7818609E-02  0.8135607E-01
       -1   -1    0    0    0  501  0.00000000000E+00  0.00000000000E+00  0.95238578031E+03  0.95238578033E+03  0.50400001928E-02 0.  1.
        1   -1    0    0  501    0  0.00000000000E+00  0.00000000000E+00 -0.30512593498E+04  0.30512593498E+04  0.50400001928E-02 0. -1.
    10030    2    1    2    0    0  0.00000000000E+00  0.00000000000E+00 -0.20988735695E+04  0.40036451301E+04  0.34093847051E+04 0.  0.
        4    1    3    3  502    0  0.74046113669E+03 -0.34774682856E+03  0.70682655258E+03  0.10811179122E+04  0.12699999809E+01 0.  1.
       -4    1    3    3    0  502 -0.74046113669E+03  0.34774682856E+03 -0.28057001221E+04  0.29225272179E+04  0.12699999809E+01 0. -1.
</event>
<event>
 5   0  0.7838333E-07  0.3416874E+04  0.7818609E-02  0.8133777E-01
        2   -1    0    0  501    0  0.00000000000E+00  0.00000000000E+00  0.10536202004E+04  0.10536202004E+04  0.25500000920E-02 0. -1.
       -2   -1    0    0    0  501  0.00000000000E+00  0.00000000000E+00 -0.27702167660E+04  0.27702167660E+04  0.25500000920E-02 0.  1.
    10030    2    1    2    0    0  0.00000000000E+00  0.00000000000E+00 -0.17165965656E+04  0.38238369664E+04  0.34168736261E+04 0.  0.
        1    1    3    3  502    0  0.85601999075E+03  0.43823697043E+03  0.72195205628E+03  0.12025126354E+04  0.50400001928E-02 0. -1.
       -1    1    3    3    0  502 -0.85601999075E+03 -0.43823697043E+03 -0.24385486219E+04  0.26213243310E+04  0.50400001928E-02 0.  1.
</event>
<event>
 5   0  0.2641442E-07  0.3408974E+04  0.7818609E-02  0.8135707E-01
       -1   -1    0    0    0  501  0.00000000000E+00  0.00000000000E+00  0.22999023543E+04  0.22999023543E+04  0.50400001928E-02 0.  1.
        1   -1    0    0  501    0  0.00000000000E+00  0.00000000000E+00 -0.12632170593E+04  0.12632170593E+04  0.50400001928E-02 0. -1.
    10030    2    1    2    0    0  0.00000000000E+00  0.00000000000E+00  0.10366852950E+04  0.35631194136E+04  0.34089739739E+04 0.  0.
        1    1    3    3  502    0  0.50963714175E+03 -0.15843003171E+04  0.13354019322E+03  0.16696018969E+04  0.50400001928E-02 0. -1.
       -1    1    3    3    0  502 -0.50963714175E+03  0.15843003171E+04  0.90314510177E+03  0.18935175167E+04  0.50400001928E-02 0.  1.
</event>
<event>
 5   0  0.7610412E-07  0.3402690E+04  0.7818609E-02  0.8137247E-01
        2   -1    0    0  501    0  0.00000000000E+00  0.00000000000E+00  0.19468174574E+04  0.19468174574E+04  0.25500000920E-02 0. -1.
       -2   -1    0    0    0  501  0.00000000000E+00  0.00000000000E+00 -0.14868236575E+04  0.14868236575E+04  0.25500000920E-02 0.  1.
    10030    2    1    2    0    0  0.00000000000E+00  0.00000000000E+00  0.45999379985E+03  0.34336411149E+04  0.34026896729E+04 0.  0.
        4    1    3    3  502    0 -0.69203910916E+03  0.68344308614E+03  0.16386026462E+04  0.19055269155E+04  0.12699999809E+01 0. -1.
       -4    1    3    3    0  502  0.69203910916E+03 -0.68344308614E+03 -0.11786088464E+04  0.15281141994E+04  0.12699999809E+01 0.  1.
</event>
<event>
 5   0  0.7822003E-07  0.3399120E+04  0.7818609E-02  0.8138122E-01
       -2   -1    0    0    0  501  0.00000000000E+00  0.00000000000E+00  0.21465865883E+04  0.21465865883E+04  0.25500000920E-02 0.  1.
        2   -1    0    0  501    0  0.00000000000E+00  0.00000000000E+00 -0.13456263042E+04  0.13456263042E+04  0.25500000920E-02 0. -1.
    10030    2    1    2    0    0  0.00000000000E+00  0.00000000000E+00  0.80096028416E+03  0.34922128925E+04  0.33991195198E+04 0.  0.
        5    1    3    3  502    0 -0.54225694692E+03 -0.62231337857E+03  0.19268214279E+04  0.20961821111E+04  0.46999998093E+01 0.  1.
       -5    1    3    3    0  502  0.54225694692E+03  0.62231337857E+03 -0.11258611438E+04  0.13960307814E+04  0.46999998093E+01 0. -1.
</event>
<event>
 5   0  0.7822003E-07  0.3379900E+04  0.7818609E-02  0.8142857E-01
        2   -1    0    0  501    0  0.00000000000E+00  0.00000000000E+00  0.21785830984E+04  0.21785830984E+04  0.25500000920E-02 0. -1.
       -2   -1    0    0    0  501  0.00000000000E+00  0.00000000000E+00 -0.13109123581E+04  0.13109123581E+04  0.25500000920E-02 0.  1.
    10030    2    1    2    0    0  0.00000000000E+00  0.00000000000E+00  0.86767074033E+03  0.34894954565E+04  0.33799002984E+04 0.  0.
        5    1    3    3  502    0  0.32924481281E+03 -0.14019105878E+04  0.13469070563E+04  0.19717850165E+04  0.46999998093E+01 0. -1.
       -5    1    3    3    0  502 -0.32924481281E+03  0.14019105878E+04 -0.47923631597E+03  0.15177104400E+04  0.46999998093E+01 0.  1.
</event>
<event>
 5   0  0.2592200E-07  0.3380615E+04  0.7818609E-02  0.8142681E-01
       -1   -1    0    0    0  501  0.00000000000E+00  0.00000000000E+00  0.14262747220E+04  0.14262747220E+04  0.50400001928E-02 0. -1.
        1   -1    0    0  501    0  0.00000000000E+00  0.00000000000E+00 -0.20032177716E+04  0.20032177716E+04  0.50400001928E-02 0.  1.
    10030    2    1    2    0    0  0.00000000000E+00  0.00000000000E+00 -0.57694304959E+03  0.34294924936E+04  0.33806146603E+04 0.  0.
        4    1    3    3  502    0  0.56008466645E+02  0.10247676811E+04 -0.16509654610E+04  0.19439584139E+04  0.12699999809E+01 0.  1.
       -4    1    3    3    0  502 -0.56008466645E+02 -0.10247676811E+04  0.10740224115E+04  0.14855340797E+04  0.12699999809E+01 0. -1.
</event>
<event>
 5   0  0.2592200E-07  0.3392686E+04  0.7818609E-02  0.8139704E-01
        1   -1    0    0  501    0  0.00000000000E+00  0.00000000000E+00  0.27757553800E+04  0.27757553800E+04  0.50400001928E-02 0.  1.
       -1   -1    0    0    0  501  0.00000000000E+00  0.00000000000E+00 -0.10366834725E+04  0.10366834725E+04  0.50400001928E-02 0. -1.
    10030    2    1    2    0    0  0.00000000000E+00  0.00000000000E+00  0.17390719075E+04  0.38124388525E+04  0.33926860899E+04 0.  0.
        4    1    3    3  502    0 -0.15609349678E+04  0.57944343758E+02  0.12609108541E+03  0.15670916040E+04  0.12699999809E+01 0.  1.
       -4    1    3    3    0  502  0.15609349678E+04 -0.57944343758E+02  0.16129808221E+04  0.22453472485E+04  0.12699999809E+01 0. -1.
</event>
<event>
 5   0  0.2641442E-07  0.3392337E+04  0.7818609E-02  0.8139790E-01
        1   -1    0    0  501    0  0.00000000000E+00  0.00000000000E+00  0.95471755065E+03  0.95471755067E+03  0.50400001928E-02 0. -1.
       -1   -1    0    0    0  501  0.00000000000E+00  0.00000000000E+00 -0.30134428991E+04  0.30134428991E+04  0.50400001928E-02 0.  1.
    10030    2    1    2    0    0  0.00000000000E+00  0.00000000000E+00 -0.20587253484E+04  0.39681604498E+04  0.33923365539E+04 0.  0.
        1    1    3    3  502    0  0.13556407399E+04  0.18042652846E+03 -0.22030005873E+04  0.25929765011E+04  0.50400001928E-02 0.  1.
       -1    1    3    3    0  502 -0.13556407399E+04 -0.18042652846E+03  0.14427523883E+03  0.13751839486E+04  0.50400001928E-02 0. -1.
</event>
<event>
 5   0  0.7822003E-07  0.3406191E+04  0.7818609E-02  0.8136389E-01
        2   -1    0    0  501    0  0.00000000000E+00  0.00000000000E+00  0.18089216153E+04  0.18089216153E+04  0.25500000920E-02 0. -1.
       -2   -1    0    0    0  501  0.00000000000E+00  0.00000000000E+00 -0.16034600194E+04  0.16034600194E+04  0.25500000920E-02 0.  1.
    10030    2    1    2    0    0  0.00000000000E+00  0.00000000000E+00  0.20546159588E+03  0.34123816347E+04  0.34061905339E+04 0.  0.
        5    1    3    3  502    0  0.42196160764E+02  0.55245846866E+03 -0.15106374397E+04  0.16090489240E+04  0.46999998093E+01 0.  1.
       -5    1    3    3    0  502 -0.42196160764E+02 -0.55245846866E+03  0.17160990356E+04  0.18033327107E+04  0.46999998093E+01 0. -1.
</event>
<event>
 5   0  0.7610412E-07  0.3389468E+04  0.7818609E-02  0.8140496E-01
        2   -1    0    0  501    0  0.00000000000E+00  0.00000000000E+00  0.13042121825E+04  0.13042121825E+04  0.25500000920E-02 0.  1.
       -2   -1    0    0    0  501  0.00000000000E+00  0.00000000000E+00 -0.22021905621E+04  0.22021905621E+04  0.25500000920E-02 0. -1.
    10030    2    1    2    0    0  0.00000000000E+00  0.00000000000E+00 -0.89797837960E+03  0.35064027445E+04  0.33894682528E+04 0.  0.
        4    1    3    3  502    0 -0.12423666922E+04 -0.11376131900E+04 -0.64109262487E+03  0.18023984394E+04  0.12699999809E+01 0. -1.
       -4    1    3    3    0  502  0.12423666922E+04  0.11376131900E+04 -0.25688575473E+03  0.17040043051E+04  0.12699999809E+01 0.  1.
</event>
<event>
 5   0  0.7838333E-07  0.3406424E+04  0.7818609E-02  0.8136331E-01
       -2   -1    0    0    0  501  0.00000000000E+00  0.00000000000E+00  0.13476330638E+04  0.13476330638E+04  0.25500000920E-02 0.  1.
        2   -1    0    0  501    0  0.00000000000E+00  0.00000000000E+00 -0.21526119517E+04  0.21526119517E+04  0.25500000920E-02 0. -1.
    10030    2    1    2    0    0  0.00000000000E+00  0.00000000000E+00 -0.80497888786E+03  0.35002450155E+04  0.34064239546E+04 0.  0.
        1    1    3    3  502    0 -0.56340161400E+03 -0.59054539313E+03 -0.19385762394E+04  0.21033884748E+04  0.50400001928E-02 0. -1.
       -1    1    3    3    0  502  0.56340161400E+03  0.59054539313E+03  0.11335973515E+04  0.13968565407E+04  0.50400001928E-02 0.  1.
</event>
<event>
 5   0  0.7838333E-07  0.3421312E+04  0.7818609E-02  0.8132695E-01
        2   -1    0    0  501    0  0.00000000000E+00  0.00000000000E+00  0.22459729872E+04  0.22459729872E+04  0.25500000920E-02 0.  1.
       -2   -1    0    0    0  501  0.00000000000E+00  0.00000000000E+00 -0.13029295443E+04  0.13029295443E+04  0.25500000920E-02 0. -1.
    10030    2    1    2    0    0  0.00000000000E+00  0.00000000000E+00  0.94304344292E+03  0.35489025315E+04  0.34213123568E+04 0.  0.
        1    1    3    3  502    0 -0.52415476405E+03  0.49749721296E+03  0.20798617436E+04  0.22018325473E+04  0.50400001928E-02 0.  1.
       -1    1    3    3    0  502  0.52415476405E+03 -0.49749721296E+03 -0.11368183007E+04  0.13470699842E+04  0.50400001928E-02 0. -1.
</event>
<event>
 5   0  0.2599367E-07  0.3393757E+04  0.7818609E-02  0.8139440E-01
        1   -1    0    0  501    0  0.00000000000E+00  0.00000000000E+00  0.25534260026E+04  0.25534260026E+04  0.50400001928E-02 0. -1.
       -1   -1    0    0    0  501  0.00000000000E+00  0.00000000000E+00 -0.11276603820E+04  0.11276603820E+04  0.50400001928E-02 0.  1.
    10030    2    1    2    0    0  0.00000000000E+00  0.00000000000E+00  0.14257656206E+04  0.36810863845E+04  0.33937574111E+04 0.  0.
        2    1    3    3  502    0  0.10808403946E+04 -0.31235619041E+03 -0.66494572264E+03  0.13068799342E+04  0.25500000920E-02 0.  1.
       -2    1    3    3    0  502 -0.10808403946E+04  0.31235619041E+03  0.20907113433E+04  0.23742064504E+04  0.25500000920E-02 0. -1.
</event>
<event>
 5   0  0.2553250E-07  0.3204667E+04  0.7818609E-02  0.8187586E-01
       -1   -1    0    0    0  501  0.00000000000E+00  0.00000000000E+00  0.12043336737E+04  0.12043336737E+04  0.50400001928E-02 0. -1.
        1   -1    0    0  501    0  0.00000000000E+00  0.00000000000E+00 -0.21318620266E+04  0.21318620266E+04  0.50400001928E-02 0.  1.
    10030    2    1    2    0    0  0.00000000000E+00  0.00000000000E+00 -0.92752835287E+03  0.33361957003E+04  0.32046673626E+04 0.  0.
        5    1    3    3  502    0 -0.12169795585E+03 -0.15522550132E+04 -0.69890614100E+02  0.15585932139E+04  0.46999998093E+01 0. -1.
       -5    1    3    3    0  502  0.12169795585E+03  0.15522550132E+04 -0.85763773877E+03  0.17776024864E+04  0.46999998093E+01 0.  1.
</event>
<event>
 5   0  0.7822003E-07  0.3414717E+04  0.7818609E-02  0.8134304E-01
        2   -1    0    0  501    0  0.00000000000E+00  0.00000000000E+00  0.25580863992E+04  0.25580863992E+04  0.25500000920E-02 0. -1.
       -2   -1    0    0    0  501  0.00000000000E+00  0.00000000000E+00 -0.11395520869E+04  0.11395520869E+04  0.25500000920E-02 0.  1.
    10030    2    1    2    0    0  0.00000000000E+00  0.00000000000E+00  0.14185343123E+04  0.36976384861E+04  0.34147167933E+04 0.  0.
        5    1    3    3  502    0 -0.45065321339E+03 -0.11451053074E+04  0.19908353515E+04  0.23404704592E+04  0.46999998093E+01 0. -1.
       -5    1    3    3    0  502  0.45065321339E+03  0.11451053074E+04 -0.57230103921E+03  0.13571680269E+04  0.46999998093E+01 0.  1.
</event>
<event>
 5   0  0.2592200E-07  0.3383260E+04  0.7818609E-02  0.8142027E-01
       -1   -1    0    0    0  501  0.00000000000E+00  0.00000000000E+00  0.16716747442E+04  0.16716747442E+04  0.50400001928E-02 0.  1.
        1   -1    0    0  501    0  0.00000000000E+00  0.00000000000E+00 -0.17118229722E+04  0.17118229722E+04  0.50400001928E-02 0. -1.
    10030    2    1    2    0    0  0.00000000000E+00  0.00000000000E+00 -0.40148228039E+02  0.33834977164E+04  0.33832595107E+04 0.  0.
        4    1    3    3  502    0 -0.14391063187E+04  0.83617275445E+03 -0.32241599817E+03  0.16953364152E+04  0.12699999809E+01 0. -1.
       -4    1    3    3    0  502  0.14391063187E+04 -0.83617275445E+03  0.28226777013E+03  0.16881613012E+04  0.12699999809E+01 0.  1.
</event>
<event>
 5   0  0.7899402E-07  0.3400960E+04  0.7818609E-02  0.8137671E-01
       -2   -1    0    0    0  501  0.00000000000E+00  0.00000000000E+00  0.11346844558E+04  0.11346844558E+04  0.25500000920E-02 0. -1.
        2   -1    0    0  501    0  0.00000000000E+00  0.00000000000E+00 -0.25484021598E+04  0.25484021598E+04  0.25500000920E-02 0.  1.
    10030    2    1    2    0    0  0.00000000000E+00  0.00000000000E+00 -0.14137177040E+04  0.36830866156E+04  0.34009600515E+04 0.  0.
        2    1    3    3  502    0  0.11190415834E+04  0.71653925887E+03  0.44227311127E+03  0.14004599530E+04  0.25500000920E-02 0. -1.
       -2    1    3    3    0  502 -0.11190415834E+04 -0.71653925887E+03 -0.18559908152E+04  0.22826266627E+04  0.25500000920E-02 0.  1.
</event>
<event>
 5   0  0.2641442E-07  0.3278502E+04  0.7818609E-02  0.8168387E-01
       -1   -1    0    0    0  501  0.00000000000E+00  0.00000000000E+00  0.17664530128E+04  0.17664530128E+04  0.50400001928E-02 0. -1.
        1   -1    0    0  501    0  0.00000000000E+00  0.00000000000E+00 -0.15212092145E+04  0.15212092145E+04  0.50400001928E-02 0.  1.
    10030    2    1    2    0    0  0.00000000000E+00  0.00000000000E+00  0.24524379836E+03  0.32876622273E+04  0.32785024630E+04 0.  0.
        1    1    3    3  502    0  0.28288145038E+03  0.38467878832E+03 -0.14499254784E+04  0.15265266385E+04  0.50400001928E-02 0.  1.
       -1    1    3    3    0  502 -0.28288145038E+03 -0.38467878832E+03  0.16951692768E+04  0.17611355888E+04  0.50400001928E-02 0. -1.
</event>
<event>
 5   0  0.8489228E-07  0.3478489E+04  0.7818609E-02  0.8118907E-01
        2   -1    0    0  501    0  0.00000000000E+00  0.00000000000E+00  0.12067820808E+04  0.12067820808E+04  0.25500000920E-02 0. -1.
       -2   -1    0    0    0  501  0.00000000000E+00  0.00000000000E+00 -0.25066430480E+04  0.25066430480E+04  0.25500000920E-02 0.  1.
    10030    2    1    2    0    0  0.00000000000E+00  0.00000000000E+00 -0.12998609672E+04  0.37134251288E+04  0.34784892775E+04 0.  0.
        3    1    3    3  502    0  0.16291409770E+04  0.73962308031E+02 -0.46196410273E+01  0.16308255876E+04  0.10100000352E+00 0.  1.
       -3    1    3    3    0  502 -0.16291409770E+04 -0.73962308031E+02 -0.12952413261E+04  0.20825995412E+04  0.10100000352E+00 0. -1.
</event>
<event>
 5   0  0.7822003E-07  0.3352192E+04  0.7818609E-02  0.8149741E-01
        2   -1    0    0  501    0  0.00000000000E+00  0.00000000000E+00  0.20302208743E+04  0.20302208743E+04  0.25500000920E-02 0.  1.
       -2   -1    0    0    0  501  0.00000000000E+00  0.00000000000E+00 -0.13837401524E+04  0.13837401524E+04  0.25500000920E-02 0. -1.
    10030    2    1    2    0    0  0.00000000000E+00  0.00000000000E+00  0.64648072193E+03  0.34139610267E+04  0.33521922033E+04 0.  0.
        5    1    3    3  502    0  0.12975857907E+04 -0.59454374611E+03 -0.57162264017E+03  0.15375258317E+04  0.46999998093E+01 0. -1.
       -5    1    3    3    0  502 -0.12975857907E+04  0.59454374611E+03  0.12181033621E+04  0.18764351950E+04  0.46999998093E+01 0.  1.
</event>
<event>
 5   0  0.2641442E-07  0.3387736E+04  0.7818609E-02  0.8140923E-01
        1   -1    0    0  501    0  0.00000000000E+00  0.00000000000E+00  0.22435950306E+04  0.22435950306E+04  0.50400001928E-02 0.  1.
       -1   -1    0    0    0  501  0.00000000000E+00  0.00000000000E+00 -0.12788355336E+04  0.12788355336E+04  0.50400001928E-02 0. -1.
    10030    2    1    2    0    0  0.00000000000E+00  0.00000000000E+00  0.96475949699E+03  0.35224305642E+04  0.33877361457E+04 0.  0.
        1    1    3    3  502    0 -0.29451467299E+03  0.16190483697E+04  0.89975287128E+03  0.18755297240E+04  0.50400001928E-02 0.  1.
       -1    1    3    3    0  502  0.29451467299E+03 -0.16190483697E+04  0.65006625712E+02  0.16469008402E+04  0.50400001928E-02 0. -1.
</event>
<event>
 5   0  0.2592200E-07  0.3408030E+04  0.7818609E-02  0.8135938E-01
        1   -1    0    0  501    0  0.00000000000E+00  0.00000000000E+00  0.23717267375E+04  0.23717267376E+04  0.50400001928E-02 0. -1.
       -1   -1    0    0    0  501  0.00000000000E+00  0.00000000000E+00 -0.12242843544E+04  0.12242843544E+04  0.50400001928E-02 0.  1.
    10030    2    1    2    0    0  0.00000000000E+00  0.00000000000E+00  0.11474423831E+04  0.35960110920E+04  0.34080304798E+04 0.  0.
        4    1    3    3  502    0  0.10217416109E+04  0.10415872316E+04 -0.35506160936E+03  0.15016425139E+04  0.12699999809E+01 0.  1.
       -4    1    3    3    0  502 -0.10217416109E+04 -0.10415872316E+04  0.15025039925E+04  0.20943685780E+04  0.12699999809E+01 0. -1.
</event>
<event>
 5   0  0.2553250E-07  0.3391264E+04  0.7818609E-02  0.8140054E-01
        1   -1    0    0  501    0  0.00000000000E+00  0.00000000000E+00  0.17568310998E+04  0.17568310998E+04  0.50400001928E-02 0. -1.
       -1   -1    0    0    0  501  0.00000000000E+00  0.00000000000E+00 -0.16365652420E+04  0.16365652420E+04  0.50400001928E-02 0.  1.
    10030    2    1    2    0    0  0.00000000000E+00  0.00000000000E+00  0.12026585786E+03  0.33933963418E+04  0.33912644922E+04 0.  0.
        5    1    3    3  502    0  0.18678648869E+03  0.15562605882E+03 -0.16190274460E+04  0.16371868016E+04  0.46999998093E+01 0.  1.
       -5    1    3    3    0  502 -0.18678648869E+03 -0.15562605882E+03  0.17392933038E+04  0.17562095402E+04  0.46999998093E+01 0. -1.
</event>
<event>
 5   0  0.2553250E-07  0.3434969E+04  0.7818609E-02  0.8129377E-01
        1   -1    0    0  501    0  0.00000000000E+00  0.00000000000E+00  0.17467505077E+04  0.17467505077E+04  0.50400001928E-02 0. -1.
       -1   -1    0    0    0  501  0.00000000000E+00  0.00000000000E+00 -0.16887091112E+04  0.16887091113E+04  0.50400001928E-02 0.  1.
    10030    2    1    2    0    0  0.00000000000E+00  0.00000000000E+00  0.58041396439E+02  0.34354596189E+04  0.34349692851E+04 0.  0.
        5    1    3    3  502    0  0.57311400963E+03 -0.15839853678E+04 -0.30608248983E+03  0.17120683088E+04  0.46999998093E+01 0.  1.
       -5    1    3    3    0  502 -0.57311400963E+03  0.15839853678E+04  0.36412388626E+03  0.17233913102E+04  0.46999998093E+01 0. -1.
</event>
<event>
 5   0  0.7822003E-07  0.3408052E+04  0.7818609E-02  0.8135933E-01
        2   -1    0    0  501    0  0.00000000000E+00  0.00000000000E+00  0.25041557905E+04  0.25041557905E+04  0.25500000920E-02 0.  1.
       -2   -1    0    0    0  501  0.00000000000E+00  0.00000000000E+00 -0.11595540624E+04  0.11595540624E+04  0.25500000920E-02 0. -1.
    10030    2    1    2    0    0  0.00000000000E+00  0.00000000000E+00  0.13446017280E+04  0.36637098529E+04  0.34080516544E+04 0.  0.
        5    1    3    3  502    0 -0.58121295556E+03  0.13610463644E+04 -0.23570664155E+03  0.14986111626E+04  0.46999998093E+01 0. -1.
       -5    1    3    3    0  502  0.58121295556E+03 -0.13610463644E+04  0.15803083696E+04  0.21650986903E+04  0.46999998093E+01 0.  1.
</event>
<event>
 5   0  0.7822003E-07  0.3383224E+04  0.7818609E-02  0.8142036E-01
       -2   -1    0    0    0  501  0.00000000000E+00  0.00000000000E+00  0.16067702509E+04  0.16067702509E+04  0.25500000920E-02 0.  1.
        2   -1    0    0  501    0  0.00000000000E+00  0.00000000000E+00 -0.17809335984E+04  0.17809335984E+04  0.25500000920E-02 0. -1.
    10030    2    1    2    0    0  0.00000000000E+00  0.00000000000E+00 -0.17416334752E+03  0.33877038493E+04  0.33832239800E+04 0.  0.
        5    1    3    3  502    0  0.13788257312E+04 -0.40033792426E+03  0.80858482351E+03  0.16478053154E+04  0.46999998093E+01 0.  1.
       -5    1    3    3    0  502 -0.13788257312E+04  0.40033792426E+03 -0.98274817103E+03  0.17398985339E+04  0.46999998093E+01 0. -1.
</event>
<event>
 5   0  0.8489228E-07  0.3362144E+04  0.7818609E-02  0.8147260E-01
       -2   -1    0    0    0  501  0.00000000000E+00  0.00000000000E+00  0.10536855266E+04  0.10536855266E+04  0.25500000920E-02 0.  1.
        2   -1    0    0  501    0  0.00000000000E+00  0.00000000000E+00 -0.26820178136E+04  0.26820178136E+04  0.25500000920E-02 0. -1.
    10030    2    1    2    0    0  0.00000000000E+00  0.00000000000E+00 -0.16283322870E+04  0.37357033402E+04  0.33621441684E+04 0.  0.
        3    1    3    3  502    0  0.15615001793E+04  0.51030278278E+03 -0.12106176206E+04  0.20406584167E+04  0.10100000352E+00 0.  1.
       -3    1    3    3    0  502 -0.15615001793E+04 -0.51030278278E+03 -0.41771466638E+03  0.16950449235E+04  0.10100000352E+00 0. -1.
</event>
<event>
 5   0  0.7822003E-07  0.3389289E+04  0.7818609E-02  0.8140540E-01
        2   -1    0    0  501    0  0.00000000000E+00  0.00000000000E+00  0.99147037062E+03  0.99147037063E+03  0.25500000920E-02 0. -1.
       -2   -1    0    0    0  501  0.00000000000E+00  0.00000000000E+00 -0.28965256854E+04  0.28965256854E+04  0.25500000920E-02 0.  1.
    10030    2    1    2    0    0  0.00000000000E+00  0.00000000000E+00 -0.19050553148E+04  0.38879960560E+04  0.33892886539E+04 0.  0.
        5    1    3    3  502    0  0.82915506321E+03 -0.63140215359E+03 -0.24854249474E+04  0.26950929590E+04  0.46999998093E+01 0.  1.
       -5    1    3    3    0  502 -0.82915506321E+03  0.63140215359E+03  0.58036963264E+03  0.11929030970E+04  0.46999998093E+01 0. -1.
</event>
<event>
 5   0  0.2599367E-07  0.3211816E+04  0.7818609E-02  0.8185703E-01
        1   -1    0    0  501    0  0.00000000000E+00  0.00000000000E+00  0.14002140228E+04  0.14002140228E+04  0.50400001928E-02 0.  1.
       -1   -1    0    0    0  501  0.00000000000E+00  0.00000000000E+00 -0.18418191193E+04  0.18418191193E+04  0.50400001928E-02 0. -1.
    10030    2    1    2    0    0  0.00000000000E+00  0.00000000000E+00 -0.44160509649E+03  0.32420331422E+04  0.32118162827E+04 0.  0.
        2    1    3    3  502    0  0.42807156686E+03 -0.13203633719E+03  0.13358676531E+04  0.14089787959E+04  0.25500000920E-02 0.  1.
       -2    1    3    3    0  502 -0.42807156686E+03  0.13203633719E+03 -0.17774727496E+04  0.18330543463E+04  0.25500000920E-02 0. -1.
</event>
<event>
 5   0  0.8489228E-07  0.3410765E+04  0.7818609E-02  0.8135269E-01
        2   -1    0    0  501    0  0.00000000000E+00  0.00000000000E+00  0.14566260024E+04  0.14566260024E+04  0.25500000920E-02 0.  1.
       -2   -1    0    0    0  501  0.00000000000E+00  0.00000000000E+00 -0.19966210869E+04  0.19966210869E+04  0.25500000920E-02 0. -1.
    10030    2    1    2    0    0  0.00000000000E+00  0.00000000000E+00 -0.53999508452E+03  0.34532470893E+04  0.34107654227E+04 0.  0.
        3    1    3    3  502    0  0.14885776670E+04 -0.25432198603E+02 -0.11121143443E+04  0.18583079918E+04  0.10100000352E+00 0. -1.
       -3    1    3    3    0  502 -0.14885776670E+04  0.25432198603E+02  0.57211925976E+03  0.15949390975E+04  0.10100000352E+00 0.  1.
</event>
<event>
 5   0  0.7610412E-07  0.3383407E+04  0.7818609E-02  0.8141991E-01
        2   -1    0    0  501    0  0.00000000000E+00  0.00000000000E+00  0.21303712477E+04  0.21303712477E+04  0.25500000920E-02 0. -1.
       -2   -1    0    0    0  501  0.00000000000E+00  0.00000000000E+00 -0.13433622331E+04  0.13433622332E+04  0.25500000920E-02 0.  1.
    10030    2    1    2    0    0  0.00000000000E+00  0.00000000000E+00  0.78700901455E+03  0.34737334809E+04  0.33834067309E+04 0.  0.
        4    1    3    3  502    0  0.14829489730E+04  0.66593613244E+03 -0.87237597531E+02  0.16279498151E+04  0.12699999809E+01 0.  1.
       -4    1    3    3    0  502 -0.14829489730E+04 -0.66593613244E+03  0.87424661208E+03  0.18457836658E+04  0.12699999809E+01 0. -1.
</event>
<event>
 5   0  0.8489228E-07  0.3392600E+04  0.7818609E-02  0.8139725E-01
        2   -1    0    0  501    0  0.00000000000E+00  0.00000000000E+00  0.16268587055E+04  0.16268587055E+04  0.25500000920E-02 0. -1.
       -2   -1    0    0    0  501  0.00000000000E+00  0.00000000000E+00 -0.17687048948E+04  0.17687048948E+04  0.25500000920E-02 0.  1.
    10030    2    1    2    0    0  0.00000000000E+00  0.00000000000E+00 -0.14184618930E+03  0.33955636003E+04  0.33925995670E+04 0.  0.
        3    1    3    3  502    0 -0.10522546012E+04  0.43507665649E+02 -0.14018594101E+04  0.17533803006E+04  0.10100000352E+00 0.  1.
       -3    1    3    3    0  502  0.10522546012E+04 -0.43507665649E+02  0.12600132208E+04  0.16421832996E+04  0.10100000352E+00 0. -1.
</event>
<event>
 5   0  0.2599367E-07  0.3539407E+04  0.7818609E-02  0.8104514E-01
        1   -1    0    0  501    0  0.00000000000E+00  0.00000000000E+00  0.11037807475E+04  0.11037807475E+04  0.50400001928E-02 0. -1.
       -1   -1    0    0    0  501  0.00000000000E+00  0.00000000000E+00 -0.28373839518E+04  0.28373839518E+04  0.50400001928E-02 0.  1.
    10030    2    1    2    0    0  0.00000000000E+00  0.00000000000E+00 -0.17336032043E+04  0.39411646993E+04  0.35394066052E+04 0.  0.
        2    1    3    3  502    0 -0.17137930401E+04 -0.25038997668E+03 -0.12714641554E+04  0.21485815840E+04  0.25500000920E-02 0.  1.
       -2    1    3    3    0  502  0.17137930401E+04  0.25038997668E+03 -0.46213904892E+03  0.17925831153E+04  0.25500000920E-02 0. -1.
</event>
<event>
 5   0  0.7899402E-07  0.3408201E+04  0.7818609E-02  0.8135896E-01
       -2   -1    0    0    0  501  0.00000000000E+00  0.00000000000E+00  0.14628988001E+04  0.14628988001E+04  0.25500000920E-02 0. -1.
        2   -1    0    0  501    0  0.00000000000E+00  0.00000000000E+00 -0.19850716321E+04  0.19850716321E+04  0.25500000920E-02 0.  1.
    10030    2    1    2    0    0  0.00000000000E+00  0.00000000000E+00 -0.52217283203E+03  0.34479704322E+04  0.34082012316E+04 0.  0.
        2    1    3    3  502    0  0.73678796338E+03  0.99154672339E+03  0.92646675528E+03  0.15441379654E+04  0.25500000920E-02 0. -1.
       -2    1    3    3    0  502 -0.73678796338E+03 -0.99154672339E+03 -0.14486395873E+04  0.19038324668E+04  0.25500000920E-02 0.  1.
</event>
<event>
 5   0  0.2592200E-07  0.3402340E+04  0.7818609E-02  0.8137332E-01
        1   -1    0    0  501    0  0.00000000000E+00  0.00000000000E+00  0.29306621738E+04  0.29306621738E+04  0.50400001928E-02 0.  1.
       -1   -1    0    0    0  501  0.00000000000E+00  0.00000000000E+00 -0.98748333404E+03  0.98748333406E+03  0.50400001928E-02 0. -1.
    10030    2    1    2    0    0  0.00000000000E+00  0.00000000000E+00  0.19431788398E+04  0.39181455079E+04  0.34023404030E+04 0.  0.
        4    1    3    3  502    0 -0.18477697089E+03  0.80302632791E+03 -0.74232114655E+03  0.11090699301E+04  0.12699999809E+01 0. -1.
       -4    1    3    3    0  502  0.18477697089E+03 -0.80302632791E+03  0.26854999863E+04  0.28090755778E+04  0.12699999809E+01 0.  1.
</event>
<event>
 5   0  0.2592200E-07  0.3382670E+04  0.7818609E-02  0.8142173E-01
        1   -1    0    0  501    0  0.00000000000E+00  0.00000000000E+00  0.11405292851E+04  0.11405292851E+04  0.50400001928E-02 0.  1.
       -1   -1    0    0    0  501  0.00000000000E+00  0.00000000000E+00 -0.25081463700E+04  0.25081463700E+04  0.50400001928E-02 0. -1.
    10030    2    1    2    0    0  0.00000000000E+00  0.00000000000E+00 -0.13676170849E+04  0.36486756551E+04  0.33826701798E+04 0.  0.
        4    1    3    3  502    0  0.11949269839E+04  0.98922343549E+03 -0.14107489675E+04  0.20968137172E+04  0.12699999809E+01 0. -1.
       -4    1    3    3    0  502 -0.11949269839E+04 -0.98922343549E+03  0.43131882603E+02  0.15518619379E+04  0.12699999809E+01 0.  1.
</event>
<event>
 5   0  0.7610412E-07  0.3393493E+04  0.7818609E-02  0.8139505E-01
       -2   -1    0    0    0  501  0.00000000000E+00  0.00000000000E+00  0.19612051587E+04  0.19612051587E+04  0.25500000920E-02 0.  1.
        2   -1    0    0  501    0  0.00000000000E+00  0.00000000000E+00 -0.14679484140E+04  0.14679484140E+04  0.25500000920E-02 0. -1.
    10030    2    1    2    0    0  0.00000000000E+00  0.00000000000E+00  0.49325674478E+03  0.34291535727E+04  0.33934925975E+04 0.  0.
        4    1    3    3  502    0 -0.68164663270E+03 -0.12748776885E+04 -0.65095767142E+03  0.15854661004E+04  0.12699999809E+01 0. -1.
       -4    1    3    3    0  502  0.68164663270E+03  0.12748776885E+04  0.11442144162E+04  0.18436874723E+04  0.12699999809E+01 0.  1.
</event>
<event>
 5   0  0.2622205E-07  0.3415013E+04  0.7818609E-02  0.8134232E-01
       -1   -1    0    0    0  501  0.00000000000E+00  0.00000000000E+00  0.21916786130E+04  0.21916786130E+04  0.50400001928E-02 0.  1.
        1   -1    0    0  501    0  0.00000000000E+00  0.00000000000E+00 -0.13302943584E+04  0.13302943584E+04  0.50400001928E-02 0. -1.
    10030    2    1    2    0    0  0.00000000000E+00  0.00000000000E+00  0.86138425456E+03  0.35219729714E+04  0.34150125589E+04 0.  0.
        3    1    3    3  502    0 -0.12245876216E+04 -0.90868317136E+03  0.12230375568E+04  0.19547738551E+04  0.10100000352E+00 0.  1.
       -3    1    3    3    0  502  0.12245876216E+04  0.90868317136E+03 -0.36165330226E+03  0.15671991163E+04  0.10100000352E+00 0. -1.
</event>
<event>
 5   0  0.2599367E-07  0.3397706E+04  0.7818609E-02  0.8138470E-01
       -1   -1    0    0    0  501  0.00000000000E+00  0.00000000000E+00  0.13563750555E+04  0.13563750555E+04  0.50400001928E-02 0. -1.
        1   -1    0    0  501    0  0.00000000000E+00  0.00000000000E+00 -0.21278047881E+04  0.21278047881E+04  0.50400001928E-02 0.  1.
    10030    2    1    2    0    0  0.00000000000E+00  0.00000000000E+00 -0.77142973260E+03  0.34841798436E+04  0.33977058952E+04 0.  0.
        2    1    3    3  502    0  0.99872157332E+03  0.27317358770E+03  0.99542398368E+03  0.14362929706E+04  0.25500000920E-02 0. -1.
       -2    1    3    3    0  502 -0.99872157332E+03 -0.27317358770E+03 -0.17668537163E+04  0.20478868730E+04  0.25500000920E-02 0.  1.
</event>
<event>
 5   0  0.7838333E-07  0.3393009E+04  0.7818609E-02  0.8139624E-01
        2   -1    0    0  501    0  0.00000000000E+00  0.00000000000E+00  0.23392184989E+04  0.23392184989E+04  0.25500000920E-02 0.  1.
       -2   -1    0    0    0  501  0.00000000000E+00  0.00000000000E+00 -0.12303796107E+04  0.12303796107E+04  0.25500000920E-02 0. -1.
    10030    2    1    2    0    0  0.00000000000E+00  0.00000000000E+00  0.11088388883E+04  0.35695981096E+04  0.33930085447E+04 0.  0.
        1    1    3    3  502    0  0.78155651577E+03  0.61740995987E+03 -0.89041089915E+03  0.13359854847E+04  0.50400001928E-02 0. -1.
       -1    1    3    3    0  502 -0.78155651577E+03 -0.61740995987E+03  0.19992497874E+04  0.22336126250E+04  0.50400001928E-02 0.  1.
</event>
<event>
 5   0  0.8489228E-07  0.3394712E+04  0.7818609E-02  0.8139205E-01
        2   -1    0    0  501    0  0.00000000000E+00  0.00000000000E+00  0.23917055058E+04  0.23917055058E+04  0.25500000920E-02 0.  1.
       -2   -1    0    0    0  501  0.00000000000E+00  0.00000000000E+00 -0.12045871346E+04  0.12045871346E+04  0.25500000920E-02 0. -1.
    10030    2    1    2    0    0  0.00000000000E+00  0.00000000000E+00  0.11871183712E+04  0.35962926404E+04  0.33947121716E+04 0.  0.
        3    1    3    3  502    0 -0.42187870251E+03  0.98676816390E+03 -0.79956659546E+03  0.13382824066E+04  0.10100000352E+00 0. -1.
       -3    1    3    3    0  502  0.42187870251E+03 -0.98676816390E+03  0.19866849667E+04  0.22580102338E+04  0.10100000352E+00 0.  1.
</event>
<event>
 5   0  0.7610412E-07  0.3360960E+04  0.7818609E-02  0.8147555E-01
        2   -1    0    0  501    0  0.00000000000E+00  0.00000000000E+00  0.31236103530E+04  0.31236103530E+04  0.25500000920E-02 0.  1.
       -2   -1    0    0    0  501  0.00000000000E+00  0.00000000000E+00 -0.90408611688E+03  0.90408611688E+03  0.25500000920E-02 0. -1.
    10030    2    1    2    0    0  0.00000000000E+00  0.00000000000E+00  0.22195242362E+04  0.40276964699E+04  0.33609598360E+04 0.  0.
        4    1    3    3  502    0 -0.67520096605E+02 -0.61989961204E+03  0.29798354934E+04  0.30443810000E+04  0.12699999809E+01 0.  1.
       -4    1    3    3    0  502  0.67520096605E+02  0.61989961204E+03 -0.76031125729E+03  0.98331546988E+03  0.12699999809E+01 0. -1.
</event>
<event>
 5   0  0.2641442E-07  0.3397308E+04  0.7818609E-02  0.8138567E-01
       -1   -1    0    0    0  501  0.00000000000E+00  0.00000000000E+00  0.12670650409E+04  0.12670650410E+04  0.50400001928E-02 0. -1.
        1   -1    0    0  501    0  0.00000000000E+00  0.00000000000E+00 -0.22772508827E+04  0.22772508827E+04  0.50400001928E-02 0.  1.
    10030    2    1    2    0    0  0.00000000000E+00  0.00000000000E+00 -0.10101858417E+04  0.35443159236E+04  0.33973077476E+04 0.  0.
        1    1    3    3  502    0 -0.15024377029E+04  0.16792805533E+03  0.30295882964E+03  0.15418504905E+04  0.50400001928E-02 0.  1.
       -1    1    3    3    0  502  0.15024377029E+04 -0.16792805533E+03 -0.13131446714E+04  0.20024654331E+04  0.50400001928E-02 0. -1.
</event>
<event>
 5   0  0.7610412E-07  0.3383426E+04  0.7818609E-02  0.8141986E-01
        2   -1    0    0  501    0  0.00000000000E+00  0.00000000000E+00  0.27524695691E+04  0.27524695691E+04  0.25500000920E-02 0.  1.
       -2   -1    0    0    0  501  0.00000000000E+00  0.00000000000E+00 -0.10397543081E+04  0.10397543082E+04  0.25500000920E-02 0. -1.
    10030    2    1    2    0    0  0.00000000000E+00  0.00000000000E+00  0.17127152609E+04  0.37922238772E+04  0.33834255378E+04 0.  0.
        4    1    3    3  502    0 -0.14753386575E+03  0.44675372558E+03  0.26776653909E+04  0.27186851034E+04  0.12699999809E+01 0.  1.
       -4    1    3    3    0  502  0.14753386575E+03 -0.44675372558E+03 -0.96495012993E+03  0.10735387739E+04  0.12699999809E+01 0. -1.
</event>
<event>
 5   0  0.2622205E-07  0.3406619E+04  0.7818609E-02  0.8136284E-01
       -1   -1    0    0    0  501  0.00000000000E+00  0.00000000000E+00  0.12769502157E+04  0.12769502157E+04  0.50400001928E-02 0. -1.
        1   -1    0    0  501    0  0.00000000000E+00  0.00000000000E+00 -0.22720253441E+04  0.22720253441E+04  0.50400001928E-02 0.  1.
    10030    2    1    2    0    0  0.00000000000E+00  0.00000000000E+00 -0.99507512847E+03  0.35489755598E+04  0.34066190002E+04 0.  0.
        3    1    3    3  502    0  0.16193366083E+04 -0.19678640429E+03  0.13137739348E+02  0.16313027157E+04  0.10100000352E+00 0. -1.
       -3    1    3    3    0  502 -0.16193366083E+04  0.19678640429E+03 -0.10082128678E+04  0.19176728441E+04  0.10100000352E+00 0.  1.
</event>
<event>
 5   0  0.8489228E-07  0.3392805E+04  0.7818609E-02  0.8139674E-01
        2   -1    0    0  501    0  0.00000000000E+00  0.00000000000E+00  0.15518763690E+04  0.15518763690E+04  0.25500000920E-02 0. -1.
       -2   -1    0    0    0  501  0.00000000000E+00  0.00000000000E+00 -0.18543883054E+04  0.18543883054E+04  0.25500000920E-02 0.  1.
    10030    2    1    2    0    0  0.00000000000E+00  0.00000000000E+00 -0.30251193639E+03  0.34062646743E+04  0.33928049693E+04 0.  0.
        3    1    3    3  502    0 -0.11125718880E+04 -0.12785666647E+04 -0.78633273300E+02  0.16966826821E+04  0.10100000352E+00 0. -1.
       -3    1    3    3    0  502  0.11125718880E+04  0.12785666647E+04 -0.22387866309E+03  0.17095819922E+04  0.10100000352E+00 0.  1.
</event>
<event>
 5   0  0.8489228E-07  0.3399253E+04  0.7818609E-02  0.8138090E-01
        2   -1    0    0  501    0  0.00000000000E+00  0.00000000000E+00  0.12145675288E+04  0.12145675288E+04  0.25500000920E-02 0.  1.
       -2   -1    0    0    0  501  0.00000000000E+00  0.00000000000E+00 -0.23784023326E+04  0.23784023326E+04  0.25500000920E-02 0. -1.
    10030    2    1    2    0    0  0.00000000000E+00  0.00000000000E+00 -0.11638348038E+04  0.35929698614E+04  0.33992530024E+04 0.  0.
        3    1    3    3  502    0  0.62974767853E+03  0.28381869178E+03  0.10595122550E+04  0.12647930333E+04  0.10100000352E+00 0.  1.
       -3    1    3    3    0  502 -0.62974767853E+03 -0.28381869178E+03 -0.22233470588E+04  0.23281768280E+04  0.10100000352E+00 0. -1.
</event>
<event>
 5   0  0.2592200E-07  0.3354734E+04  0.7818609E-02  0.8149106E-01
       -1   -1    0    0    0  501  0.00000000000E+00  0.00000000000E+00  0.11993128604E+04  0.11993128604E+04  0.50400001928E-02 0.  1.
        1   -1    0    0  501    0  0.00000000000E+00  0.00000000000E+00 -0.23459772049E+04  0.23459772049E+04  0.50400001928E-02 0. -1.
    10030    2    1    2    0    0  0.00000000000E+00  0.00000000000E+00 -0.11466643445E+04  0.35452900653E+04  0.33547343454E+04 0.  0.
        4    1    3    3  502    0 -0.10807689747E+04  0.30026379255E+03  0.74463982606E+03  0.13463691935E+04  0.12699999809E+01 0.  1.
       -4    1    3    3    0  502  0.10807689747E+04 -0.30026379255E+03 -0.18913041705E+04  0.21989208717E+04  0.12699999809E+01 0. -1.
</event>
<event>
 5   0  0.2641442E-07  0.3413454E+04  0.7818609E-02  0.8134612E-01
        1   -1    0    0  501    0  0.00000000000E+00  0.00000000000E+00  0.24304624081E+04  0.24304624081E+04  0.50400001928E-02 0.  1.
       -1   -1    0    0    0  501  0.00000000000E+00  0.00000000000E+00 -0.11985029425E+04  0.11985029425E+04  0.50400001928E-02 0. -1.
    10030    2    1    2    0    0  0.00000000000E+00  0.00000000000E+00  0.12319594656E+04  0.36289653506E+04  0.34134535871E+04 0.  0.
        1    1    3    3  502    0  0.61363779603E+02  0.71091076957E+03 -0.10323119774E+04  0.12549213738E+04  0.50400001928E-02 0. -1.
       -1    1    3    3    0  502 -0.61363779603E+02 -0.71091076957E+03  0.22642714431E+04  0.23740439768E+04  0.50400001928E-02 0.  1.
</event>
<event>
 5   0  0.7838333E-07  0.3393818E+04  0.7818609E-02  0.8139425E-01
       -2   -1    0    0    0  501  0.00000000000E+00  0.00000000000E+00  0.13438188247E+04  0.13438188247E+04  0.25500000920E-02 0. -1.
        2   -1    0    0  501    0  0.00000000000E+00  0.00000000000E+00 -0.21427743846E+04  0.21427743846E+04  0.25500000920E-02 0.  1.
    10030    2    1    2    0    0  0.00000000000E+00  0.00000000000E+00 -0.79895555987E+03  0.34865932093E+04  0.33938182362E+04 0.  0.
        1    1    3    3  502    0  0.60418901057E+02 -0.80830796816E+03 -0.19310322479E+04  0.20942535084E+04  0.50400001928E-02 0.  1.
       -1    1    3    3    0  502 -0.60418901057E+02  0.80830796816E+03  0.11320766881E+04  0.13923397009E+04  0.50400001928E-02 0. -1.
</event>
<event>
 5   0  0.2592200E-07  0.3403033E+04  0.7818609E-02  0.8137162E-01
       -1   -1    0    0    0  501  0.00000000000E+00  0.00000000000E+00  0.12658520249E+04  0.12658520249E+04  0.50400001928E-02 0.  1.
        1   -1    0    0  501    0  0.00000000000E+00  0.00000000000E+00 -0.22871223262E+04  0.22871223263E+04  0.50400001928E-02 0. -1.
    10030    2    1    2    0    0  0.00000000000E+00  0.00000000000E+00 -0.10212703013E+04  0.35529743512E+04  0.34030330166E+04 0.  0.
        4    1    3    3  502    0 -0.51984259525E+03 -0.81439618006E+03  0.95167643286E+03  0.13561589537E+04  0.12699999809E+01 0.  1.
       -4    1    3    3    0  502  0.51984259525E+03  0.81439618006E+03 -0.19729467342E+04  0.21968153975E+04  0.12699999809E+01 0. -1.
</event>
<event>
 5   0  0.7822003E-07  0.3413084E+04  0.7818609E-02  0.8134702E-01
        2   -1    0    0  501    0  0.00000000000E+00  0.00000000000E+00  0.22243303351E+04  0.22243303351E+04  0.25500000920E-02 0.  1.
       -2   -1    0    0    0  501  0.00000000000E+00  0.00000000000E+00 -0.13092868027E+04  0.13092868027E+04  0.25500000920E-02 0. -1.
    10030    2    1    2    0    0  0.00000000000E+00  0.00000000000E+00  0.91504353238E+03  0.35336171378E+04  0.34130844423E+04 0.  0.
        5    1    3    3  502    0  0.13796299953E+04  0.11519322626E+03 -0.57552114602E+03  0.14992981968E+04  0.46999998093E+01 0. -1.
       -5    1    3    3    0  502 -0.13796299953E+04 -0.11519322626E+03  0.14905646784E+04  0.20343189410E+04  0.46999998093E+01 0.  1.
</event>
<event>
 5   0  0.2599367E-07  0.3389478E+04  0.7818609E-02  0.8140494E-01
        1   -1    0    0  501    0  0.00000000000E+00  0.00000000000E+00  0.19807245822E+04  0.19807245822E+04  0.50400001928E-02 0. -1.
       -1   -1    0    0    0  501  0.00000000000E+00  0.00000000000E+00 -0.14500452820E+04  0.14500452820E+04  0.50400001928E-02 0.  1.
    10030    2    1    2    0    0  0.00000000000E+00  0.00000000000E+00  0.53067930026E+03  0.34307698642E+04  0.33894780338E+04 0.  0.
        2    1    3    3  502    0  0.12526952476E+03 -0.10423107921E+04  0.16119744214E+04  0.19236854671E+04  0.25500000920E-02 0. -1.
       -2    1    3    3    0  502 -0.12526952476E+03  0.10423107921E+04 -0.10812951211E+04  0.15070843971E+04  0.25500000920E-02 0.  1.
</event>
<event>
 5   0  0.2553250E-07  0.3451688E+04  0.7818609E-02  0.8125336E-01
       -1   -1    0    0    0  501  0.00000000000E+00  0.00000000000E+00  0.12172555113E+04  0.12172555113E+04  0.50400001928E-02 0.  1.
        1   -1    0    0  501    0  0.00000000000E+00  0.00000000000E+00 -0.24469290936E+04  0.24469290936E+04  0.50400001928E-02 0. -1.
    10030    2    1    2    0    0  0.00000000000E+00  0.00000000000E+00 -0.12296735823E+04  0.36641846050E+04  0.34516882391E+04 0.  0.
        5    1    3    3  502    0  0.11805142098E+04  0.67231443832E+03 -0.17447385286E+04  0.22112790703E+04  0.46999998093E+01 0. -1.
       -5    1    3    3    0  502 -0.11805142098E+04 -0.67231443832E+03  0.51506494637E+03  0.14529055346E+04  0.46999998093E+01 0.  1.
</event>
<event>
 5   0  0.2641442E-07  0.3359576E+04  0.7818609E-02  0.8147900E-01
       -1   -1    0    0    0  501  0.00000000000E+00  0.00000000000E+00  0.13958388211E+04  0.13958388211E+04  0.50400001928E-02 0. -1.
        1   -1    0    0  501    0  0.00000000000E+00  0.00000000000E+00 -0.20214992275E+04  0.20214992275E+04  0.50400001928E-02 0.  1.
    10030    2    1    2    0    0  0.00000000000E+00  0.00000000000E+00 -0.62566040644E+03  0.34173380486E+04  0.33595756271E+04 0.  0.
        1    1    3    3  502    0 -0.87340487635E+03  0.62684494584E+03 -0.16257256024E+04  0.19490393527E+04  0.50400001928E-02 0.  1.
       -1    1    3    3    0  502  0.87340487635E+03 -0.62684494584E+03  0.10000651960E+04  0.14682986959E+04  0.50400001928E-02 0. -1.
</event>
<event>
 5   0  0.7822003E-07  0.3403656E+04  0.7818609E-02  0.8137010E-01
        2   -1    0    0  501    0  0.00000000000E+00  0.00000000000E+00  0.24475034820E+04  0.24475034820E+04  0.25500000920E-02 0.  1.
       -2   -1    0    0    0  501  0.00000000000E+00  0.00000000000E+00 -0.11833360633E+04  0.11833360633E+04  0.25500000920E-02 0. -1.
    10030    2    1    2    0    0  0.00000000000E+00  0.00000000000E+00  0.12641674187E+04  0.36308395453E+04  0.34036563489E+04 0.  0.
        5    1    3    3  502    0 -0.98847456906E+03 -0.39458240621E+02  0.21092711953E+04  0.23297394686E+04  0.46999998093E+01 0.  1.
       -5    1    3    3    0  502  0.98847456906E+03  0.39458240621E+02 -0.84510377657E+03  0.13011000767E+04  0.46999998093E+01 0. -1.
</event>
<event>
 5   0  0.2599367E-07  0.3391286E+04  0.7818609E-02  0.8140048E-01
       -1   -1    0    0    0  501  0.00000000000E+00  0.00000000000E+00  0.13884257748E+04  0.13884257749E+04  0.50400001928E-02 0. -1.
        1   -1    0    0  501    0  0.00000000000E+00  0.00000000000E+00 -0.20708379042E+04  0.20708379042E+04  0.50400001928E-02 0.  1.
    10030    2    1    2    0    0  0.00000000000E+00  0.00000000000E+00 -0.68241212933E+03  0.34592636790E+04  0.33912857277E+04 0.  0.
        2    1    3    3  502    0  0.21330095984E+03  0.16607909167E+04 -0.68487656770E+02  0.16758324282E+04  0.25500000920E-02 0. -1.
       -2    1    3    3    0  502 -0.21330095984E+03 -0.16607909167E+04 -0.61392447256E+03  0.17834312508E+04  0.25500000920E-02 0.  1.
</event>
<event>
 5   0  0.2622205E-07  0.3372757E+04  0.7818609E-02  0.8144625E-01
       -1   -1    0    0    0  501  0.00000000000E+00  0.00000000000E+00  0.98298134534E+03  0.98298134536E+03  0.50400001928E-02 0.  1.
        1   -1    0    0  501    0  0.00000000000E+00  0.00000000000E+00 -0.28931098273E+04  0.28931098273E+04  0.50400001928E-02 0. -1.
    10030    2    1    2    0    0  0.00000000000E+00  0.00000000000E+00 -0.19101284819E+04  0.38760911726E+04  0.33727573232E+04 0.  0.
        3    1    3    3  502    0  0.75375504445E+02 -0.16810570956E+04 -0.82792665563E+03  0.18753924876E+04  0.10100000352E+00 0. -1.
       -3    1    3    3    0  502 -0.75375504445E+02  0.16810570956E+04 -0.10822018263E+04  0.20006986850E+04  0.10100000352E+00 0.  1.
</event>
<event>
 5   0  0.8489228E-07  0.3399075E+04  0.7818609E-02  0.8138133E-01
       -2   -1    0    0    0  501  0.00000000000E+00  0.00000000000E+00  0.12324034851E+04  0.12324034851E+04  0.25500000920E-02 0.  1.
        2   -1    0    0  501    0  0.00000000000E+00  0.00000000000E+00 -0.23437357075E+04  0.23437357075E+04  0.25500000920E-02 0. -1.
    10030    2    1    2    0    0  0.00000000000E+00  0.00000000000E+00 -0.11113322224E+04  0.35761391926E+04  0.33990752001E+04 0.  0.
        3    1    3    3  502    0 -0.39439352526E+02  0.16772218213E+04 -0.26985409810E+03  0.16992497594E+04  0.10100000352E+00 0.  1.
       -3    1    3    3    0  502  0.39439352526E+02 -0.16772218213E+04 -0.84147812430E+03  0.18768894332E+04  0.10100000352E+00 0. -1.
</event>
<event>
 5   0  0.7822003E-07  0.3398071E+04  0.7818609E-02  0.8138380E-01
        2   -1    0    0  501    0  0.00000000000E+00  0.00000000000E+00  0.23953664992E+04  0.23953664993E+04  0.25500000920E-02 0. -1.
       -2   -1    0    0    0  501  0.00000000000E+00  0.00000000000E+00 -0.12051273165E+04  0.12051273165E+04  0.25500000920E-02 0.  1.
    10030    2    1    2    0    0  0.00000000000E+00  0.00000000000E+00  0.11902391827E+04  0.36004938158E+04  0.33980709830E+04 0.  0.
        5    1    3    3  502    0 -0.14183918140E+04 -0.40867524542E+03  0.14865754576E+04  0.20949414015E+04  0.46999998093E+01 0. -1.
       -5    1    3    3    0  502  0.14183918140E+04  0.40867524542E+03 -0.29633627492E+03  0.15055524143E+04  0.46999998093E+01 0.  1.
</event>
<event>
 5   0  0.7838333E-07  0.3404870E+04  0.7818609E-02  0.8136712E-01
       -2   -1    0    0    0  501  0.00000000000E+00  0.00000000000E+00  0.17831508402E+04  0.17831508402E+04  0.25500000920E-02 0. -1.
        2   -1    0    0  501    0  0.00000000000E+00  0.00000000000E+00 -0.16253729324E+04  0.16253729324E+04  0.25500000920E-02 0.  1.
    10030    2    1    2    0    0  0.00000000000E+00  0.00000000000E+00  0.15777790779E+03  0.34085237726E+04  0.34048701062E+04 0.  0.
        1    1    3    3  502    0 -0.67663889355E+03 -0.13943449674E+04 -0.62631500055E+03  0.16716185451E+04  0.50400001928E-02 0.  1.
       -1    1    3    3    0  502  0.67663889355E+03  0.13943449674E+04  0.78409290834E+03  0.17369052275E+04  0.50400001928E-02 0. -1.
</event>
<event>
 5   0  0.2592200E-07  0.3321360E+04  0.7818609E-02  0.8157482E-01
        1   -1    0    0  501    0  0.00000000000E+00  0.00000000000E+00  0.12184630764E+04  0.12184630764E+04  0.50400001928E-02 0. -1.
       -1   -1    0    0    0  501  0.00000000000E+00  0.00000000000E+00 -0.22633903680E+04  0.22633903680E+04  0.50400001928E-02 0.  1.
    10030    2    1    2    0    0  0.00000000000E+00  0.00000000000E+00 -0.10449272916E+04  0.34818534444E+04  0.33213597160E+04 0.  0.
        4    1    3    3  502    0 -0.32392209429E+03 -0.27054808764E+03 -0.22062308754E+04  0.22462364255E+04  0.12699999809E+01 0.  1.
       -4    1    3    3    0  502  0.32392209429E+03  0.27054808764E+03  0.11613035837E+04  0.12356170189E+04  0.12699999809E+01 0. -1.
</event>
<event>
 5   0  0.2553250E-07  0.3399916E+04  0.7818609E-02  0.8137927E-01
       -1   -1    0    0    0  501  0.00000000000E+00  0.00000000000E+00  0.19546743387E+04  0.19546743387E+04  0.50400001928E-02 0. -1.
        1   -1    0    0  501    0  0.00000000000E+00  0.00000000000E+00 -0.14784344904E+04  0.14784344904E+04  0.50400001928E-02 0.  1.
    10030    2    1    2    0    0  0.00000000000E+00  0.00000000000E+00  0.47623984828E+03  0.34331088291E+04  0.33999164459E+04 0.  0.
        5    1    3    3  502    0 -0.58706210242E+03  0.63797995475E+03 -0.12384057552E+04  0.15117312060E+04  0.46999998093E+01 0.  1.
       -5    1    3    3    0  502  0.58706210242E+03 -0.63797995475E+03  0.17146456035E+04  0.19213776230E+04  0.46999998093E+01 0. -1.
</event>
<event>
 5   0  0.2641442E-07  0.3397142E+04  0.7818609E-02  0.8138608E-01
       -1   -1    0    0    0  501  0.00000000000E+00  0.00000000000E+00  0.20562803627E+04  0.20562803627E+04  0.50400001928E-02 0.  1.
        1   -1    0    0  501    0  0.00000000000E+00  0.00000000000E+00 -0.14030888792E+04  0.14030888792E+04  0.50400001928E-02 0. -1.
    10030    2    1    2    0    0  0.00000000000E+00  0.00000000000E+00  0.65319148356E+03  0.34593692419E+04  0.33971423929E+04 0.  0.
        1    1    3    3  502    0  0.25781034096E+03  0.28486442212E+02 -0.13828029714E+04  0.14069192255E+04  0.50400001928E-02 0. -1.
       -1    1    3    3    0  502 -0.25781034096E+03 -0.28486442212E+02  0.20359944550E+04  0.20524500164E+04  0.50400001928E-02 0.  1.
</event>
<event>
 5   0  0.7899402E-07  0.3394557E+04  0.7818609E-02  0.8139244E-01
       -2   -1    0    0    0  501  0.00000000000E+00  0.00000000000E+00  0.18344818152E+04  0.18344818153E+04  0.25500000920E-02 0.  1.
        2   -1    0    0  501    0  0.00000000000E+00  0.00000000000E+00 -0.15703364183E+04  0.15703364183E+04  0.25500000920E-02 0. -1.
    10030    2    1    2    0    0  0.00000000000E+00  0.00000000000E+00  0.26414539696E+03  0.34048182335E+04  0.33945565856E+04 0.  0.
        2    1    3    3  502    0  0.48781997829E+03 -0.25776272453E+03  0.17420241327E+04  0.18273089591E+04  0.25500000920E-02 0.  1.
       -2    1    3    3    0  502 -0.48781997829E+03  0.25776272453E+03 -0.14778787357E+04  0.15775092744E+04  0.25500000920E-02 0. -1.
</event>
<event>
 5   0  0.2622205E-07  0.3413786E+04  0.7818609E-02  0.8134531E-01
        1   -1    0    0  501    0  0.00000000000E+00  0.00000000000E+00  0.18908524326E+04  0.18908524326E+04  0.50400001928E-02 0. -1.
       -1   -1    0    0    0  501  0.00000000000E+00  0.00000000000E+00 -0.15408308260E+04  0.15408308260E+04  0.50400001928E-02 0.  1.
    10030    2    1    2    0    0  0.00000000000E+00  0.00000000000E+00  0.35002160657E+03  0.34316832586E+04  0.34137860013E+04 0.  0.
        3    1    3    3  502    0  0.72952288721E+03  0.14976605459E+04  0.54883802739E+03  0.17539709075E+04  0.10100000352E+00 0.  1.
       -3    1    3    3    0  502 -0.72952288721E+03 -0.14976605459E+04 -0.19881642082E+03  0.16777123511E+04  0.10100000352E+00 0. -1.
</event>
<event>
 5   0  0.2599367E-07  0.3368174E+04  0.7818609E-02  0.8145762E-01
        1   -1    0    0  501    0  0.00000000000E+00  0.00000000000E+00  0.12557843482E+04  0.12557843482E+04  0.50400001928E-02 0.  1.
       -1   -1    0    0    0  501  0.00000000000E+00  0.00000000000E+00 -0.22584687880E+04  0.22584687880E+04  0.50400001928E-02 0. -1.
    10030    2    1    2    0    0  0.00000000000E+00  0.00000000000E+00 -0.10026844398E+04  0.35142531362E+04  0.33681744343E+04 0.  0.
        2    1    3    3  502    0 -0.10373257537E+04  0.68240367682E+03 -0.16884162230E+04  0.20958217576E+04  0.25500000920E-02 0. -1.
       -2    1    3    3    0  502  0.10373257537E+04 -0.68240367682E+03  0.68573178326E+03  0.14184313787E+04  0.25500000920E-02 0.  1.
</event>
<event>
 5   0  0.2592200E-07  0.3419007E+04  0.7818609E-02  0.8133257E-01
        1   -1    0    0  501    0  0.00000000000E+00  0.00000000000E+00  0.23498969163E+04  0.23498969163E+04  0.50400001928E-02 0.  1.
       -1   -1    0    0    0  501  0.00000000000E+00  0.00000000000E+00 -0.12436298722E+04  0.12436298722E+04  0.50400001928E-02 0. -1.
    10030    2    1    2    0    0  0.00000000000E+00  0.00000000000E+00  0.11062670442E+04  0.35935267885E+04  0.34190068743E+04 0.  0.
        4    1    3    3  502    0  0.42132867599E+03  0.15614260518E+02  0.22943930526E+04  0.23328100546E+04  0.12699999809E+01 0.  1.
       -4    1    3    3    0  502 -0.42132867599E+03 -0.15614260518E+02 -0.11881260084E+04  0.12607167339E+04  0.12699999809E+01 0. -1.
</event>
<event>
 5   0  0.7838333E-07  0.3401897E+04  0.7818609E-02  0.8137441E-01
        2   -1    0    0  501    0  0.00000000000E+00  0.00000000000E+00  0.18928847379E+04  0.18928847379E+04  0.25500000920E-02 0. -1.
       -2   -1    0    0    0  501  0.00000000000E+00  0.00000000000E+00 -0.15284746470E+04  0.15284746470E+04  0.25500000920E-02 0.  1.
    10030    2    1    2    0    0  0.00000000000E+00  0.00000000000E+00  0.36441009092E+03  0.34213593848E+04  0.34018973127E+04 0.  0.
        1    1    3    3  502    0 -0.27670845946E+03  0.34428114080E+03 -0.14697904961E+04  0.15347251148E+04  0.50400001928E-02 0.  1.
       -1    1    3    3    0  502  0.27670845946E+03 -0.34428114080E+03  0.18342005870E+04  0.18866342701E+04  0.50400001928E-02 0. -1.
</event>
<event>
 5   0  0.8489228E-07  0.3455014E+04  0.7818609E-02  0.8124535E-01
        2   -1    0    0  501    0  0.00000000000E+00  0.00000000000E+00  0.18235222837E+04  0.18235222837E+04  0.25500000920E-02 0.  1.
       -2   -1    0    0    0  501  0.00000000000E+00  0.00000000000E+00 -0.16365472754E+04  0.16365472754E+04  0.25500000920E-02 0. -1.
    10030    2    1    2    0    0  0.00000000000E+00  0.00000000000E+00  0.18697500827E+03  0.34600695590E+04  0.34550139941E+04 0.  0.
        3    1    3    3  502    0  0.11709491847E+04 -0.11737533238E+04 -0.39246634236E+03  0.17037748379E+04  0.10100000352E+00 0. -1.
       -3    1    3    3    0  502 -0.11709491847E+04  0.11737533238E+04  0.57944135063E+03  0.17562947211E+04  0.10100000352E+00 0.  1.
</event>
<event>
 5   0  0.2599367E-07  0.3403376E+04  0.7818609E-02  0.8137078E-01
       -1   -1    0    0    0  501  0.00000000000E+00  0.00000000000E+00  0.12350962950E+04  0.12350962950E+04  0.50400001928E-02 0. -1.
        1   -1    0    0  501    0  0.00000000000E+00  0.00000000000E+00 -0.23445473199E+04  0.23445473199E+04  0.50400001928E-02 0.  1.
    10030    2    1    2    0    0  0.00000000000E+00  0.00000000000E+00 -0.11094510249E+04  0.35796436149E+04  0.34033757996E+04 0.  0.
        2    1    3    3  502    0  0.21833252774E+01  0.48992088568E+03 -0.22687640189E+04  0.23210595457E+04  0.25500000920E-02 0.  1.
       -2    1    3    3    0  502 -0.21833252774E+01 -0.48992088568E+03  0.11593129940E+04  0.12585840692E+04  0.25500000920E-02 0. -1.
</event>
<event>
 5   0  0.2553250E-07  0.3391214E+04  0.7818609E-02  0.8140066E-01
        1   -1    0    0  501    0  0.00000000000E+00  0.00000000000E+00  0.18811001576E+04  0.18811001576E+04  0.50400001928E-02 0.  1.
       -1   -1    0    0    0  501  0.00000000000E+00  0.00000000000E+00 -0.15284049478E+04  0.15284049478E+04  0.50400001928E-02 0. -1.
    10030    2    1    2    0    0  0.00000000000E+00  0.00000000000E+00  0.35269520975E+03  0.34095051054E+04  0.33912138171E+04 0.  0.
        5    1    3    3  502    0 -0.33652089920E+03 -0.14151244423E+04  0.10523895689E+04  0.17953744450E+04  0.46999998093E+01 0.  1.
       -5    1    3    3    0  502  0.33652089920E+03  0.14151244423E+04 -0.69969435913E+03  0.16141306605E+04  0.46999998093E+01 0. -1.
</event>
<event>
 5   0  0.7822003E-07  0.3541456E+04  0.7818609E-02  0.8104035E-01
        2   -1    0    0  501    0  0.00000000000E+00  0.00000000000E+00  0.25699299756E+04  0.25699299756E+04  0.25500000920E-02 0. -1.
       -2   -1    0    0    0  501  0.00000000000E+00  0.00000000000E+00 -0.12200632118E+04  0.12200632118E+04  0.25500000920E-02 0.  1.
    10030    2    1    2    0    0  0.00000000000E+00  0.00000000000E+00  0.13498667638E+04  0.37899931874E+04  0.35414556443E+04 0.  0.
        5    1    3    3  502    0  0.79151096127E+03  0.11844085979E+04 -0.45060934427E+03  0.14941165282E+04  0.46999998093E+01 0.  1.
       -5    1    3    3    0  502 -0.79151096127E+03 -0.11844085979E+04  0.18004761081E+04  0.22958766592E+04  0.46999998093E+01 0. -1.
</event>
<event>
 5   0  0.7838333E-07  0.3409223E+04  0.7818609E-02  0.8135646E-01
        2   -1    0    0  501    0  0.00000000000E+00  0.00000000000E+00  0.19107293722E+04  0.19107293722E+04  0.25500000920E-02 0. -1.
       -2   -1    0    0    0  501  0.00000000000E+00  0.00000000000E+00 -0.15207284356E+04  0.15207284356E+04  0.25500000920E-02 0.  1.
    10030    2    1    2    0    0  0.00000000000E+00  0.00000000000E+00  0.39000093662E+03  0.34314578077E+04  0.34092230722E+04 0.  0.
        1    1    3    3  502    0  0.25015642090E+03  0.14740070805E+04 -0.62913473952E+03  0.16220621532E+04  0.50400001928E-02 0.  1.
       -1    1    3    3    0  502 -0.25015642090E+03 -0.14740070805E+04  0.10191356761E+04  0.18093956546E+04  0.50400001928E-02 0. -1.
</event>
<event>
 5   0  0.2553250E-07  0.3366327E+04  0.7818609E-02  0.8146221E-01
        3   -1    0    0  501    0  0.00000000000E+00  0.00000000000E+00  0.21152867030E+04  0.21152867054E+04  0.10100000352E+00 0.  1.
       -3   -1    0    0    0  501  0.00000000000E+00  0.00000000000E+00 -0.13393166995E+04  0.13393167034E+04  0.10100000352E+00 0. -1.
    10030    2    1    2    0    0  0.00000000000E+00  0.00000000000E+00  0.77597000343E+03  0.34546034087E+04  0.33663266724E+04 0.  0.
        2    1    3    3  502    0 -0.12422783838E+04 -0.69963067406E+03  0.13060393441E+04  0.19335142697E+04  0.25500000920E-02 0.  1.
       -2    1    3    3    0  502  0.12422783838E+04  0.69963067406E+03 -0.53006934071E+03  0.15210891390E+04  0.25500000920E-02 0. -1.
</event>
<event>
 5   0  0.2592200E-07  0.3432074E+04  0.7818609E-02  0.8130079E-01
       -1   -1    0    0    0  501  0.00000000000E+00  0.00000000000E+00  0.23924534028E+04  0.23924534028E+04  0.50400001928E-02 0. -1.
        1   -1    0    0  501    0  0.00000000000E+00  0.00000000000E+00 -0.12308630811E+04  0.12308630811E+04  0.50400001928E-02 0.  1.
    10030    2    1    2    0    0  0.00000000000E+00  0.00000000000E+00  0.11615903217E+04  0.36233164839E+04  0.34320737560E+04 0.  0.
        4    1    3    3  502    0 -0.67043300258E+03  0.11531122364E+04  0.17206000645E+04  0.21770655561E+04  0.12699999809E+01 0. -1.
       -4    1    3    3    0  502  0.67043300258E+03 -0.11531122364E+04 -0.55900974283E+03  0.14462509278E+04  0.12699999809E+01 0.  1.
</event>
<event>
 5   0  0.7610412E-07  0.3377318E+04  0.7818609E-02  0.8143496E-01
       -2   -1    0    0    0  501  0.00000000000E+00  0.00000000000E+00  0.18749060895E+04  0.18749060895E+04  0.25500000920E-02 0.  1.
        2   -1    0    0  501    0  0.00000000000E+00  0.00000000000E+00 -0.15209133663E+04  0.15209133663E+04  0.25500000920E-02 0. -1.
    10030    2    1    2    0    0  0.00000000000E+00  0.00000000000E+00  0.35399272318E+03  0.33958194557E+04  0.33773183042E+04 0.  0.
        4    1    3    3  502    0  0.40300748948E+03  0.76993701183E+02  0.18240249916E+04  0.18696020565E+04  0.12699999809E+01 0.  1.
       -4    1    3    3    0  502 -0.40300748948E+03 -0.76993701183E+02 -0.14700322685E+04  0.15262173993E+04  0.12699999809E+01 0. -1.
</event>
<event>
 5   0  0.7838333E-07  0.3345858E+04  0.7818609E-02  0.8151324E-01
       -2   -1    0    0    0  501  0.00000000000E+00  0.00000000000E+00  0.17670279038E+04  0.17670279038E+04  0.25500000920E-02 0.  1.
        2   -1    0    0  501    0  0.00000000000E+00  0.00000000000E+00 -0.15838408501E+04  0.15838408501E+04  0.25500000920E-02 0. -1.
    10030    2    1    2    0    0  0.00000000000E+00  0.00000000000E+00  0.18318705366E+03  0.33508687539E+04  0.33458577240E+04 0.  0.
        1    1    3    3  502    0  0.11931012763E+04 -0.49391967657E+03  0.11567858561E+04  0.17336668709E+04  0.50400001928E-02 0.  1.
       -1    1    3    3    0  502 -0.11931012763E+04  0.49391967657E+03 -0.97359880240E+03  0.16172018830E+04  0.50400001928E-02 0. -1.
</event>
<event>
 5   0  0.7822003E-07  0.3409887E+04  0.7818609E-02  0.8135484E-01
       -2   -1    0    0    0  501  0.00000000000E+00  0.00000000000E+00  0.23715011355E+04  0.23715011355E+04  0.25500000920E-02 0. -1.
        2   -1    0    0  501    0  0.00000000000E+00  0.00000000000E+00 -0.12257353222E+04  0.12257353222E+04  0.25500000920E-02 0.  1.
    10030    2    1    2    0    0  0.00000000000E+00  0.00000000000E+00  0.11457658133E+04  0.35972364577E+04  0.34098872172E+04 0.  0.
        5    1    3    3  502    0  0.16009458771E+04  0.48166384592E+03  0.22017388097E+03  0.16862758937E+04  0.46999998093E+01 0.  1.
       -5    1    3    3    0  502 -0.16009458771E+04 -0.48166384592E+03  0.92559193236E+03  0.19109605640E+04  0.46999998093E+01 0. -1.
</event>
<event>
 5   0  0.7822003E-07  0.3407674E+04  0.7818609E-02  0.8136025E-01
        2   -1    0    0  501    0  0.00000000000E+00  0.00000000000E+00  0.17386612195E+04  0.17386612195E+04  0.25500000920E-02 0.  1.
       -2   -1    0    0    0  501  0.00000000000E+00  0.00000000000E+00 -0.16697100857E+04  0.16697100857E+04  0.25500000920E-02 0. -1.
    10030    2    1    2    0    0  0.00000000000E+00  0.00000000000E+00  0.68951133799E+02  0.34083713051E+04  0.34076737953E+04 0.  0.
        5    1    3    3  502    0  0.13220455809E+04  0.96777583361E+03  0.50216458553E+03  0.17136469715E+04  0.46999998093E+01 0.  1.
       -5    1    3    3    0  502 -0.13220455809E+04 -0.96777583361E+03 -0.43321345173E+03  0.16947243336E+04  0.46999998093E+01 0. -1.
</event>
<event>
 5   0  0.7822003E-07  0.3390407E+04  0.7818609E-02  0.8140265E-01
        2   -1    0    0  501    0  0.00000000000E+00  0.00000000000E+00  0.16673652158E+04  0.16673652158E+04  0.25500000920E-02 0.  1.
       -2   -1    0    0    0  501  0.00000000000E+00  0.00000000000E+00 -0.17235067884E+04  0.17235067884E+04  0.25500000920E-02 0. -1.
    10030    2    1    2    0    0  0.00000000000E+00  0.00000000000E+00 -0.56141572681E+02  0.33908720042E+04  0.33904072134E+04 0.  0.
        5    1    3    3  502    0 -0.11835992006E+03 -0.16877434428E+04  0.77802966516E+02  0.16936830846E+04  0.46999998093E+01 0. -1.
       -5    1    3    3    0  502  0.11835992006E+03  0.16877434428E+04 -0.13394453920E+03  0.16971889196E+04  0.46999998093E+01 0.  1.
</event>
<event>
 5   0  0.2553250E-07  0.3378690E+04  0.7818609E-02  0.8143156E-01
        1   -1    0    0  501    0  0.00000000000E+00  0.00000000000E+00  0.15998578151E+04  0.15998578151E+04  0.50400001928E-02 0. -1.
       -1   -1    0    0    0  501  0.00000000000E+00  0.00000000000E+00 -0.17838377023E+04  0.17838377023E+04  0.50400001928E-02 0.  1.
    10030    2    1    2    0    0  0.00000000000E+00  0.00000000000E+00 -0.18397988722E+03  0.33836955175E+04  0.33786900947E+04 0.  0.
        5    1    3    3  502    0 -0.15016172014E+04 -0.34391256009E+02  0.68234865066E+03  0.16497450558E+04  0.46999998093E+01 0. -1.
       -5    1    3    3    0  502  0.15016172014E+04  0.34391256009E+02 -0.86632853788E+03  0.17339504617E+04  0.46999998093E+01 0.  1.
</event>
<event>
 5   0  0.7838333E-07  0.3473691E+04  0.7818609E-02  0.8120053E-01
        2   -1    0    0  501    0  0.00000000000E+00  0.00000000000E+00  0.20706140365E+04  0.20706140365E+04  0.25500000920E-02 0. -1.
       -2   -1    0    0    0  501  0.00000000000E+00  0.00000000000E+00 -0.14568784187E+04  0.14568784187E+04  0.25500000920E-02 0.  1.
    10030    2    1    2    0    0  0.00000000000E+00  0.00000000000E+00  0.61373561783E+03  0.35274924551E+04  0.34736913525E+04 0.  0.
        1    1    3    3  502    0  0.15705083583E+04 -0.45681127266E+03 -0.28652830178E+03  0.16605033906E+04  0.50400001928E-02 0.  1.
       -1    1    3    3    0  502 -0.15705083583E+04  0.45681127266E+03  0.90026391960E+03  0.18669890646E+04  0.50400001928E-02 0. -1.
</event>
<event>
 5   0  0.2599367E-07  0.3429709E+04  0.7818609E-02  0.8130653E-01
        1   -1    0    0  501    0  0.00000000000E+00  0.00000000000E+00  0.19820877401E+04  0.19820877401E+04  0.50400001928E-02 0. -1.
       -1   -1    0    0    0  501  0.00000000000E+00  0.00000000000E+00 -0.14836504001E+04  0.14836504001E+04  0.50400001928E-02 0.  1.
    10030    2    1    2    0    0  0.00000000000E+00  0.00000000000E+00  0.49843733995E+03  0.34657381402E+04  0.34297085991E+04 0.  0.
        2    1    3    3  502    0  0.14985433706E+04  0.82881824221E+03  0.15797416070E+03  0.17197464196E+04  0.25500000920E-02 0.  1.
       -2    1    3    3    0  502 -0.14985433706E+04 -0.82881824221E+03  0.34046317925E+03  0.17459917207E+04  0.25500000920E-02 0. -1.
</event>
<event>
 5   0  0.2599367E-07  0.3405240E+04  0.7818609E-02  0.8136622E-01
       -1   -1    0    0    0  501  0.00000000000E+00  0.00000000000E+00  0.12972487353E+04  0.12972487353E+04  0.50400001928E-02 0. -1.
        1   -1    0    0  501    0  0.00000000000E+00  0.00000000000E+00 -0.22346633378E+04  0.22346633378E+04  0.50400001928E-02 0.  1.
    10030    2    1    2    0    0  0.00000000000E+00  0.00000000000E+00 -0.93741460248E+03  0.35319120731E+04  0.34052396032E+04 0.  0.
        2    1    3    3  502    0  0.10370612312E+04 -0.11422411759E+04  0.27829460130E+03  0.15676921848E+04  0.25500000920E-02 0. -1.
       -2    1    3    3    0  502 -0.10370612312E+04  0.11422411759E+04 -0.12157092038E+04  0.19642198883E+04  0.25500000920E-02 0.  1.
</event>
<event>
 5   0  0.2622205E-07  0.3309065E+04  0.7818609E-02  0.8160593E-01
       -1   -1    0    0    0  501  0.00000000000E+00  0.00000000000E+00  0.13088212511E+04  0.13088212511E+04  0.50400001928E-02 0. -1.
        1   -1    0    0  501    0  0.00000000000E+00  0.00000000000E+00 -0.20915598601E+04  0.20915598601E+04  0.50400001928E-02 0.  1.
    10030    2    1    2    0    0  0.00000000000E+00  0.00000000000E+00 -0.78273860900E+03  0.34003811112E+04  0.33090651205E+04 0.  0.
        3    1    3    3  502    0 -0.81420339300E+03 -0.12905673718E+04  0.26579938151E+03  0.15489159525E+04  0.10100000352E+00 0. -1.
       -3    1    3    3    0  502  0.81420339300E+03  0.12905673718E+04 -0.10485379905E+04  0.18514651588E+04  0.10100000352E+00 0.  1.
</event>
<event>
 5   0  0.7838333E-07  0.3335913E+04  0.7818609E-02  0.8153817E-01
        2   -1    0    0  501    0  0.00000000000E+00  0.00000000000E+00  0.25112291526E+04  0.25112291526E+04  0.25500000920E-02 0. -1.
       -2   -1    0    0    0  501  0.00000000000E+00  0.00000000000E+00 -0.11078551521E+04  0.11078551521E+04  0.25500000920E-02 0.  1.
    10030    2    1    2    0    0  0.00000000000E+00  0.00000000000E+00  0.14033740006E+04  0.36190843047E+04  0.33359125617E+04 0.  0.
        1    1    3    3  502    0  0.12221523589E+04  0.78289016913E+03  0.15933448651E+04  0.21553007364E+04  0.50400001928E-02 0. -1.
       -1    1    3    3    0  502 -0.12221523589E+04 -0.78289016913E+03 -0.18997086453E+03  0.14637835683E+04  0.50400001928E-02 0.  1.
</event>
<event>
 5   0  0.2592200E-07  0.3405858E+04  0.7818609E-02  0.8136470E-01
       -1   -1    0    0    0  501  0.00000000000E+00  0.00000000000E+00  0.15503535761E+04  0.15503535761E+04  0.50400001928E-02 0.  1.
        1   -1    0    0  501    0  0.00000000000E+00  0.00000000000E+00 -0.18705203683E+04  0.18705203683E+04  0.50400001928E-02 0. -1.
    10030    2    1    2    0    0  0.00000000000E+00  0.00000000000E+00 -0.32016679225E+03  0.34208739444E+04  0.34058584481E+04 0.  0.
        4    1    3    3  502    0 -0.11224989051E+04 -0.12483641580E+04  0.12674426961E+03  0.16835921673E+04  0.12699999809E+01 0.  1.
       -4    1    3    3    0  502  0.11224989051E+04  0.12483641580E+04 -0.44691106185E+03  0.17372817771E+04  0.12699999809E+01 0. -1.
</event>
<event>
 5   0  0.2592200E-07  0.3403530E+04  0.7818609E-02  0.8137040E-01
       -1   -1    0    0    0  501  0.00000000000E+00  0.00000000000E+00  0.16663472897E+04  0.16663472897E+04  0.50400001928E-02 0. -1.
        1   -1    0    0  501    0  0.00000000000E+00  0.00000000000E+00 -0.17379358196E+04  0.17379358196E+04  0.50400001928E-02 0.  1.
    10030    2    1    2    0    0  0.00000000000E+00  0.00000000000E+00 -0.71588529889E+02  0.34042831094E+04  0.34035303100E+04 0.  0.
        4    1    3    3  502    0 -0.13162084356E+04  0.18958805231E+03 -0.10979400379E+04  0.17244773746E+04  0.12699999809E+01 0.  1.
       -4    1    3    3    0  502  0.13162084356E+04 -0.18958805231E+03  0.10263515081E+04  0.16798057348E+04  0.12699999809E+01 0. -1.
</event>
<event>
 5   0  0.2553250E-07  0.3424948E+04  0.7818609E-02  0.8131810E-01
       -1   -1    0    0    0  501  0.00000000000E+00  0.00000000000E+00  0.11026048525E+04  0.11026048526E+04  0.50400001928E-02 0.  1.
        1   -1    0    0  501    0  0.00000000000E+00  0.00000000000E+00 -0.26596713451E+04  0.26596713452E+04  0.50400001928E-02 0. -1.
    10030    2    1    2    0    0  0.00000000000E+00  0.00000000000E+00 -0.15570664926E+04  0.37622761977E+04  0.34249476092E+04 0.  0.
        5    1    3    3  502    0 -0.14316062189E+04 -0.19112659538E+03 -0.17892163854E+04  0.22994223416E+04  0.46999998093E+01 0. -1.
       -5    1    3    3    0  502  0.14316062189E+04  0.19112659538E+03  0.23214989276E+03  0.14628538561E+04  0.46999998093E+01 0.  1.
</event>
<event>
 5   0  0.7899402E-07  0.3397849E+04  0.7818609E-02  0.8138434E-01
       -2   -1    0    0    0  501  0.00000000000E+00  0.00000000000E+00  0.15136974655E+04  0.15136974655E+04  0.25500000920E-02 0. -1.
        2   -1    0    0  501    0  0.00000000000E+00  0.00000000000E+00 -0.19068175981E+04  0.19068175981E+04  0.25500000920E-02 0.  1.
    10030    2    1    2    0    0  0.00000000000E+00  0.00000000000E+00 -0.39312013263E+03  0.34205150636E+04  0.33978492994E+04 0.  0.
        2    1    3    3  502    0 -0.10206068754E+04 -0.35551796564E+03  0.11230286740E+04  0.15585970681E+04  0.25500000920E-02 0. -1.
       -2    1    3    3    0  502  0.10206068754E+04  0.35551796564E+03 -0.15161488066E+04  0.18619179955E+04  0.25500000920E-02 0.  1.
</event>
<event>
 5   0  0.7610412E-07  0.3376119E+04  0.7818609E-02  0.8143792E-01
       -2   -1    0    0    0  501  0.00000000000E+00  0.00000000000E+00  0.10078330250E+04  0.10078330250E+04  0.25500000920E-02 0. -1.
        2   -1    0    0  501    0  0.00000000000E+00  0.00000000000E+00 -0.28273978003E+04  0.28273978003E+04  0.25500000920E-02 0.  1.
    10030    2    1    2    0    0  0.00000000000E+00  0.00000000000E+00 -0.18195647753E+04  0.38352308253E+04  0.33761190015E+04 0.  0.
        4    1    3    3  502    0 -0.12606313329E+04 -0.11065170493E+04 -0.69432786530E+03  0.18153964127E+04  0.12699999809E+01 0.  1.
       -4    1    3    3    0  502  0.12606313329E+04  0.11065170493E+04 -0.11252369100E+04  0.20198344126E+04  0.12699999809E+01 0. -1.
</event>
<event>
 5   0  0.7822003E-07  0.3393800E+04  0.7818609E-02  0.8139430E-01
        2   -1    0    0  501    0  0.00000000000E+00  0.00000000000E+00  0.26081016749E+04  0.26081016749E+04  0.25500000920E-02 0.  1.
       -2   -1    0    0    0  501  0.00000000000E+00  0.00000000000E+00 -0.11040482751E+04  0.11040482751E+04  0.25500000920E-02 0. -1.
    10030    2    1    2    0    0  0.00000000000E+00  0.00000000000E+00  0.15040533999E+04  0.37121499500E+04  0.33938003215E+04 0.  0.
        5    1    3    3  502    0  0.10840763260E+04 -0.65493249386E+03  0.19872449621E+04  0.23565488922E+04  0.46999998093E+01 0.  1.
       -5    1    3    3    0  502 -0.10840763260E+04  0.65493249386E+03 -0.48319156224E+03  0.13556010578E+04  0.46999998093E+01 0. -1.
</event>
<event>
 5   0  0.8489228E-07  0.3382217E+04  0.7818609E-02  0.8142285E-01
        2   -1    0    0  501    0  0.00000000000E+00  0.00000000000E+00  0.15840639055E+04  0.15840639055E+04  0.25500000920E-02 0. -1.
       -2   -1    0    0    0  501  0.00000000000E+00  0.00000000000E+00 -0.18053868955E+04  0.18053868955E+04  0.25500000920E-02 0.  1.
    10030    2    1    2    0    0  0.00000000000E+00  0.00000000000E+00 -0.22132298997E+03  0.33894508010E+04  0.33822171525E+04 0.  0.
        3    1    3    3  502    0  0.13828766797E+04  0.51660740531E+03  0.71609814926E+03  0.16407399830E+04  0.10100000352E+00 0. -1.
       -3    1    3    3    0  502 -0.13828766797E+04 -0.51660740531E+03 -0.93742113924E+03  0.17487108180E+04  0.10100000352E+00 0.  1.
</event>
<event>
 5   0  0.7822003E-07  0.3400571E+04  0.7818609E-02  0.8137766E-01
       -2   -1    0    0    0  501  0.00000000000E+00  0.00000000000E+00  0.13765854040E+04  0.13765854040E+04  0.25500000920E-02 0.  1.
        2   -1    0    0  501    0  0.00000000000E+00  0.00000000000E+00 -0.21001025516E+04  0.21001025516E+04  0.25500000920E-02 0. -1.
    10030    2    1    2    0    0  0.00000000000E+00  0.00000000000E+00 -0.72351714763E+03  0.34766879556E+04  0.34005708459E+04 0.  0.
        5    1    3    3  502    0  0.82602440408E+03 -0.11040580681E+04  0.65533992948E+03  0.15266804011E+04  0.46999998093E+01 0.  1.
       -5    1    3    3    0  502 -0.82602440408E+03  0.11040580681E+04 -0.13788570771E+04  0.19500075546E+04  0.46999998093E+01 0. -1.
</event>
<event>
 5   0  0.7899402E-07  0.3304031E+04  0.7818609E-02  0.8161870E-01
        2   -1    0    0  501    0  0.00000000000E+00  0.00000000000E+00  0.13392737696E+04  0.13392737696E+04  0.25500000920E-02 0.  1.
       -2   -1    0    0    0  501  0.00000000000E+00  0.00000000000E+00 -0.20377878317E+04  0.20377878317E+04  0.25500000920E-02 0. -1.
    10030    2    1    2    0    0  0.00000000000E+00  0.00000000000E+00 -0.69851406206E+03  0.33770616013E+04  0.33040313504E+04 0.  0.
        2    1    3    3  502    0 -0.37518384742E+03  0.22897685868E+03 -0.19769265637E+04  0.20251992394E+04  0.25500000920E-02 0. -1.
       -2    1    3    3    0  502  0.37518384742E+03 -0.22897685868E+03  0.12784125016E+04  0.13518623619E+04  0.25500000920E-02 0.  1.
</event>
<event>
 5   0  0.2641442E-07  0.3369065E+04  0.7818609E-02  0.8145541E-01
       -1   -1    0    0    0  501  0.00000000000E+00  0.00000000000E+00  0.13195974348E+04  0.13195974348E+04  0.50400001928E-02 0. -1.
        1   -1    0    0  501    0  0.00000000000E+00  0.00000000000E+00 -0.21503900730E+04  0.21503900730E+04  0.50400001928E-02 0.  1.
    10030    2    1    2    0    0  0.00000000000E+00  0.00000000000E+00 -0.83079263825E+03  0.34699875078E+04  0.33690646917E+04 0.  0.
        1    1    3    3  502    0  0.14607300296E+04 -0.34481165348E+02  0.44800400398E+03  0.15282764010E+04  0.50400001928E-02 0. -1.
       -1    1    3    3    0  502 -0.14607300296E+04  0.34481165348E+02 -0.12787966422E+04  0.19417111068E+04  0.50400001928E-02 0.  1.
</event>
<event>
 5   0  0.2592200E-07  0.3391038E+04  0.7818609E-02  0.8140109E-01
        1   -1    0    0  501    0  0.00000000000E+00  0.00000000000E+00  0.15298335388E+04  0.15298335388E+04  0.50400001928E-02 0.  1.
       -1   -1    0    0    0  501  0.00000000000E+00  0.00000000000E+00 -0.18791491890E+04  0.18791491890E+04  0.50400001928E-02 0. -1.
    10030    2    1    2    0    0  0.00000000000E+00  0.00000000000E+00 -0.34931565024E+03  0.34089827278E+04  0.33910384567E+04 0.  0.
        4    1    3    3  502    0 -0.92850403183E+03 -0.87269313559E+03 -0.12990893906E+04  0.18197109396E+04  0.12699999809E+01 0. -1.
       -4    1    3    3    0  502  0.92850403183E+03  0.87269313559E+03  0.94977374037E+03  0.15892717882E+04  0.12699999809E+01 0.  1.
</event>
<event>
 5   0  0.7610412E-07  0.3392013E+04  0.7818609E-02  0.8139869E-01
       -2   -1    0    0    0  501  0.00000000000E+00  0.00000000000E+00  0.16257326536E+04  0.16257326536E+04  0.25500000920E-02 0. -1.
        2   -1    0    0  501    0  0.00000000000E+00  0.00000000000E+00 -0.17693177102E+04  0.17693177102E+04  0.25500000920E-02 0.  1.
    10030    2    1    2    0    0  0.00000000000E+00  0.00000000000E+00 -0.14358505663E+03  0.33950503638E+04  0.33920127217E+04 0.  0.
        4    1    3    3  502    0  0.60168057170E+03  0.56899221865E+03 -0.15532072801E+04  0.17601778669E+04  0.12699999809E+01 0.  1.
       -4    1    3    3    0  502 -0.60168057170E+03 -0.56899221865E+03  0.14096222235E+04  0.16348724969E+04  0.12699999809E+01 0. -1.
</event>
<event>
 5   0  0.7610412E-07  0.3397595E+04  0.7818609E-02  0.8138497E-01
       -2   -1    0    0    0  501  0.00000000000E+00  0.00000000000E+00  0.12451329196E+04  0.12451329196E+04  0.25500000920E-02 0. -1.
        2   -1    0    0  501    0  0.00000000000E+00  0.00000000000E+00 -0.23177555918E+04  0.23177555918E+04  0.25500000920E-02 0.  1.
    10030    2    1    2    0    0  0.00000000000E+00  0.00000000000E+00 -0.10726226722E+04  0.35628885113E+04  0.33975954950E+04 0.  0.
        4    1    3    3  502    0 -0.63647370598E+03  0.49212041686E+03 -0.21053072291E+04  0.22537971126E+04  0.12699999809E+01 0.  1.
       -4    1    3    3    0  502  0.63647370598E+03 -0.49212041686E+03  0.10326845570E+04  0.13090913987E+04  0.12699999809E+01 0. -1.
</event>
<event>
 5   0  0.2599367E-07  0.3397455E+04  0.7818609E-02  0.8138531E-01
       -1   -1    0    0    0  501  0.00000000000E+00  0.00000000000E+00  0.16665231510E+04  0.16665231510E+04  0.50400001928E-02 0. -1.
        1   -1    0    0  501    0  0.00000000000E+00  0.00000000000E+00 -0.17315538410E+04  0.17315538410E+04  0.50400001928E-02 0.  1.
    10030    2    1    2    0    0  0.00000000000E+00  0.00000000000E+00 -0.65030689958E+02  0.33980769920E+04  0.33974546727E+04 0.  0.
        2    1    3    3  502    0 -0.16010528740E+04  0.20590687858E+03 -0.56167426886E+03  0.17091652736E+04  0.25500000920E-02 0. -1.
       -2    1    3    3    0  502  0.16010528740E+04 -0.20590687858E+03  0.49664357890E+03  0.16889117184E+04  0.25500000920E-02 0.  1.
</event>
<event>
 5   0  0.2599367E-07  0.3357066E+04  0.7818609E-02  0.8148525E-01
       -1   -1    0    0    0  501  0.00000000000E+00  0.00000000000E+00  0.15495724901E+04  0.15495724901E+04  0.50400001928E-02 0. -1.
        1   -1    0    0  501    0  0.00000000000E+00  0.00000000000E+00 -0.18182256881E+04  0.18182256881E+04  0.50400001928E-02 0.  1.
    10030    2    1    2    0    0  0.00000000000E+00  0.00000000000E+00 -0.26865319801E+03  0.33677981782E+04  0.33570656872E+04 0.  0.
        2    1    3    3  502    0  0.70230202034E+02 -0.12896379887E+04 -0.12098427059E+04  0.17696942663E+04  0.25500000920E-02 0.  1.
       -2    1    3    3    0  502 -0.70230202034E+02  0.12896379887E+04  0.94118950789E+03  0.15981039118E+04  0.25500000920E-02 0. -1.
</event>
<event>
 5   0  0.7899402E-07  0.3373903E+04  0.7818609E-02  0.8144341E-01
        2   -1    0    0  501    0  0.00000000000E+00  0.00000000000E+00  0.14619654434E+04  0.14619654434E+04  0.25500000920E-02 0.  1.
       -2   -1    0    0    0  501  0.00000000000E+00  0.00000000000E+00 -0.19465615786E+04  0.19465615786E+04  0.25500000920E-02 0. -1.
    10030    2    1    2    0    0  0.00000000000E+00  0.00000000000E+00 -0.48459613517E+03  0.34085270220E+04  0.33739032359E+04 0.  0.
        2    1    3    3  502    0  0.16045928419E+04  0.38406999478E+03  0.11284584081E+03  0.16537720922E+04  0.25500000920E-02 0.  1.
       -2    1    3    3    0  502 -0.16045928419E+04 -0.38406999478E+03 -0.59744197598E+03  0.17547549298E+04  0.25500000920E-02 0. -1.
</event>
<event>
 5   0  0.8489228E-07  0.3411398E+04  0.7818609E-02  0.8135115E-01
        2   -1    0    0  501    0  0.00000000000E+00  0.00000000000E+00  0.18898367038E+04  0.18898367038E+04  0.25500000920E-02 0. -1.
       -2   -1    0    0    0  501  0.00000000000E+00  0.00000000000E+00 -0.15395027639E+04  0.15395027639E+04  0.25500000920E-02 0.  1.
    10030    2    1    2    0    0  0.00000000000E+00  0.00000000000E+00  0.35033393996E+03  0.34293394677E+04  0.34113978535E+04 0.  0.
        3    1    3    3  502    0 -0.12540084140E+04  0.44645433000E+03 -0.89700241099E+03  0.16051392172E+04  0.10100000352E+00 0.  1.
       -3    1    3    3    0  502  0.12540084140E+04 -0.44645433000E+03  0.12473363509E+04  0.18242002505E+04  0.10100000352E+00 0. -1.
</event>
<event>
 5   0  0.7899402E-07  0.3409355E+04  0.7818609E-02  0.8135614E-01
        2   -1    0    0  501    0  0.00000000000E+00  0.00000000000E+00  0.21356000670E+04  0.21356000670E+04  0.25500000920E-02 0. -1.
       -2   -1    0    0    0  501  0.00000000000E+00  0.00000000000E+00 -0.13607070115E+04  0.13607070115E+04  0.25500000920E-02 0.  1.
    10030    2    1    2    0    0  0.00000000000E+00  0.00000000000E+00  0.77489305544E+03  0.34963070785E+04  0.34093553555E+04 0.  0.
        2    1    3    3  502    0  0.34119300538E+03 -0.16415133547E+04  0.71452818987E+02  0.16781192645E+04  0.25500000920E-02 0.  1.
       -2    1    3    3    0  502 -0.34119300538E+03  0.16415133547E+04  0.70344023645E+03  0.18181878140E+04  0.25500000920E-02 0. -1.
</event>
<event>
 5   0  0.7838333E-07  0.3369382E+04  0.7818609E-02  0.8145462E-01
        2   -1    0    0  501    0  0.00000000000E+00  0.00000000000E+00  0.18667858953E+04  0.18667858953E+04  0.25500000920E-02 0.  1.
       -2   -1    0    0    0  501  0.00000000000E+00  0.00000000000E+00 -0.15203589289E+04  0.15203589289E+04  0.25500000920E-02 0. -1.
    10030    2    1    2    0    0  0.00000000000E+00  0.00000000000E+00  0.34642696640E+03  0.33871448243E+04  0.33693824980E+04 0.  0.
        1    1    3    3  502    0  0.15680514433E+04  0.44837664497E+03  0.59776396045E+03  0.17369941557E+04  0.50400001928E-02 0.  1.
       -1    1    3    3    0  502 -0.15680514433E+04 -0.44837664497E+03 -0.25133699405E+03  0.16501506686E+04  0.50400001928E-02 0. -1.
</event>
<event>
 5   0  0.2553250E-07  0.3375972E+04  0.7818609E-02  0.8143829E-01
       -1   -1    0    0    0  501  0.00000000000E+00  0.00000000000E+00  0.88101760306E+03  0.88101760308E+03  0.50400001928E-02 0. -1.
        1   -1    0    0  501    0  0.00000000000E+00  0.00000000000E+00 -0.32340968865E+04  0.32340968866E+04  0.50400001928E-02 0.  1.
    10030    2    1    2    0    0  0.00000000000E+00  0.00000000000E+00 -0.23530792835E+04  0.41151144896E+04  0.33759717339E+04 0.  0.
        5    1    3    3  502    0  0.59971915278E+03 -0.18666535524E+03 -0.30863413387E+04  0.31496082242E+04  0.46999998093E+01 0.  1.
       -5    1    3    3    0  502 -0.59971915278E+03  0.18666535524E+03  0.73326205518E+03  0.96550626545E+03  0.46999998093E+01 0. -1.
</event>
<event>
 5   0  0.7822003E-07  0.3413510E+04  0.7818609E-02  0.8134598E-01
       -2   -1    0    0    0  501  0.00000000000E+00  0.00000000000E+00  0.13520031048E+04  0.13520031048E+04  0.25500000920E-02 0. -1.
        2   -1    0    0  501    0  0.00000000000E+00  0.00000000000E+00 -0.21545900811E+04  0.21545900811E+04  0.25500000920E-02 0.  1.
    10030    2    1    2    0    0  0.00000000000E+00  0.00000000000E+00 -0.80258697633E+03  0.35065931859E+04  0.34135099116E+04 0.  0.
        5    1    3    3  502    0  0.16539708675E+04 -0.36279890417E+03 -0.62101314566E+03  0.18035858983E+04  0.46999998093E+01 0. -1.
       -5    1    3    3    0  502 -0.16539708675E+04  0.36279890417E+03 -0.18157383067E+03  0.17030072876E+04  0.46999998093E+01 0.  1.
</event>
<event>
 5   0  0.7610412E-07  0.3353011E+04  0.7818609E-02  0.8149536E-01
       -2   -1    0    0    0  501  0.00000000000E+00  0.00000000000E+00  0.14523698733E+04  0.14523698733E+04  0.25500000920E-02 0.  1.
        2   -1    0    0  501    0  0.00000000000E+00  0.00000000000E+00 -0.19352308281E+04  0.19352308281E+04  0.25500000920E-02 0. -1.
    10030    2    1    2    0    0  0.00000000000E+00  0.00000000000E+00 -0.48286095479E+03  0.33876007014E+04  0.33530111558E+04 0.  0.
        4    1    3    3  502    0 -0.36834292173E+03  0.16210230864E+04 -0.46110621941E+03  0.17251124350E+04  0.12699999809E+01 0. -1.
       -4    1    3    3    0  502  0.36834292173E+03 -0.16210230864E+04 -0.21754735382E+02  0.16624882665E+04  0.12699999809E+01 0.  1.
</event>
<event>
 5   0  0.7899402E-07  0.3420545E+04  0.7818609E-02  0.8132882E-01
       -2   -1    0    0    0  501  0.00000000000E+00  0.00000000000E+00  0.14080168193E+04  0.14080168193E+04  0.25500000920E-02 0.  1.
        2   -1    0    0  501    0  0.00000000000E+00  0.00000000000E+00 -0.20774131466E+04  0.20774131466E+04  0.25500000920E-02 0. -1.
    10030    2    1    2    0    0  0.00000000000E+00  0.00000000000E+00 -0.66939632731E+03  0.34854299659E+04  0.34205453665E+04 0.  0.
        2    1    3    3  502    0  0.27096466107E+03  0.16885829553E+04 -0.35230029662E+03  0.17460955711E+04  0.25500000920E-02 0.  1.
       -2    1    3    3    0  502 -0.27096466107E+03 -0.16885829553E+04 -0.31709603069E+03  0.17393343948E+04  0.25500000920E-02 0. -1.
</event>
<event>
 5   0  0.2622205E-07  0.3407456E+04  0.7818609E-02  0.8136079E-01
       -1   -1    0    0    0  501  0.00000000000E+00  0.00000000000E+00  0.20817740370E+04  0.20817740370E+04  0.50400001928E-02 0.  1.
        1   -1    0    0  501    0  0.00000000000E+00  0.00000000000E+00 -0.13943347034E+04  0.13943347034E+04  0.50400001928E-02 0. -1.
    10030    2    1    2    0    0  0.00000000000E+00  0.00000000000E+00  0.68743933357E+03  0.34761087404E+04  0.34074564029E+04 0.  0.
        3    1    3    3  502    0  0.13915610602E+04  0.91509779834E+03 -0.22460220882E+02  0.16656382070E+04  0.10100000352E+00 0. -1.
       -3    1    3    3    0  502 -0.13915610602E+04 -0.91509779834E+03  0.70989955445E+03  0.18104705334E+04  0.10100000352E+00 0.  1.
</event>
<event>
 5   0  0.2553250E-07  0.3562582E+04  0.7818609E-02  0.8099117E-01
        1   -1    0    0  501    0  0.00000000000E+00  0.00000000000E+00  0.20882737639E+04  0.20882737639E+04  0.50400001928E-02 0.  1.
       -1   -1    0    0    0  501  0.00000000000E+00  0.00000000000E+00 -0.15194355290E+04  0.15194355290E+04  0.50400001928E-02 0. -1.
    10030    2    1    2    0    0  0.00000000000E+00  0.00000000000E+00  0.56883823487E+03  0.36077092929E+04  0.35625818453E+04 0.  0.
        5    1    3    3  502    0  0.10613418744E+03  0.18091723396E+03  0.20757180244E+04  0.20862940632E+04  0.46999998093E+01 0.  1.
       -5    1    3    3    0  502 -0.10613418744E+03 -0.18091723396E+03 -0.15068797895E+04  0.15214152297E+04  0.46999998093E+01 0. -1.
</event>
<event>
 5   0  0.7838333E-07  0.3405470E+04  0.7818609E-02  0.8136565E-01
       -2   -1    0    0    0  501  0.00000000000E+00  0.00000000000E+00  0.14249438762E+04  0.14249438762E+04  0.25500000920E-02 0. -1.
        2   -1    0    0  501    0  0.00000000000E+00  0.00000000000E+00 -0.20346813438E+04  0.20346813438E+04  0.25500000920E-02 0.  1.
    10030    2    1    2    0    0  0.00000000000E+00  0.00000000000E+00 -0.60973746757E+03  0.34596252200E+04  0.34054701413E+04 0.  0.
        1    1    3    3  502    0 -0.49495375625E+03 -0.12714861452E+04  0.72998155154E+03  0.15474266716E+04  0.50400001928E-02 0. -1.
       -1    1    3    3    0  502  0.49495375625E+03  0.12714861452E+04 -0.13397190191E+04  0.19121985484E+04  0.50400001928E-02 0.  1.
</event>
<event>
 5   0  0.7822003E-07  0.3394590E+04  0.7818609E-02  0.8139235E-01
        2   -1    0    0  501    0  0.00000000000E+00  0.00000000000E+00  0.14665001484E+04  0.14665001484E+04  0.25500000920E-02 0. -1.
       -2   -1    0    0    0  501  0.00000000000E+00  0.00000000000E+00 -0.19644114052E+04  0.19644114052E+04  0.25500000920E-02 0.  1.
    10030    2    1    2    0    0  0.00000000000E+00  0.00000000000E+00 -0.49791125684E+03  0.34309115536E+04  0.33945895877E+04 0.  0.
        5    1    3    3  502    0 -0.16290042394E+04  0.37570363237E+03 -0.54531570254E+03  0.17584650513E+04  0.46999998093E+01 0.  1.
       -5    1    3    3    0  502  0.16290042394E+04 -0.37570363237E+03  0.47404445703E+02  0.16724465022E+04  0.46999998093E+01 0. -1.
</event>
<event>
 5   0  0.7822003E-07  0.3394482E+04  0.7818609E-02  0.8139262E-01
        2   -1    0    0  501    0  0.00000000000E+00  0.00000000000E+00  0.24034334794E+04  0.24034334794E+04  0.25500000920E-02 0. -1.
       -2   -1    0    0    0  501  0.00000000000E+00  0.00000000000E+00 -0.11985465548E+04  0.11985465548E+04  0.25500000920E-02 0.  1.
    10030    2    1    2    0    0  0.00000000000E+00  0.00000000000E+00  0.12048869246E+04  0.36019800343E+04  0.33944819437E+04 0.  0.
        5    1    3    3  502    0 -0.13360827431E+04  0.14041470927E+03  0.17030391412E+04  0.21691467893E+04  0.46999998093E+01 0. -1.
       -5    1    3    3    0  502  0.13360827431E+04 -0.14041470927E+03 -0.49815221661E+03  0.14328332450E+04  0.46999998093E+01 0.  1.
</event>
<event>
 5   0  0.2592200E-07  0.3392117E+04  0.7818609E-02  0.8139844E-01
       -1   -1    0    0    0  501  0.00000000000E+00  0.00000000000E+00  0.14400980693E+04  0.14400980693E+04  0.50400001928E-02 0. -1.
        1   -1    0    0  501    0  0.00000000000E+00  0.00000000000E+00 -0.19975129540E+04  0.19975129540E+04  0.50400001928E-02 0.  1.
    10030    2    1    2    0    0  0.00000000000E+00  0.00000000000E+00 -0.55741488465E+03  0.34376110233E+04  0.33921170667E+04 0.  0.
        4    1    3    3  502    0 -0.68916809572E+01 -0.29179830671E+02  0.14398289983E+04  0.14401416997E+04  0.12699999809E+01 0. -1.
       -4    1    3    3    0  502  0.68916809572E+01  0.29179830671E+02 -0.19972438830E+04  0.19974693236E+04  0.12699999809E+01 0.  1.
</event>
<event>
 5   0  0.2592200E-07  0.3392413E+04  0.7818609E-02  0.8139771E-01
       -1   -1    0    0    0  501  0.00000000000E+00  0.00000000000E+00  0.11369417395E+04  0.11369417395E+04  0.50400001928E-02 0. -1.
        1   -1    0    0  501    0  0.00000000000E+00  0.00000000000E+00 -0.25305746576E+04  0.25305746576E+04  0.50400001928E-02 0.  1.
    10030    2    1    2    0    0  0.00000000000E+00  0.00000000000E+00 -0.13936329181E+04  0.36675163971E+04  0.33924126831E+04 0.  0.
        4    1    3    3  502    0  0.13093061032E+04 -0.95630910893E+03 -0.12355275357E+04  0.20384649833E+04  0.12699999809E+01 0. -1.
       -4    1    3    3    0  502 -0.13093061032E+04  0.95630910893E+03 -0.15810538236E+03  0.16290514137E+04  0.12699999809E+01 0.  1.
</event>
<event>
 5   0  0.2599367E-07  0.3403461E+04  0.7818609E-02  0.8137057E-01
       -1   -1    0    0    0  501  0.00000000000E+00  0.00000000000E+00  0.11358247145E+04  0.11358247145E+04  0.50400001928E-02 0. -1.
        1   -1    0    0  501    0  0.00000000000E+00  0.00000000000E+00 -0.25495893509E+04  0.25495893509E+04  0.50400001928E-02 0.  1.
    10030    2    1    2    0    0  0.00000000000E+00  0.00000000000E+00 -0.14137646364E+04  0.36854140654E+04  0.34034609424E+04 0.  0.
        2    1    3    3  502    0 -0.74477362153E+03 -0.11835304309E+04  0.34322679660E+03  0.14398738355E+04  0.25500000920E-02 0. -1.
       -2    1    3    3    0  502  0.74477362153E+03  0.11835304309E+04 -0.17569914330E+04  0.22455402299E+04  0.25500000920E-02 0.  1.
</event>
<event>
 5   0  0.7838333E-07  0.3411070E+04  0.7818609E-02  0.8135195E-01
        2   -1    0    0  501    0  0.00000000000E+00  0.00000000000E+00  0.11860382343E+04  0.11860382343E+04  0.25500000920E-02 0.  1.
       -2   -1    0    0    0  501  0.00000000000E+00  0.00000000000E+00 -0.24525768988E+04  0.24525768988E+04  0.25500000920E-02 0. -1.
    10030    2    1    2    0    0  0.00000000000E+00  0.00000000000E+00 -0.12665386645E+04  0.36386151331E+04  0.34110701984E+04 0.  0.
        1    1    3    3  502    0  0.36552221382E+03 -0.14098016407E+04  0.31346181233E+03  0.14897669156E+04  0.50400001928E-02 0.  1.
       -1    1    3    3    0  502 -0.36552221382E+03  0.14098016407E+04 -0.15800004768E+04  0.21488482175E+04  0.50400001928E-02 0. -1.
</event>
<event>
 5   0  0.7822003E-07  0.3412393E+04  0.7818609E-02  0.8134871E-01
       -2   -1    0    0    0  501  0.00000000000E+00  0.00000000000E+00  0.16117383891E+04  0.16117383892E+04  0.25500000920E-02 0.  1.
        2   -1    0    0  501    0  0.00000000000E+00  0.00000000000E+00 -0.18061902097E+04  0.18061902097E+04  0.25500000920E-02 0. -1.
    10030    2    1    2    0    0  0.00000000000E+00  0.00000000000E+00 -0.19445182057E+03  0.34179285989E+04  0.34123927670E+04 0.  0.
        5    1    3    3  502    0  0.71105807156E+03  0.64297934452E+03 -0.15109184355E+04  0.17893916920E+04  0.46999998093E+01 0. -1.
       -5    1    3    3    0  502 -0.71105807156E+03 -0.64297934452E+03  0.13164666150E+04  0.16285369068E+04  0.46999998093E+01 0.  1.
</event>
<event>
 5   0  0.8489228E-07  0.3390236E+04  0.7818609E-02  0.8140307E-01
        2   -1    0    0  501    0  0.00000000000E+00  0.00000000000E+00  0.23921772049E+04  0.23921772049E+04  0.25500000920E-02 0.  1.
       -2   -1    0    0    0  501  0.00000000000E+00  0.00000000000E+00 -0.12011754494E+04  0.12011754494E+04  0.25500000920E-02 0. -1.
    10030    2    1    2    0    0  0.00000000000E+00  0.00000000000E+00  0.11910017555E+04  0.35933526543E+04  0.33902357022E+04 0.  0.
        3    1    3    3  502    0 -0.64514041876E+03  0.13507623255E+04 -0.24755229033E+03  0.15172498695E+04  0.10100000352E+00 0. -1.
       -3    1    3    3    0  502  0.64514041876E+03 -0.13507623255E+04  0.14385540458E+04  0.20761027847E+04  0.10100000352E+00 0.  1.
</event>
<event>
 5   0  0.2592200E-07  0.3414536E+04  0.7818609E-02  0.8134348E-01
        1   -1    0    0  501    0  0.00000000000E+00  0.00000000000E+00  0.20609848787E+04  0.20609848787E+04  0.50400001928E-02 0. -1.
       -1   -1    0    0    0  501  0.00000000000E+00  0.00000000000E+00 -0.14142581248E+04  0.14142581248E+04  0.50400001928E-02 0.  1.
    10030    2    1    2    0    0  0.00000000000E+00  0.00000000000E+00  0.64672675389E+03  0.34752430035E+04  0.34145363432E+04 0.  0.
        4    1    3    3  502    0 -0.26772748735E+03  0.28283568593E+03 -0.13684438361E+04  0.14227839534E+04  0.12699999809E+01 0.  1.
       -4    1    3    3    0  502  0.26772748735E+03 -0.28283568593E+03  0.20151705900E+04  0.20524590501E+04  0.12699999809E+01 0. -1.
</event>
<event>
 5   0  0.7838333E-07  0.3397798E+04  0.7818609E-02  0.8138447E-01
        2   -1    0    0  501    0  0.00000000000E+00  0.00000000000E+00  0.18793460631E+04  0.18793460631E+04  0.25500000920E-02 0. -1.
       -2   -1    0    0    0  501  0.00000000000E+00  0.00000000000E+00 -0.15357781031E+04  0.15357781031E+04  0.25500000920E-02 0.  1.
    10030    2    1    2    0    0  0.00000000000E+00  0.00000000000E+00  0.34356795995E+03  0.34151241662E+04  0.33977984236E+04 0.  0.
        1    1    3    3  502    0 -0.16517353351E+04  0.39748836405E+03  0.16610581993E+03  0.17069908495E+04  0.50400001928E-02 0.  1.
       -1    1    3    3    0  502  0.16517353351E+04 -0.39748836405E+03  0.17746214002E+03  0.17081333168E+04  0.50400001928E-02 0. -1.
</event>
<event>
 5   0  0.2592200E-07  0.3360536E+04  0.7818609E-02  0.8147661E-01
       -1   -1    0    0    0  501  0.00000000000E+00  0.00000000000E+00  0.14444664141E+04  0.14444664141E+04  0.50400001928E-02 0. -1.
        1   -1    0    0  501    0  0.00000000000E+00  0.00000000000E+00 -0.19545631928E+04  0.19545631928E+04  0.50400001928E-02 0.  1.
    10030    2    1    2    0    0  0.00000000000E+00  0.00000000000E+00 -0.51009677872E+03  0.33990296069E+04  0.33605361990E+04 0.  0.
        4    1    3    3  502    0  0.24646324990E+03 -0.25844906919E+02 -0.19359772611E+04  0.19517739780E+04  0.12699999809E+01 0.  1.
       -4    1    3    3    0  502 -0.24646324990E+03  0.25844906919E+02  0.14258804823E+04  0.14472556290E+04  0.12699999809E+01 0. -1.
</event>
<event>
 5   0  0.8489228E-07  0.3366862E+04  0.7818609E-02  0.8146088E-01
        2   -1    0    0  501    0  0.00000000000E+00  0.00000000000E+00  0.24333098356E+04  0.24333098356E+04  0.25500000920E-02 0. -1.
       -2   -1    0    0    0  501  0.00000000000E+00  0.00000000000E+00 -0.11646443442E+04  0.11646443442E+04  0.25500000920E-02 0.  1.
    10030    2    1    2    0    0  0.00000000000E+00  0.00000000000E+00  0.12686654914E+04  0.35979541797E+04  0.33668623599E+04 0.  0.
        3    1    3    3  502    0  0.69602434327E+02  0.37587952241E+03  0.23863145770E+04  0.24167389567E+04  0.10100000352E+00 0. -1.
       -3    1    3    3    0  502 -0.69602434327E+02 -0.37587952241E+03 -0.11176490856E+04  0.11812152230E+04  0.10100000352E+00 0.  1.
</event>
<event>
 5   0  0.7610412E-07  0.3371730E+04  0.7818609E-02  0.8144880E-01
        2   -1    0    0  501    0  0.00000000000E+00  0.00000000000E+00  0.22550052377E+04  0.22550052377E+04  0.25500000920E-02 0.  1.
       -2   -1    0    0    0  501  0.00000000000E+00  0.00000000000E+00 -0.12603696324E+04  0.12603696324E+04  0.25500000920E-02 0. -1.
    10030    2    1    2    0    0  0.00000000000E+00  0.00000000000E+00  0.99463560535E+03  0.35153748701E+04  0.33717295992E+04 0.  0.
        4    1    3    3  502    0 -0.24286044207E+03  0.47900940112E+03  0.21634308490E+04  0.22290952990E+04  0.12699999809E+01 0.  1.
       -4    1    3    3    0  502  0.24286044207E+03 -0.47900940112E+03 -0.11687952436E+04  0.12862795711E+04  0.12699999809E+01 0. -1.
</event>
<event>
 5   0  0.2641442E-07  0.3394400E+04  0.7818609E-02  0.8139282E-01
        1   -1    0    0  501    0  0.00000000000E+00  0.00000000000E+00  0.22664883333E+04  0.22664883333E+04  0.50400001928E-02 0. -1.
       -1   -1    0    0    0  501  0.00000000000E+00  0.00000000000E+00 -0.12709037521E+04  0.12709037521E+04  0.50400001928E-02 0.  1.
    10030    2    1    2    0    0  0.00000000000E+00  0.00000000000E+00  0.99558458112E+03  0.35373920854E+04  0.33944004047E+04 0.  0.
        1    1    3    3  502    0  0.10593845066E+04  0.12419918993E+04  0.98173502114E+03  0.19048997513E+04  0.50400001928E-02 0.  1.
       -1    1    3    3    0  502 -0.10593845066E+04 -0.12419918993E+04  0.13849559977E+02  0.16324923341E+04  0.50400001928E-02 0. -1.
</event>
<event>
 5   0  0.7838333E-07  0.3395738E+04  0.7818609E-02  0.8138953E-01
        2   -1    0    0  501    0  0.00000000000E+00  0.00000000000E+00  0.24126117747E+04  0.24126117747E+04  0.25500000920E-02 0. -1.
       -2   -1    0    0    0  501  0.00000000000E+00  0.00000000000E+00 -0.11948709424E+04  0.11948709424E+04  0.25500000920E-02 0.  1.
    10030    2    1    2    0    0  0.00000000000E+00  0.00000000000E+00  0.12177408324E+04  0.36074827171E+04  0.33957383320E+04 0.  0.
        1    1    3    3  502    0 -0.90127184421E+03 -0.11510399100E+02 -0.91971773274E+03  0.12877515810E+04  0.50400001928E-02 0.  1.
       -1    1    3    3    0  502  0.90127184421E+03  0.11510399100E+02  0.21374585651E+04  0.23197311361E+04  0.50400001928E-02 0. -1.
</event>
<event>
 5   0  0.2553250E-07  0.3395124E+04  0.7818609E-02  0.8139104E-01
        1   -1    0    0  501    0  0.00000000000E+00  0.00000000000E+00  0.18800573425E+04  0.18800573426E+04  0.50400001928E-02 0. -1.
       -1   -1    0    0    0  501  0.00000000000E+00  0.00000000000E+00 -0.15327812574E+04  0.15327812574E+04  0.50400001928E-02 0.  1.
    10030    2    1    2    0    0  0.00000000000E+00  0.00000000000E+00  0.34727608513E+03  0.34128386000E+04  0.33951239492E+04 0.  0.
        5    1    3    3  502    0  0.15630256163E+04  0.15562172239E+03  0.82075731002E+03  0.17722674317E+04  0.46999998093E+01 0.  1.
       -5    1    3    3    0  502 -0.15630256163E+04 -0.15562172239E+03 -0.47348122488E+03  0.16405711682E+04  0.46999998093E+01 0. -1.
</event>
<event>
 5   0  0.2553250E-07  0.3390772E+04  0.7818609E-02  0.8140175E-01
       -1   -1    0    0    0  501  0.00000000000E+00  0.00000000000E+00  0.15377304717E+04  0.15377304717E+04  0.50400001928E-02 0. -1.
        1   -1    0    0  501    0  0.00000000000E+00  0.00000000000E+00 -0.18692055287E+04  0.18692055287E+04  0.50400001928E-02 0.  1.
    10030    2    1    2    0    0  0.00000000000E+00  0.00000000000E+00 -0.33147505701E+03  0.34069360005E+04  0.33907723601E+04 0.  0.
        5    1    3    3  502    0  0.68390585642E+02 -0.12031288092E+04  0.10324722327E+04  0.15868891597E+04  0.46999998093E+01 0. -1.
       -5    1    3    3    0  502 -0.68390585642E+02  0.12031288092E+04 -0.13639472897E+04  0.18200468408E+04  0.46999998093E+01 0.  1.
</event>
<event>
 5   0  0.2592200E-07  0.3402351E+04  0.7818609E-02  0.8137329E-01
       -1   -1    0    0    0  501  0.00000000000E+00  0.00000000000E+00  0.12222678949E+04  0.12222678949E+04  0.50400001928E-02 0.  1.
        1   -1    0    0  501    0  0.00000000000E+00  0.00000000000E+00 -0.23677286653E+04  0.23677286653E+04  0.50400001928E-02 0. -1.
    10030    2    1    2    0    0  0.00000000000E+00  0.00000000000E+00 -0.11454607705E+04  0.35899965602E+04  0.34023513819E+04 0.  0.
        4    1    3    3  502    0 -0.11230446152E+04 -0.10935092846E+04 -0.12702529284E+04  0.20175569083E+04  0.12699999809E+01 0. -1.
       -4    1    3    3    0  502  0.11230446152E+04  0.10935092846E+04  0.12479215795E+03  0.15724396519E+04  0.12699999809E+01 0.  1.
</event>
<event>
 5   0  0.2622205E-07  0.3381817E+04  0.7818609E-02  0.8142383E-01
       -1   -1    0    0    0  501  0.00000000000E+00  0.00000000000E+00  0.15499648475E+04  0.15499648475E+04  0.50400001928E-02 0.  1.
        1   -1    0    0  501    0  0.00000000000E+00  0.00000000000E+00 -0.18446687868E+04  0.18446687868E+04  0.50400001928E-02 0. -1.
    10030    2    1    2    0    0  0.00000000000E+00  0.00000000000E+00 -0.29470393929E+03  0.33946336342E+04  0.33818171297E+04 0.  0.
        3    1    3    3  502    0  0.72167662653E+03 -0.15131796403E+04 -0.36873709943E+03  0.17165362902E+04  0.10100000352E+00 0.  1.
       -3    1    3    3    0  502 -0.72167662653E+03  0.15131796403E+04  0.74033160141E+02  0.16780973440E+04  0.10100000352E+00 0. -1.
</event>
<event>
 5   0  0.2622205E-07  0.3459641E+04  0.7818609E-02  0.8123422E-01
        1   -1    0    0  501    0  0.00000000000E+00  0.00000000000E+00  0.27309818824E+04  0.27309818824E+04  0.50400001928E-02 0.  1.
       -1   -1    0    0    0  501  0.00000000000E+00  0.00000000000E+00 -0.10956785805E+04  0.10956785805E+04  0.50400001928E-02 0. -1.
    10030    2    1    2    0    0  0.00000000000E+00  0.00000000000E+00  0.16353033019E+04  0.38266604630E+04  0.34596406475E+04 0.  0.
        3    1    3    3  502    0 -0.12443326976E+04 -0.97005287613E+03  0.33256512643E+02  0.15781230784E+04  0.10100000352E+00 0. -1.
       -3    1    3    3    0  502  0.12443326976E+04  0.97005287613E+03  0.16020467893E+04  0.22485373846E+04  0.10100000352E+00 0.  1.
</event>
<event>
 5   0  0.2592200E-07  0.3385802E+04  0.7818609E-02  0.8141400E-01
        1   -1    0    0  501    0  0.00000000000E+00  0.00000000000E+00  0.19774670501E+04  0.19774670501E+04  0.50400001928E-02 0. -1.
       -1   -1    0    0    0  501  0.00000000000E+00  0.00000000000E+00 -0.14492849838E+04  0.14492849838E+04  0.50400001928E-02 0.  1.
    10030    2    1    2    0    0  0.00000000000E+00  0.00000000000E+00  0.52818206626E+03  0.34267520339E+04  0.33858017081E+04 0.  0.
        4    1    3    3  502    0  0.50163676874E+03  0.13584755948E+04  0.11515176500E+04  0.18501594257E+04  0.12699999809E+01 0.  1.
       -4    1    3    3    0  502 -0.50163676874E+03 -0.13584755948E+04 -0.62333558376E+03  0.15765926082E+04  0.12699999809E+01 0. -1.
</event>
<event>
 5   0  0.2622205E-07  0.3392191E+04  0.7818609E-02  0.8139825E-01
        1   -1    0    0  501    0  0.00000000000E+00  0.00000000000E+00  0.11849872687E+04  0.11849872687E+04  0.50400001928E-02 0. -1.
       -1   -1    0    0    0  501  0.00000000000E+00  0.00000000000E+00 -0.24276552762E+04  0.24276552762E+04  0.50400001928E-02 0.  1.
    10030    2    1    2    0    0  0.00000000000E+00  0.00000000000E+00 -0.12426680076E+04  0.36126425449E+04  0.33921913832E+04 0.  0.
        3    1    3    3  502    0 -0.16077051627E+04  0.30332353867E+03 -0.14503371827E+03  0.16424846572E+04  0.10100000352E+00 0. -1.
       -3    1    3    3    0  502  0.16077051627E+04 -0.30332353867E+03 -0.10976342893E+04  0.19701578877E+04  0.10100000352E+00 0.  1.
</event>
<event>
 5   0  0.2641442E-07  0.3398274E+04  0.7818609E-02  0.8138330E-01
       -1   -1    0    0    0  501  0.00000000000E+00  0.00000000000E+00  0.14271273174E+04  0.14271273174E+04  0.50400001928E-02 0.  1.
        1   -1    0    0  501    0  0.00000000000E+00  0.00000000000E+00 -0.20229914516E+04  0.20229914516E+04  0.50400001928E-02 0. -1.
    10030    2    1    2    0    0  0.00000000000E+00  0.00000000000E+00 -0.59586413423E+03  0.34501187691E+04  0.33982738933E+04 0.  0.
        1    1    3    3  502    0 -0.18848456748E+03  0.59995382732E+03  0.13046283860E+04  0.14482838992E+04  0.50400001928E-02 0.  1.
       -1    1    3    3    0  502  0.18848456748E+03 -0.59995382732E+03 -0.19004925202E+04  0.20018348699E+04  0.50400001928E-02 0. -1.
</event>
<event>
 5   0  0.2553250E-07  0.3404341E+04  0.7818609E-02  0.8136842E-01
        1   -1    0    0  501    0  0.00000000000E+00  0.00000000000E+00  0.14854823657E+04  0.14854823657E+04  0.50400001928E-02 0. -1.
       -1   -1    0    0    0  501  0.00000000000E+00  0.00000000000E+00 -0.19504668084E+04  0.19504668084E+04  0.50400001928E-02 0.  1.
    10030    2    1    2    0    0  0.00000000000E+00  0.00000000000E+00 -0.46498444269E+03  0.34359491741E+04  0.34043407872E+04 0.  0.
        5    1    3    3  502    0 -0.78461665991E+03 -0.66870362723E+03 -0.15995325716E+04  0.19029751395E+04  0.46999998093E+01 0. -1.
       -5    1    3    3    0  502  0.78461665991E+03  0.66870362723E+03  0.11345481289E+04  0.15329740346E+04  0.46999998093E+01 0.  1.
</event>
<event>
 5   0  0.8489228E-07  0.3398281E+04  0.7818609E-02  0.8138328E-01
        2   -1    0    0  501    0  0.00000000000E+00  0.00000000000E+00  0.18015512274E+04  0.18015512274E+04  0.25500000920E-02 0. -1.
       -2   -1    0    0    0  501  0.00000000000E+00  0.00000000000E+00 -0.16025511539E+04  0.16025511539E+04  0.25500000920E-02 0.  1.
    10030    2    1    2    0    0  0.00000000000E+00  0.00000000000E+00  0.19900007352E+03  0.34041023814E+04  0.33982807408E+04 0.  0.
        3    1    3    3  502    0  0.10892396059E+04  0.13036636681E+04  0.66335775311E+02  0.17001124445E+04  0.10100000352E+00 0.  1.
       -3    1    3    3    0  502 -0.10892396059E+04 -0.13036636681E+04  0.13266429821E+03  0.17039899369E+04  0.10100000352E+00 0. -1.
</event>
<event>
 5   0  0.7899402E-07  0.3368703E+04  0.7818609E-02  0.8145631E-01
       -2   -1    0    0    0  501  0.00000000000E+00  0.00000000000E+00  0.18985515210E+04  0.18985515210E+04  0.25500000920E-02 0.  1.
        2   -1    0    0  501    0  0.00000000000E+00  0.00000000000E+00 -0.14943183410E+04  0.14943183410E+04  0.25500000920E-02 0. -1.
    10030    2    1    2    0    0  0.00000000000E+00  0.00000000000E+00  0.40423317999E+03  0.33928698620E+04  0.33687032278E+04 0.  0.
        2    1    3    3  502    0 -0.40699002311E+03  0.13878925878E+04  0.10715320618E+04  0.18000187981E+04  0.25500000920E-02 0.  1.
       -2    1    3    3    0  502  0.40699002311E+03 -0.13878925878E+04 -0.66729888181E+03  0.15928510639E+04  0.25500000920E-02 0. -1.
</event>
<event>
 5   0  0.2553250E-07  0.3394013E+04  0.7818609E-02  0.8139377E-01
       -1   -1    0    0    0  501  0.00000000000E+00  0.00000000000E+00  0.16164048710E+04  0.16164048710E+04  0.50400001928E-02 0.  1.
        1   -1    0    0  501    0  0.00000000000E+00  0.00000000000E+00 -0.17816276145E+04  0.17816276145E+04  0.50400001928E-02 0. -1.
    10030    2    1    2    0    0  0.00000000000E+00  0.00000000000E+00 -0.16522274349E+03  0.33980324855E+04  0.33940132907E+04 0.  0.
        5    1    3    3  502    0  0.30382300747E+03 -0.15775477769E+04 -0.62992504599E+03  0.17256283093E+04  0.46999998093E+01 0. -1.
       -5    1    3    3    0  502 -0.30382300747E+03  0.15775477769E+04  0.46470230250E+03  0.16724041761E+04  0.46999998093E+01 0.  1.
</event>
<event>
 5   0  0.8489228E-07  0.3352202E+04  0.7818609E-02  0.8149738E-01
        2   -1    0    0  501    0  0.00000000000E+00  0.00000000000E+00  0.15694931947E+04  0.15694931947E+04  0.25500000920E-02 0. -1.
       -2   -1    0    0    0  501  0.00000000000E+00  0.00000000000E+00 -0.17899502686E+04  0.17899502686E+04  0.25500000920E-02 0.  1.
    10030    2    1    2    0    0  0.00000000000E+00  0.00000000000E+00 -0.22045707385E+03  0.33594434633E+04  0.33522021212E+04 0.  0.
        3    1    3    3  502    0 -0.10594516536E+04  0.99512113720E+03 -0.94666366537E+03  0.17346111926E+04  0.10100000352E+00 0.  1.
       -3    1    3    3    0  502  0.10594516536E+04 -0.99512113720E+03  0.72620659152E+03  0.16248322707E+04  0.10100000352E+00 0. -1.
</event>
<event>
 5   0  0.7838333E-07  0.3408592E+04  0.7818609E-02  0.8135801E-01
       -2   -1    0    0    0  501  0.00000000000E+00  0.00000000000E+00  0.16370301277E+04  0.16370301277E+04  0.25500000920E-02 0.  1.
        2   -1    0    0  501    0  0.00000000000E+00  0.00000000000E+00 -0.17743261802E+04  0.17743261802E+04  0.25500000920E-02 0. -1.
    10030    2    1    2    0    0  0.00000000000E+00  0.00000000000E+00 -0.13729605250E+03  0.34113563079E+04  0.34085923272E+04 0.  0.
        1    1    3    3  502    0  0.36313656105E+03 -0.94911000066E+03  0.13006527302E+04  0.16505682294E+04  0.50400001928E-02 0.  1.
       -1    1    3    3    0  502 -0.36313656105E+03  0.94911000066E+03 -0.14379487827E+04  0.17607880784E+04  0.50400001928E-02 0. -1.
</event>
<event>
 5   0  0.7610412E-07  0.3038825E+04  0.7818609E-02  0.8232730E-01
       -2   -1    0    0    0  501  0.00000000000E+00  0.00000000000E+00  0.14888812774E+04  0.14888812774E+04  0.25500000920E-02 0. -1.
        2   -1    0    0  501    0  0.00000000000E+00  0.00000000000E+00 -0.15505693397E+04  0.15505693397E+04  0.25500000920E-02 0.  1.
    10030    2    1    2    0    0  0.00000000000E+00  0.00000000000E+00 -0.61688062278E+02  0.30394506171E+04  0.30388245486E+04 0.  0.
        4    1    3    3  502    0  0.35935198869E+03 -0.53456322700E+03 -0.14072526668E+04  0.15476606141E+04  0.12699999809E+01 0.  1.
       -4    1    3    3    0  502 -0.35935198869E+03  0.53456322700E+03  0.13455646045E+04  0.14917900030E+04  0.12699999809E+01 0. -1.
</event>
<event>
 5   0  0.7899402E-07  0.3410700E+04  0.7818609E-02  0.8135285E-01
       -2   -1    0    0    0  501  0.00000000000E+00  0.00000000000E+00  0.14236240899E+04  0.14236240899E+04  0.25500000920E-02 0. -1.
        2   -1    0    0  501    0  0.00000000000E+00  0.00000000000E+00 -0.20428281911E+04  0.20428281911E+04  0.25500000920E-02 0.  1.
    10030    2    1    2    0    0  0.00000000000E+00  0.00000000000E+00 -0.61920410118E+03  0.34664522811E+04  0.34107004703E+04 0.  0.
        2    1    3    3  502    0  0.15465338500E+04 -0.51680537404E+03 -0.81712900904E+03  0.18238844703E+04  0.25500000920E-02 0.  1.
       -2    1    3    3    0  502 -0.15465338500E+04  0.51680537404E+03  0.19792490786E+03  0.16425678107E+04  0.25500000920E-02 0. -1.
</event>
<event>
 5   0  0.2553250E-07  0.3395023E+04  0.7818609E-02  0.8139129E-01
       -1   -1    0    0    0  501  0.00000000000E+00  0.00000000000E+00  0.15478456831E+04  0.15478456831E+04  0.50400001928E-02 0.  1.
        1   -1    0    0  501    0  0.00000000000E+00  0.00000000000E+00 -0.18616485707E+04  0.18616485707E+04  0.50400001928E-02 0. -1.
    10030    2    1    2    0    0  0.00000000000E+00  0.00000000000E+00 -0.31380288768E+03  0.34094942538E+04  0.33950226530E+04 0.  0.
        5    1    3    3  502    0  0.76423457496E+03 -0.54320843170E+03  0.12641896448E+04  0.15739528055E+04  0.46999998093E+01 0.  1.
       -5    1    3    3    0  502 -0.76423457496E+03  0.54320843170E+03 -0.15779925325E+04  0.18355414483E+04  0.46999998093E+01 0. -1.
</event>
<event>
 5   0  0.7899402E-07  0.3408025E+04  0.7818609E-02  0.8135939E-01
       -2   -1    0    0    0  501  0.00000000000E+00  0.00000000000E+00  0.18589567032E+04  0.18589567032E+04  0.25500000920E-02 0. -1.
        2   -1    0    0  501    0  0.00000000000E+00  0.00000000000E+00 -0.15619831423E+04  0.15619831423E+04  0.25500000920E-02 0.  1.
    10030    2    1    2    0    0  0.00000000000E+00  0.00000000000E+00  0.29697356092E+03  0.34209398455E+04  0.34080252538E+04 0.  0.
        2    1    3    3  502    0 -0.35298307230E+03 -0.74868872702E+03  0.16436031949E+04  0.18402617535E+04  0.25500000920E-02 0. -1.
       -2    1    3    3    0  502  0.35298307230E+03  0.74868872702E+03 -0.13466296340E+04  0.15806780919E+04  0.25500000920E-02 0.  1.
</event>
<event>
 5   0  0.2553250E-07  0.3322835E+04  0.7818609E-02  0.8157109E-01
        1   -1    0    0  501    0  0.00000000000E+00  0.00000000000E+00  0.16351077405E+04  0.16351077405E+04  0.50400001928E-02 0. -1.
       -1   -1    0    0    0  501  0.00000000000E+00  0.00000000000E+00 -0.16881511019E+04  0.16881511019E+04  0.50400001928E-02 0.  1.
    10030    2    1    2    0    0  0.00000000000E+00  0.00000000000E+00 -0.53043361340E+02  0.33232588424E+04  0.33228354963E+04 0.  0.
        5    1    3    3  502    0 -0.75043431843E+03  0.14658568300E+04 -0.24654728134E+03  0.16651413046E+04  0.46999998093E+01 0. -1.
       -5    1    3    3    0  502  0.75043431843E+03 -0.14658568300E+04  0.19350392000E+03  0.16581175378E+04  0.46999998093E+01 0.  1.
</event>
<event>
 5   0  0.2592200E-07  0.3406069E+04  0.7818609E-02  0.8136418E-01
        1   -1    0    0  501    0  0.00000000000E+00  0.00000000000E+00  0.18736101900E+04  0.18736101900E+04  0.50400001928E-02 0.  1.
       -1   -1    0    0    0  501  0.00000000000E+00  0.00000000000E+00 -0.15479886394E+04  0.15479886395E+04  0.50400001928E-02 0. -1.
    10030    2    1    2    0    0  0.00000000000E+00  0.00000000000E+00  0.32562155056E+03  0.34215988295E+04  0.34060694584E+04 0.  0.
        4    1    3    3  502    0 -0.55995200396E+03  0.14873537060E+04  0.77761288499E+03  0.17693079735E+04  0.12699999809E+01 0.  1.
       -4    1    3    3    0  502  0.55995200396E+03 -0.14873537060E+04 -0.45199133443E+03  0.16522908559E+04  0.12699999809E+01 0. -1.
</event>
<event>
 5   0  0.2599367E-07  0.3422122E+04  0.7818609E-02  0.8132498E-01
        1   -1    0    0  501    0  0.00000000000E+00  0.00000000000E+00  0.17692887555E+04  0.17692887555E+04  0.50400001928E-02 0.  1.
       -1   -1    0    0    0  501  0.00000000000E+00  0.00000000000E+00 -0.16547496212E+04  0.16547496212E+04  0.50400001928E-02 0. -1.
    10030    2    1    2    0    0  0.00000000000E+00  0.00000000000E+00  0.11453913423E+03  0.34240383767E+04  0.34221220890E+04 0.  0.
        2    1    3    3  502    0 -0.44502456875E+03 -0.75991170587E+03  0.15251347728E+04  0.17611214446E+04  0.25500000920E-02 0.  1.
       -2    1    3    3    0  502  0.44502456875E+03  0.75991170587E+03 -0.14105956386E+04  0.16629169321E+04  0.25500000920E-02 0. -1.
</event>
<event>
 5   0  0.2592200E-07  0.3392406E+04  0.7818609E-02  0.8139773E-01
       -1   -1    0    0    0  501  0.00000000000E+00  0.00000000000E+00  0.14313973437E+04  0.14313973437E+04  0.50400001928E-02 0. -1.
        1   -1    0    0  501    0  0.00000000000E+00  0.00000000000E+00 -0.20099969645E+04  0.20099969645E+04  0.50400001928E-02 0.  1.
    10030    2    1    2    0    0  0.00000000000E+00  0.00000000000E+00 -0.57859962084E+03  0.34413943082E+04  0.33924058223E+04 0.  0.
        4    1    3    3  502    0  0.66564196050E+02 -0.41166089895E+03 -0.19571855871E+04  0.20011178184E+04  0.12699999809E+01 0.  1.
       -4    1    3    3    0  502 -0.66564196050E+02  0.41166089895E+03  0.13785859662E+04  0.14402764898E+04  0.12699999809E+01 0. -1.
</event>
<event>
 5   0  0.7838333E-07  0.3405194E+04  0.7818609E-02  0.8136633E-01
        2   -1    0    0  501    0  0.00000000000E+00  0.00000000000E+00  0.20062285222E+04  0.20062285222E+04  0.25500000920E-02 0.  1.
       -2   -1    0    0    0  501  0.00000000000E+00  0.00000000000E+00 -0.14449184477E+04  0.14449184477E+04  0.25500000920E-02 0. -1.
    10030    2    1    2    0    0  0.00000000000E+00  0.00000000000E+00  0.56131007451E+03  0.34511469699E+04  0.34051940338E+04 0.  0.
        1    1    3    3  502    0  0.92055662287E+03 -0.12756476760E+04  0.94070027896E+03  0.18329262135E+04  0.50400001928E-02 0.  1.
       -1    1    3    3    0  502 -0.92055662287E+03  0.12756476760E+04 -0.37939020446E+03  0.16182207564E+04  0.50400001928E-02 0. -1.
</event>
<event>
 5   0  0.7610412E-07  0.3253095E+04  0.7818609E-02  0.8174934E-01
       -2   -1    0    0    0  501  0.00000000000E+00  0.00000000000E+00  0.34700093895E+04  0.34700093895E+04  0.25500000920E-02 0. -1.
        2   -1    0    0  501    0  0.00000000000E+00  0.00000000000E+00 -0.76243512937E+03  0.76243512937E+03  0.25500000920E-02 0.  1.
    10030    2    1    2    0    0  0.00000000000E+00  0.00000000000E+00  0.27075742601E+04  0.42324445189E+04  0.32530951771E+04 0.  0.
        4    1    3    3  502    0  0.11935672483E+04  0.10886098294E+04  0.16005802102E+04  0.22741004285E+04  0.12699999809E+01 0. -1.
       -4    1    3    3    0  502 -0.11935672483E+04 -0.10886098294E+04  0.11069940500E+04  0.19583440904E+04  0.12699999809E+01 0.  1.
</event>
<event>
 5   0  0.2622205E-07  0.3409551E+04  0.7818609E-02  0.8135566E-01
       -1   -1    0    0    0  501  0.00000000000E+00  0.00000000000E+00  0.11470641459E+04  0.11470641459E+04  0.50400001928E-02 0. -1.
        1   -1    0    0  501    0  0.00000000000E+00  0.00000000000E+00 -0.25336508515E+04  0.25336508515E+04  0.50400001928E-02 0.  1.
    10030    2    1    2    0    0  0.00000000000E+00  0.00000000000E+00 -0.13865867056E+04  0.36807149973E+04  0.34095513194E+04 0.  0.
        3    1    3    3  502    0 -0.16530954181E+04  0.37991599930E+03 -0.87776176498E+03  0.19098498251E+04  0.10100000352E+00 0. -1.
       -3    1    3    3    0  502  0.16530954181E+04 -0.37991599930E+03 -0.50882494060E+03  0.17708651723E+04  0.10100000352E+00 0.  1.
</event>
<event>
 5   0  0.8489228E-07  0.3376989E+04  0.7818609E-02  0.8143577E-01
        2   -1    0    0  501    0  0.00000000000E+00  0.00000000000E+00  0.16267780222E+04  0.16267780222E+04  0.25500000920E-02 0.  1.
       -2   -1    0    0    0  501  0.00000000000E+00  0.00000000000E+00 -0.17525528126E+04  0.17525528126E+04  0.25500000920E-02 0. -1.
    10030    2    1    2    0    0  0.00000000000E+00  0.00000000000E+00 -0.12577479040E+03  0.33793308349E+04  0.33769894275E+04 0.  0.
        3    1    3    3  502    0 -0.10355738888E+04  0.36584513556E+03 -0.13462579557E+04  0.17374309873E+04  0.10100000352E+00 0. -1.
       -3    1    3    3    0  502  0.10355738888E+04 -0.36584513556E+03  0.12204831653E+04  0.16418998475E+04  0.10100000352E+00 0.  1.
</event>
<event>
 5   0  0.2622205E-07  0.3354988E+04  0.7818609E-02  0.8149043E-01
       -1   -1    0    0    0  501  0.00000000000E+00  0.00000000000E+00  0.12207624197E+04  0.12207624197E+04  0.50400001928E-02 0. -1.
        1   -1    0    0  501    0  0.00000000000E+00  0.00000000000E+00 -0.23051057581E+04  0.23051057581E+04  0.50400001928E-02 0.  1.
    10030    2    1    2    0    0  0.00000000000E+00  0.00000000000E+00 -0.10843433384E+04  0.35258681778E+04  0.33549882163E+04 0.  0.
        3    1    3    3  502    0  0.12089633581E+04  0.52185327906E+03 -0.16343653562E+04  0.20988266660E+04  0.10100000352E+00 0.  1.
       -3    1    3    3    0  502 -0.12089633581E+04 -0.52185327906E+03  0.55002201776E+03  0.14270415118E+04  0.10100000352E+00 0. -1.
</event>
<event>
 5   0  0.2599367E-07  0.3377207E+04  0.7818609E-02  0.8143523E-01
       -1   -1    0    0    0  501  0.00000000000E+00  0.00000000000E+00  0.13278341391E+04  0.13278341391E+04  0.50400001928E-02 0.  1.
        1   -1    0    0  501    0  0.00000000000E+00  0.00000000000E+00 -0.21473932042E+04  0.21473932042E+04  0.50400001928E-02 0. -1.
    10030    2    1    2    0    0  0.00000000000E+00  0.00000000000E+00 -0.81955906508E+03  0.34752273433E+04  0.33772071341E+04 0.  0.
        2    1    3    3  502    0 -0.11619793990E+04  0.70602962425E+03  0.62063689532E+03  0.14946116920E+04  0.25500000920E-02 0.  1.
       -2    1    3    3    0  502  0.11619793990E+04 -0.70602962425E+03 -0.14401959604E+04  0.19806156513E+04  0.25500000920E-02 0. -1.
</event>
<event>
 5   0  0.7899402E-07  0.3412922E+04  0.7818609E-02  0.8134742E-01
        2   -1    0    0  501    0  0.00000000000E+00  0.00000000000E+00  0.26996186646E+04  0.26996186646E+04  0.25500000920E-02 0. -1.
       -2   -1    0    0    0  501  0.00000000000E+00  0.00000000000E+00 -0.10786743846E+04  0.10786743847E+04  0.25500000920E-02 0.  1.
    10030    2    1    2    0    0  0.00000000000E+00  0.00000000000E+00  0.16209442799E+04  0.37782930492E+04  0.34129222094E+04 0.  0.
        2    1    3    3  502    0  0.81999504049E+03 -0.12310481742E+04  0.17525350972E+04  0.22933056361E+04  0.25500000920E-02 0. -1.
       -2    1    3    3    0  502 -0.81999504049E+03  0.12310481742E+04 -0.13159081733E+03  0.14849874131E+04  0.25500000920E-02 0.  1.
</event>
<event>
 5   0  0.2553250E-07  0.3401213E+04  0.7818609E-02  0.8137609E-01
        1   -1    0    0  501    0  0.00000000000E+00  0.00000000000E+00  0.92063117746E+03  0.92063117747E+03  0.50400001928E-02 0. -1.
       -1   -1    0    0    0  501  0.00000000000E+00  0.00000000000E+00 -0.31413912219E+04  0.31413912219E+04  0.50400001928E-02 0.  1.
    10030    2    1    2    0    0  0.00000000000E+00  0.00000000000E+00 -0.22207600445E+04  0.40620223994E+04  0.34012131363E+04 0.  0.
        5    1    3    3  502    0 -0.12411738243E+04 -0.38881596150E+03 -0.24188461003E+04  0.27463664834E+04  0.46999998093E+01 0.  1.
       -5    1    3    3    0  502  0.12411738243E+04  0.38881596150E+03  0.19808605583E+03  0.13156559161E+04  0.46999998093E+01 0. -1.
</event>
<event>
 5   0  0.2641442E-07  0.3399256E+04  0.7818609E-02  0.8138089E-01
       -1   -1    0    0    0  501  0.00000000000E+00  0.00000000000E+00  0.84939858399E+03  0.84939858400E+03  0.50400001928E-02 0.  1.
        1   -1    0    0  501    0  0.00000000000E+00  0.00000000000E+00 -0.34009180146E+04  0.34009180146E+04  0.50400001928E-02 0. -1.
    10030    2    1    2    0    0  0.00000000000E+00  0.00000000000E+00 -0.25515194306E+04  0.42503165986E+04  0.33992557691E+04 0.  0.
        1    1    3    3  502    0 -0.14319235362E+04 -0.66030707358E+03 -0.48266386349E+03  0.16490527130E+04  0.50400001928E-02 0.  1.
       -1    1    3    3    0  502  0.14319235362E+04  0.66030707358E+03 -0.20688555671E+04  0.26012638856E+04  0.50400001928E-02 0. -1.
</event>
<event>
 5   0  0.7610412E-07  0.3417363E+04  0.7818609E-02  0.8133658E-01
        2   -1    0    0  501    0  0.00000000000E+00  0.00000000000E+00  0.14984997780E+04  0.14984997780E+04  0.25500000920E-02 0.  1.
       -2   -1    0    0    0  501  0.00000000000E+00  0.00000000000E+00 -0.19483436449E+04  0.19483436449E+04  0.25500000920E-02 0. -1.
    10030    2    1    2    0    0  0.00000000000E+00  0.00000000000E+00 -0.44984386690E+03  0.34468434229E+04  0.34173630298E+04 0.  0.
        4    1    3    3  502    0  0.48869831243E+03  0.14364393656E+04  0.56760886472E+03  0.16199893604E+04  0.12699999809E+01 0.  1.
       -4    1    3    3    0  502 -0.48869831243E+03 -0.14364393656E+04 -0.10174527316E+04  0.18268540625E+04  0.12699999809E+01 0. -1.
</event>
<event>
 5   0  0.2641442E-07  0.3385878E+04  0.7818609E-02  0.8141381E-01
        1   -1    0    0  501    0  0.00000000000E+00  0.00000000000E+00  0.13548894440E+04  0.13548894440E+04  0.50400001928E-02 0.  1.
       -1   -1    0    0    0  501  0.00000000000E+00  0.00000000000E+00 -0.21153336277E+04  0.21153336277E+04  0.50400001928E-02 0. -1.
    10030    2    1    2    0    0  0.00000000000E+00  0.00000000000E+00 -0.76044418370E+03  0.34702230716E+04  0.33858784400E+04 0.  0.
        1    1    3    3  502    0  0.13032131052E+04 -0.10742529273E+04 -0.26043702293E+03  0.17088625434E+04  0.50400001928E-02 0. -1.
       -1    1    3    3    0  502 -0.13032131052E+04  0.10742529273E+04 -0.50000716077E+03  0.17613605282E+04  0.50400001928E-02 0.  1.
</event>
<event>
 5   0  0.7610412E-07  0.3407003E+04  0.7818609E-02  0.8136190E-01
       -2   -1    0    0    0  501  0.00000000000E+00  0.00000000000E+00  0.11585392138E+04  0.11585392138E+04  0.25500000920E-02 0. -1.
        2   -1    0    0  501    0  0.00000000000E+00  0.00000000000E+00 -0.25048070069E+04  0.25048070069E+04  0.25500000920E-02 0.  1.
    10030    2    1    2    0    0  0.00000000000E+00  0.00000000000E+00 -0.13462677931E+04  0.36633462207E+04  0.34070028709E+04 0.  0.
        4    1    3    3  502    0  0.71061134786E+03  0.26486428292E+03  0.96701935439E+03  0.12289221378E+04  0.12699999809E+01 0. -1.
       -4    1    3    3    0  502 -0.71061134786E+03 -0.26486428292E+03 -0.23132871475E+04  0.24344240829E+04  0.12699999809E+01 0.  1.
</event>
<event>
 5   0  0.7822003E-07  0.3442940E+04  0.7818609E-02  0.8127447E-01
        2   -1    0    0  501    0  0.00000000000E+00  0.00000000000E+00  0.18439984170E+04  0.18439984170E+04  0.25500000920E-02 0.  1.
       -2   -1    0    0    0  501  0.00000000000E+00  0.00000000000E+00 -0.16070830112E+04  0.16070830112E+04  0.25500000920E-02 0. -1.
    10030    2    1    2    0    0  0.00000000000E+00  0.00000000000E+00  0.23691540576E+03  0.34510814282E+04  0.34429397489E+04 0.  0.
        5    1    3    3  502    0  0.12581451458E+04  0.11529204430E+04 -0.10853239830E+03  0.17099579314E+04  0.46999998093E+01 0. -1.
       -5    1    3    3    0  502 -0.12581451458E+04 -0.11529204430E+04  0.34544780406E+03  0.17411234968E+04  0.46999998093E+01 0.  1.
</event>
<event>
 5   0  0.2592200E-07  0.3397255E+04  0.7818609E-02  0.8138580E-01
        1   -1    0    0  501    0  0.00000000000E+00  0.00000000000E+00  0.15661754002E+04  0.15661754002E+04  0.50400001928E-02 0.  1.
       -1   -1    0    0    0  501  0.00000000000E+00  0.00000000000E+00 -0.18422812660E+04  0.18422812660E+04  0.50400001928E-02 0. -1.
    10030    2    1    2    0    0  0.00000000000E+00  0.00000000000E+00 -0.27610586572E+03  0.34084566662E+04  0.33972551268E+04 0.  0.
        4    1    3    3  502    0  0.11487405328E+04  0.10899316574E+03 -0.13886981120E+04  0.18055382524E+04  0.12699999809E+01 0. -1.
       -4    1    3    3    0  502 -0.11487405328E+04 -0.10899316574E+03  0.11125922463E+04  0.16029184138E+04  0.12699999809E+01 0.  1.
</event>
<event>
 5   0  0.7822003E-07  0.3029725E+04  0.7818609E-02  0.8235293E-01
       -2   -1    0    0    0  501  0.00000000000E+00  0.00000000000E+00  0.10837859777E+04  0.10837859777E+04  0.25500000920E-02 0. -1.
        2   -1    0    0  501    0  0.00000000000E+00  0.00000000000E+00 -0.21174003599E+04  0.21174003599E+04  0.25500000920E-02 0.  1.
    10030    2    1    2    0    0  0.00000000000E+00  0.00000000000E+00 -0.10336143822E+04  0.32011863376E+04  0.30297252807E+04 0.  0.
        5    1    3    3  502    0  0.66183390400E+03  0.37988588863E+03  0.86585653108E+03  0.11541520815E+04  0.46999998093E+01 0. -1.
       -5    1    3    3    0  502 -0.66183390400E+03 -0.37988588863E+03 -0.18994709133E+04  0.20470342560E+04  0.46999998093E+01 0.  1.
</event>
<event>
 5   0  0.2599367E-07  0.3386328E+04  0.7818609E-02  0.8141270E-01
       -1   -1    0    0    0  501  0.00000000000E+00  0.00000000000E+00  0.94567208156E+03  0.94567208158E+03  0.50400001928E-02 0.  1.
        1   -1    0    0  501    0  0.00000000000E+00  0.00000000000E+00 -0.30314985223E+04  0.30314985223E+04  0.50400001928E-02 0. -1.
    10030    2    1    2    0    0  0.00000000000E+00  0.00000000000E+00 -0.20858264407E+04  0.39771706039E+04  0.33863275198E+04 0.  0.
        2    1    3    3  502    0 -0.11311926796E+03  0.83445885667E+03  0.68228650027E+03  0.10838046045E+04  0.25500000920E-02 0.  1.
       -2    1    3    3    0  502  0.11311926796E+03 -0.83445885667E+03 -0.27681129410E+04  0.28933659994E+04  0.25500000920E-02 0. -1.
</event>
<event>
 5   0  0.7899402E-07  0.3401779E+04  0.7818609E-02  0.8137470E-01
       -2   -1    0    0    0  501  0.00000000000E+00  0.00000000000E+00  0.13420416475E+04  0.13420416475E+04  0.25500000920E-02 0. -1.
        2   -1    0    0  501    0  0.00000000000E+00  0.00000000000E+00 -0.21556900401E+04  0.21556900401E+04  0.25500000920E-02 0.  1.
    10030    2    1    2    0    0  0.00000000000E+00  0.00000000000E+00 -0.81364839260E+03  0.34977316876E+04  0.34017794243E+04 0.  0.
        2    1    3    3  502    0 -0.11898412440E+04 -0.75564947899E+03 -0.13856732619E+04  0.19765674058E+04  0.25500000920E-02 0.  1.
       -2    1    3    3    0  502  0.11898412440E+04  0.75564947899E+03  0.57202486934E+03  0.15211642818E+04  0.25500000920E-02 0. -1.
</event>
<event>
 5   0  0.2553250E-07  0.3408183E+04  0.7818609E-02  0.8135901E-01
        1   -1    0    0  501    0  0.00000000000E+00  0.00000000000E+00  0.13566310214E+04  0.13566310214E+04  0.50400001928E-02 0. -1.
       -1   -1    0    0    0  501  0.00000000000E+00  0.00000000000E+00 -0.21405430201E+04  0.21405430201E+04  0.50400001928E-02 0.  1.
    10030    2    1    2    0    0  0.00000000000E+00  0.00000000000E+00 -0.78391199869E+03  0.34971740415E+04  0.34081825443E+04 0.  0.
        5    1    3    3  502    0  0.14116238899E+04 -0.83769725461E+03  0.77691687112E+02  0.16433127473E+04  0.46999998093E+01 0. -1.
       -5    1    3    3    0  502 -0.14116238899E+04  0.83769725461E+03 -0.86160368580E+03  0.18538612943E+04  0.46999998093E+01 0.  1.
</event>
</LesHouchesEvents>
