<LesHouchesEvents version="3.0">
<header>
<!--
#*********************************************************************
#                                                                    *
#                        MadGraph5_aMC@NLO                           *
#                                                                    *
#                           Going Beyond                             *
#                                                                    *
#                   http://madgraph.hep.uiuc.edu                     *
#                   http://madgraph.phys.ucl.ac.be                   *
#                   http://amcatnlo.cern.ch                          *
#                                                                    *
#                     The MadGraph5_aMC@NLO team                     *
#                                                                    *
#....................................................................*
#                                                                    *
# This file contains all the information necessary to reproduce      *
# the events generated:                                              *
#                                                                    *
# 1. software version                                                *
# 2. proc_card          : code generation info including model       *
# 3. param_card         : model primary parameters in the LH format  *
# 4. run_card           : running parameters (collider and cuts)     *
# 5. pythia_card        : present only if pythia has been run        *
# 6. pgs_card           : present only if pgs has been run           *
# 7. delphes_cards      : present only if delphes has been run       *
#                                                                    *
#                                                                    *
#*********************************************************************
-->
<MGVersion>
#5.2.2.3
</MGVersion>
<MG5ProcCard>
#************************************************************
#*                     MadGraph5_aMC@NLO                    *
#*                                                          *
#*                *                       *                 *
#*                  *        * *        *                   *
#*                    * * * * 5 * * * *                     *
#*                  *        * *        *                   *
#*                *                       *                 *
#*                                                          *
#*                                                          *
#*         VERSION 2.2.3                 2015-02-10         *
#*                                                          *
#*    The MadGraph5_aMC@NLO Development Team - Find us at   *
#*    https://server06.fynu.ucl.ac.be/projects/madgraph     *
#*                                                          *
#************************************************************
#*                                                          *
#*               Command File for MadGraph5_aMC@NLO         *
#*                                                          *
#*     run as ./bin/mg5_aMC  filename                       *
#*                                                          *
#************************************************************
set group_subprocesses Auto
set ignore_six_quark_processes False
set loop_optimized_output True
set gauge unitary
set complex_mass_scheme False
import model sm
define p = g u c d s u~ c~ d~ s~
define j = g u c d s u~ c~ d~ s~
define l+ = e+ mu+
define l- = e- mu-
define vl = ve vm vt
define vl~ = ve~ vm~ vt~
import model Zprime_UFO
generate p p > zph, zph > j j
add process p p > zph, zph > b b~
output Dijet_signal
</MG5ProcCard>
<MGProcCard>
#*********************************************************************
#                        MadGraph/MadEvent                           *
#                   http://madgraph.hep.uiuc.edu                     *
#                                                                    *
#                          proc_card.dat                             *
#*********************************************************************
#                                                                    *
#            This Files is generated by MADGRAPH 5                   *
#                                                                    *
# WARNING: This Files is generated for MADEVENT (compatibility issue)*
#          This files is NOT a valid MG4 proc_card.dat               *
#          Running this in MG4 will NEVER reproduce the result of MG5*
#                                                                    *
#*********************************************************************
#*********************************************************************
# Process(es) requested : mg2 input                                  *
#*********************************************************************
# Begin PROCESS # This is TAG. Do not modify this line
p p > zph , zph > j j           #Process
# Be carefull the coupling are here in MG5 convention
          
end_coup           # End the couplings input

done               # this tells MG there are no more procs
# End PROCESS  # This is TAG. Do not modify this line
#*********************************************************************
# Model information                                                  *
#*********************************************************************
# Begin MODEL  # This is TAG. Do not modify this line
Zprime_UFO
# End   MODEL  # This is TAG. Do not modify this line
#*********************************************************************
# Start multiparticle definitions                                    *
#*********************************************************************
# Begin MULTIPARTICLES # This is TAG. Do not modify this line

# End  MULTIPARTICLES # This is TAG. Do not modify this line
</MGProcCard>
<MGRunCard>
#*********************************************************************
#                       MadGraph5_aMC@NLO                            *
#                                                                    *
#                     run_card.dat MadEvent                          *
#                                                                    *
#  This file is used to set the parameters of the run.               *
#                                                                    *
#  Some notation/conventions:                                        *
#                                                                    *
#   Lines starting with a '# ' are info or comments                  *
#                                                                    *
#   mind the format:   value    = variable     ! comment             *
#*********************************************************************
#
#*******************                                                 
# Running parameters
#*******************                                                 
#                                                                    
#*********************************************************************
# Tag name for the run (one word)                                    *
#*********************************************************************
  tag_1     = run_tag ! name of the run 
#*********************************************************************
# Run to generate the grid pack                                      *
#*********************************************************************
  .false.     = gridpack  !True = setting up the grid pack
#*********************************************************************
# Number of events and rnd seed                                      *
# Warning: Do not generate more than 1M events in a single run       *
# If you want to run Pythia, avoid more than 50k events in a run.    *
#*********************************************************************
  2000 = nevents ! Number of unweighted events requested 
 2226 = iseed   ! rnd seed (0=assigned automatically=default))
#*********************************************************************
# Collider type and energy                                           *
# lpp: 0=No PDF, 1=proton, -1=antiproton, 2=photon from proton,      *
#                                         3=photon from electron     *
#*********************************************************************
        1     = lpp1    ! beam 1 type 
        1     = lpp2    ! beam 2 type
     4000     = ebeam1  ! beam 1 total energy in GeV
     4000     = ebeam2  ! beam 2 total energy in GeV
#*********************************************************************
# Beam polarization from -100 (left-handed) to 100 (right-handed)    *
#*********************************************************************
        0     = polbeam1 ! beam polarization for beam 1
        0     = polbeam2 ! beam polarization for beam 2
#*********************************************************************
# PDF CHOICE: this automatically fixes also alpha_s and its evol.    *
#*********************************************************************
 'nn23lo1'    = pdlabel     ! PDF set                                     
 230000    = lhaid     ! if pdlabel=lhapdf, this is the lhapdf number
#*********************************************************************
# Renormalization and factorization scales                           *
#*********************************************************************
 F        = fixed_ren_scale  ! if .true. use fixed ren scale
 F        = fixed_fac_scale  ! if .true. use fixed fac scale
 91.1880  = scale            ! fixed ren scale
 91.1880  = dsqrt_q2fact1    ! fixed fact scale for pdf1
 91.1880  = dsqrt_q2fact2    ! fixed fact scale for pdf2
 1        = scalefact        ! scale factor for event-by-event scales
#*********************************************************************
# Matching - Warning! ickkw > 1 is still beta
#*********************************************************************
 0        = ickkw            ! 0 no matching, 1 MLM, 2 CKKW matching
 1        = highestmult      ! for ickkw=2, highest mult group
 1        = ktscheme         ! for ickkw=1, 1 Durham kT, 2 Pythia pTE
 1        = alpsfact         ! scale factor for QCD emission vx
 F        = chcluster        ! cluster only according to channel diag
 T        = pdfwgt           ! for ickkw=1, perform pdf reweighting
 5        = asrwgtflavor     ! highest quark flavor for a_s reweight
 T        = clusinfo         ! include clustering tag in output
 3.0      = lhe_version       ! Change the way clustering information pass to shower.        
#*********************************************************************
#**********************************************************
#
#**********************************************************
# Automatic ptj and mjj cuts if xqcut > 0
# (turn off for VBF and single top processes)
#**********************************************************
   T  = auto_ptj_mjj  ! Automatic setting of ptj and mjj
#**********************************************************
#                                                                    
#**********************************
# BW cutoff (M+/-bwcutoff*Gamma)
#**********************************
  15  = bwcutoff      ! (M+/-bwcutoff*Gamma)
#**********************************************************
# Apply pt/E/eta/dr/mij cuts on decay products or not
# (note that etmiss/ptll/ptheavy/ht/sorted cuts always apply)
#**********************************************************
   T  = cut_decays    ! Cut decay products 
#*************************************************************
# Number of helicities to sum per event (0 = all helicities)
# 0 gives more stable result, but longer run time (needed for
# long decay chains e.g.).
# Use >=2 if most helicities contribute, e.g. pure QCD.
#*************************************************************
   0  = nhel          ! Number of helicities used per event
#*******************                                                 
# Standard Cuts
#*******************                                                 
#                                                                    
#*********************************************************************
# Minimum and maximum pt's (for max, -1 means no cut)                *
#*********************************************************************
 20  = ptj       ! minimum pt for the jets 
  0  = ptb       ! minimum pt for the b 
 10  = pta       ! minimum pt for the photons 
 10  = ptl       ! minimum pt for the charged leptons 
  0  = misset    ! minimum missing Et (sum of neutrino's momenta)
  0  = ptheavy   ! minimum pt for one heavy final state
 1.0 = ptonium   ! minimum pt for the quarkonium states
 -1  = ptjmax    ! maximum pt for the jets
 -1  = ptbmax    ! maximum pt for the b
 -1  = ptamax    ! maximum pt for the photons
 -1  = ptlmax    ! maximum pt for the charged leptons
 -1  = missetmax ! maximum missing Et (sum of neutrino's momenta)
#*********************************************************************
# Minimum and maximum E's (in the center of mass frame)              *
#*********************************************************************
  0  = ej     ! minimum E for the jets 
  0  = eb     ! minimum E for the b 
  0  = ea     ! minimum E for the photons 
  0  = el     ! minimum E for the charged leptons 
 -1   = ejmax ! maximum E for the jets
 -1   = ebmax ! maximum E for the b
 -1   = eamax ! maximum E for the photons
 -1   = elmax ! maximum E for the charged leptons
#*********************************************************************
# Maximum and minimum absolute rapidity (for max, -1 means no cut)   *
#*********************************************************************
   5  = etaj    ! max rap for the jets 
  -1  = etab    ! max rap for the b
 2.5  = etaa    ! max rap for the photons 
 2.5  = etal    ! max rap for the charged leptons 
 0.6  = etaonium ! max rap for the quarkonium states
   0  = etajmin ! min rap for the jets
   0  = etabmin ! min rap for the b
   0  = etaamin ! min rap for the photons
   0  = etalmin ! main rap for the charged leptons
#*********************************************************************
# Minimum and maximum DeltaR distance                                *
#*********************************************************************
 0.4 = drjj    ! min distance between jets 
 0   = drbb    ! min distance between b's 
 0.4 = drll    ! min distance between leptons 
 0.4 = draa    ! min distance between gammas 
 0   = drbj    ! min distance between b and jet 
 0.4 = draj    ! min distance between gamma and jet 
 0.4 = drjl    ! min distance between jet and lepton 
 0   = drab    ! min distance between gamma and b 
 0   = drbl    ! min distance between b and lepton 
 0.4 = dral    ! min distance between gamma and lepton 
 -1  = drjjmax ! max distance between jets
 -1  = drbbmax ! max distance between b's
 -1  = drllmax ! max distance between leptons
 -1  = draamax ! max distance between gammas
 -1  = drbjmax ! max distance between b and jet
 -1  = drajmax ! max distance between gamma and jet
 -1  = drjlmax ! max distance between jet and lepton
 -1  = drabmax ! max distance between gamma and b
 -1  = drblmax ! max distance between b and lepton
 -1  = dralmax ! maxdistance between gamma and lepton
#*********************************************************************
# Minimum and maximum invariant mass for pairs                       *
# WARNING: for four lepton final state mmll cut require to have      *
#          different lepton masses for each flavor!                  *           
#*********************************************************************
 0   = mmjj    ! min invariant mass of a jet pair 
 0   = mmbb    ! min invariant mass of a b pair 
 0   = mmaa    ! min invariant mass of gamma gamma pair
 0   = mmll    ! min invariant mass of l+l- (same flavour) lepton pair
 -1  = mmjjmax ! max invariant mass of a jet pair
 -1  = mmbbmax ! max invariant mass of a b pair
 -1  = mmaamax ! max invariant mass of gamma gamma pair
 -1  = mmllmax ! max invariant mass of l+l- (same flavour) lepton pair
#*********************************************************************
# Minimum and maximum invariant mass for all letpons                 *
#*********************************************************************
 0   = mmnl    ! min invariant mass for all letpons (l+- and vl) 
 -1  = mmnlmax ! max invariant mass for all letpons (l+- and vl) 
#*********************************************************************
# Minimum and maximum pt for 4-momenta sum of leptons                *
#*********************************************************************
 0   = ptllmin  ! Minimum pt for 4-momenta sum of leptons(l and vl)
 -1  = ptllmax  ! Maximum pt for 4-momenta sum of leptons(l and vl)
#*********************************************************************
# Inclusive cuts                                                     *
#*********************************************************************
 0  = xptj ! minimum pt for at least one jet  
 0  = xptb ! minimum pt for at least one b 
 0  = xpta ! minimum pt for at least one photon 
 0  = xptl ! minimum pt for at least one charged lepton 
#*********************************************************************
# Control the pt's of the jets sorted by pt                          *
#*********************************************************************
 0   = ptj1min ! minimum pt for the leading jet in pt
 0   = ptj2min ! minimum pt for the second jet in pt
 0   = ptj3min ! minimum pt for the third jet in pt
 0   = ptj4min ! minimum pt for the fourth jet in pt
 -1  = ptj1max ! maximum pt for the leading jet in pt 
 -1  = ptj2max ! maximum pt for the second jet in pt
 -1  = ptj3max ! maximum pt for the third jet in pt
 -1  = ptj4max ! maximum pt for the fourth jet in pt
 0   = cutuse  ! reject event if fails any (0) / all (1) jet pt cuts
#*********************************************************************
# Control the pt's of leptons sorted by pt                           *
#*********************************************************************
 0   = ptl1min ! minimum pt for the leading lepton in pt
 0   = ptl2min ! minimum pt for the second lepton in pt
 0   = ptl3min ! minimum pt for the third lepton in pt
 0   = ptl4min ! minimum pt for the fourth lepton in pt
 -1  = ptl1max ! maximum pt for the leading lepton in pt 
 -1  = ptl2max ! maximum pt for the second lepton in pt
 -1  = ptl3max ! maximum pt for the third lepton in pt
 -1  = ptl4max ! maximum pt for the fourth lepton in pt
#*********************************************************************
# Control the Ht(k)=Sum of k leading jets                            *
#*********************************************************************
 0   = htjmin ! minimum jet HT=Sum(jet pt)
 -1  = htjmax ! maximum jet HT=Sum(jet pt)
 0   = ihtmin  !inclusive Ht for all partons (including b)
 -1  = ihtmax  !inclusive Ht for all partons (including b)
 0   = ht2min ! minimum Ht for the two leading jets
 0   = ht3min ! minimum Ht for the three leading jets
 0   = ht4min ! minimum Ht for the four leading jets
 -1  = ht2max ! maximum Ht for the two leading jets
 -1  = ht3max ! maximum Ht for the three leading jets
 -1  = ht4max ! maximum Ht for the four leading jets
#***********************************************************************
# Photon-isolation cuts, according to hep-ph/9801442                   *
# When ptgmin=0, all the other parameters are ignored                  *
# When ptgmin>0, pta and draj are not going to be used                 *
#***********************************************************************
   0 = ptgmin ! Min photon transverse momentum
 0.4 = R0gamma ! Radius of isolation code
 1.0 = xn ! n parameter of eq.(3.4) in hep-ph/9801442
 1.0 = epsgamma ! epsilon_gamma parameter of eq.(3.4) in hep-ph/9801442
 .true. = isoEM ! isolate photons from EM energy (photons and leptons)
#*********************************************************************
# WBF cuts                                                           *
#*********************************************************************
 0   = xetamin ! minimum rapidity for two jets in the WBF case  
 0   = deltaeta ! minimum rapidity for two jets in the WBF case 
#*********************************************************************
# KT DURHAM CUT                                                      *
#*********************************************************************
 -1    =  ktdurham        
 0.4  =  dparameter 
#*********************************************************************
# maximal pdg code for quark to be considered as a light jet         *
# (otherwise b cuts are applied)                                     *
#*********************************************************************
 4 = maxjetflavor    ! Maximum jet pdg code
#*********************************************************************
# Jet measure cuts                                                   *
#*********************************************************************
 0   = xqcut   ! minimum kt jet measure between partons
#*********************************************************************
#
#*********************************************************************
# Store info for systematics studies                                 *
# WARNING: If use_syst is T, matched Pythia output is                *
#          meaningful ONLY if plotted taking matchscale              *
#          reweighting into account!                                 *
#*********************************************************************
   F  = use_syst      ! Enable systematics studies
#
#**************************************
# Parameter of the systematics study
#  will be used by SysCalc (if installed)
#**************************************                                  
#
0.5 1 2 = sys_scalefact  # factorization/renormalization scale factor
0.5 1 2 = sys_alpsfact  # \alpha_s emission scale factors
30 50 = sys_matchscale # variation of merging scale
# PDF sets and number of members (0 or none for all members).
CT10nlo.LHgrid = sys_pdf # matching scales
# MSTW2008nlo68cl.LHgrid 1  = sys_pdf
</MGRunCard>
<slha>
######################################################################
## PARAM_CARD AUTOMATICALY GENERATED BY MG5 FOLLOWING UFO MODEL   ####
######################################################################
##                                                                  ##
##  Width set on Auto will be computed following the information    ##
##        present in the decay.py files of the model.               ##
##        See  arXiv:1402.1178 for more details.                    ##
##                                                                  ##
######################################################################

###################################
## INFORMATION FOR CKMBLOCK
###################################
Block ckmblock 
    1 2.277360e-01 # cabi 

###################################
## INFORMATION FOR FRBLOCK
###################################
Block frblock 
    1 1.200000e+00 # gz 

###################################
## INFORMATION FOR MASS
###################################
Block mass 
    1 5.040000e-03 # MD 
    2 2.550000e-03 # MU 
    3 1.010000e-01 # MS 
    4 1.270000e+00 # MC 
    5 4.700000e+00 # MB 
    6 1.720000e+02 # MT 
   11 5.110000e-04 # Me 
   13 1.056600e-01 # MM 
   15 1.777000e+00 # MTA 
   23 9.118760e+01 # MZ 
   25 1.200000e+02 # MH 
  10030 1.700000e+03 # MZph 
  10031 3.000000e+02 # MZpl 
## Dependent parameters, given by model restrictions.
## Those values should be edited following the 
## analytical expression. MG5 ignores those values 
## but they are important for interfacing the output of MG5
## to external program such as Pythia.
  12 0.000000 # ve : 0.0 
  14 0.000000 # vm : 0.0 
  16 0.000000 # vt : 0.0 
  21 0.000000 # g : 0.0 
  22 0.000000 # a : 0.0 
  24 79.824360 # w+ : cmath.sqrt(MZ__exp__2/2. + cmath.sqrt(MZ__exp__4/4. - (aEW*cmath.pi*MZ__exp__2)/(Gf*sqrt__2))) 

###################################
## INFORMATION FOR SMINPUTS
###################################
Block sminputs 
    1 1.279000e+02 # aEWM1 
    2 1.166370e-05 # Gf 
    3 1.184000e-01 # aS 

###################################
## INFORMATION FOR YUKAWA
###################################
Block yukawa 
    1 5.040000e-03 # ymdo 
    2 2.550000e-03 # ymup 
    3 1.010000e-01 # yms 
    4 1.270000e+00 # ymc 
    5 4.700000e+00 # ymb 
    6 1.720000e+02 # ymt 
   11 5.110000e-04 # yme 
   13 1.056600e-01 # ymm 
   15 1.777000e+00 # ymtau 

###################################
## INFORMATION FOR DECAY
###################################
DECAY   6 1.508336e+00 # WT 
DECAY  23 2.495200e+00 # WZ 
DECAY  24 2.085000e+00 # WW 
DECAY  25 5.753088e-03 # WH 
## Dependent parameters, given by model restrictions.
## Those values should be edited following the 
## analytical expression. MG5 ignores those values 
## but they are important for interfacing the output of MG5
## to external program such as Pythia.
DECAY  1 0.000000 # d : 0.0 
DECAY  2 0.000000 # u : 0.0 
DECAY  3 0.000000 # s : 0.0 
DECAY  4 0.000000 # c : 0.0 
DECAY  5 0.000000 # b : 0.0 
DECAY  11 0.000000 # e- : 0.0 
DECAY  12 0.000000 # ve : 0.0 
DECAY  13 0.000000 # mu- : 0.0 
DECAY  14 0.000000 # vm : 0.0 
DECAY  15 0.000000 # ta- : 0.0 
DECAY  16 0.000000 # vt : 0.0 
DECAY  21 0.000000 # g : 0.0 
DECAY  22 0.000000 # a : 0.0 
DECAY  10030 0.308725 # zph : (gz__exp__2*MZph*(5 + cmath.sqrt(1 - (4*MT__exp__2)/MZph__exp__2)))/(144.*cmath.pi) 
DECAY  10031 0.132629 # zpl : (5*gz__exp__2*MZpl)/(144.*cmath.pi) 
#===========================================================
# QUANTUM NUMBERS OF NEW STATE(S) (NON SM PDG CODE)
#===========================================================

Block QNUMBERS 10030  # zph 
        1 0  # 3 times electric charge
        2 3  # number of spin states (2S+1)
        3 1  # colour rep (1: singlet, 3: triplet, 8: octet)
        4 0  # Particle/Antiparticle distinction (0=own anti)
Block QNUMBERS 10031  # zpl 
        1 0  # 3 times electric charge
        2 3  # number of spin states (2S+1)
        3 1  # colour rep (1: singlet, 3: triplet, 8: octet)
        4 0  # Particle/Antiparticle distinction (0=own anti)
</slha>
## END BANNER##
<MGGenerationInfo>
#  Number of Events        :         3987
#  Integrated weight (pb)  :  0.15286E+00
#  Max wgt                 :  0.53423E-04
#  Average wgt             :  0.38340E-04
</MGGenerationInfo>
</header>
<init>
     2212     2212  0.40000000000E+04  0.40000000000E+04 0 0  247000  247000 2   1
  0.15301571837E+00  0.31213765081E-03  0.53422550000E-04   0
</init>
<event>
 5   0  0.5310003E-04  0.1705014E+04  0.7818609E-02  0.8758510E-01
        2   -1    0    0  501    0  0.00000000000E+00  0.00000000000E+00  0.18000387147E+04  0.18000387147E+04  0.25500000920E-02 0.  1.
       -2   -1    0    0    0  501  0.00000000000E+00  0.00000000000E+00 -0.40375151806E+03  0.40375151807E+03  0.25500000920E-02 0. -1.
    10030    2    1    2    0    0  0.00000000000E+00  0.00000000000E+00  0.13962871966E+04  0.22037902327E+04  0.17050142095E+04 0.  0.
        1    1    3    3  502    0  0.74738181139E+03  0.39284067517E+03  0.54594799081E+03  0.10054663479E+04  0.50400001928E-02 0. -1.
       -1    1    3    3    0  502 -0.74738181139E+03 -0.39284067517E+03  0.85033920580E+03  0.11983238849E+04  0.50400001928E-02 0.  1.
</event>
<event>
 5   0  0.5310003E-04  0.1703751E+04  0.7818609E-02  0.8759228E-01
       -2   -1    0    0    0  501  0.00000000000E+00  0.00000000000E+00  0.82281657878E+03  0.82281657878E+03  0.25500000920E-02 0. -1.
        2   -1    0    0  501    0  0.00000000000E+00  0.00000000000E+00 -0.88196117635E+03  0.88196117635E+03  0.25500000920E-02 0.  1.
    10030    2    1    2    0    0  0.00000000000E+00  0.00000000000E+00 -0.59144597572E+02  0.17047777551E+04  0.17037514816E+04 0.  0.
        1    1    3    3  502    0 -0.42615003817E+03 -0.69546617286E+03  0.21637084621E+03  0.84385626486E+03  0.50400001928E-02 0. -1.
       -1    1    3    3    0  502  0.42615003817E+03  0.69546617286E+03 -0.27551544378E+03  0.86092149028E+03  0.50400001928E-02 0.  1.
</event>
<event>
 5   0  0.5299877E-04  0.1676184E+04  0.7818609E-02  0.8775065E-01
        2   -1    0    0  501    0  0.00000000000E+00  0.00000000000E+00  0.13353984008E+04  0.13353984008E+04  0.25500000920E-02 0.  1.
       -2   -1    0    0    0  501  0.00000000000E+00  0.00000000000E+00 -0.52598416603E+03  0.52598416604E+03  0.25500000920E-02 0. -1.
    10030    2    1    2    0    0  0.00000000000E+00  0.00000000000E+00  0.80941423481E+03  0.18613825669E+04  0.16761842550E+04 0.  0.
        3    1    3    3  502    0 -0.76372651600E+02  0.73429352099E+03 -0.35834344967E+02  0.73912371587E+03  0.10100000352E+00 0. -1.
       -3    1    3    3    0  502  0.76372651600E+02 -0.73429352099E+03  0.84524857977E+03  0.11222588510E+04  0.10100000352E+00 0.  1.
</event>
<event>
 5   0  0.5310003E-04  0.1661904E+04  0.7818609E-02  0.8783395E-01
        2   -1    0    0  501    0  0.00000000000E+00  0.00000000000E+00  0.83579359656E+03  0.83579359657E+03  0.25500000920E-02 0. -1.
       -2   -1    0    0    0  501  0.00000000000E+00  0.00000000000E+00 -0.82613886073E+03  0.82613886073E+03  0.25500000920E-02 0.  1.
    10030    2    1    2    0    0  0.00000000000E+00  0.00000000000E+00  0.96547358361E+01  0.16619324573E+04  0.16619044132E+04 0.  0.
        1    1    3    3  502    0  0.83387535954E+02  0.45997666108E+03 -0.68217007594E+03  0.82697522480E+03  0.50400001928E-02 0.  1.
       -1    1    3    3    0  502 -0.83387535954E+02 -0.45997666108E+03  0.69182481178E+03  0.83495723250E+03  0.50400001928E-02 0. -1.
</event>
<event>
 5   0  0.5299877E-04  0.1695117E+04  0.7818609E-02  0.8764154E-01
        2   -1    0    0  501    0  0.00000000000E+00  0.00000000000E+00  0.13964842136E+04  0.13964842136E+04  0.25500000920E-02 0. -1.
       -2   -1    0    0    0  501  0.00000000000E+00  0.00000000000E+00 -0.51440295115E+03  0.51440295116E+03  0.25500000920E-02 0.  1.
    10030    2    1    2    0    0  0.00000000000E+00  0.00000000000E+00  0.88208126242E+03  0.19108871647E+04  0.16951172239E+04 0.  0.
        3    1    3    3  502    0  0.21904698713E+03 -0.59303029230E+03  0.10774241125E+04  0.12492034416E+04  0.10100000352E+00 0. -1.
       -3    1    3    3    0  502 -0.21904698713E+03  0.59303029230E+03 -0.19534285008E+03  0.66168372311E+03  0.10100000352E+00 0.  1.
</event>
<event>
 5   0  0.2630135E-04  0.1590149E+04  0.7818609E-02  0.8826623E-01
        1   -1    0    0  501    0  0.00000000000E+00  0.00000000000E+00  0.98985968757E+03  0.98985968758E+03  0.50400001928E-02 0.  1.
       -1   -1    0    0    0  501  0.00000000000E+00  0.00000000000E+00 -0.63861945493E+03  0.63861945495E+03  0.50400001928E-02 0. -1.
    10030    2    1    2    0    0  0.00000000000E+00  0.00000000000E+00  0.35124023264E+03  0.16284791425E+04  0.15901492435E+04 0.  0.
        1    1    3    3  502    0 -0.62410460970E+03  0.10398516272E+03 -0.31746702383E+03  0.70788755404E+03  0.50400001928E-02 0. -1.
       -1    1    3    3    0  502  0.62410460970E+03 -0.10398516272E+03  0.66870725647E+03  0.92059158849E+03  0.50400001928E-02 0.  1.
</event>
<event>
 5   0  0.2583422E-04  0.1708039E+04  0.7818609E-02  0.8756793E-01
       -1   -1    0    0    0  501  0.00000000000E+00  0.00000000000E+00  0.80333558995E+03  0.80333558996E+03  0.50400001928E-02 0.  1.
        1   -1    0    0  501    0  0.00000000000E+00  0.00000000000E+00 -0.90790120790E+03  0.90790120791E+03  0.50400001928E-02 0. -1.
    10030    2    1    2    0    0  0.00000000000E+00  0.00000000000E+00 -0.10456561795E+03  0.17112367979E+04  0.17080390540E+04 0.  0.
        3    1    3    3  502    0 -0.74873052078E+03 -0.11875569308E+03  0.34170784614E+03  0.83154348636E+03  0.10100000352E+00 0.  1.
       -3    1    3    3    0  502  0.74873052078E+03  0.11875569308E+03 -0.44627346409E+03  0.87969331152E+03  0.10100000352E+00 0. -1.
</event>
<event>
 5   0  0.5310003E-04  0.1735313E+04  0.7818609E-02  0.8741477E-01
       -2   -1    0    0    0  501  0.00000000000E+00  0.00000000000E+00  0.55075452189E+03  0.55075452190E+03  0.25500000920E-02 0.  1.
        2   -1    0    0  501    0  0.00000000000E+00  0.00000000000E+00 -0.13669018412E+04  0.13669018412E+04  0.25500000920E-02 0. -1.
    10030    2    1    2    0    0  0.00000000000E+00  0.00000000000E+00 -0.81614731935E+03  0.19176563631E+04  0.17353125022E+04 0.  0.
        1    1    3    3  502    0  0.63280083310E+03  0.48722307852E+03 -0.78283073544E+03  0.11183233803E+04  0.50400001928E-02 0. -1.
       -1    1    3    3    0  502 -0.63280083310E+03 -0.48722307852E+03 -0.33316583907E+02  0.79933298281E+03  0.50400001928E-02 0.  1.
</event>
<event>
 5   0  0.2595644E-04  0.1706623E+04  0.7818609E-02  0.8757596E-01
       -1   -1    0    0    0  501  0.00000000000E+00  0.00000000000E+00  0.85584318122E+03  0.85584318124E+03  0.50400001928E-02 0. -1.
        1   -1    0    0  501    0  0.00000000000E+00  0.00000000000E+00 -0.85078756456E+03  0.85078756458E+03  0.50400001928E-02 0.  1.
    10030    2    1    2    0    0  0.00000000000E+00  0.00000000000E+00  0.50556166623E+01  0.17066307458E+04  0.17066232576E+04 0.  0.
        2    1    3    3  502    0 -0.16729215716E+03 -0.75082213111E+03  0.37188047797E+03  0.85440952026E+03  0.25500000920E-02 0. -1.
       -2    1    3    3    0  502  0.16729215716E+03  0.75082213111E+03 -0.36682486131E+03  0.85222122556E+03  0.25500000920E-02 0.  1.
</event>
<event>
 5   0  0.5310003E-04  0.1694204E+04  0.7818609E-02  0.8764677E-01
        2   -1    0    0  501    0  0.00000000000E+00  0.00000000000E+00  0.34064160478E+04  0.34064160478E+04  0.25500000920E-02 0.  1.
       -2   -1    0    0    0  501  0.00000000000E+00  0.00000000000E+00 -0.21065582878E+03  0.21065582879E+03  0.25500000920E-02 0. -1.
    10030    2    1    2    0    0  0.00000000000E+00  0.00000000000E+00  0.31957602191E+04  0.36170718766E+04  0.16942035247E+04 0.  0.
        1    1    3    3  502    0 -0.39143551244E+02  0.67476751422E+03  0.50771141598E+03  0.84534862500E+03  0.50400001928E-02 0. -1.
       -1    1    3    3    0  502  0.39143551244E+02 -0.67476751422E+03  0.26880488031E+04  0.27717232516E+04  0.50400001928E-02 0.  1.
</event>
<event>
 5   0  0.1910750E-04  0.1637614E+04  0.7818609E-02  0.8797768E-01
        4   -1    0    0  501    0  0.00000000000E+00  0.00000000000E+00  0.78949193283E+03  0.78949295431E+03  0.12699999809E+01 0. -1.
       -4   -1    0    0    0  501  0.00000000000E+00  0.00000000000E+00 -0.84920805909E+03  0.84920900874E+03  0.12699999809E+01 0.  1.
    10030    2    1    2    0    0  0.00000000000E+00  0.00000000000E+00 -0.59716126258E+02  0.16387019630E+04  0.16376135405E+04 0.  0.
        3    1    3    3  502    0  0.26662406248E+03 -0.32372138835E+02  0.74415986525E+03  0.79114490538E+03  0.10100000352E+00 0. -1.
       -3    1    3    3    0  502 -0.26662406248E+03  0.32372138835E+02 -0.80387599151E+03  0.84755705766E+03  0.10100000352E+00 0.  1.
</event>
<event>
 5   0  0.5342255E-04  0.1705435E+04  0.7818609E-02  0.8758271E-01
       -2   -1    0    0    0  501  0.00000000000E+00  0.00000000000E+00  0.78163414285E+03  0.78163414285E+03  0.25500000920E-02 0. -1.
        2   -1    0    0  501    0  0.00000000000E+00  0.00000000000E+00 -0.93026529449E+03  0.93026529449E+03  0.25500000920E-02 0.  1.
    10030    2    1    2    0    0  0.00000000000E+00  0.00000000000E+00 -0.14863115164E+03  0.17118994373E+04  0.17054349780E+04 0.  0.
        5    1    3    3  502    0 -0.32266674179E+02 -0.84695410857E+03 -0.16811831241E+03  0.86409389377E+03  0.46999998093E+01 0.  1.
       -5    1    3    3    0  502  0.32266674179E+02  0.84695410857E+03  0.19487160777E+02  0.84780554357E+03  0.46999998093E+01 0. -1.
</event>
<event>
 5   0  0.2785059E-04  0.1687012E+04  0.7818609E-02  0.8768807E-01
       -1   -1    0    0    0  501  0.00000000000E+00  0.00000000000E+00  0.76857848195E+03  0.76857848196E+03  0.50400001928E-02 0.  1.
        1   -1    0    0  501    0  0.00000000000E+00  0.00000000000E+00 -0.92573769564E+03  0.92573769565E+03  0.50400001928E-02 0. -1.
    10030    2    1    2    0    0  0.00000000000E+00  0.00000000000E+00 -0.15715921369E+03  0.16943161776E+04  0.16870116453E+04 0.  0.
        5    1    3    3  502    0  0.34708067463E+03 -0.67589714807E+03 -0.44646884883E+03  0.88128228874E+03  0.46999998093E+01 0. -1.
       -5    1    3    3    0  502 -0.34708067463E+03  0.67589714807E+03  0.28930963513E+03  0.81303388887E+03  0.46999998093E+01 0.  1.
</event>
<event>
 5   0  0.1910750E-04  0.1700368E+04  0.7818609E-02  0.8761154E-01
        3   -1    0    0  501    0  0.00000000000E+00  0.00000000000E+00  0.12104896514E+04  0.12104896556E+04  0.10100000352E+00 0.  1.
       -3   -1    0    0    0  501  0.00000000000E+00  0.00000000000E+00 -0.59712459272E+03  0.59712460126E+03  0.10100000352E+00 0. -1.
    10030    2    1    2    0    0  0.00000000000E+00  0.00000000000E+00  0.61336505866E+03  0.18076142569E+04  0.17003683737E+04 0.  0.
        5    1    3    3  502    0  0.80180747488E+03 -0.27922216527E+03  0.25997000631E+03  0.88795649586E+03  0.46999998093E+01 0.  1.
       -5    1    3    3    0  502 -0.80180747488E+03  0.27922216527E+03  0.35339505235E+03  0.91965776101E+03  0.46999998093E+01 0. -1.
</event>
<event>
 5   0  0.2630135E-04  0.1685235E+04  0.7818609E-02  0.8769830E-01
       -1   -1    0    0    0  501  0.00000000000E+00  0.00000000000E+00  0.62287085994E+03  0.62287085996E+03  0.50400001928E-02 0. -1.
        1   -1    0    0  501    0  0.00000000000E+00  0.00000000000E+00 -0.11398905612E+04  0.11398905612E+04  0.50400001928E-02 0.  1.
    10030    2    1    2    0    0  0.00000000000E+00  0.00000000000E+00 -0.51701970125E+03  0.17627614212E+04  0.16852354306E+04 0.  0.
        1    1    3    3  502    0  0.45630033857E+03  0.63282231101E+03  0.74458634166E+02  0.78372071845E+03  0.50400001928E-02 0. -1.
       -1    1    3    3    0  502 -0.45630033857E+03 -0.63282231101E+03 -0.59147833542E+03  0.97904070272E+03  0.50400001928E-02 0.  1.
</event>
<event>
 5   0  0.2583422E-04  0.1657438E+04  0.7818609E-02  0.8786018E-01
        1   -1    0    0  501    0  0.00000000000E+00  0.00000000000E+00  0.38915320922E+03  0.38915320925E+03  0.50400001928E-02 0. -1.
       -1   -1    0    0    0  501  0.00000000000E+00  0.00000000000E+00 -0.17647943322E+04  0.17647943322E+04  0.50400001928E-02 0.  1.
    10030    2    1    2    0    0  0.00000000000E+00  0.00000000000E+00 -0.13756411230E+04  0.21539475414E+04  0.16574382378E+04 0.  0.
        3    1    3    3  502    0 -0.67515002568E+03 -0.37744004606E+03 -0.30124262138E+03  0.83008172651E+03  0.10100000352E+00 0. -1.
       -3    1    3    3    0  502  0.67515002568E+03  0.37744004606E+03 -0.10743985016E+04  0.13238658149E+04  0.10100000352E+00 0.  1.
</event>
<event>
 5   0  0.2583422E-04  0.1699359E+04  0.7818609E-02  0.8761730E-01
        1   -1    0    0  501    0  0.00000000000E+00  0.00000000000E+00  0.11324510500E+04  0.11324510500E+04  0.50400001928E-02 0. -1.
       -1   -1    0    0    0  501  0.00000000000E+00  0.00000000000E+00 -0.63751594741E+03  0.63751594743E+03  0.50400001928E-02 0.  1.
    10030    2    1    2    0    0  0.00000000000E+00  0.00000000000E+00  0.49493510259E+03  0.17699669974E+04  0.16993594135E+04 0.  0.
        3    1    3    3  502    0 -0.62058575534E+03  0.26081082542E+03  0.78747520230E+03  0.10359856036E+04  0.10100000352E+00 0. -1.
       -3    1    3    3    0  502  0.62058575534E+03 -0.26081082542E+03 -0.29254009972E+03  0.73398139386E+03  0.10100000352E+00 0.  1.
</event>
<event>
 5   0  0.5310003E-04  0.1690053E+04  0.7818609E-02  0.8767058E-01
        2   -1    0    0  501    0  0.00000000000E+00  0.00000000000E+00  0.61048136234E+03  0.61048136235E+03  0.25500000920E-02 0. -1.
       -2   -1    0    0    0  501  0.00000000000E+00  0.00000000000E+00 -0.11696825454E+04  0.11696825454E+04  0.25500000920E-02 0.  1.
    10030    2    1    2    0    0  0.00000000000E+00  0.00000000000E+00 -0.55920118310E+03  0.17801639078E+04  0.16900525363E+04 0.  0.
        1    1    3    3  502    0  0.60914695426E+03 -0.57294363993E+03 -0.15169730769E+03  0.84990381786E+03  0.50400001928E-02 0.  1.
       -1    1    3    3    0  502 -0.60914695426E+03  0.57294363993E+03 -0.40750387541E+03  0.93026008993E+03  0.50400001928E-02 0. -1.
</event>
<event>
 5   0  0.2561518E-04  0.1618608E+04  0.7818609E-02  0.8809197E-01
       -1   -1    0    0    0  501  0.00000000000E+00  0.00000000000E+00  0.68730982040E+03  0.68730982042E+03  0.50400001928E-02 0.  1.
        1   -1    0    0  501    0  0.00000000000E+00  0.00000000000E+00 -0.95295191580E+03  0.95295191581E+03  0.50400001928E-02 0. -1.
    10030    2    1    2    0    0  0.00000000000E+00  0.00000000000E+00 -0.26564209540E+03  0.16402617362E+04  0.16186083036E+04 0.  0.
        4    1    3    3  502    0 -0.76409544020E+03  0.13107524740E+03 -0.36819761791E+03  0.85825034865E+03  0.12699999809E+01 0. -1.
       -4    1    3    3    0  502  0.76409544020E+03 -0.13107524740E+03  0.10255552251E+03  0.78201138759E+03  0.12699999809E+01 0.  1.
</event>
<event>
 5   0  0.2630135E-04  0.1642708E+04  0.7818609E-02  0.8794732E-01
        1   -1    0    0  501    0  0.00000000000E+00  0.00000000000E+00  0.90178572461E+03  0.90178572463E+03  0.50400001928E-02 0.  1.
       -1   -1    0    0    0  501  0.00000000000E+00  0.00000000000E+00 -0.74809619852E+03  0.74809619853E+03  0.50400001928E-02 0. -1.
    10030    2    1    2    0    0  0.00000000000E+00  0.00000000000E+00  0.15368952609E+03  0.16498819232E+04  0.16427080964E+04 0.  0.
        1    1    3    3  502    0 -0.22405959829E+02  0.68512710363E+03  0.53128207165E+03  0.86727263006E+03  0.50400001928E-02 0.  1.
       -1    1    3    3    0  502  0.22405959829E+02 -0.68512710363E+03 -0.37759254555E+03  0.78260929310E+03  0.50400001928E-02 0. -1.
</event>
<event>
 5   0  0.5021349E-04  0.1686634E+04  0.7818609E-02  0.8769025E-01
        2   -1    0    0  501    0  0.00000000000E+00  0.00000000000E+00  0.12992922777E+04  0.12992922777E+04  0.25500000920E-02 0.  1.
       -2   -1    0    0    0  501  0.00000000000E+00  0.00000000000E+00 -0.54736206932E+03  0.54736206932E+03  0.25500000920E-02 0. -1.
    10030    2    1    2    0    0  0.00000000000E+00  0.00000000000E+00  0.75193020836E+03  0.18466543470E+04  0.16866337003E+04 0.  0.
        2    1    3    3  502    0  0.57756363078E+03 -0.18934377078E+03  0.10160251058E+04  0.11839500947E+04  0.25500000920E-02 0.  1.
       -2    1    3    3    0  502 -0.57756363078E+03  0.18934377078E+03 -0.26409489745E+03  0.66270425229E+03  0.25500000920E-02 0. -1.
</event>
<event>
 5   0  0.2583422E-04  0.1711746E+04  0.7818609E-02  0.8754694E-01
        1   -1    0    0  501    0  0.00000000000E+00  0.00000000000E+00  0.11357676377E+04  0.11357676377E+04  0.50400001928E-02 0. -1.
       -1   -1    0    0    0  501  0.00000000000E+00  0.00000000000E+00 -0.64495449260E+03  0.64495449262E+03  0.50400001928E-02 0.  1.
    10030    2    1    2    0    0  0.00000000000E+00  0.00000000000E+00  0.49081314512E+03  0.17807221303E+04  0.17117458229E+04 0.  0.
        3    1    3    3  502    0 -0.51327301903E+03 -0.32625326745E+03 -0.38104509963E+03  0.71769475736E+03  0.10100000352E+00 0.  1.
       -3    1    3    3    0  502  0.51327301903E+03  0.32625326745E+03  0.87185824475E+03  0.10630273730E+04  0.10100000352E+00 0. -1.
</event>
<event>
 5   0  0.5299877E-04  0.1735544E+04  0.7818609E-02  0.8741348E-01
        2   -1    0    0  501    0  0.00000000000E+00  0.00000000000E+00  0.14749930379E+04  0.14749930379E+04  0.25500000920E-02 0. -1.
       -2   -1    0    0    0  501  0.00000000000E+00  0.00000000000E+00 -0.51053027029E+03  0.51053027030E+03  0.25500000920E-02 0.  1.
    10030    2    1    2    0    0  0.00000000000E+00  0.00000000000E+00  0.96446276763E+03  0.19855233082E+04  0.17355444037E+04 0.  0.
        3    1    3    3  502    0 -0.58801173396E+03 -0.15960220711E+03 -0.22466545470E+03  0.64938835878E+03  0.10100000352E+00 0.  1.
       -3    1    3    3    0  502  0.58801173396E+03  0.15960220711E+03  0.11891282223E+04  0.13361349494E+04  0.10100000352E+00 0. -1.
</event>
<event>
 5   0  0.2630135E-04  0.1804292E+04  0.7818609E-02  0.8704020E-01
        1   -1    0    0  501    0  0.00000000000E+00  0.00000000000E+00  0.10574160644E+04  0.10574160645E+04  0.50400001928E-02 0. -1.
       -1   -1    0    0    0  501  0.00000000000E+00  0.00000000000E+00 -0.76967586239E+03  0.76967586241E+03  0.50400001928E-02 0.  1.
    10030    2    1    2    0    0  0.00000000000E+00  0.00000000000E+00  0.28774020206E+03  0.18270919269E+04  0.18042922395E+04 0.  0.
        1    1    3    3  502    0  0.41528273441E+02  0.49862495486E+03 -0.61629287256E+03  0.79383143544E+03  0.50400001928E-02 0.  1.
       -1    1    3    3    0  502 -0.41528273441E+02 -0.49862495486E+03  0.90403307462E+03  0.10332604914E+04  0.50400001928E-02 0. -1.
</event>
<event>
 5   0  0.5021349E-04  0.1696135E+04  0.7818609E-02  0.8763572E-01
        2   -1    0    0  501    0  0.00000000000E+00  0.00000000000E+00  0.80542769179E+03  0.80542769179E+03  0.25500000920E-02 0. -1.
       -2   -1    0    0    0  501  0.00000000000E+00  0.00000000000E+00 -0.89296439654E+03  0.89296439654E+03  0.25500000920E-02 0.  1.
    10030    2    1    2    0    0  0.00000000000E+00  0.00000000000E+00 -0.87536704752E+02  0.16983920883E+04  0.16961347267E+04 0.  0.
        2    1    3    3  502    0  0.52739388413E+03 -0.44326504088E+03 -0.53898701454E+03  0.87472007370E+03  0.25500000920E-02 0.  1.
       -2    1    3    3    0  502 -0.52739388413E+03  0.44326504088E+03  0.45145030979E+03  0.82367201464E+03  0.25500000920E-02 0. -1.
</event>
<event>
 5   0  0.2595644E-04  0.1544643E+04  0.7818609E-02  0.8855297E-01
       -1   -1    0    0    0  501  0.00000000000E+00  0.00000000000E+00  0.67299718187E+03  0.67299718189E+03  0.50400001928E-02 0.  1.
        1   -1    0    0  501    0  0.00000000000E+00  0.00000000000E+00 -0.88630482458E+03  0.88630482459E+03  0.50400001928E-02 0. -1.
    10030    2    1    2    0    0  0.00000000000E+00  0.00000000000E+00 -0.21330764270E+03  0.15593020065E+04  0.15446431941E+04 0.  0.
        2    1    3    3  502    0  0.58459980549E+03  0.18070650664E+03 -0.58236779530E+03  0.84472718859E+03  0.25500000920E-02 0. -1.
       -2    1    3    3    0  502 -0.58459980549E+03 -0.18070650664E+03  0.36906015260E+03  0.71457481790E+03  0.25500000920E-02 0.  1.
</event>
<event>
 5   0  0.5299877E-04  0.1660981E+04  0.7818609E-02  0.8783937E-01
        2   -1    0    0  501    0  0.00000000000E+00  0.00000000000E+00  0.10802467032E+04  0.10802467032E+04  0.25500000920E-02 0.  1.
       -2   -1    0    0    0  501  0.00000000000E+00  0.00000000000E+00 -0.63847880266E+03  0.63847880267E+03  0.25500000920E-02 0. -1.
    10030    2    1    2    0    0  0.00000000000E+00  0.00000000000E+00  0.44176790049E+03  0.17187255058E+04  0.16609811818E+04 0.  0.
        3    1    3    3  502    0 -0.13275411719E+03 -0.39297173067E+03  0.96538594378E+03  0.10507237826E+04  0.10100000352E+00 0.  1.
       -3    1    3    3    0  502  0.13275411719E+03  0.39297173067E+03 -0.52361804328E+03  0.66800172319E+03  0.10100000352E+00 0. -1.
</event>
<event>
 5   0  0.5342255E-04  0.1699100E+04  0.7818609E-02  0.8761878E-01
       -2   -1    0    0    0  501  0.00000000000E+00  0.00000000000E+00  0.49304023665E+03  0.49304023665E+03  0.25500000920E-02 0.  1.
        2   -1    0    0  501    0  0.00000000000E+00  0.00000000000E+00 -0.14638460905E+04  0.14638460905E+04  0.25500000920E-02 0. -1.
    10030    2    1    2    0    0  0.00000000000E+00  0.00000000000E+00 -0.97080585383E+03  0.19568863271E+04  0.16990997886E+04 0.  0.
        5    1    3    3  502    0 -0.62743513662E+03 -0.56493143048E+02 -0.11418290871E+04  0.13040943525E+04  0.46999998093E+01 0. -1.
       -5    1    3    3    0  502  0.62743513662E+03  0.56493143048E+02  0.17102323331E+03  0.65279197468E+03  0.46999998093E+01 0.  1.
</event>
<event>
 5   0  0.2595644E-04  0.1715331E+04  0.7818609E-02  0.8752668E-01
        1   -1    0    0  501    0  0.00000000000E+00  0.00000000000E+00  0.95774221781E+03  0.95774221783E+03  0.50400001928E-02 0.  1.
       -1   -1    0    0    0  501  0.00000000000E+00  0.00000000000E+00 -0.76804614803E+03  0.76804614805E+03  0.50400001928E-02 0. -1.
    10030    2    1    2    0    0  0.00000000000E+00  0.00000000000E+00  0.18969606978E+03  0.17257883659E+04  0.17153311298E+04 0.  0.
        2    1    3    3  502    0  0.49869762266E+03  0.68625316313E+03 -0.32205236636E+02  0.84892867782E+03  0.25500000920E-02 0.  1.
       -2    1    3    3    0  502 -0.49869762266E+03 -0.68625316313E+03  0.22190130642E+03  0.87685968806E+03  0.25500000920E-02 0. -1.
</event>
<event>
 5   0  0.5299877E-04  0.1702232E+04  0.7818609E-02  0.8760093E-01
       -2   -1    0    0    0  501  0.00000000000E+00  0.00000000000E+00  0.38454643280E+03  0.38454643281E+03  0.25500000920E-02 0.  1.
        2   -1    0    0  501    0  0.00000000000E+00  0.00000000000E+00 -0.18837728553E+04  0.18837728553E+04  0.25500000920E-02 0. -1.
    10030    2    1    2    0    0  0.00000000000E+00  0.00000000000E+00 -0.14992264225E+04  0.22683192881E+04  0.17022316314E+04 0.  0.
        3    1    3    3  502    0  0.66484123922E+03  0.93479048774E+02 -0.52537397477E+02  0.67343328865E+03  0.10100000352E+00 0.  1.
       -3    1    3    3    0  502 -0.66484123922E+03 -0.93479048774E+02 -0.14466890250E+04  0.15948859994E+04  0.10100000352E+00 0. -1.
</event>
<event>
 5   0  0.5310003E-04  0.1683601E+04  0.7818609E-02  0.8770773E-01
       -2   -1    0    0    0  501  0.00000000000E+00  0.00000000000E+00  0.11364004145E+04  0.11364004145E+04  0.25500000920E-02 0. -1.
        2   -1    0    0  501    0  0.00000000000E+00  0.00000000000E+00 -0.62357234688E+03  0.62357234689E+03  0.25500000920E-02 0.  1.
    10030    2    1    2    0    0  0.00000000000E+00  0.00000000000E+00  0.51282806762E+03  0.17599727614E+04  0.16836007525E+04 0.  0.
        1    1    3    3  502    0  0.81954449034E+03 -0.17504561396E+03  0.17321912042E+03  0.85574470628E+03  0.50400001928E-02 0. -1.
       -1    1    3    3    0  502 -0.81954449034E+03  0.17504561396E+03  0.33960894720E+03  0.90422805512E+03  0.50400001928E-02 0.  1.
</event>
<event>
 5   0  0.2583422E-04  0.1715125E+04  0.7818609E-02  0.8752785E-01
        1   -1    0    0  501    0  0.00000000000E+00  0.00000000000E+00  0.15960861479E+04  0.15960861479E+04  0.50400001928E-02 0.  1.
       -1   -1    0    0    0  501  0.00000000000E+00  0.00000000000E+00 -0.46076069509E+03  0.46076069511E+03  0.50400001928E-02 0. -1.
    10030    2    1    2    0    0  0.00000000000E+00  0.00000000000E+00  0.11353254528E+04  0.20568468430E+04  0.17151253750E+04 0.  0.
        3    1    3    3  502    0  0.60668645815E+03 -0.42244908721E+03  0.10888591667E+04  0.13161101720E+04  0.10100000352E+00 0.  1.
       -3    1    3    3    0  502 -0.60668645815E+03  0.42244908721E+03  0.46466286088E+02  0.74073667098E+03  0.10100000352E+00 0. -1.
</event>
<event>
 5   0  0.5299877E-04  0.1525519E+04  0.7818609E-02  0.8867658E-01
       -2   -1    0    0    0  501  0.00000000000E+00  0.00000000000E+00  0.64502385285E+03  0.64502385286E+03  0.25500000920E-02 0.  1.
        2   -1    0    0  501    0  0.00000000000E+00  0.00000000000E+00 -0.90198515633E+03  0.90198515633E+03  0.25500000920E-02 0. -1.
    10030    2    1    2    0    0  0.00000000000E+00  0.00000000000E+00 -0.25696130347E+03  0.15470090092E+04  0.15255188504E+04 0.  0.
        3    1    3    3  502    0 -0.16129683079E+03 -0.31405739266E+03 -0.81413645247E+03  0.88739331018E+03  0.10100000352E+00 0. -1.
       -3    1    3    3    0  502  0.16129683079E+03  0.31405739266E+03  0.55717514900E+03  0.65961569901E+03  0.10100000352E+00 0.  1.
</event>
<event>
 5   0  0.2561518E-04  0.1642098E+04  0.7818609E-02  0.8795095E-01
        1   -1    0    0  501    0  0.00000000000E+00  0.00000000000E+00  0.72190289519E+03  0.72190289521E+03  0.50400001928E-02 0. -1.
       -1   -1    0    0    0  501  0.00000000000E+00  0.00000000000E+00 -0.93381129092E+03  0.93381129093E+03  0.50400001928E-02 0.  1.
    10030    2    1    2    0    0  0.00000000000E+00  0.00000000000E+00 -0.21190839573E+03  0.16557141861E+04  0.16420975300E+04 0.  0.
        4    1    3    3  502    0 -0.47988195887E+03 -0.10647866801E+03 -0.76905109827E+03  0.91272427701E+03  0.12699999809E+01 0.  1.
       -4    1    3    3    0  502  0.47988195887E+03  0.10647866801E+03  0.55714270254E+03  0.74298990914E+03  0.12699999809E+01 0. -1.
</event>
<event>
 5   0  0.2630135E-04  0.1710309E+04  0.7818609E-02  0.8755506E-01
       -1   -1    0    0    0  501  0.00000000000E+00  0.00000000000E+00  0.54512873348E+03  0.54512873350E+03  0.50400001928E-02 0. -1.
        1   -1    0    0  501    0  0.00000000000E+00  0.00000000000E+00 -0.13414986062E+04  0.13414986062E+04  0.50400001928E-02 0.  1.
    10030    2    1    2    0    0  0.00000000000E+00  0.00000000000E+00 -0.79636987273E+03  0.18866273397E+04  0.17103092541E+04 0.  0.
        1    1    3    3  502    0 -0.71750649535E+03 -0.35549747110E+03 -0.67082162548E+02  0.80355089409E+03  0.50400001928E-02 0. -1.
       -1    1    3    3    0  502  0.71750649535E+03  0.35549747110E+03 -0.72928771019E+03  0.10830764456E+04  0.50400001928E-02 0.  1.
</event>
<event>
 5   0  0.2583422E-04  0.1695007E+04  0.7818609E-02  0.8764217E-01
        1   -1    0    0  501    0  0.00000000000E+00  0.00000000000E+00  0.71535522340E+03  0.71535522342E+03  0.50400001928E-02 0.  1.
       -1   -1    0    0    0  501  0.00000000000E+00  0.00000000000E+00 -0.10040631800E+04  0.10040631800E+04  0.50400001928E-02 0. -1.
    10030    2    1    2    0    0  0.00000000000E+00  0.00000000000E+00 -0.28870795663E+03  0.17194184035E+04  0.16950065964E+04 0.  0.
        3    1    3    3  502    0 -0.34242610923E+03  0.66754340257E+03  0.25552124931E+03  0.79256605633E+03  0.10100000352E+00 0.  1.
       -3    1    3    3    0  502  0.34242610923E+03 -0.66754340257E+03 -0.54422920595E+03  0.92685234714E+03  0.10100000352E+00 0. -1.
</event>
<event>
 5   0  0.5198430E-04  0.1736504E+04  0.7818609E-02  0.8740814E-01
        2   -1    0    0  501    0  0.00000000000E+00  0.00000000000E+00  0.14917838150E+04  0.14917838150E+04  0.25500000920E-02 0.  1.
       -2   -1    0    0    0  501  0.00000000000E+00  0.00000000000E+00 -0.50534219987E+03  0.50534219988E+03  0.25500000920E-02 0. -1.
    10030    2    1    2    0    0  0.00000000000E+00  0.00000000000E+00  0.98644161510E+03  0.19971260149E+04  0.17365037458E+04 0.  0.
        4    1    3    3  502    0  0.48546096316E+03  0.70024914351E+03  0.30133069452E+03  0.90378261219E+03  0.12699999809E+01 0. -1.
       -4    1    3    3    0  502 -0.48546096316E+03 -0.70024914351E+03  0.68511092058E+03  0.10933434027E+04  0.12699999809E+01 0.  1.
</event>
<event>
 5   0  0.5198430E-04  0.1710653E+04  0.7818609E-02  0.8755312E-01
        2   -1    0    0  501    0  0.00000000000E+00  0.00000000000E+00  0.16166998520E+04  0.16166998520E+04  0.25500000920E-02 0.  1.
       -2   -1    0    0    0  501  0.00000000000E+00  0.00000000000E+00 -0.45251657708E+03  0.45251657709E+03  0.25500000920E-02 0. -1.
    10030    2    1    2    0    0  0.00000000000E+00  0.00000000000E+00  0.11641832750E+04  0.20692164291E+04  0.17106530720E+04 0.  0.
        4    1    3    3  502    0  0.28244805730E+03 -0.40222140252E+03 -0.26465244106E+03  0.55821276336E+03  0.12699999809E+01 0. -1.
       -4    1    3    3    0  502 -0.28244805730E+03  0.40222140252E+03  0.14288357160E+04  0.15110036658E+04  0.12699999809E+01 0.  1.
</event>
<event>
 5   0  0.2595644E-04  0.1681516E+04  0.7818609E-02  0.8771977E-01
       -1   -1    0    0    0  501  0.00000000000E+00  0.00000000000E+00  0.73989918353E+03  0.73989918355E+03  0.50400001928E-02 0.  1.
        1   -1    0    0  501    0  0.00000000000E+00  0.00000000000E+00 -0.95536529822E+03  0.95536529824E+03  0.50400001928E-02 0. -1.
    10030    2    1    2    0    0  0.00000000000E+00  0.00000000000E+00 -0.21546611469E+03  0.16952644818E+04  0.16815159876E+04 0.  0.
        2    1    3    3  502    0  0.79302321669E+03 -0.23636471103E+03 -0.25767671273E+03  0.86668990251E+03  0.25500000920E-02 0.  1.
       -2    1    3    3    0  502 -0.79302321669E+03  0.23636471103E+03  0.42210598037E+02  0.82857457927E+03  0.25500000920E-02 0. -1.
</event>
<event>
 5   0  0.2583422E-04  0.1695139E+04  0.7818609E-02  0.8764142E-01
       -1   -1    0    0    0  501  0.00000000000E+00  0.00000000000E+00  0.10364722124E+04  0.10364722124E+04  0.50400001928E-02 0. -1.
        1   -1    0    0  501    0  0.00000000000E+00  0.00000000000E+00 -0.69309533074E+03  0.69309533076E+03  0.50400001928E-02 0.  1.
    10030    2    1    2    0    0  0.00000000000E+00  0.00000000000E+00  0.34337688169E+03  0.17295675432E+04  0.16951389924E+04 0.  0.
        3    1    3    3  502    0 -0.15285786027E+03 -0.76599661072E+03  0.50739639100E+03  0.93143300397E+03  0.10100000352E+00 0. -1.
       -3    1    3    3    0  502  0.15285786027E+03  0.76599661072E+03 -0.16401950931E+03  0.79813453923E+03  0.10100000352E+00 0.  1.
</event>
<event>
 5   0  0.2785059E-04  0.1690898E+04  0.7818609E-02  0.8766573E-01
       -1   -1    0    0    0  501  0.00000000000E+00  0.00000000000E+00  0.98424116220E+03  0.98424116221E+03  0.50400001928E-02 0.  1.
        1   -1    0    0  501    0  0.00000000000E+00  0.00000000000E+00 -0.72622830738E+03  0.72622830740E+03  0.50400001928E-02 0. -1.
    10030    2    1    2    0    0  0.00000000000E+00  0.00000000000E+00  0.25801285482E+03  0.17104694696E+04  0.16908977418E+04 0.  0.
        5    1    3    3  502    0 -0.29155646238E+03 -0.16915930414E+02 -0.67356858379E+03  0.73417167374E+03  0.46999998093E+01 0. -1.
       -5    1    3    3    0  502  0.29155646238E+03  0.16915930414E+02  0.93158143861E+03  0.97629779587E+03  0.46999998093E+01 0.  1.
</event>
<event>
 5   0  0.5021349E-04  0.1534881E+04  0.7818609E-02  0.8861583E-01
        2   -1    0    0  501    0  0.00000000000E+00  0.00000000000E+00  0.72611025945E+03  0.72611025946E+03  0.25500000920E-02 0.  1.
       -2   -1    0    0    0  501  0.00000000000E+00  0.00000000000E+00 -0.81112293794E+03  0.81112293794E+03  0.25500000920E-02 0. -1.
    10030    2    1    2    0    0  0.00000000000E+00  0.00000000000E+00 -0.85012678485E+02  0.15372331974E+04  0.15348806949E+04 0.  0.
        2    1    3    3  502    0  0.73210346501E+03 -0.22501260272E+03 -0.91145494380E+02  0.77130646050E+03  0.25500000920E-02 0. -1.
       -2    1    3    3    0  502 -0.73210346501E+03  0.22501260272E+03  0.61328158955E+01  0.76592673690E+03  0.25500000920E-02 0.  1.
</event>
<event>
 5   0  0.5299877E-04  0.1706094E+04  0.7818609E-02  0.8757896E-01
        2   -1    0    0  501    0  0.00000000000E+00  0.00000000000E+00  0.36689945171E+03  0.36689945172E+03  0.25500000920E-02 0.  1.
       -2   -1    0    0    0  501  0.00000000000E+00  0.00000000000E+00 -0.19833483459E+04  0.19833483459E+04  0.25500000920E-02 0. -1.
    10030    2    1    2    0    0  0.00000000000E+00  0.00000000000E+00 -0.16164488942E+04  0.23502477976E+04  0.17060942772E+04 0.  0.
        3    1    3    3  502    0  0.49702337349E+03 -0.31688630604E+03  0.41229168370E+02  0.59088833064E+03  0.10100000352E+00 0.  1.
       -3    1    3    3    0  502 -0.49702337349E+03  0.31688630604E+03 -0.16576780626E+04  0.17593594670E+04  0.10100000352E+00 0. -1.
</event>
<event>
 5   0  0.5310003E-04  0.1688077E+04  0.7818609E-02  0.8768194E-01
       -2   -1    0    0    0  501  0.00000000000E+00  0.00000000000E+00  0.48641831849E+03  0.48641831850E+03  0.25500000920E-02 0. -1.
        2   -1    0    0  501    0  0.00000000000E+00  0.00000000000E+00 -0.14645843421E+04  0.14645843421E+04  0.25500000920E-02 0.  1.
    10030    2    1    2    0    0  0.00000000000E+00  0.00000000000E+00 -0.97816602365E+03  0.19510026606E+04  0.16880766013E+04 0.  0.
        1    1    3    3  502    0  0.74992351350E+03 -0.35571404885E+03 -0.31197365540E+03  0.88670475489E+03  0.50400001928E-02 0.  1.
       -1    1    3    3    0  502 -0.74992351350E+03  0.35571404885E+03 -0.66619236825E+03  0.10642979058E+04  0.50400001928E-02 0. -1.
</event>
<event>
 5   0  0.5021349E-04  0.1694717E+04  0.7818609E-02  0.8764383E-01
       -2   -1    0    0    0  501  0.00000000000E+00  0.00000000000E+00  0.10386907854E+04  0.10386907854E+04  0.25500000920E-02 0. -1.
        2   -1    0    0  501    0  0.00000000000E+00  0.00000000000E+00 -0.69127081144E+03  0.69127081144E+03  0.25500000920E-02 0.  1.
    10030    2    1    2    0    0  0.00000000000E+00  0.00000000000E+00  0.34741997396E+03  0.17299615968E+04  0.16947172296E+04 0.  0.
        2    1    3    3  502    0 -0.30420956654E+03 -0.37855653428E+03 -0.53511408859E+03  0.72263102469E+03  0.25500000920E-02 0.  1.
       -2    1    3    3    0  502  0.30420956654E+03  0.37855653428E+03  0.88253406255E+03  0.10073305722E+04  0.25500000920E-02 0. -1.
</event>
<event>
 5   0  0.5299877E-04  0.1551919E+04  0.7818609E-02  0.8850643E-01
        2   -1    0    0  501    0  0.00000000000E+00  0.00000000000E+00  0.63873734475E+03  0.63873734475E+03  0.25500000920E-02 0.  1.
       -2   -1    0    0    0  501  0.00000000000E+00  0.00000000000E+00 -0.94266211113E+03  0.94266211113E+03  0.25500000920E-02 0. -1.
    10030    2    1    2    0    0  0.00000000000E+00  0.00000000000E+00 -0.30392476638E+03  0.15813994559E+04  0.15519194488E+04 0.  0.
        3    1    3    3  502    0 -0.24628481244E+03  0.69349666118E+03  0.98718163872E+02  0.74252213030E+03  0.10100000352E+00 0.  1.
       -3    1    3    3    0  502  0.24628481244E+03 -0.69349666118E+03 -0.40264293025E+03  0.83887732559E+03  0.10100000352E+00 0. -1.
</event>
<event>
 5   0  0.2583422E-04  0.1450802E+04  0.7818609E-02  0.8917844E-01
        1   -1    0    0  501    0  0.00000000000E+00  0.00000000000E+00  0.33627770475E+03  0.33627770479E+03  0.50400001928E-02 0.  1.
       -1   -1    0    0    0  501  0.00000000000E+00  0.00000000000E+00 -0.15647985786E+04  0.15647985786E+04  0.50400001928E-02 0. -1.
    10030    2    1    2    0    0  0.00000000000E+00  0.00000000000E+00 -0.12285208738E+04  0.19010762834E+04  0.14508023634E+04 0.  0.
        3    1    3    3  502    0  0.49134039889E+03  0.42031224582E+03 -0.18337425304E+03  0.67208920423E+03  0.10100000352E+00 0.  1.
       -3    1    3    3    0  502 -0.49134039889E+03 -0.42031224582E+03 -0.10451466208E+04  0.12289870791E+04  0.10100000352E+00 0. -1.
</event>
<event>
 5   0  0.5342255E-04  0.1682598E+04  0.7818609E-02  0.8771352E-01
        2   -1    0    0  501    0  0.00000000000E+00  0.00000000000E+00  0.16399555174E+04  0.16399555174E+04  0.25500000920E-02 0.  1.
       -2   -1    0    0    0  501  0.00000000000E+00  0.00000000000E+00 -0.43158715177E+03  0.43158715178E+03  0.25500000920E-02 0. -1.
    10030    2    1    2    0    0  0.00000000000E+00  0.00000000000E+00  0.12083683656E+04  0.20715426692E+04  0.16825976712E+04 0.  0.
        5    1    3    3  502    0  0.58613807238E+03 -0.35350325368E+03  0.12063690206E+04  0.13870366592E+04  0.46999998093E+01 0.  1.
       -5    1    3    3    0  502 -0.58613807238E+03  0.35350325368E+03  0.19993450345E+01  0.68450600993E+03  0.46999998093E+01 0. -1.
</event>
<event>
 5   0  0.2785059E-04  0.1715782E+04  0.7818609E-02  0.8752414E-01
       -1   -1    0    0    0  501  0.00000000000E+00  0.00000000000E+00  0.68652975425E+03  0.68652975427E+03  0.50400001928E-02 0. -1.
        1   -1    0    0  501    0  0.00000000000E+00  0.00000000000E+00 -0.10720254819E+04  0.10720254819E+04  0.50400001928E-02 0.  1.
    10030    2    1    2    0    0  0.00000000000E+00  0.00000000000E+00 -0.38549572761E+03  0.17585552361E+04  0.17157824928E+04 0.  0.
        5    1    3    3  502    0  0.27982130904E+03 -0.42855592800E+03  0.51288814016E+03  0.72459401235E+03  0.46999998093E+01 0. -1.
       -5    1    3    3    0  502 -0.27982130904E+03  0.42855592800E+03 -0.89838386777E+03  0.10339612238E+04  0.46999998093E+01 0.  1.
</event>
<event>
 5   0  0.2583422E-04  0.1708658E+04  0.7818609E-02  0.8756442E-01
       -1   -1    0    0    0  501  0.00000000000E+00  0.00000000000E+00  0.10955720889E+04  0.10955720889E+04  0.50400001928E-02 0.  1.
        1   -1    0    0  501    0  0.00000000000E+00  0.00000000000E+00 -0.66620739974E+03  0.66620739975E+03  0.50400001928E-02 0. -1.
    10030    2    1    2    0    0  0.00000000000E+00  0.00000000000E+00  0.42936468913E+03  0.17617794886E+04  0.17086582251E+04 0.  0.
        3    1    3    3  502    0 -0.76522425632E+03 -0.36914019060E+03  0.12219655344E+03  0.85834995814E+03  0.10100000352E+00 0.  1.
       -3    1    3    3    0  502  0.76522425632E+03  0.36914019060E+03  0.30716813569E+03  0.90342953049E+03  0.10100000352E+00 0. -1.
</event>
<event>
 5   0  0.5299877E-04  0.1711130E+04  0.7818609E-02  0.8755042E-01
       -2   -1    0    0    0  501  0.00000000000E+00  0.00000000000E+00  0.67098656663E+03  0.67098656663E+03  0.25500000920E-02 0. -1.
        2   -1    0    0  501    0  0.00000000000E+00  0.00000000000E+00 -0.10909178498E+04  0.10909178498E+04  0.25500000920E-02 0.  1.
    10030    2    1    2    0    0  0.00000000000E+00  0.00000000000E+00 -0.41993128312E+03  0.17619044164E+04  0.17111297116E+04 0.  0.
        3    1    3    3  502    0  0.29008913418E+03  0.27120726123E+03 -0.99026917727E+03  0.10669293032E+04  0.10100000352E+00 0.  1.
       -3    1    3    3    0  502 -0.29008913418E+03 -0.27120726123E+03  0.57033789414E+03  0.69497511323E+03  0.10100000352E+00 0. -1.
</event>
<event>
 5   0  0.2630135E-04  0.1417335E+04  0.7818609E-02  0.8941366E-01
       -1   -1    0    0    0  501  0.00000000000E+00  0.00000000000E+00  0.39247643091E+03  0.39247643095E+03  0.50400001928E-02 0.  1.
        1   -1    0    0  501    0  0.00000000000E+00  0.00000000000E+00 -0.12795912082E+04  0.12795912082E+04  0.50400001928E-02 0. -1.
    10030    2    1    2    0    0  0.00000000000E+00  0.00000000000E+00 -0.88711477731E+03  0.16720676392E+04  0.14173346683E+04 0.  0.
        1    1    3    3  502    0  0.31023683142E+03 -0.52640790161E+02 -0.11926527132E+04  0.12334660265E+04  0.50400001928E-02 0. -1.
       -1    1    3    3    0  502 -0.31023683142E+03  0.52640790161E+02  0.30553793585E+03  0.43860161266E+03  0.50400001928E-02 0.  1.
</event>
<event>
 5   0  0.2583422E-04  0.1701072E+04  0.7818609E-02  0.8760753E-01
        1   -1    0    0  501    0  0.00000000000E+00  0.00000000000E+00  0.10269626467E+04  0.10269626468E+04  0.50400001928E-02 0. -1.
       -1   -1    0    0    0  501  0.00000000000E+00  0.00000000000E+00 -0.70441882791E+03  0.70441882792E+03  0.50400001928E-02 0.  1.
    10030    2    1    2    0    0  0.00000000000E+00  0.00000000000E+00  0.32254381884E+03  0.17313814747E+04  0.17010723958E+04 0.  0.
        3    1    3    3  502    0  0.16240217497E+03 -0.63474703269E+03  0.71327594517E+03  0.96852508800E+03  0.10100000352E+00 0. -1.
       -3    1    3    3    0  502 -0.16240217497E+03  0.63474703269E+03 -0.39073212633E+03  0.76285638667E+03  0.10100000352E+00 0.  1.
</event>
<event>
 5   0  0.2595644E-04  0.1693282E+04  0.7818609E-02  0.8765205E-01
        1   -1    0    0  501    0  0.00000000000E+00  0.00000000000E+00  0.10036372105E+04  0.10036372105E+04  0.50400001928E-02 0.  1.
       -1   -1    0    0    0  501  0.00000000000E+00  0.00000000000E+00 -0.71420302321E+03  0.71420302323E+03  0.50400001928E-02 0. -1.
    10030    2    1    2    0    0  0.00000000000E+00  0.00000000000E+00  0.28943418731E+03  0.17178402338E+04  0.16932817013E+04 0.  0.
        2    1    3    3  502    0 -0.24220629949E+03 -0.80719932258E+03  0.22692376056E+03  0.87277089262E+03  0.25500000920E-02 0. -1.
       -2    1    3    3    0  502  0.24220629949E+03  0.80719932258E+03  0.62510426746E+02  0.84506934115E+03  0.25500000920E-02 0.  1.
</event>
<event>
 5   0  0.2785059E-04  0.1717885E+04  0.7818609E-02  0.8751229E-01
       -1   -1    0    0    0  501  0.00000000000E+00  0.00000000000E+00  0.44670421517E+03  0.44670421520E+03  0.50400001928E-02 0.  1.
        1   -1    0    0  501    0  0.00000000000E+00  0.00000000000E+00 -0.16516118627E+04  0.16516118627E+04  0.50400001928E-02 0. -1.
    10030    2    1    2    0    0  0.00000000000E+00  0.00000000000E+00 -0.12049076475E+04  0.20983160779E+04  0.17178847237E+04 0.  0.
        5    1    3    3  502    0 -0.76118642711E+03  0.39565828903E+03 -0.55049347245E+03  0.10193210543E+04  0.46999998093E+01 0.  1.
       -5    1    3    3    0  502  0.76118642711E+03 -0.39565828903E+03 -0.65441417509E+03  0.10789950236E+04  0.46999998093E+01 0. -1.
</event>
<event>
 5   0  0.5198430E-04  0.1697515E+04  0.7818609E-02  0.8762783E-01
       -2   -1    0    0    0  501  0.00000000000E+00  0.00000000000E+00  0.56173331813E+03  0.56173331814E+03  0.25500000920E-02 0. -1.
        2   -1    0    0  501    0  0.00000000000E+00  0.00000000000E+00 -0.12824394564E+04  0.12824394564E+04  0.25500000920E-02 0.  1.
    10030    2    1    2    0    0  0.00000000000E+00  0.00000000000E+00 -0.72070613829E+03  0.18441727746E+04  0.16975146199E+04 0.  0.
        4    1    3    3  502    0  0.27072661066E+03  0.42746216898E+03  0.37996852915E+03  0.63276733455E+03  0.12699999809E+01 0. -1.
       -4    1    3    3    0  502 -0.27072661066E+03 -0.42746216898E+03 -0.11006746674E+04  0.12114054400E+04  0.12699999809E+01 0.  1.
</event>
<event>
 5   0  0.5310003E-04  0.1683442E+04  0.7818609E-02  0.8770865E-01
        2   -1    0    0  501    0  0.00000000000E+00  0.00000000000E+00  0.91021750463E+03  0.91021750464E+03  0.25500000920E-02 0. -1.
       -2   -1    0    0    0  501  0.00000000000E+00  0.00000000000E+00 -0.77837921686E+03  0.77837921687E+03  0.25500000920E-02 0.  1.
    10030    2    1    2    0    0  0.00000000000E+00  0.00000000000E+00  0.13183828777E+03  0.16885967215E+04  0.16834421742E+04 0.  0.
        1    1    3    3  502    0  0.61052263000E+03 -0.38184984006E+03  0.50308294543E+03  0.87843020901E+03  0.50400001928E-02 0. -1.
       -1    1    3    3    0  502 -0.61052263000E+03  0.38184984006E+03 -0.37124465766E+03  0.81016651249E+03  0.50400001928E-02 0.  1.
</event>
<event>
 5   0  0.2561518E-04  0.1383433E+04  0.7818609E-02  0.8965899E-01
        1   -1    0    0  501    0  0.00000000000E+00  0.00000000000E+00  0.18289776156E+04  0.18289776156E+04  0.50400001928E-02 0. -1.
       -1   -1    0    0    0  501  0.00000000000E+00  0.00000000000E+00 -0.26160612424E+03  0.26160612429E+03  0.50400001928E-02 0.  1.
    10030    2    1    2    0    0  0.00000000000E+00  0.00000000000E+00  0.15673714914E+04  0.20905837399E+04  0.13834330420E+04 0.  0.
        4    1    3    3  502    0  0.41601739025E+02  0.60901826614E+03  0.29206918886E+03  0.67671262524E+03  0.12699999809E+01 0.  1.
       -4    1    3    3    0  502 -0.41601739025E+02 -0.60901826614E+03  0.12753023025E+04  0.14138711147E+04  0.12699999809E+01 0. -1.
</event>
<event>
 5   0  0.5021349E-04  0.1696092E+04  0.7818609E-02  0.8763597E-01
        2   -1    0    0  501    0  0.00000000000E+00  0.00000000000E+00  0.10594033434E+04  0.10594033434E+04  0.25500000920E-02 0.  1.
       -2   -1    0    0    0  501  0.00000000000E+00  0.00000000000E+00 -0.67885549069E+03  0.67885549069E+03  0.25500000920E-02 0. -1.
    10030    2    1    2    0    0  0.00000000000E+00  0.00000000000E+00  0.38054785266E+03  0.17382588340E+04  0.16960917151E+04 0.  0.
        2    1    3    3  502    0  0.65632141830E+03 -0.51433374264E+03  0.31884685737E+02  0.83445409468E+03  0.25500000920E-02 0. -1.
       -2    1    3    3    0  502 -0.65632141830E+03  0.51433374264E+03  0.34866316692E+03  0.90380473937E+03  0.25500000920E-02 0.  1.
</event>
<event>
 5   0  0.2785059E-04  0.1722759E+04  0.7818609E-02  0.8748490E-01
       -1   -1    0    0    0  501  0.00000000000E+00  0.00000000000E+00  0.84177333211E+03  0.84177333213E+03  0.50400001928E-02 0. -1.
        1   -1    0    0  501    0  0.00000000000E+00  0.00000000000E+00 -0.88144211695E+03  0.88144211696E+03  0.50400001928E-02 0.  1.
    10030    2    1    2    0    0  0.00000000000E+00  0.00000000000E+00 -0.39668784835E+02  0.17232154491E+04  0.17227587967E+04 0.  0.
        5    1    3    3  502    0 -0.78117739535E+03 -0.16955592660E+03 -0.34080111318E+03  0.86899644648E+03  0.46999998093E+01 0.  1.
       -5    1    3    3    0  502  0.78117739535E+03  0.16955592660E+03  0.30113232835E+03  0.85421900261E+03  0.46999998093E+01 0. -1.
</event>
<event>
 5   0  0.5021349E-04  0.1691349E+04  0.7818609E-02  0.8766314E-01
        2   -1    0    0  501    0  0.00000000000E+00  0.00000000000E+00  0.27082309133E+04  0.27082309133E+04  0.25500000920E-02 0. -1.
       -2   -1    0    0    0  501  0.00000000000E+00  0.00000000000E+00 -0.26407104768E+03  0.26407104769E+03  0.25500000920E-02 0.  1.
    10030    2    1    2    0    0  0.00000000000E+00  0.00000000000E+00  0.24441598657E+04  0.29723019610E+04  0.16913490174E+04 0.  0.
        2    1    3    3  502    0 -0.41296289962E+03 -0.36773573731E+03  0.97650365800E+02  0.56151894261E+03  0.25500000920E-02 0.  1.
       -2    1    3    3    0  502  0.41296289962E+03  0.36773573731E+03  0.23465094999E+04  0.24107830184E+04  0.25500000920E-02 0. -1.
</event>
<event>
 5   0  0.2561518E-04  0.1807690E+04  0.7818609E-02  0.8702221E-01
       -1   -1    0    0    0  501  0.00000000000E+00  0.00000000000E+00  0.38130891615E+03  0.38130891618E+03  0.50400001928E-02 0.  1.
        1   -1    0    0  501    0  0.00000000000E+00  0.00000000000E+00 -0.21424512564E+04  0.21424512564E+04  0.50400001928E-02 0. -1.
    10030    2    1    2    0    0  0.00000000000E+00  0.00000000000E+00 -0.17611423402E+04  0.25237601726E+04  0.18076899806E+04 0.  0.
        4    1    3    3  502    0 -0.44301285712E+03 -0.19715649439E+02  0.21899100167E+03  0.49457837612E+03  0.12699999809E+01 0.  1.
       -4    1    3    3    0  502  0.44301285712E+03  0.19715649439E+02 -0.19801333419E+04  0.20291817965E+04  0.12699999809E+01 0. -1.
</event>
<event>
 5   0  0.2595644E-04  0.1706013E+04  0.7818609E-02  0.8757943E-01
       -1   -1    0    0    0  501  0.00000000000E+00  0.00000000000E+00  0.14339784293E+04  0.14339784293E+04  0.50400001928E-02 0. -1.
        1   -1    0    0  501    0  0.00000000000E+00  0.00000000000E+00 -0.50741330350E+03  0.50741330353E+03  0.50400001928E-02 0.  1.
    10030    2    1    2    0    0  0.00000000000E+00  0.00000000000E+00  0.92656512577E+03  0.19413917328E+04  0.17060125814E+04 0.  0.
        2    1    3    3  502    0  0.62341265125E+03 -0.52321434275E+03  0.17265832575E+03  0.83199007185E+03  0.25500000920E-02 0.  1.
       -2    1    3    3    0  502 -0.62341265125E+03  0.52321434275E+03  0.75390680002E+03  0.11094016610E+04  0.25500000920E-02 0. -1.
</event>
<event>
 5   0  0.2595644E-04  0.1700030E+04  0.7818609E-02  0.8761347E-01
       -1   -1    0    0    0  501  0.00000000000E+00  0.00000000000E+00  0.34014915534E+03  0.34014915538E+03  0.50400001928E-02 0.  1.
        1   -1    0    0  501    0  0.00000000000E+00  0.00000000000E+00 -0.21241430073E+04  0.21241430074E+04  0.50400001928E-02 0. -1.
    10030    2    1    2    0    0  0.00000000000E+00  0.00000000000E+00 -0.17839938520E+04  0.24642921627E+04  0.17000299407E+04 0.  0.
        2    1    3    3  502    0  0.84799182408E+03 -0.58451698371E+02 -0.89826784793E+03  0.12366858378E+04  0.25500000920E-02 0.  1.
       -2    1    3    3    0  502 -0.84799182408E+03  0.58451698371E+02 -0.88572600407E+03  0.12276063249E+04  0.25500000920E-02 0. -1.
</event>
<event>
 5   0  0.5021349E-04  0.1700185E+04  0.7818609E-02  0.8761259E-01
       -2   -1    0    0    0  501  0.00000000000E+00  0.00000000000E+00  0.18653142018E+04  0.18653142018E+04  0.25500000920E-02 0. -1.
        2   -1    0    0  501    0  0.00000000000E+00  0.00000000000E+00 -0.38741837963E+03  0.38741837964E+03  0.25500000920E-02 0.  1.
    10030    2    1    2    0    0  0.00000000000E+00  0.00000000000E+00  0.14778958222E+04  0.22527325815E+04  0.17001847024E+04 0.  0.
        2    1    3    3  502    0  0.38008604067E+02  0.55972503223E+02 -0.38384530329E+03  0.38976248148E+03  0.25500000920E-02 0.  1.
       -2    1    3    3    0  502 -0.38008604067E+02 -0.55972503223E+02  0.18617411255E+04  0.18629701000E+04  0.25500000920E-02 0. -1.
</event>
<event>
 5   0  0.2785059E-04  0.1737798E+04  0.7818609E-02  0.8740096E-01
       -1   -1    0    0    0  501  0.00000000000E+00  0.00000000000E+00  0.11067603267E+04  0.11067603267E+04  0.50400001928E-02 0. -1.
        1   -1    0    0  501    0  0.00000000000E+00  0.00000000000E+00 -0.68215820811E+03  0.68215820813E+03  0.50400001928E-02 0.  1.
    10030    2    1    2    0    0  0.00000000000E+00  0.00000000000E+00  0.42460211858E+03  0.17889185348E+04  0.17377981946E+04 0.  0.
        5    1    3    3  502    0  0.14939062503E+03  0.25770991859E+03  0.10525419887E+04  0.10938915343E+04  0.46999998093E+01 0. -1.
       -5    1    3    3    0  502 -0.14939062503E+03 -0.25770991859E+03 -0.62793987008E+03  0.69502700050E+03  0.46999998093E+01 0.  1.
</event>
<event>
 5   0  0.5342255E-04  0.1676200E+04  0.7818609E-02  0.8775056E-01
       -2   -1    0    0    0  501  0.00000000000E+00  0.00000000000E+00  0.72835572905E+03  0.72835572906E+03  0.25500000920E-02 0. -1.
        2   -1    0    0  501    0  0.00000000000E+00  0.00000000000E+00 -0.96437936262E+03  0.96437936263E+03  0.25500000920E-02 0.  1.
    10030    2    1    2    0    0  0.00000000000E+00  0.00000000000E+00 -0.23602363357E+03  0.16927350917E+04  0.16761995511E+04 0.  0.
        5    1    3    3  502    0  0.58282610313E+03  0.58686859270E+03  0.18555870062E+02  0.82732546310E+03  0.46999998093E+01 0.  1.
       -5    1    3    3    0  502 -0.58282610313E+03 -0.58686859270E+03 -0.25457950363E+03  0.86540962858E+03  0.46999998093E+01 0. -1.
</event>
<event>
 5   0  0.5342255E-04  0.1675062E+04  0.7818609E-02  0.8775717E-01
        2   -1    0    0  501    0  0.00000000000E+00  0.00000000000E+00  0.20143075907E+04  0.20143075907E+04  0.25500000920E-02 0. -1.
       -2   -1    0    0    0  501  0.00000000000E+00  0.00000000000E+00 -0.34823791812E+03  0.34823791813E+03  0.25500000920E-02 0.  1.
    10030    2    1    2    0    0  0.00000000000E+00  0.00000000000E+00  0.16660696725E+04  0.23625455088E+04  0.16750621264E+04 0.  0.
        5    1    3    3  502    0  0.41163057112E+03  0.38066842737E+03 -0.44479307417E+02  0.56244882208E+03  0.46999998093E+01 0.  1.
       -5    1    3    3    0  502 -0.41163057112E+03 -0.38066842737E+03  0.17105489799E+04  0.18000966867E+04  0.46999998093E+01 0. -1.
</event>
<event>
 5   0  0.5198430E-04  0.1712259E+04  0.7818609E-02  0.8754403E-01
       -2   -1    0    0    0  501  0.00000000000E+00  0.00000000000E+00  0.34977159183E+03  0.34977159184E+03  0.25500000920E-02 0. -1.
        2   -1    0    0  501    0  0.00000000000E+00  0.00000000000E+00 -0.20955334480E+04  0.20955334480E+04  0.25500000920E-02 0.  1.
    10030    2    1    2    0    0  0.00000000000E+00  0.00000000000E+00 -0.17457618562E+04  0.24453050399E+04  0.17122594078E+04 0.  0.
        4    1    3    3  502    0 -0.68221942791E+03 -0.38983936288E+03 -0.13583529485E+04  0.15692426269E+04  0.12699999809E+01 0.  1.
       -4    1    3    3    0  502  0.68221942791E+03  0.38983936288E+03 -0.38740890774E+03  0.87606241294E+03  0.12699999809E+01 0. -1.
</event>
<event>
 5   0  0.2561518E-04  0.1692277E+04  0.7818609E-02  0.8765781E-01
        1   -1    0    0  501    0  0.00000000000E+00  0.00000000000E+00  0.11611850137E+04  0.11611850137E+04  0.50400001928E-02 0. -1.
       -1   -1    0    0    0  501  0.00000000000E+00  0.00000000000E+00 -0.61656892962E+03  0.61656892964E+03  0.50400001928E-02 0.  1.
    10030    2    1    2    0    0  0.00000000000E+00  0.00000000000E+00  0.54461608412E+03  0.17777539434E+04  0.16922772835E+04 0.  0.
        4    1    3    3  502    0  0.31500761213E+03 -0.37758802157E+02  0.10963347297E+04  0.11413180868E+04  0.12699999809E+01 0. -1.
       -4    1    3    3    0  502 -0.31500761213E+03  0.37758802157E+02 -0.55171864554E+03  0.63643585661E+03  0.12699999809E+01 0.  1.
</event>
<event>
 5   0  0.2595644E-04  0.1763113E+04  0.7818609E-02  0.8726165E-01
        1   -1    0    0  501    0  0.00000000000E+00  0.00000000000E+00  0.97181455698E+03  0.97181455700E+03  0.50400001928E-02 0. -1.
       -1   -1    0    0    0  501  0.00000000000E+00  0.00000000000E+00 -0.79968160593E+03  0.79968160595E+03  0.50400001928E-02 0.  1.
    10030    2    1    2    0    0  0.00000000000E+00  0.00000000000E+00  0.17213295105E+03  0.17714961629E+04  0.17631134117E+04 0.  0.
        2    1    3    3  502    0  0.53417871288E+03  0.59160688507E+03  0.46441575318E+03  0.92251156934E+03  0.25500000920E-02 0. -1.
       -2    1    3    3    0  502 -0.53417871288E+03 -0.59160688507E+03 -0.29228280213E+03  0.84898459360E+03  0.25500000920E-02 0.  1.
</event>
<event>
 5   0  0.5021349E-04  0.1702980E+04  0.7818609E-02  0.8759666E-01
       -2   -1    0    0    0  501  0.00000000000E+00  0.00000000000E+00  0.52508493203E+03  0.52508493204E+03  0.25500000920E-02 0. -1.
        2   -1    0    0  501    0  0.00000000000E+00  0.00000000000E+00 -0.13807968595E+04  0.13807968595E+04  0.25500000920E-02 0.  1.
    10030    2    1    2    0    0  0.00000000000E+00  0.00000000000E+00 -0.85571192744E+03  0.19058817915E+04  0.17029804757E+04 0.  0.
        2    1    3    3  502    0 -0.36601021649E+03 -0.39535877189E+03 -0.11657820684E+04  0.12842584896E+04  0.25500000920E-02 0.  1.
       -2    1    3    3    0  502  0.36601021649E+03  0.39535877189E+03  0.31007014101E+03  0.62162330188E+03  0.25500000920E-02 0. -1.
</event>
<event>
 5   0  0.2595644E-04  0.1657112E+04  0.7818609E-02  0.8786210E-01
        1   -1    0    0  501    0  0.00000000000E+00  0.00000000000E+00  0.10393377842E+04  0.10393377842E+04  0.50400001928E-02 0.  1.
       -1   -1    0    0    0  501  0.00000000000E+00  0.00000000000E+00 -0.66052175968E+03  0.66052175970E+03  0.50400001928E-02 0. -1.
    10030    2    1    2    0    0  0.00000000000E+00  0.00000000000E+00  0.37881602453E+03  0.16998595439E+04  0.16571122137E+04 0.  0.
        2    1    3    3  502    0 -0.13447393963E+03  0.66274726007E+03 -0.30167748120E+03  0.74049069801E+03  0.25500000920E-02 0. -1.
       -2    1    3    3    0  502  0.13447393963E+03 -0.66274726007E+03  0.68049350574E+03  0.95936884592E+03  0.25500000920E-02 0.  1.
</event>
<event>
 5   0  0.5299877E-04  0.1694790E+04  0.7818609E-02  0.8764341E-01
       -2   -1    0    0    0  501  0.00000000000E+00  0.00000000000E+00  0.91451339680E+03  0.91451339681E+03  0.25500000920E-02 0.  1.
        2   -1    0    0  501    0  0.00000000000E+00  0.00000000000E+00 -0.78520295644E+03  0.78520295644E+03  0.25500000920E-02 0. -1.
    10030    2    1    2    0    0  0.00000000000E+00  0.00000000000E+00  0.12931044037E+03  0.16997163533E+04  0.16947903975E+04 0.  0.
        3    1    3    3  502    0 -0.57059267953E+03  0.42618380098E+03  0.52519572318E+03  0.88489501976E+03  0.10100000352E+00 0.  1.
       -3    1    3    3    0  502  0.57059267953E+03 -0.42618380098E+03 -0.39588528282E+03  0.81482133349E+03  0.10100000352E+00 0. -1.
</event>
<event>
 5   0  0.5342255E-04  0.1684032E+04  0.7818609E-02  0.8770524E-01
       -2   -1    0    0    0  501  0.00000000000E+00  0.00000000000E+00  0.71596485151E+03  0.71596485151E+03  0.25500000920E-02 0.  1.
        2   -1    0    0  501    0  0.00000000000E+00  0.00000000000E+00 -0.99025930228E+03  0.99025930228E+03  0.25500000920E-02 0. -1.
    10030    2    1    2    0    0  0.00000000000E+00  0.00000000000E+00 -0.27429445077E+03  0.17062241538E+04  0.16840318932E+04 0.  0.
        5    1    3    3  502    0  0.29512206862E+03 -0.59729177436E+03 -0.65882498476E+03  0.93697756091E+03  0.46999998093E+01 0. -1.
       -5    1    3    3    0  502 -0.29512206862E+03  0.59729177436E+03  0.38453053399E+03  0.76924659289E+03  0.46999998093E+01 0.  1.
</event>
<event>
 5   0  0.2785059E-04  0.1682301E+04  0.7818609E-02  0.8771524E-01
       -1   -1    0    0    0  501  0.00000000000E+00  0.00000000000E+00  0.92736363310E+03  0.92736363311E+03  0.50400001928E-02 0. -1.
        1   -1    0    0  501    0  0.00000000000E+00  0.00000000000E+00 -0.76295189201E+03  0.76295189202E+03  0.50400001928E-02 0.  1.
    10030    2    1    2    0    0  0.00000000000E+00  0.00000000000E+00  0.16441174109E+03  0.16903155251E+04  0.16823006134E+04 0.  0.
        5    1    3    3  502    0 -0.64638088351E+01  0.83676216152E+03  0.16804739604E+03  0.85350730113E+03  0.46999998093E+01 0. -1.
       -5    1    3    3    0  502  0.64638088351E+01 -0.83676216152E+03 -0.36356549527E+01  0.83680822400E+03  0.46999998093E+01 0.  1.
</event>
<event>
 5   0  0.2583422E-04  0.1750049E+04  0.7818609E-02  0.8733323E-01
       -1   -1    0    0    0  501  0.00000000000E+00  0.00000000000E+00  0.53088727215E+03  0.53088727217E+03  0.50400001928E-02 0.  1.
        1   -1    0    0  501    0  0.00000000000E+00  0.00000000000E+00 -0.14422421642E+04  0.14422421642E+04  0.50400001928E-02 0. -1.
    10030    2    1    2    0    0  0.00000000000E+00  0.00000000000E+00 -0.91135489206E+03  0.19731294364E+04  0.17500491517E+04 0.  0.
        3    1    3    3  502    0  0.65835195960E+03  0.26996887798E+03  0.11851137811E+03  0.72135667650E+03  0.10100000352E+00 0.  1.
       -3    1    3    3    0  502 -0.65835195960E+03 -0.26996887798E+03 -0.10298662702E+04  0.12517727599E+04  0.10100000352E+00 0. -1.
</event>
<event>
 5   0  0.5299877E-04  0.1574721E+04  0.7818609E-02  0.8836230E-01
        2   -1    0    0  501    0  0.00000000000E+00  0.00000000000E+00  0.62259672537E+03  0.62259672538E+03  0.25500000920E-02 0.  1.
       -2   -1    0    0    0  501  0.00000000000E+00  0.00000000000E+00 -0.99572667757E+03  0.99572667757E+03  0.25500000920E-02 0. -1.
    10030    2    1    2    0    0  0.00000000000E+00  0.00000000000E+00 -0.37312995219E+03  0.16183234029E+04  0.15747205070E+04 0.  0.
        3    1    3    3  502    0 -0.28424613938E+03  0.18743516781E+02  0.56778204588E+03  0.63523511317E+03  0.10100000352E+00 0.  1.
       -3    1    3    3    0  502  0.28424613938E+03 -0.18743516781E+02 -0.94091199808E+03  0.98308828978E+03  0.10100000352E+00 0. -1.
</event>
<event>
 5   0  0.5310003E-04  0.1661329E+04  0.7818609E-02  0.8783733E-01
       -2   -1    0    0    0  501  0.00000000000E+00  0.00000000000E+00  0.54127621909E+03  0.54127621910E+03  0.25500000920E-02 0. -1.
        2   -1    0    0  501    0  0.00000000000E+00  0.00000000000E+00 -0.12747709256E+04  0.12747709256E+04  0.25500000920E-02 0.  1.
    10030    2    1    2    0    0  0.00000000000E+00  0.00000000000E+00 -0.73349470650E+03  0.18160471447E+04  0.16613286091E+04 0.  0.
        1    1    3    3  502    0 -0.12914982114E+03 -0.70796170466E+03  0.86754785533E+02  0.72485574041E+03  0.50400001928E-02 0. -1.
       -1    1    3    3    0  502  0.12914982114E+03  0.70796170466E+03 -0.82024949203E+03  0.10911914043E+04  0.50400001928E-02 0.  1.
</event>
<event>
 5   0  0.5310003E-04  0.1756533E+04  0.7818609E-02  0.8729762E-01
       -2   -1    0    0    0  501  0.00000000000E+00  0.00000000000E+00  0.60860938811E+03  0.60860938812E+03  0.25500000920E-02 0. -1.
        2   -1    0    0  501    0  0.00000000000E+00  0.00000000000E+00 -0.12674014298E+04  0.12674014298E+04  0.25500000920E-02 0.  1.
    10030    2    1    2    0    0  0.00000000000E+00  0.00000000000E+00 -0.65879204169E+03  0.18760108179E+04  0.17565334141E+04 0.  0.
        1    1    3    3  502    0 -0.34957822840E+03 -0.59052668032E+03  0.25599690692E+03  0.73243505809E+03  0.50400001928E-02 0. -1.
       -1    1    3    3    0  502  0.34957822840E+03  0.59052668032E+03 -0.91478894861E+03  0.11435757598E+04  0.50400001928E-02 0.  1.
</event>
<event>
 5   0  0.5021349E-04  0.1747152E+04  0.7818609E-02  0.8734920E-01
       -2   -1    0    0    0  501  0.00000000000E+00  0.00000000000E+00  0.23604528332E+04  0.23604528332E+04  0.25500000920E-02 0. -1.
        2   -1    0    0  501    0  0.00000000000E+00  0.00000000000E+00 -0.32330008663E+03  0.32330008664E+03  0.25500000920E-02 0.  1.
    10030    2    1    2    0    0  0.00000000000E+00  0.00000000000E+00  0.20371527466E+04  0.26837529198E+04  0.17471515166E+04 0.  0.
        2    1    3    3  502    0 -0.28507984988E+03 -0.22190605962E+03  0.22403311119E+04  0.22692721986E+04  0.25500000920E-02 0. -1.
       -2    1    3    3    0  502  0.28507984988E+03  0.22190605962E+03 -0.20317836540E+03  0.41448072123E+03  0.25500000920E-02 0.  1.
</event>
<event>
 5   0  0.2630135E-04  0.1780957E+04  0.7818609E-02  0.8716493E-01
        1   -1    0    0  501    0  0.00000000000E+00  0.00000000000E+00  0.20171765678E+04  0.20171765678E+04  0.50400001928E-02 0.  1.
       -1   -1    0    0    0  501  0.00000000000E+00  0.00000000000E+00 -0.39309976956E+03  0.39309976959E+03  0.50400001928E-02 0. -1.
    10030    2    1    2    0    0  0.00000000000E+00  0.00000000000E+00  0.16240767983E+04  0.24102763374E+04  0.17809566463E+04 0.  0.
        1    1    3    3  502    0  0.95383439059E+02 -0.27487837190E+03 -0.32695377022E+03  0.43766983866E+03  0.50400001928E-02 0. -1.
       -1    1    3    3    0  502 -0.95383439059E+02  0.27487837190E+03  0.19510305685E+04  0.19726064988E+04  0.50400001928E-02 0.  1.
</event>
<event>
 5   0  0.5310003E-04  0.1781836E+04  0.7818609E-02  0.8716019E-01
       -2   -1    0    0    0  501  0.00000000000E+00  0.00000000000E+00  0.50803375816E+03  0.50803375816E+03  0.25500000920E-02 0. -1.
        2   -1    0    0  501    0  0.00000000000E+00  0.00000000000E+00 -0.15623669289E+04  0.15623669289E+04  0.25500000920E-02 0.  1.
    10030    2    1    2    0    0  0.00000000000E+00  0.00000000000E+00 -0.10543331707E+04  0.20704006871E+04  0.17818362916E+04 0.  0.
        1    1    3    3  502    0 -0.38030931810E+03 -0.15447258672E+03  0.39160879607E+03  0.56732213659E+03  0.50400001928E-02 0. -1.
       -1    1    3    3    0  502  0.38030931810E+03  0.15447258672E+03 -0.14459419668E+04  0.15030785505E+04  0.50400001928E-02 0.  1.
</event>
<event>
 5   0  0.5198430E-04  0.1737354E+04  0.7818609E-02  0.8740342E-01
       -2   -1    0    0    0  501  0.00000000000E+00  0.00000000000E+00  0.11914201385E+04  0.11914201385E+04  0.25500000920E-02 0.  1.
        2   -1    0    0  501    0  0.00000000000E+00  0.00000000000E+00 -0.63336138416E+03  0.63336138417E+03  0.25500000920E-02 0. -1.
    10030    2    1    2    0    0  0.00000000000E+00  0.00000000000E+00  0.55805875429E+03  0.18247815226E+04  0.17373537441E+04 0.  0.
        4    1    3    3  502    0  0.41798745606E+03  0.44131246684E+03  0.93084533934E+03  0.11117305723E+04  0.12699999809E+01 0. -1.
       -4    1    3    3    0  502 -0.41798745606E+03 -0.44131246684E+03 -0.37278658505E+03  0.71305095029E+03  0.12699999809E+01 0.  1.
</event>
<event>
 5   0  0.5299877E-04  0.1713343E+04  0.7818609E-02  0.8753791E-01
       -2   -1    0    0    0  501  0.00000000000E+00  0.00000000000E+00  0.54600110379E+03  0.54600110379E+03  0.25500000920E-02 0.  1.
        2   -1    0    0  501    0  0.00000000000E+00  0.00000000000E+00 -0.13441108182E+04  0.13441108182E+04  0.25500000920E-02 0. -1.
    10030    2    1    2    0    0  0.00000000000E+00  0.00000000000E+00 -0.79810971445E+03  0.18901119220E+04  0.17133429200E+04 0.  0.
        3    1    3    3  502    0  0.42002132587E+03  0.44633311371E+03  0.26124202524E+03  0.66624212456E+03  0.10100000352E+00 0.  1.
       -3    1    3    3    0  502 -0.42002132587E+03 -0.44633311371E+03 -0.10593517397E+04  0.12238697975E+04  0.10100000352E+00 0. -1.
</event>
<event>
 5   0  0.2583422E-04  0.1584643E+04  0.7818609E-02  0.8830038E-01
       -1   -1    0    0    0  501  0.00000000000E+00  0.00000000000E+00  0.15221532162E+04  0.15221532162E+04  0.50400001928E-02 0.  1.
        1   -1    0    0  501    0  0.00000000000E+00  0.00000000000E+00 -0.41242443494E+03  0.41242443497E+03  0.50400001928E-02 0. -1.
    10030    2    1    2    0    0  0.00000000000E+00  0.00000000000E+00  0.11097287813E+04  0.19345776512E+04  0.15846427738E+04 0.  0.
        3    1    3    3  502    0 -0.49502007322E+02  0.24482440584E+03 -0.36310129196E+03  0.44071759308E+03  0.10100000352E+00 0. -1.
       -3    1    3    3    0  502  0.49502007322E+02 -0.24482440584E+03  0.14728300732E+04  0.14938600581E+04  0.10100000352E+00 0.  1.
</event>
<event>
 5   0  0.2595644E-04  0.1560886E+04  0.7818609E-02  0.8844944E-01
       -1   -1    0    0    0  501  0.00000000000E+00  0.00000000000E+00  0.33520363325E+03  0.33520363329E+03  0.50400001928E-02 0.  1.
        1   -1    0    0  501    0  0.00000000000E+00  0.00000000000E+00 -0.18170788767E+04  0.18170788767E+04  0.50400001928E-02 0. -1.
    10030    2    1    2    0    0  0.00000000000E+00  0.00000000000E+00 -0.14818752434E+04  0.21522825099E+04  0.15608862116E+04 0.  0.
        2    1    3    3  502    0  0.64077282139E+03 -0.25506758718E+03 -0.23723459345E+03  0.72933499504E+03  0.25500000920E-02 0.  1.
       -2    1    3    3    0  502 -0.64077282139E+03  0.25506758718E+03 -0.12446406500E+04  0.14229475149E+04  0.25500000920E-02 0. -1.
</event>
<event>
 5   0  0.5310003E-04  0.1722872E+04  0.7818609E-02  0.8748426E-01
        2   -1    0    0  501    0  0.00000000000E+00  0.00000000000E+00  0.15805620751E+04  0.15805620751E+04  0.25500000920E-02 0. -1.
       -2   -1    0    0    0  501  0.00000000000E+00  0.00000000000E+00 -0.46949853783E+03  0.46949853784E+03  0.25500000920E-02 0.  1.
    10030    2    1    2    0    0  0.00000000000E+00  0.00000000000E+00  0.11110635372E+04  0.20500606129E+04  0.17228715369E+04 0.  0.
        1    1    3    3  502    0 -0.81779951199E+03 -0.26307203175E+03  0.47963228223E+03  0.98389535108E+03  0.50400001928E-02 0.  1.
       -1    1    3    3    0  502  0.81779951199E+03  0.26307203175E+03  0.63143125501E+03  0.10661652618E+04  0.50400001928E-02 0. -1.
</event>
<event>
 5   0  0.5198430E-04  0.1659505E+04  0.7818609E-02  0.8784803E-01
        2   -1    0    0  501    0  0.00000000000E+00  0.00000000000E+00  0.15777900772E+04  0.15777900772E+04  0.25500000920E-02 0.  1.
       -2   -1    0    0    0  501  0.00000000000E+00  0.00000000000E+00 -0.43636286083E+03  0.43636286083E+03  0.25500000920E-02 0. -1.
    10030    2    1    2    0    0  0.00000000000E+00  0.00000000000E+00  0.11414272164E+04  0.20141529380E+04  0.16595047356E+04 0.  0.
        4    1    3    3  502    0 -0.56060834094E+03  0.27256455572E+03  0.12353934138E+04  0.13837527412E+04  0.12699999809E+01 0.  1.
       -4    1    3    3    0  502  0.56060834094E+03 -0.27256455572E+03 -0.93966197476E+02  0.63040019681E+03  0.12699999809E+01 0. -1.
</event>
<event>
 5   0  0.5299877E-04  0.1704776E+04  0.7818609E-02  0.8758645E-01
        2   -1    0    0  501    0  0.00000000000E+00  0.00000000000E+00  0.16426160795E+04  0.16426160795E+04  0.25500000920E-02 0.  1.
       -2   -1    0    0    0  501  0.00000000000E+00  0.00000000000E+00 -0.44232205194E+03  0.44232205194E+03  0.25500000920E-02 0. -1.
    10030    2    1    2    0    0  0.00000000000E+00  0.00000000000E+00  0.12002940276E+04  0.20849381315E+04  0.17047760144E+04 0.  0.
        3    1    3    3  502    0  0.57423137217E+03  0.28531056497E+03 -0.86718171563E+02  0.64704237786E+03  0.10100000352E+00 0. -1.
       -3    1    3    3    0  502 -0.57423137217E+03 -0.28531056497E+03  0.12870121991E+04  0.14378957536E+04  0.10100000352E+00 0.  1.
</event>
<event>
 5   0  0.2630135E-04  0.1607486E+04  0.7818609E-02  0.8815962E-01
       -1   -1    0    0    0  501  0.00000000000E+00  0.00000000000E+00  0.11451027582E+04  0.11451027582E+04  0.50400001928E-02 0. -1.
        1   -1    0    0  501    0  0.00000000000E+00  0.00000000000E+00 -0.56414378271E+03  0.56414378273E+03  0.50400001928E-02 0.  1.
    10030    2    1    2    0    0  0.00000000000E+00  0.00000000000E+00  0.58095897549E+03  0.17092465409E+04  0.16074857407E+04 0.  0.
        1    1    3    3  502    0 -0.13979661982E+03  0.57179108165E+03 -0.29144479728E+03  0.65683194643E+03  0.50400001928E-02 0.  1.
       -1    1    3    3    0  502  0.13979661982E+03 -0.57179108165E+03  0.87240377277E+03  0.10524145945E+04  0.50400001928E-02 0. -1.
</event>
<event>
 5   0  0.5021349E-04  0.1690080E+04  0.7818609E-02  0.8767042E-01
       -2   -1    0    0    0  501  0.00000000000E+00  0.00000000000E+00  0.77325432333E+03  0.77325432334E+03  0.25500000920E-02 0.  1.
        2   -1    0    0  501    0  0.00000000000E+00  0.00000000000E+00 -0.92349014559E+03  0.92349014559E+03  0.25500000920E-02 0. -1.
    10030    2    1    2    0    0  0.00000000000E+00  0.00000000000E+00 -0.15023582225E+03  0.16967444689E+04  0.16900801728E+04 0.  0.
        2    1    3    3  502    0 -0.79912019396E+03 -0.25287233501E+03  0.32801290136E+02  0.83881668250E+03  0.25500000920E-02 0.  1.
       -2    1    3    3    0  502  0.79912019396E+03  0.25287233501E+03 -0.18303711239E+03  0.85792778643E+03  0.25500000920E-02 0. -1.
</event>
<event>
 5   0  0.2630135E-04  0.1694257E+04  0.7818609E-02  0.8764647E-01
       -1   -1    0    0    0  501  0.00000000000E+00  0.00000000000E+00  0.11860893513E+04  0.11860893513E+04  0.50400001928E-02 0. -1.
        1   -1    0    0  501    0  0.00000000000E+00  0.00000000000E+00 -0.60503582981E+03  0.60503582983E+03  0.50400001928E-02 0.  1.
    10030    2    1    2    0    0  0.00000000000E+00  0.00000000000E+00  0.58105352153E+03  0.17911251812E+04  0.16942568341E+04 0.  0.
        1    1    3    3  502    0  0.62534734636E+03  0.55801341203E+02 -0.31071978622E+03  0.70051401046E+03  0.50400001928E-02 0.  1.
       -1    1    3    3    0  502 -0.62534734636E+03 -0.55801341203E+02  0.89177330774E+03  0.10906111707E+04  0.50400001928E-02 0. -1.
</event>
<event>
 5   0  0.2595644E-04  0.1711864E+04  0.7818609E-02  0.8754626E-01
        1   -1    0    0  501    0  0.00000000000E+00  0.00000000000E+00  0.48332372109E+03  0.48332372111E+03  0.50400001928E-02 0. -1.
       -1   -1    0    0    0  501  0.00000000000E+00  0.00000000000E+00 -0.15157956574E+04  0.15157956574E+04  0.50400001928E-02 0.  1.
    10030    2    1    2    0    0  0.00000000000E+00  0.00000000000E+00 -0.10324719363E+04  0.19991193785E+04  0.17118644778E+04 0.  0.
        2    1    3    3  502    0  0.14529364130E+03  0.46976429363E+03  0.30191878473E+03  0.57701272633E+03  0.25500000920E-02 0. -1.
       -2    1    3    3    0  502 -0.14529364130E+03 -0.46976429363E+03 -0.13343907210E+04  0.14221066522E+04  0.25500000920E-02 0.  1.
</event>
<event>
 5   0  0.5342255E-04  0.1713572E+04  0.7818609E-02  0.8753661E-01
        2   -1    0    0  501    0  0.00000000000E+00  0.00000000000E+00  0.14082916106E+04  0.14082916106E+04  0.25500000920E-02 0.  1.
       -2   -1    0    0    0  501  0.00000000000E+00  0.00000000000E+00 -0.52125752652E+03  0.52125752653E+03  0.25500000920E-02 0. -1.
    10030    2    1    2    0    0  0.00000000000E+00  0.00000000000E+00  0.88703408404E+03  0.19295491371E+04  0.17135724106E+04 0.  0.
        5    1    3    3  502    0 -0.16753194683E+02 -0.63285196360E+03 -0.20654806771E+03  0.66593278313E+03  0.46999998093E+01 0. -1.
       -5    1    3    3    0  502  0.16753194683E+02  0.63285196360E+03  0.10935821518E+04  0.12636163540E+04  0.46999998093E+01 0.  1.
</event>
<event>
 5   0  0.2630135E-04  0.1715008E+04  0.7818609E-02  0.8752851E-01
       -1   -1    0    0    0  501  0.00000000000E+00  0.00000000000E+00  0.68365188413E+03  0.68365188415E+03  0.50400001928E-02 0.  1.
        1   -1    0    0  501    0  0.00000000000E+00  0.00000000000E+00 -0.10755660801E+04  0.10755660801E+04  0.50400001928E-02 0. -1.
    10030    2    1    2    0    0  0.00000000000E+00  0.00000000000E+00 -0.39191419600E+03  0.17592179643E+04  0.17150076119E+04 0.  0.
        1    1    3    3  502    0  0.62439876301E+03 -0.50384739256E+03  0.11446044189E+03  0.81045493583E+03  0.50400001928E-02 0.  1.
       -1    1    3    3    0  502 -0.62439876301E+03  0.50384739256E+03 -0.50637463789E+03  0.94876302845E+03  0.50400001928E-02 0. -1.
</event>
<event>
 5   0  0.5198430E-04  0.1647201E+04  0.7818609E-02  0.8792064E-01
        2   -1    0    0  501    0  0.00000000000E+00  0.00000000000E+00  0.91048132624E+03  0.91048132625E+03  0.25500000920E-02 0.  1.
       -2   -1    0    0    0  501  0.00000000000E+00  0.00000000000E+00 -0.74501011860E+03  0.74501011860E+03  0.25500000920E-02 0. -1.
    10030    2    1    2    0    0  0.00000000000E+00  0.00000000000E+00  0.16547120764E+03  0.16554914449E+04  0.16472010209E+04 0.  0.
        4    1    3    3  502    0  0.14979247142E+03  0.24617263596E+03  0.85816105021E+03  0.90525176177E+03  0.12699999809E+01 0.  1.
       -4    1    3    3    0  502 -0.14979247142E+03 -0.24617263596E+03 -0.69268984256E+03  0.75023968309E+03  0.12699999809E+01 0. -1.
</event>
<event>
 5   0  0.2785059E-04  0.1386302E+04  0.7818609E-02  0.8963794E-01
       -1   -1    0    0    0  501  0.00000000000E+00  0.00000000000E+00  0.49944610583E+03  0.49944610585E+03  0.50400001928E-02 0.  1.
        1   -1    0    0  501    0  0.00000000000E+00  0.00000000000E+00 -0.96198284125E+03  0.96198284126E+03  0.50400001928E-02 0. -1.
    10030    2    1    2    0    0  0.00000000000E+00  0.00000000000E+00 -0.46253673542E+03  0.14614289471E+04  0.13863023970E+04 0.  0.
        5    1    3    3  502    0 -0.42528530096E+03  0.27956423059E+03 -0.72731332835E+03  0.88771082782E+03  0.46999998093E+01 0. -1.
       -5    1    3    3    0  502  0.42528530096E+03 -0.27956423059E+03  0.26477659293E+03  0.57371811929E+03  0.46999998093E+01 0.  1.
</event>
<event>
 5   0  0.5299877E-04  0.1701948E+04  0.7818609E-02  0.8760254E-01
        2   -1    0    0  501    0  0.00000000000E+00  0.00000000000E+00  0.95663999017E+03  0.95663999017E+03  0.25500000920E-02 0.  1.
       -2   -1    0    0    0  501  0.00000000000E+00  0.00000000000E+00 -0.75697925331E+03  0.75697925331E+03  0.25500000920E-02 0. -1.
    10030    2    1    2    0    0  0.00000000000E+00  0.00000000000E+00  0.19966073686E+03  0.17136192435E+04  0.17019478552E+04 0.  0.
        3    1    3    3  502    0  0.50054171978E+02  0.75819190073E+03 -0.28593704737E+03  0.81186229357E+03  0.10100000352E+00 0. -1.
       -3    1    3    3    0  502 -0.50054171978E+02 -0.75819190073E+03  0.48559778424E+03  0.90175694991E+03  0.10100000352E+00 0.  1.
</event>
<event>
 5   0  0.5299877E-04  0.1679335E+04  0.7818609E-02  0.8773239E-01
        2   -1    0    0  501    0  0.00000000000E+00  0.00000000000E+00  0.16457571282E+04  0.16457571282E+04  0.25500000920E-02 0. -1.
       -2   -1    0    0    0  501  0.00000000000E+00  0.00000000000E+00 -0.42839969308E+03  0.42839969308E+03  0.25500000920E-02 0.  1.
    10030    2    1    2    0    0  0.00000000000E+00  0.00000000000E+00  0.12173574351E+04  0.20741568213E+04  0.16793354026E+04 0.  0.
        3    1    3    3  502    0  0.58736513894E+03 -0.41475828256E+03  0.11442357255E+04  0.13514058033E+04  0.10100000352E+00 0. -1.
       -3    1    3    3    0  502 -0.58736513894E+03  0.41475828256E+03  0.73121709592E+02  0.72275101799E+03  0.10100000352E+00 0.  1.
</event>
<event>
 5   0  0.2583422E-04  0.1714783E+04  0.7818609E-02  0.8752977E-01
        1   -1    0    0  501    0  0.00000000000E+00  0.00000000000E+00  0.17603614489E+04  0.17603614489E+04  0.50400001928E-02 0. -1.
       -1   -1    0    0    0  501  0.00000000000E+00  0.00000000000E+00 -0.41759634293E+03  0.41759634296E+03  0.50400001928E-02 0.  1.
    10030    2    1    2    0    0  0.00000000000E+00  0.00000000000E+00  0.13427651060E+04  0.21779577919E+04  0.17147833721E+04 0.  0.
        3    1    3    3  502    0  0.49742037029E+03  0.44317942071E+03 -0.14105051170E+02  0.66635875202E+03  0.10100000352E+00 0.  1.
       -3    1    3    3    0  502 -0.49742037029E+03 -0.44317942071E+03  0.13568701571E+04  0.15115990399E+04  0.10100000352E+00 0. -1.
</event>
<event>
 5   0  0.5021349E-04  0.1274595E+04  0.7818609E-02  0.9049958E-01
       -2   -1    0    0    0  501  0.00000000000E+00  0.00000000000E+00  0.21202913576E+03  0.21202913578E+03  0.25500000920E-02 0.  1.
        2   -1    0    0  501    0  0.00000000000E+00  0.00000000000E+00 -0.19155288489E+04  0.19155288489E+04  0.25500000920E-02 0. -1.
    10030    2    1    2    0    0  0.00000000000E+00  0.00000000000E+00 -0.17034997132E+04  0.21275579847E+04  0.12745947221E+04 0.  0.
        2    1    3    3  502    0  0.49165523317E+03  0.22553919459E+03 -0.28926262503E+03  0.61340497458E+03  0.25500000920E-02 0.  1.
       -2    1    3    3    0  502 -0.49165523317E+03 -0.22553919459E+03 -0.14142370881E+04  0.15141530101E+04  0.25500000920E-02 0. -1.
</event>
<event>
 5   0  0.5198430E-04  0.1731713E+04  0.7818609E-02  0.8743481E-01
        2   -1    0    0  501    0  0.00000000000E+00  0.00000000000E+00  0.11673818072E+04  0.11673818072E+04  0.25500000920E-02 0. -1.
       -2   -1    0    0    0  501  0.00000000000E+00  0.00000000000E+00 -0.64221298973E+03  0.64221298974E+03  0.25500000920E-02 0.  1.
    10030    2    1    2    0    0  0.00000000000E+00  0.00000000000E+00  0.52516881747E+03  0.18095947969E+04  0.17317133257E+04 0.  0.
        4    1    3    3  502    0  0.44684176693E+03  0.74096251754E+03  0.22932319799E+03  0.89514454649E+03  0.12699999809E+01 0. -1.
       -4    1    3    3    0  502 -0.44684176693E+03 -0.74096251754E+03  0.29584561948E+03  0.91445025045E+03  0.12699999809E+01 0.  1.
</event>
<event>
 5   0  0.5198430E-04  0.1694559E+04  0.7818609E-02  0.8764474E-01
       -2   -1    0    0    0  501  0.00000000000E+00  0.00000000000E+00  0.65186454056E+03  0.65186454057E+03  0.25500000920E-02 0. -1.
        2   -1    0    0  501    0  0.00000000000E+00  0.00000000000E+00 -0.11012751626E+04  0.11012751626E+04  0.25500000920E-02 0.  1.
    10030    2    1    2    0    0  0.00000000000E+00  0.00000000000E+00 -0.44941062201E+03  0.17531397031E+04  0.16945586185E+04 0.  0.
        4    1    3    3  502    0  0.64375698657E+03 -0.47552700028E+03  0.62993792564E+02  0.80281929259E+03  0.12699999809E+01 0. -1.
       -4    1    3    3    0  502 -0.64375698657E+03  0.47552700028E+03 -0.51240441458E+03  0.95032041056E+03  0.12699999809E+01 0.  1.
</event>
<event>
 5   0  0.2561518E-04  0.1711504E+04  0.7818609E-02  0.8754830E-01
        1   -1    0    0  501    0  0.00000000000E+00  0.00000000000E+00  0.89394013720E+03  0.89394013721E+03  0.50400001928E-02 0. -1.
       -1   -1    0    0    0  501  0.00000000000E+00  0.00000000000E+00 -0.81919532655E+03  0.81919532657E+03  0.50400001928E-02 0.  1.
    10030    2    1    2    0    0  0.00000000000E+00  0.00000000000E+00  0.74744810647E+02  0.17131354638E+04  0.17115041135E+04 0.  0.
        4    1    3    3  502    0 -0.60654456938E+03  0.19854425741E+03 -0.53325328232E+03  0.83167109652E+03  0.12699999809E+01 0.  1.
       -4    1    3    3    0  502  0.60654456938E+03 -0.19854425741E+03  0.60799809297E+03  0.88146436726E+03  0.12699999809E+01 0. -1.
</event>
<event>
 5   0  0.2583422E-04  0.1689036E+04  0.7818609E-02  0.8767642E-01
        1   -1    0    0  501    0  0.00000000000E+00  0.00000000000E+00  0.18990413143E+04  0.18990413143E+04  0.50400001928E-02 0. -1.
       -1   -1    0    0    0  501  0.00000000000E+00  0.00000000000E+00 -0.37556365492E+03  0.37556365495E+03  0.50400001928E-02 0.  1.
    10030    2    1    2    0    0  0.00000000000E+00  0.00000000000E+00  0.15234776594E+04  0.22746049692E+04  0.16890362896E+04 0.  0.
        3    1    3    3  502    0  0.66844494114E+03  0.47548112649E+03  0.49135973502E+03  0.95620883722E+03  0.10100000352E+00 0.  1.
       -3    1    3    3    0  502 -0.66844494114E+03 -0.47548112649E+03  0.10321179243E+04  0.13183961320E+04  0.10100000352E+00 0. -1.
</event>
<event>
 5   0  0.2630135E-04  0.1685173E+04  0.7818609E-02  0.8769866E-01
       -1   -1    0    0    0  501  0.00000000000E+00  0.00000000000E+00  0.11204935768E+04  0.11204935768E+04  0.50400001928E-02 0. -1.
        1   -1    0    0  501    0  0.00000000000E+00  0.00000000000E+00 -0.63360634768E+03  0.63360634770E+03  0.50400001928E-02 0.  1.
    10030    2    1    2    0    0  0.00000000000E+00  0.00000000000E+00  0.48688722908E+03  0.17540999245E+04  0.16851728016E+04 0.  0.
        1    1    3    3  502    0 -0.68292008726E+03 -0.37460356488E+02 -0.26879098597E+03  0.73486850393E+03  0.50400001928E-02 0.  1.
       -1    1    3    3    0  502  0.68292008726E+03  0.37460356488E+02  0.75567821505E+03  0.10192314205E+04  0.50400001928E-02 0. -1.
</event>
<event>
 5   0  0.2561518E-04  0.1697068E+04  0.7818609E-02  0.8763038E-01
       -1   -1    0    0    0  501  0.00000000000E+00  0.00000000000E+00  0.20678046675E+04  0.20678046675E+04  0.50400001928E-02 0. -1.
        1   -1    0    0  501    0  0.00000000000E+00  0.00000000000E+00 -0.34820020272E+03  0.34820020276E+03  0.50400001928E-02 0.  1.
    10030    2    1    2    0    0  0.00000000000E+00  0.00000000000E+00  0.17196044648E+04  0.24160048703E+04  0.16970680652E+04 0.  0.
        4    1    3    3  502    0  0.35821397549E+03 -0.29700307485E+03 -0.15035689191E+03  0.48901624365E+03  0.12699999809E+01 0.  1.
       -4    1    3    3    0  502 -0.35821397549E+03  0.29700307485E+03  0.18699613567E+04  0.19269886267E+04  0.12699999809E+01 0. -1.
</event>
<event>
 5   0  0.2630135E-04  0.1793732E+04  0.7818609E-02  0.8709640E-01
       -1   -1    0    0    0  501  0.00000000000E+00  0.00000000000E+00  0.86855916166E+03  0.86855916168E+03  0.50400001928E-02 0. -1.
        1   -1    0    0  501    0  0.00000000000E+00  0.00000000000E+00 -0.92609492826E+03  0.92609492827E+03  0.50400001928E-02 0.  1.
    10030    2    1    2    0    0  0.00000000000E+00  0.00000000000E+00 -0.57535766600E+02  0.17946540899E+04  0.17937315680E+04 0.  0.
        1    1    3    3  502    0  0.25030473916E+03 -0.41366400374E+03  0.72699989561E+03  0.87309748521E+03  0.50400001928E-02 0. -1.
       -1    1    3    3    0  502 -0.25030473916E+03  0.41366400374E+03 -0.78453566221E+03  0.92155660474E+03  0.50400001928E-02 0.  1.
</event>
<event>
 5   0  0.5021349E-04  0.1698297E+04  0.7818609E-02  0.8762336E-01
        2   -1    0    0  501    0  0.00000000000E+00  0.00000000000E+00  0.20820347916E+04  0.20820347916E+04  0.25500000920E-02 0. -1.
       -2   -1    0    0    0  501  0.00000000000E+00  0.00000000000E+00 -0.34632154934E+03  0.34632154935E+03  0.25500000920E-02 0.  1.
    10030    2    1    2    0    0  0.00000000000E+00  0.00000000000E+00  0.17357132422E+04  0.24283563409E+04  0.16982974001E+04 0.  0.
        2    1    3    3  502    0  0.74446806544E+03  0.18989442314E+03  0.13849127129E+04  0.15837537102E+04  0.25500000920E-02 0. -1.
       -2    1    3    3    0  502 -0.74446806544E+03 -0.18989442314E+03  0.35080052939E+03  0.84460263073E+03  0.25500000920E-02 0.  1.
</event>
<event>
 5   0  0.2561518E-04  0.1720920E+04  0.7818609E-02  0.8749522E-01
        1   -1    0    0  501    0  0.00000000000E+00  0.00000000000E+00  0.10238483273E+04  0.10238483273E+04  0.50400001928E-02 0. -1.
       -1   -1    0    0    0  501  0.00000000000E+00  0.00000000000E+00 -0.72314534636E+03  0.72314534637E+03  0.50400001928E-02 0.  1.
    10030    2    1    2    0    0  0.00000000000E+00  0.00000000000E+00  0.30070298092E+03  0.17469936737E+04  0.17209196998E+04 0.  0.
        4    1    3    3  502    0 -0.36996365341E+03 -0.72500356819E+03  0.43366100231E+03  0.92226176141E+03  0.12699999809E+01 0. -1.
       -4    1    3    3    0  502  0.36996365341E+03  0.72500356819E+03 -0.13295802139E+03  0.82473191225E+03  0.12699999809E+01 0.  1.
</event>
<event>
 5   0  0.5021349E-04  0.1750998E+04  0.7818609E-02  0.8732801E-01
       -2   -1    0    0    0  501  0.00000000000E+00  0.00000000000E+00  0.18692898539E+04  0.18692898539E+04  0.25500000920E-02 0. -1.
        2   -1    0    0  501    0  0.00000000000E+00  0.00000000000E+00 -0.41004784013E+03  0.41004784014E+03  0.25500000920E-02 0.  1.
    10030    2    1    2    0    0  0.00000000000E+00  0.00000000000E+00  0.14592420138E+04  0.22793376941E+04  0.17509977352E+04 0.  0.
        2    1    3    3  502    0  0.16964422808E+03 -0.46276183140E+03 -0.21229181786E+03  0.53665211512E+03  0.25500000920E-02 0.  1.
       -2    1    3    3    0  502 -0.16964422808E+03  0.46276183140E+03  0.16715338317E+04  0.17426855790E+04  0.25500000920E-02 0. -1.
</event>
<event>
 5   0  0.2630135E-04  0.1688774E+04  0.7818609E-02  0.8767793E-01
       -1   -1    0    0    0  501  0.00000000000E+00  0.00000000000E+00  0.70800937869E+03  0.70800937871E+03  0.50400001928E-02 0.  1.
        1   -1    0    0  501    0  0.00000000000E+00  0.00000000000E+00 -0.10070334813E+04  0.10070334813E+04  0.50400001928E-02 0. -1.
    10030    2    1    2    0    0  0.00000000000E+00  0.00000000000E+00 -0.29902410260E+03  0.17150428600E+04  0.16887736964E+04 0.  0.
        1    1    3    3  502    0 -0.33879733641E+02 -0.63899773497E+03 -0.70901125598E+03  0.95507219768E+03  0.50400001928E-02 0. -1.
       -1    1    3    3    0  502  0.33879733641E+02  0.63899773497E+03  0.40998715338E+03  0.75997066233E+03  0.50400001928E-02 0.  1.
</event>
<event>
 5   0  0.2583422E-04  0.1714436E+04  0.7818609E-02  0.8753174E-01
        1   -1    0    0  501    0  0.00000000000E+00  0.00000000000E+00  0.12533921731E+04  0.12533921731E+04  0.50400001928E-02 0. -1.
       -1   -1    0    0    0  501  0.00000000000E+00  0.00000000000E+00 -0.58626704314E+03  0.58626704316E+03  0.50400001928E-02 0.  1.
    10030    2    1    2    0    0  0.00000000000E+00  0.00000000000E+00  0.66712512991E+03  0.18396592162E+04  0.17144357943E+04 0.  0.
        3    1    3    3  502    0  0.39481841004E+03  0.15323266379E+03  0.11332915165E+04  0.12098394512E+04  0.10100000352E+00 0. -1.
       -3    1    3    3    0  502 -0.39481841004E+03 -0.15323266379E+03 -0.46616638661E+03  0.62981976498E+03  0.10100000352E+00 0.  1.
</event>
<event>
 5   0  0.5021349E-04  0.1708384E+04  0.7818609E-02  0.8756597E-01
        2   -1    0    0  501    0  0.00000000000E+00  0.00000000000E+00  0.88302037178E+03  0.88302037179E+03  0.25500000920E-02 0.  1.
       -2   -1    0    0    0  501  0.00000000000E+00  0.00000000000E+00 -0.82630445333E+03  0.82630445334E+03  0.25500000920E-02 0. -1.
    10030    2    1    2    0    0  0.00000000000E+00  0.00000000000E+00  0.56715918447E+02  0.17093248251E+04  0.17083836403E+04 0.  0.
        2    1    3    3  502    0 -0.20001053357E+03 -0.59685744287E+03  0.60608462568E+03  0.87383155936E+03  0.25500000920E-02 0.  1.
       -2    1    3    3    0  502  0.20001053357E+03  0.59685744287E+03 -0.54936870723E+03  0.83549326576E+03  0.25500000920E-02 0. -1.
</event>
<event>
 5   0  0.5310003E-04  0.1705212E+04  0.7818609E-02  0.8758398E-01
       -2   -1    0    0    0  501  0.00000000000E+00  0.00000000000E+00  0.11041512211E+04  0.11041512211E+04  0.25500000920E-02 0.  1.
        2   -1    0    0  501    0  0.00000000000E+00  0.00000000000E+00 -0.65836690064E+03  0.65836690065E+03  0.25500000920E-02 0. -1.
    10030    2    1    2    0    0  0.00000000000E+00  0.00000000000E+00  0.44578432045E+03  0.17625181217E+04  0.17052115614E+04 0.  0.
        1    1    3    3  502    0 -0.65585481465E+03 -0.50566458374E+03  0.13361931433E+02  0.82826369617E+03  0.50400001928E-02 0. -1.
       -1    1    3    3    0  502  0.65585481465E+03  0.50566458374E+03  0.43242238901E+03  0.93425442557E+03  0.50400001928E-02 0.  1.
</event>
<event>
 5   0  0.5342255E-04  0.1636649E+04  0.7818609E-02  0.8798344E-01
        2   -1    0    0  501    0  0.00000000000E+00  0.00000000000E+00  0.30944858085E+04  0.30944858085E+04  0.25500000920E-02 0. -1.
       -2   -1    0    0    0  501  0.00000000000E+00  0.00000000000E+00 -0.21640270356E+03  0.21640270358E+03  0.25500000920E-02 0.  1.
    10030    2    1    2    0    0  0.00000000000E+00  0.00000000000E+00  0.28780831050E+04  0.33108885121E+04  0.16366491318E+04 0.  0.
        5    1    3    3  502    0  0.52884026862E+03 -0.62970733550E+02  0.26958821038E+04  0.27479883097E+04  0.46999998093E+01 0. -1.
       -5    1    3    3    0  502 -0.52884026862E+03  0.62970733550E+02  0.18220100120E+03  0.56290020238E+03  0.46999998093E+01 0.  1.
</event>
<event>
 5   0  0.2561518E-04  0.1557772E+04  0.7818609E-02  0.8846918E-01
       -1   -1    0    0    0  501  0.00000000000E+00  0.00000000000E+00  0.47785276392E+03  0.47785276394E+03  0.50400001928E-02 0.  1.
        1   -1    0    0  501    0  0.00000000000E+00  0.00000000000E+00 -0.12695620240E+04  0.12695620240E+04  0.50400001928E-02 0. -1.
    10030    2    1    2    0    0  0.00000000000E+00  0.00000000000E+00 -0.79170926005E+03  0.17474147879E+04  0.15577724123E+04 0.  0.
        4    1    3    3  502    0  0.12259459426E+03  0.19135726080E+03  0.43983379607E+03  0.49507819268E+03  0.12699999809E+01 0.  1.
       -4    1    3    3    0  502 -0.12259459426E+03 -0.19135726080E+03 -0.12315430561E+04  0.12523365952E+04  0.12699999809E+01 0. -1.
</event>
<event>
 5   0  0.2630135E-04  0.1627240E+04  0.7818609E-02  0.8803986E-01
       -1   -1    0    0    0  501  0.00000000000E+00  0.00000000000E+00  0.72048943728E+03  0.72048943729E+03  0.50400001928E-02 0.  1.
        1   -1    0    0  501    0  0.00000000000E+00  0.00000000000E+00 -0.91878900463E+03  0.91878900465E+03  0.50400001928E-02 0. -1.
    10030    2    1    2    0    0  0.00000000000E+00  0.00000000000E+00 -0.19829956736E+03  0.16392784419E+04  0.16272403301E+04 0.  0.
        1    1    3    3  502    0 -0.34020841644E+03 -0.12819028150E+03  0.63411080047E+03  0.73093845307E+03  0.50400001928E-02 0.  1.
       -1    1    3    3    0  502  0.34020841644E+03  0.12819028150E+03 -0.83241036782E+03  0.90833998887E+03  0.50400001928E-02 0. -1.
</event>
<event>
 5   0  0.2583422E-04  0.1705604E+04  0.7818609E-02  0.8758175E-01
       -1   -1    0    0    0  501  0.00000000000E+00  0.00000000000E+00  0.43190017738E+03  0.43190017741E+03  0.50400001928E-02 0. -1.
        1   -1    0    0  501    0  0.00000000000E+00  0.00000000000E+00 -0.16838876908E+04  0.16838876908E+04  0.50400001928E-02 0.  1.
    10030    2    1    2    0    0  0.00000000000E+00  0.00000000000E+00 -0.12519875134E+04  0.21157878682E+04  0.17056041655E+04 0.  0.
        3    1    3    3  502    0  0.53975924433E+03  0.21180296369E+03 -0.14017434176E+04  0.15169328120E+04  0.10100000352E+00 0.  1.
       -3    1    3    3    0  502 -0.53975924433E+03 -0.21180296369E+03  0.14975590418E+03  0.59885505617E+03  0.10100000352E+00 0. -1.
</event>
<event>
 5   0  0.5299877E-04  0.1673089E+04  0.7818609E-02  0.8776863E-01
        2   -1    0    0  501    0  0.00000000000E+00  0.00000000000E+00  0.93369471074E+03  0.93369471074E+03  0.25500000920E-02 0. -1.
       -2   -1    0    0    0  501  0.00000000000E+00  0.00000000000E+00 -0.74950249026E+03  0.74950249027E+03  0.25500000920E-02 0.  1.
    10030    2    1    2    0    0  0.00000000000E+00  0.00000000000E+00  0.18419222048E+03  0.16831972010E+04  0.16730887733E+04 0.  0.
        3    1    3    3  502    0  0.46828303939E+03  0.53953205397E+03  0.52995278939E+03  0.88951324410E+03  0.10100000352E+00 0.  1.
       -3    1    3    3    0  502 -0.46828303939E+03 -0.53953205397E+03 -0.34576056891E+03  0.79368395691E+03  0.10100000352E+00 0. -1.
</event>
<event>
 5   0  0.5021349E-04  0.1728296E+04  0.7818609E-02  0.8745388E-01
        2   -1    0    0  501    0  0.00000000000E+00  0.00000000000E+00  0.84283905884E+03  0.84283905884E+03  0.25500000920E-02 0. -1.
       -2   -1    0    0    0  501  0.00000000000E+00  0.00000000000E+00 -0.88599600347E+03  0.88599600347E+03  0.25500000920E-02 0.  1.
    10030    2    1    2    0    0  0.00000000000E+00  0.00000000000E+00 -0.43156944633E+02  0.17288350623E+04  0.17282963145E+04 0.  0.
        2    1    3    3  502    0  0.79133444741E+03 -0.33342756245E+03 -0.11839650731E+03  0.86683440172E+03  0.25500000920E-02 0. -1.
       -2    1    3    3    0  502 -0.79133444741E+03  0.33342756245E+03  0.75239562673E+02  0.86200066059E+03  0.25500000920E-02 0.  1.
</event>
<event>
 5   0  0.2595644E-04  0.1756167E+04  0.7818609E-02  0.8729963E-01
       -1   -1    0    0    0  501  0.00000000000E+00  0.00000000000E+00  0.40900592849E+03  0.40900592852E+03  0.50400001928E-02 0.  1.
        1   -1    0    0  501    0  0.00000000000E+00  0.00000000000E+00 -0.18851324001E+04  0.18851324001E+04  0.50400001928E-02 0. -1.
    10030    2    1    2    0    0  0.00000000000E+00  0.00000000000E+00 -0.14761264716E+04  0.22941383286E+04  0.17561666523E+04 0.  0.
        2    1    3    3  502    0 -0.42406040116E+03 -0.46835209361E+03  0.58531494405E+02  0.63451307573E+03  0.25500000920E-02 0.  1.
       -2    1    3    3    0  502  0.42406040116E+03  0.46835209361E+03 -0.15346579660E+04  0.16596252529E+04  0.25500000920E-02 0. -1.
</event>
<event>
 5   0  0.2595644E-04  0.1668855E+04  0.7818609E-02  0.8779329E-01
       -1   -1    0    0    0  501  0.00000000000E+00  0.00000000000E+00  0.16515944764E+04  0.16515944764E+04  0.50400001928E-02 0. -1.
        1   -1    0    0  501    0  0.00000000000E+00  0.00000000000E+00 -0.42157406608E+03  0.42157406611E+03  0.50400001928E-02 0.  1.
    10030    2    1    2    0    0  0.00000000000E+00  0.00000000000E+00  0.12300204103E+04  0.20731685425E+04  0.16688551752E+04 0.  0.
        2    1    3    3  502    0 -0.28708805090E+03  0.71958032629E+03  0.10000217010E+04  0.12650133586E+04  0.25500000920E-02 0. -1.
       -2    1    3    3    0  502  0.28708805090E+03 -0.71958032629E+03  0.22999870928E+03  0.80815518388E+03  0.25500000920E-02 0.  1.
</event>
<event>
 5   0  0.5198430E-04  0.1343470E+04  0.7818609E-02  0.8995786E-01
        2   -1    0    0  501    0  0.00000000000E+00  0.00000000000E+00  0.64088120753E+03  0.64088120753E+03  0.25500000920E-02 0.  1.
       -2   -1    0    0    0  501  0.00000000000E+00  0.00000000000E+00 -0.70407431505E+03  0.70407431505E+03  0.25500000920E-02 0. -1.
    10030    2    1    2    0    0  0.00000000000E+00  0.00000000000E+00 -0.63193107522E+02  0.13449555226E+04  0.13434701295E+04 0.  0.
        4    1    3    3  502    0 -0.61953139956E+03 -0.42929169287E+02 -0.28793495664E+03  0.68452189211E+03  0.12699999809E+01 0. -1.
       -4    1    3    3    0  502  0.61953139956E+03  0.42929169287E+02  0.22474184911E+03  0.66043363048E+03  0.12699999809E+01 0.  1.
</event>
<event>
 5   0  0.2583422E-04  0.1712190E+04  0.7818609E-02  0.8754442E-01
        1   -1    0    0  501    0  0.00000000000E+00  0.00000000000E+00  0.18493038784E+04  0.18493038784E+04  0.50400001928E-02 0.  1.
       -1   -1    0    0    0  501  0.00000000000E+00  0.00000000000E+00 -0.39631059865E+03  0.39631059868E+03  0.50400001928E-02 0. -1.
    10030    2    1    2    0    0  0.00000000000E+00  0.00000000000E+00  0.14529932798E+04  0.22456144771E+04  0.17121900913E+04 0.  0.
        3    1    3    3  502    0 -0.42140356511E+03 -0.25048024139E+03 -0.19399629930E+03  0.52721522205E+03  0.10100000352E+00 0. -1.
       -3    1    3    3    0  502  0.42140356511E+03  0.25048024139E+03  0.16469895791E+04  0.17183992551E+04  0.10100000352E+00 0.  1.
</event>
<event>
 5   0  0.5310003E-04  0.1795253E+04  0.7818609E-02  0.8708828E-01
        2   -1    0    0  501    0  0.00000000000E+00  0.00000000000E+00  0.78808276584E+03  0.78808276584E+03  0.25500000920E-02 0.  1.
       -2   -1    0    0    0  501  0.00000000000E+00  0.00000000000E+00 -0.10223973502E+04  0.10223973502E+04  0.25500000920E-02 0. -1.
    10030    2    1    2    0    0  0.00000000000E+00  0.00000000000E+00 -0.23431458440E+03  0.18104801161E+04  0.17952534435E+04 0.  0.
        1    1    3    3  502    0  0.54306044320E+02  0.23656690006E+03  0.75436030534E+03  0.79244716855E+03  0.50400001928E-02 0.  1.
       -1    1    3    3    0  502 -0.54306044320E+02 -0.23656690006E+03 -0.98867488974E+03  0.10180329475E+04  0.50400001928E-02 0. -1.
</event>
<event>
 5   0  0.2595644E-04  0.1799122E+04  0.7818609E-02  0.8706767E-01
        1   -1    0    0  501    0  0.00000000000E+00  0.00000000000E+00  0.12828587600E+04  0.12828587600E+04  0.50400001928E-02 0.  1.
       -1   -1    0    0    0  501  0.00000000000E+00  0.00000000000E+00 -0.63078628829E+03  0.63078628831E+03  0.50400001928E-02 0. -1.
    10030    2    1    2    0    0  0.00000000000E+00  0.00000000000E+00  0.65207247167E+03  0.19136450483E+04  0.17991216920E+04 0.  0.
        2    1    3    3  502    0 -0.73844307117E+03 -0.23501569080E+03  0.81192896215E+03  0.11223899429E+04  0.25500000920E-02 0.  1.
       -2    1    3    3    0  502  0.73844307117E+03  0.23501569080E+03 -0.15985649048E+03  0.79125510541E+03  0.25500000920E-02 0. -1.
</event>
<event>
 5   0  0.2561518E-04  0.1681713E+04  0.7818609E-02  0.8771863E-01
        1   -1    0    0  501    0  0.00000000000E+00  0.00000000000E+00  0.12168857267E+04  0.12168857267E+04  0.50400001928E-02 0.  1.
       -1   -1    0    0    0  501  0.00000000000E+00  0.00000000000E+00 -0.58102395788E+03  0.58102395791E+03  0.50400001928E-02 0. -1.
    10030    2    1    2    0    0  0.00000000000E+00  0.00000000000E+00  0.63586176878E+03  0.17979096846E+04  0.16817131280E+04 0.  0.
        4    1    3    3  502    0  0.49620761701E+03  0.61113807433E+03  0.20024292157E+01  0.78722129525E+03  0.12699999809E+01 0. -1.
       -4    1    3    3    0  502 -0.49620761701E+03 -0.61113807433E+03  0.63385933956E+03  0.10106883893E+04  0.12699999809E+01 0.  1.
</event>
<event>
 5   0  0.5198430E-04  0.1678630E+04  0.7818609E-02  0.8773647E-01
       -2   -1    0    0    0  501  0.00000000000E+00  0.00000000000E+00  0.28020911073E+03  0.28020911074E+03  0.25500000920E-02 0. -1.
        2   -1    0    0  501    0  0.00000000000E+00  0.00000000000E+00 -0.25140154385E+04  0.25140154385E+04  0.25500000920E-02 0.  1.
    10030    2    1    2    0    0  0.00000000000E+00  0.00000000000E+00 -0.22338063278E+04  0.27942245493E+04  0.16786304303E+04 0.  0.
        4    1    3    3  502    0 -0.21917418538E+03 -0.19662700778E+03 -0.24252178226E+04  0.24430273440E+04  0.12699999809E+01 0.  1.
       -4    1    3    3    0  502  0.21917418538E+03  0.19662700778E+03  0.19141149480E+03  0.35119720524E+03  0.12699999809E+01 0. -1.
</event>
<event>
 5   0  0.5021349E-04  0.1718464E+04  0.7818609E-02  0.8750903E-01
        2   -1    0    0  501    0  0.00000000000E+00  0.00000000000E+00  0.18391501792E+04  0.18391501792E+04  0.25500000920E-02 0.  1.
       -2   -1    0    0    0  501  0.00000000000E+00  0.00000000000E+00 -0.40142456056E+03  0.40142456056E+03  0.25500000920E-02 0. -1.
    10030    2    1    2    0    0  0.00000000000E+00  0.00000000000E+00  0.14377256187E+04  0.22405747398E+04  0.17184644919E+04 0.  0.
        2    1    3    3  502    0  0.36233357414E+03  0.68123468149E+03  0.12117594615E+04  0.14365678901E+04  0.25500000920E-02 0.  1.
       -2    1    3    3    0  502 -0.36233357414E+03 -0.68123468149E+03  0.22596615716E+03  0.80400684973E+03  0.25500000920E-02 0. -1.
</event>
<event>
 5   0  0.2785059E-04  0.1695972E+04  0.7818609E-02  0.8763665E-01
        1   -1    0    0  501    0  0.00000000000E+00  0.00000000000E+00  0.85064287865E+03  0.85064287866E+03  0.50400001928E-02 0. -1.
       -1   -1    0    0    0  501  0.00000000000E+00  0.00000000000E+00 -0.84533710165E+03  0.84533710166E+03  0.50400001928E-02 0.  1.
    10030    2    1    2    0    0  0.00000000000E+00  0.00000000000E+00  0.53057770018E+01  0.16959799803E+04  0.16959716809E+04 0.  0.
        5    1    3    3  502    0  0.75292273863E+03 -0.16841475907E+02  0.39237470782E+03  0.84920921273E+03  0.46999998093E+01 0. -1.
       -5    1    3    3    0  502 -0.75292273863E+03  0.16841475907E+02 -0.38706893082E+03  0.84677076759E+03  0.46999998093E+01 0.  1.
</event>
<event>
 5   0  0.5342255E-04  0.1648424E+04  0.7818609E-02  0.8791339E-01
       -2   -1    0    0    0  501  0.00000000000E+00  0.00000000000E+00  0.28586095975E+03  0.28586095976E+03  0.25500000920E-02 0. -1.
        2   -1    0    0  501    0  0.00000000000E+00  0.00000000000E+00 -0.23764203944E+04  0.23764203944E+04  0.25500000920E-02 0.  1.
    10030    2    1    2    0    0  0.00000000000E+00  0.00000000000E+00 -0.20905594347E+04  0.26622813542E+04  0.16484244778E+04 0.  0.
        5    1    3    3  502    0  0.46432800428E+03 -0.54473625302E+03 -0.17052106023E+04  0.18493521485E+04  0.46999998093E+01 0.  1.
       -5    1    3    3    0  502 -0.46432800428E+03  0.54473625302E+03 -0.38534883241E+03  0.81292920574E+03  0.46999998093E+01 0. -1.
</event>
<event>
 5   0  0.5021349E-04  0.1671244E+04  0.7818609E-02  0.8777937E-01
        2   -1    0    0  501    0  0.00000000000E+00  0.00000000000E+00  0.10620080126E+04  0.10620080126E+04  0.25500000920E-02 0.  1.
       -2   -1    0    0    0  501  0.00000000000E+00  0.00000000000E+00 -0.65749433488E+03  0.65749433488E+03  0.25500000920E-02 0. -1.
    10030    2    1    2    0    0  0.00000000000E+00  0.00000000000E+00  0.40451367776E+03  0.17195023475E+04  0.16712441496E+04 0.  0.
        2    1    3    3  502    0  0.58525676342E+03 -0.44988605801E+03  0.60515237368E+03  0.95453252417E+03  0.25500000920E-02 0.  1.
       -2    1    3    3    0  502 -0.58525676342E+03  0.44988605801E+03 -0.20063869593E+03  0.76496982335E+03  0.25500000920E-02 0. -1.
</event>
<event>
 5   0  0.1910750E-04  0.1704207E+04  0.7818609E-02  0.8758969E-01
       -4   -1    0    0    0  501  0.00000000000E+00  0.00000000000E+00  0.12754235315E+04  0.12754241638E+04  0.12699999809E+01 0. -1.
        4   -1    0    0  501    0  0.00000000000E+00  0.00000000000E+00 -0.56928408569E+03  0.56928550229E+03  0.12699999809E+01 0.  1.
    10030    2    1    2    0    0  0.00000000000E+00  0.00000000000E+00  0.70613944586E+03  0.18447096661E+04  0.17042068053E+04 0.  0.
        4    1    3    3  502    0 -0.51571357060E+03 -0.66569352964E+03  0.49407963401E+03  0.97633224875E+03  0.12699999809E+01 0.  1.
       -4    1    3    3    0  502  0.51571357060E+03  0.66569352964E+03  0.21205981185E+03  0.86837741738E+03  0.12699999809E+01 0. -1.
</event>
<event>
 5   0  0.2583422E-04  0.1705014E+04  0.7818609E-02  0.8758510E-01
       -1   -1    0    0    0  501  0.00000000000E+00  0.00000000000E+00  0.62067868342E+03  0.62067868344E+03  0.50400001928E-02 0. -1.
        1   -1    0    0  501    0  0.00000000000E+00  0.00000000000E+00 -0.11709253660E+04  0.11709253660E+04  0.50400001928E-02 0.  1.
    10030    2    1    2    0    0  0.00000000000E+00  0.00000000000E+00 -0.55024668260E+03  0.17916040495E+04  0.17050142693E+04 0.  0.
        3    1    3    3  502    0  0.37802927154E+03  0.53034306264E+03  0.30290270720E+03  0.71827568138E+03  0.10100000352E+00 0. -1.
       -3    1    3    3    0  502 -0.37802927154E+03 -0.53034306264E+03 -0.85314938980E+03  0.10733283681E+04  0.10100000352E+00 0.  1.
</event>
<event>
 5   0  0.5310003E-04  0.1655553E+04  0.7818609E-02  0.8787128E-01
        2   -1    0    0  501    0  0.00000000000E+00  0.00000000000E+00  0.24337161193E+04  0.24337161193E+04  0.25500000920E-02 0. -1.
       -2   -1    0    0    0  501  0.00000000000E+00  0.00000000000E+00 -0.28155051325E+03  0.28155051327E+03  0.25500000920E-02 0.  1.
    10030    2    1    2    0    0  0.00000000000E+00  0.00000000000E+00  0.21521656060E+04  0.27152666326E+04  0.16555531070E+04 0.  0.
        1    1    3    3  502    0 -0.17817140757E+03  0.79561535291E+03  0.13107093635E+04  0.15436022402E+04  0.50400001928E-02 0.  1.
       -1    1    3    3    0  502  0.17817140757E+03 -0.79561535291E+03  0.84145624250E+03  0.11716643924E+04  0.50400001928E-02 0. -1.
</event>
<event>
 5   0  0.2583422E-04  0.1698748E+04  0.7818609E-02  0.8762079E-01
        1   -1    0    0  501    0  0.00000000000E+00  0.00000000000E+00  0.60202491492E+03  0.60202491494E+03  0.50400001928E-02 0.  1.
       -1   -1    0    0    0  501  0.00000000000E+00  0.00000000000E+00 -0.11983492051E+04  0.11983492051E+04  0.50400001928E-02 0. -1.
    10030    2    1    2    0    0  0.00000000000E+00  0.00000000000E+00 -0.59632429016E+03  0.18003741200E+04  0.16987478662E+04 0.  0.
        3    1    3    3  502    0 -0.31844449187E+03 -0.71497872619E+03  0.51474801983E+02  0.78437946095E+03  0.10100000352E+00 0.  1.
       -3    1    3    3    0  502  0.31844449187E+03  0.71497872619E+03 -0.64779909214E+03  0.10159946591E+04  0.10100000352E+00 0. -1.
</event>
<event>
 5   0  0.5021349E-04  0.1685835E+04  0.7818609E-02  0.8769485E-01
       -2   -1    0    0    0  501  0.00000000000E+00  0.00000000000E+00  0.55197797935E+03  0.55197797936E+03  0.25500000920E-02 0.  1.
        2   -1    0    0  501    0  0.00000000000E+00  0.00000000000E+00 -0.12872068016E+04  0.12872068016E+04  0.25500000920E-02 0. -1.
    10030    2    1    2    0    0  0.00000000000E+00  0.00000000000E+00 -0.73522882221E+03  0.18391847809E+04  0.16858348784E+04 0.  0.
        2    1    3    3  502    0  0.42365843677E+03  0.50839531269E+03  0.20194552629E+03  0.69190625131E+03  0.25500000920E-02 0.  1.
       -2    1    3    3    0  502 -0.42365843677E+03 -0.50839531269E+03 -0.93717434850E+03  0.11472785296E+04  0.25500000920E-02 0. -1.
</event>
<event>
 5   0  0.5299877E-04  0.1775341E+04  0.7818609E-02  0.8719524E-01
        2   -1    0    0  501    0  0.00000000000E+00  0.00000000000E+00  0.47652343494E+03  0.47652343495E+03  0.25500000920E-02 0. -1.
       -2   -1    0    0    0  501  0.00000000000E+00  0.00000000000E+00 -0.16535575736E+04  0.16535575736E+04  0.25500000920E-02 0.  1.
    10030    2    1    2    0    0  0.00000000000E+00  0.00000000000E+00 -0.11770341386E+04  0.21300810085E+04  0.17753410206E+04 0.  0.
        3    1    3    3  502    0  0.12580038502E+03 -0.68702772746E+03  0.68786827776E+02  0.70182937603E+03  0.10100000352E+00 0. -1.
       -3    1    3    3    0  502 -0.12580038502E+03  0.68702772746E+03 -0.12458209664E+04  0.14282516325E+04  0.10100000352E+00 0.  1.
</event>
<event>
 5   0  0.5310003E-04  0.1714740E+04  0.7818609E-02  0.8753002E-01
       -2   -1    0    0    0  501  0.00000000000E+00  0.00000000000E+00  0.39980979492E+03  0.39980979493E+03  0.25500000920E-02 0. -1.
        2   -1    0    0  501    0  0.00000000000E+00  0.00000000000E+00 -0.18385817132E+04  0.18385817132E+04  0.25500000920E-02 0.  1.
    10030    2    1    2    0    0  0.00000000000E+00  0.00000000000E+00 -0.14387719183E+04  0.22383915082E+04  0.17147396044E+04 0.  0.
        1    1    3    3  502    0 -0.26303553058E+03  0.81449220270E+03 -0.78462557683E+03  0.11611298525E+04  0.50400001928E-02 0. -1.
       -1    1    3    3    0  502  0.26303553058E+03 -0.81449220270E+03 -0.65414634149E+03  0.10772616556E+04  0.50400001928E-02 0.  1.
</event>
<event>
 5   0  0.5342255E-04  0.1669945E+04  0.7818609E-02  0.8778694E-01
        2   -1    0    0  501    0  0.00000000000E+00  0.00000000000E+00  0.12876852656E+04  0.12876852656E+04  0.25500000920E-02 0. -1.
       -2   -1    0    0    0  501  0.00000000000E+00  0.00000000000E+00 -0.54142048469E+03  0.54142048470E+03  0.25500000920E-02 0.  1.
    10030    2    1    2    0    0  0.00000000000E+00  0.00000000000E+00  0.74626478089E+03  0.18291057503E+04  0.16699451256E+04 0.  0.
        5    1    3    3  502    0  0.34440302816E+03  0.26381139319E+03  0.11545316162E+04  0.12333593312E+04  0.46999998093E+01 0. -1.
       -5    1    3    3    0  502 -0.34440302816E+03 -0.26381139319E+03 -0.40826683536E+03  0.59574641907E+03  0.46999998093E+01 0.  1.
</event>
<event>
 5   0  0.2561518E-04  0.1710984E+04  0.7818609E-02  0.8755124E-01
       -1   -1    0    0    0  501  0.00000000000E+00  0.00000000000E+00  0.71578975346E+03  0.71578975347E+03  0.50400001928E-02 0.  1.
        1   -1    0    0  501    0  0.00000000000E+00  0.00000000000E+00 -0.10224604032E+04  0.10224604032E+04  0.50400001928E-02 0. -1.
    10030    2    1    2    0    0  0.00000000000E+00  0.00000000000E+00 -0.30667064977E+03  0.17382501567E+04  0.17109841378E+04 0.  0.
        4    1    3    3  502    0 -0.61754391459E+03  0.40101085676E+03  0.28914512894E+03  0.79106049843E+03  0.12699999809E+01 0.  1.
       -4    1    3    3    0  502  0.61754391459E+03 -0.40101085676E+03 -0.59581577870E+03  0.94718965828E+03  0.12699999809E+01 0. -1.
</event>
<event>
 5   0  0.2785059E-04  0.1721004E+04  0.7818609E-02  0.8749475E-01
       -1   -1    0    0    0  501  0.00000000000E+00  0.00000000000E+00  0.56970475874E+03  0.56970475876E+03  0.50400001928E-02 0.  1.
        1   -1    0    0  501    0  0.00000000000E+00  0.00000000000E+00 -0.12997330395E+04  0.12997330395E+04  0.50400001928E-02 0. -1.
    10030    2    1    2    0    0  0.00000000000E+00  0.00000000000E+00 -0.73002828072E+03  0.18694377982E+04  0.17210044715E+04 0.  0.
        5    1    3    3  502    0  0.11603700245E+03  0.20688773628E+03  0.53347448850E+03  0.58385292775E+03  0.46999998093E+01 0.  1.
       -5    1    3    3    0  502 -0.11603700245E+03 -0.20688773628E+03 -0.12635027692E+04  0.12855848705E+04  0.46999998093E+01 0. -1.
</event>
<event>
 5   0  0.5198430E-04  0.1720780E+04  0.7818609E-02  0.8749601E-01
        2   -1    0    0  501    0  0.00000000000E+00  0.00000000000E+00  0.13142311901E+04  0.13142311901E+04  0.25500000920E-02 0.  1.
       -2   -1    0    0    0  501  0.00000000000E+00  0.00000000000E+00 -0.56327268036E+03  0.56327268036E+03  0.25500000920E-02 0. -1.
    10030    2    1    2    0    0  0.00000000000E+00  0.00000000000E+00  0.75095850976E+03  0.18775038705E+04  0.17207795037E+04 0.  0.
        4    1    3    3  502    0 -0.70417774888E+03  0.88041602101E+02 -0.15529524686E+03  0.72645430161E+03  0.12699999809E+01 0. -1.
       -4    1    3    3    0  502  0.70417774888E+03 -0.88041602101E+02  0.90625375662E+03  0.11510495689E+04  0.12699999809E+01 0.  1.
</event>
<event>
 5   0  0.2561518E-04  0.1714215E+04  0.7818609E-02  0.8753298E-01
        1   -1    0    0  501    0  0.00000000000E+00  0.00000000000E+00  0.89604253118E+03  0.89604253120E+03  0.50400001928E-02 0. -1.
       -1   -1    0    0    0  501  0.00000000000E+00  0.00000000000E+00 -0.81986422214E+03  0.81986422216E+03  0.50400001928E-02 0.  1.
    10030    2    1    2    0    0  0.00000000000E+00  0.00000000000E+00  0.76178309039E+02  0.17159067534E+04  0.17142149374E+04 0.  0.
        4    1    3    3  502    0  0.58031796475E+03 -0.34770871424E+03 -0.48870137720E+03  0.83456631800E+03  0.12699999809E+01 0.  1.
       -4    1    3    3    0  502 -0.58031796475E+03  0.34770871424E+03  0.56487968624E+03  0.88134043536E+03  0.12699999809E+01 0. -1.
</event>
<event>
 5   0  0.2630135E-04  0.1715951E+04  0.7818609E-02  0.8752319E-01
        1   -1    0    0  501    0  0.00000000000E+00  0.00000000000E+00  0.23742402900E+04  0.23742402900E+04  0.50400001928E-02 0. -1.
       -1   -1    0    0    0  501  0.00000000000E+00  0.00000000000E+00 -0.31004509597E+03  0.31004509601E+03  0.50400001928E-02 0.  1.
    10030    2    1    2    0    0  0.00000000000E+00  0.00000000000E+00  0.20641951940E+04  0.26842853860E+04  0.17159505338E+04 0.  0.
        1    1    3    3  502    0  0.69329755148E+03  0.28549495205E+03  0.16845359833E+04  0.18438628858E+04  0.50400001928E-02 0. -1.
       -1    1    3    3    0  502 -0.69329755148E+03 -0.28549495205E+03  0.37965921070E+03  0.84042250019E+03  0.50400001928E-02 0.  1.
</event>
<event>
 5   0  0.5310003E-04  0.1683971E+04  0.7818609E-02  0.8770559E-01
        2   -1    0    0  501    0  0.00000000000E+00  0.00000000000E+00  0.13975729817E+04  0.13975729817E+04  0.25500000920E-02 0.  1.
       -2   -1    0    0    0  501  0.00000000000E+00  0.00000000000E+00 -0.50726498031E+03  0.50726498032E+03  0.25500000920E-02 0. -1.
    10030    2    1    2    0    0  0.00000000000E+00  0.00000000000E+00  0.89030800142E+03  0.19048379620E+04  0.16839712956E+04 0.  0.
        1    1    3    3  502    0 -0.70340816821E+03  0.10862796730E+03 -0.63687114051E+02  0.71459018669E+03  0.50400001928E-02 0. -1.
       -1    1    3    3    0  502  0.70340816821E+03 -0.10862796730E+03  0.95399511547E+03  0.11902477754E+04  0.50400001928E-02 0.  1.
</event>
<event>
 5   0  0.2785059E-04  0.1715724E+04  0.7818609E-02  0.8752447E-01
        1   -1    0    0  501    0  0.00000000000E+00  0.00000000000E+00  0.15096129993E+04  0.15096129993E+04  0.50400001928E-02 0. -1.
       -1   -1    0    0    0  501  0.00000000000E+00  0.00000000000E+00 -0.48749388150E+03  0.48749388152E+03  0.50400001928E-02 0.  1.
    10030    2    1    2    0    0  0.00000000000E+00  0.00000000000E+00  0.10221191178E+04  0.19971068808E+04  0.17157238713E+04 0.  0.
        5    1    3    3  502    0 -0.29793462705E+03 -0.50295884207E+03 -0.21973785955E+03  0.62453138891E+03  0.46999998093E+01 0.  1.
       -5    1    3    3    0  502  0.29793462705E+03  0.50295884207E+03  0.12418569774E+04  0.13725754919E+04  0.46999998093E+01 0. -1.
</event>
<event>
 5   0  0.5198430E-04  0.1694210E+04  0.7818609E-02  0.8764674E-01
       -2   -1    0    0    0  501  0.00000000000E+00  0.00000000000E+00  0.12004933894E+04  0.12004933894E+04  0.25500000920E-02 0. -1.
        2   -1    0    0  501    0  0.00000000000E+00  0.00000000000E+00 -0.59774296582E+03  0.59774296582E+03  0.25500000920E-02 0.  1.
    10030    2    1    2    0    0  0.00000000000E+00  0.00000000000E+00  0.60275042360E+03  0.17982363552E+04  0.16942095255E+04 0.  0.
        4    1    3    3  502    0  0.31514165147E+03  0.47112811010E+03  0.96955998167E+03  0.11230868745E+04  0.12699999809E+01 0. -1.
       -4    1    3    3    0  502 -0.31514165147E+03 -0.47112811010E+03 -0.36680955807E+03  0.67514948079E+03  0.12699999809E+01 0.  1.
</event>
<event>
 5   0  0.5310003E-04  0.1665549E+04  0.7818609E-02  0.8781261E-01
       -2   -1    0    0    0  501  0.00000000000E+00  0.00000000000E+00  0.32215912515E+03  0.32215912516E+03  0.25500000920E-02 0.  1.
        2   -1    0    0  501    0  0.00000000000E+00  0.00000000000E+00 -0.21527048155E+04  0.21527048155E+04  0.25500000920E-02 0. -1.
    10030    2    1    2    0    0  0.00000000000E+00  0.00000000000E+00 -0.18305456903E+04  0.24748639406E+04  0.16655491588E+04 0.  0.
        1    1    3    3  502    0 -0.35061691742E+03  0.75051990639E+03 -0.78830626271E+03  0.11435204924E+04  0.50400001928E-02 0.  1.
       -1    1    3    3    0  502  0.35061691742E+03 -0.75051990639E+03 -0.10422394276E+04  0.13313434482E+04  0.50400001928E-02 0. -1.
</event>
<event>
 5   0  0.5299877E-04  0.1691937E+04  0.7818609E-02  0.8765977E-01
       -2   -1    0    0    0  501  0.00000000000E+00  0.00000000000E+00  0.90334997298E+03  0.90334997298E+03  0.25500000920E-02 0.  1.
        2   -1    0    0  501    0  0.00000000000E+00  0.00000000000E+00 -0.79223155474E+03  0.79223155474E+03  0.25500000920E-02 0. -1.
    10030    2    1    2    0    0  0.00000000000E+00  0.00000000000E+00  0.11111841825E+03  0.16955815277E+04  0.16919365870E+04 0.  0.
        3    1    3    3  502    0  0.45695116847E+03 -0.33089485606E+03  0.68728739897E+03  0.88919050552E+03  0.10100000352E+00 0.  1.
       -3    1    3    3    0  502 -0.45695116847E+03  0.33089485606E+03 -0.57616898072E+03  0.80639102220E+03  0.10100000352E+00 0. -1.
</event>
<event>
 5   0  0.5021349E-04  0.1722474E+04  0.7818609E-02  0.8748649E-01
       -2   -1    0    0    0  501  0.00000000000E+00  0.00000000000E+00  0.56245640615E+03  0.56245640615E+03  0.25500000920E-02 0. -1.
        2   -1    0    0  501    0  0.00000000000E+00  0.00000000000E+00 -0.13187320116E+04  0.13187320116E+04  0.25500000920E-02 0.  1.
    10030    2    1    2    0    0  0.00000000000E+00  0.00000000000E+00 -0.75627560543E+03  0.18811884177E+04  0.17224741135E+04 0.  0.
        2    1    3    3  502    0  0.79755677657E+03  0.32403121066E+03 -0.35059000689E+03  0.92951944051E+03  0.25500000920E-02 0.  1.
       -2    1    3    3    0  502 -0.79755677657E+03 -0.32403121066E+03 -0.40568559853E+03  0.95166897722E+03  0.25500000920E-02 0. -1.
</event>
<event>
 5   0  0.5310003E-04  0.1702171E+04  0.7818609E-02  0.8760127E-01
       -2   -1    0    0    0  501  0.00000000000E+00  0.00000000000E+00  0.52695048658E+03  0.52695048659E+03  0.25500000920E-02 0.  1.
        2   -1    0    0  501    0  0.00000000000E+00  0.00000000000E+00 -0.13746002239E+04  0.13746002239E+04  0.25500000920E-02 0. -1.
    10030    2    1    2    0    0  0.00000000000E+00  0.00000000000E+00 -0.84764973732E+03  0.19015507105E+04  0.17021706810E+04 0.  0.
        1    1    3    3  502    0 -0.33329618982E+03 -0.34660271268E+03  0.36065889922E+03  0.60107789196E+03  0.50400001928E-02 0.  1.
       -1    1    3    3    0  502  0.33329618982E+03  0.34660271268E+03 -0.12083086365E+04  0.13004728185E+04  0.50400001928E-02 0. -1.
</event>
<event>
 5   0  0.5342255E-04  0.1771827E+04  0.7818609E-02  0.8721427E-01
        2   -1    0    0  501    0  0.00000000000E+00  0.00000000000E+00  0.12354414552E+04  0.12354414552E+04  0.25500000920E-02 0. -1.
       -2   -1    0    0    0  501  0.00000000000E+00  0.00000000000E+00 -0.63527289486E+03  0.63527289487E+03  0.25500000920E-02 0.  1.
    10030    2    1    2    0    0  0.00000000000E+00  0.00000000000E+00  0.60016856032E+03  0.18707143501E+04  0.17718267067E+04 0.  0.
        5    1    3    3  502    0 -0.31151819991E+02  0.82620459989E+03  0.63601793464E+03  0.10431324844E+04  0.46999998093E+01 0. -1.
       -5    1    3    3    0  502  0.31151819991E+02 -0.82620459989E+03 -0.35849374324E+02  0.82758186568E+03  0.46999998093E+01 0.  1.
</event>
<event>
 5   0  0.5021349E-04  0.1739157E+04  0.7818609E-02  0.8739342E-01
        2   -1    0    0  501    0  0.00000000000E+00  0.00000000000E+00  0.15521277901E+04  0.15521277901E+04  0.25500000920E-02 0.  1.
       -2   -1    0    0    0  501  0.00000000000E+00  0.00000000000E+00 -0.48718047642E+03  0.48718047642E+03  0.25500000920E-02 0. -1.
    10030    2    1    2    0    0  0.00000000000E+00  0.00000000000E+00  0.10649473137E+04  0.20393082665E+04  0.17391565269E+04 0.  0.
        2    1    3    3  502    0  0.74606235704E+02 -0.61155342806E+03 -0.18711764705E+03  0.64387630771E+03  0.25500000920E-02 0. -1.
       -2    1    3    3    0  502 -0.74606235704E+02  0.61155342806E+03  0.12520649607E+04  0.13954319588E+04  0.25500000920E-02 0.  1.
</event>
<event>
 5   0  0.2583422E-04  0.1705850E+04  0.7818609E-02  0.8758035E-01
       -1   -1    0    0    0  501  0.00000000000E+00  0.00000000000E+00  0.10710125403E+04  0.10710125403E+04  0.50400001928E-02 0.  1.
        1   -1    0    0  501    0  0.00000000000E+00  0.00000000000E+00 -0.67924614984E+03  0.67924614986E+03  0.50400001928E-02 0. -1.
    10030    2    1    2    0    0  0.00000000000E+00  0.00000000000E+00  0.39176639045E+03  0.17502586902E+04  0.17058501042E+04 0.  0.
        3    1    3    3  502    0  0.54809002341E+03 -0.26746956974E+03 -0.41591006450E+03  0.73818956675E+03  0.10100000352E+00 0. -1.
       -3    1    3    3    0  502 -0.54809002341E+03  0.26746956974E+03  0.80767645496E+03  0.10120691234E+04  0.10100000352E+00 0.  1.
</event>
<event>
 5   0  0.2630135E-04  0.1712737E+04  0.7818609E-02  0.8754133E-01
       -1   -1    0    0    0  501  0.00000000000E+00  0.00000000000E+00  0.82373269147E+03  0.82373269149E+03  0.50400001928E-02 0.  1.
        1   -1    0    0  501    0  0.00000000000E+00  0.00000000000E+00 -0.89029702160E+03  0.89029702161E+03  0.50400001928E-02 0. -1.
    10030    2    1    2    0    0  0.00000000000E+00  0.00000000000E+00 -0.66564330127E+02  0.17140297131E+04  0.17127367128E+04 0.  0.
        1    1    3    3  502    0 -0.22269349263E+03 -0.12675640804E+03  0.78446823156E+03  0.82525752647E+03  0.50400001928E-02 0.  1.
       -1    1    3    3    0  502  0.22269349263E+03  0.12675640804E+03 -0.85103256169E+03  0.88877218663E+03  0.50400001928E-02 0. -1.
</event>
<event>
 5   0  0.5021349E-04  0.1706765E+04  0.7818609E-02  0.8757515E-01
        2   -1    0    0  501    0  0.00000000000E+00  0.00000000000E+00  0.18921518302E+04  0.18921518302E+04  0.25500000920E-02 0. -1.
       -2   -1    0    0    0  501  0.00000000000E+00  0.00000000000E+00 -0.38488559597E+03  0.38488559598E+03  0.25500000920E-02 0.  1.
    10030    2    1    2    0    0  0.00000000000E+00  0.00000000000E+00  0.15072662342E+04  0.22770374262E+04  0.17067653440E+04 0.  0.
        2    1    3    3  502    0  0.13954609845E+03 -0.36768626083E+02  0.18757554852E+04  0.18812984042E+04  0.25500000920E-02 0. -1.
       -2    1    3    3    0  502 -0.13954609845E+03  0.36768626083E+02 -0.36848925095E+03  0.39573902199E+03  0.25500000920E-02 0.  1.
</event>
<event>
 5   0  0.5342255E-04  0.1696297E+04  0.7818609E-02  0.8763479E-01
        2   -1    0    0  501    0  0.00000000000E+00  0.00000000000E+00  0.10721159249E+04  0.10721159249E+04  0.25500000920E-02 0. -1.
       -2   -1    0    0    0  501  0.00000000000E+00  0.00000000000E+00 -0.67096874646E+03  0.67096874647E+03  0.25500000920E-02 0.  1.
    10030    2    1    2    0    0  0.00000000000E+00  0.00000000000E+00  0.40114717844E+03  0.17430846714E+04  0.16962974718E+04 0.  0.
        5    1    3    3  502    0  0.63918525619E+03  0.18287029688E+03  0.74172487294E+03  0.99608092761E+03  0.46999998093E+01 0. -1.
       -5    1    3    3    0  502 -0.63918525619E+03 -0.18287029688E+03 -0.34057769450E+03  0.74700374377E+03  0.46999998093E+01 0.  1.
</event>
<event>
 5   0  0.5342255E-04  0.1752958E+04  0.7818609E-02  0.8731724E-01
        2   -1    0    0  501    0  0.00000000000E+00  0.00000000000E+00  0.25780662811E+04  0.25780662811E+04  0.25500000920E-02 0.  1.
       -2   -1    0    0    0  501  0.00000000000E+00  0.00000000000E+00 -0.29798111883E+03  0.29798111885E+03  0.25500000920E-02 0. -1.
    10030    2    1    2    0    0  0.00000000000E+00  0.00000000000E+00  0.22800851622E+04  0.28760473999E+04  0.17529575863E+04 0.  0.
        5    1    3    3  502    0  0.28411113753E+03  0.13014526046E+02 -0.22014628264E+03  0.35968735329E+03  0.46999998093E+01 0. -1.
       -5    1    3    3    0  502 -0.28411113753E+03 -0.13014526046E+02  0.25002314449E+04  0.25163600466E+04  0.46999998093E+01 0.  1.
</event>
<event>
 5   0  0.2561518E-04  0.1700081E+04  0.7818609E-02  0.8761318E-01
       -1   -1    0    0    0  501  0.00000000000E+00  0.00000000000E+00  0.81722142004E+03  0.81722142005E+03  0.50400001928E-02 0. -1.
        1   -1    0    0  501    0  0.00000000000E+00  0.00000000000E+00 -0.88417787880E+03  0.88417787882E+03  0.50400001928E-02 0.  1.
    10030    2    1    2    0    0  0.00000000000E+00  0.00000000000E+00 -0.66956458763E+02  0.17013992989E+04  0.17000812942E+04 0.  0.
        4    1    3    3  502    0 -0.14034650996E+03  0.79422168814E+03  0.23521130208E+03  0.84012570624E+03  0.12699999809E+01 0. -1.
       -4    1    3    3    0  502  0.14034650996E+03 -0.79422168814E+03 -0.30216776084E+03  0.86127359263E+03  0.12699999809E+01 0.  1.
</event>
<event>
 5   0  0.2785059E-04  0.1682441E+04  0.7818609E-02  0.8771443E-01
        1   -1    0    0  501    0  0.00000000000E+00  0.00000000000E+00  0.95494033325E+03  0.95494033326E+03  0.50400001928E-02 0.  1.
       -1   -1    0    0    0  501  0.00000000000E+00  0.00000000000E+00 -0.74104302577E+03  0.74104302579E+03  0.50400001928E-02 0. -1.
    10030    2    1    2    0    0  0.00000000000E+00  0.00000000000E+00  0.21389730748E+03  0.16959833591E+04  0.16824409339E+04 0.  0.
        5    1    3    3  502    0  0.41073896916E+03 -0.29618575408E+03  0.78406765013E+03  0.93338988193E+03  0.46999998093E+01 0.  1.
       -5    1    3    3    0  502 -0.41073896916E+03  0.29618575408E+03 -0.57017034265E+03  0.76259347712E+03  0.46999998093E+01 0. -1.
</event>
<event>
 5   0  0.5310003E-04  0.1696380E+04  0.7818609E-02  0.8763432E-01
       -2   -1    0    0    0  501  0.00000000000E+00  0.00000000000E+00  0.65240470902E+03  0.65240470902E+03  0.25500000920E-02 0.  1.
        2   -1    0    0  501    0  0.00000000000E+00  0.00000000000E+00 -0.11027302492E+04  0.11027302492E+04  0.25500000920E-02 0. -1.
    10030    2    1    2    0    0  0.00000000000E+00  0.00000000000E+00 -0.45032554022E+03  0.17551349583E+04  0.16963801548E+04 0.  0.
        1    1    3    3  502    0  0.79826295174E+03 -0.23411124346E+03 -0.39640850319E+03  0.92150502758E+03  0.50400001928E-02 0.  1.
       -1    1    3    3    0  502 -0.79826295174E+03  0.23411124346E+03 -0.53917037031E+02  0.83362993069E+03  0.50400001928E-02 0. -1.
</event>
<event>
 5   0  0.5198430E-04  0.1698474E+04  0.7818609E-02  0.8762235E-01
       -2   -1    0    0    0  501  0.00000000000E+00  0.00000000000E+00  0.71007956382E+03  0.71007956382E+03  0.25500000920E-02 0. -1.
        2   -1    0    0  501    0  0.00000000000E+00  0.00000000000E+00 -0.10156655813E+04  0.10156655813E+04  0.25500000920E-02 0.  1.
    10030    2    1    2    0    0  0.00000000000E+00  0.00000000000E+00 -0.30558601749E+03  0.17257451451E+04  0.16984738714E+04 0.  0.
        4    1    3    3  502    0  0.29448156186E+03 -0.78844002030E+03 -0.26794722488E+03  0.88326348509E+03  0.12699999809E+01 0. -1.
       -4    1    3    3    0  502 -0.29448156186E+03  0.78844002030E+03 -0.37638792606E+02  0.84248166003E+03  0.12699999809E+01 0.  1.
</event>
<event>
 5   0  0.5021349E-04  0.1705592E+04  0.7818609E-02  0.8758181E-01
        2   -1    0    0  501    0  0.00000000000E+00  0.00000000000E+00  0.15198024318E+04  0.15198024318E+04  0.25500000920E-02 0. -1.
       -2   -1    0    0    0  501  0.00000000000E+00  0.00000000000E+00 -0.47852362715E+03  0.47852362715E+03  0.25500000920E-02 0.  1.
    10030    2    1    2    0    0  0.00000000000E+00  0.00000000000E+00  0.10412788047E+04  0.19983260590E+04  0.17055924158E+04 0.  0.
        2    1    3    3  502    0 -0.11607998146E+03 -0.75699975883E+03  0.96017803572E+03  0.12281958546E+04  0.25500000920E-02 0. -1.
       -2    1    3    3    0  502  0.11607998146E+03  0.75699975883E+03  0.81100768956E+02  0.77013020438E+03  0.25500000920E-02 0.  1.
</event>
<event>
 5   0  0.5021349E-04  0.1687377E+04  0.7818609E-02  0.8768597E-01
       -2   -1    0    0    0  501  0.00000000000E+00  0.00000000000E+00  0.94579159826E+03  0.94579159826E+03  0.25500000920E-02 0. -1.
        2   -1    0    0  501    0  0.00000000000E+00  0.00000000000E+00 -0.75260788123E+03  0.75260788123E+03  0.25500000920E-02 0.  1.
    10030    2    1    2    0    0  0.00000000000E+00  0.00000000000E+00  0.19318371703E+03  0.16983994795E+04  0.16873769121E+04 0.  0.
        2    1    3    3  502    0 -0.57990182116E+03  0.16700105551E+03  0.69004895603E+03  0.91670226161E+03  0.25500000920E-02 0. -1.
       -2    1    3    3    0  502  0.57990182116E+03 -0.16700105551E+03 -0.49686523900E+03  0.78169721788E+03  0.25500000920E-02 0.  1.
</event>
<event>
 5   0  0.2595644E-04  0.1702831E+04  0.7818609E-02  0.8759752E-01
        1   -1    0    0  501    0  0.00000000000E+00  0.00000000000E+00  0.61881550399E+03  0.61881550401E+03  0.50400001928E-02 0. -1.
       -1   -1    0    0    0  501  0.00000000000E+00  0.00000000000E+00 -0.11714447431E+04  0.11714447431E+04  0.50400001928E-02 0.  1.
    10030    2    1    2    0    0  0.00000000000E+00  0.00000000000E+00 -0.55262923907E+03  0.17902602471E+04  0.17028307833E+04 0.  0.
        2    1    3    3  502    0  0.45523117382E+03 -0.76138496737E+02  0.47587428389E+03  0.66293953448E+03  0.25500000920E-02 0. -1.
       -2    1    3    3    0  502 -0.45523117382E+03  0.76138496737E+02 -0.10285035230E+04  0.11273207126E+04  0.25500000920E-02 0.  1.
</event>
<event>
 5   0  0.2583422E-04  0.1690103E+04  0.7818609E-02  0.8767029E-01
        1   -1    0    0  501    0  0.00000000000E+00  0.00000000000E+00  0.17161576207E+04  0.17161576207E+04  0.50400001928E-02 0.  1.
       -1   -1    0    0    0  501  0.00000000000E+00  0.00000000000E+00 -0.41611081662E+03  0.41611081665E+03  0.50400001928E-02 0. -1.
    10030    2    1    2    0    0  0.00000000000E+00  0.00000000000E+00  0.13000468040E+04  0.21322684373E+04  0.16901026585E+04 0.  0.
        3    1    3    3  502    0  0.65657742619E+03  0.50677300430E+03  0.85423043237E+03  0.11906395073E+04  0.10100000352E+00 0. -1.
       -3    1    3    3    0  502 -0.65657742619E+03 -0.50677300430E+03  0.44581637167E+03  0.94162893006E+03  0.10100000352E+00 0.  1.
</event>
<event>
 5   0  0.5342255E-04  0.1693660E+04  0.7818609E-02  0.8764989E-01
        2   -1    0    0  501    0  0.00000000000E+00  0.00000000000E+00  0.66531967722E+03  0.66531967722E+03  0.25500000920E-02 0. -1.
       -2   -1    0    0    0  501  0.00000000000E+00  0.00000000000E+00 -0.10778590546E+04  0.10778590546E+04  0.25500000920E-02 0.  1.
    10030    2    1    2    0    0  0.00000000000E+00  0.00000000000E+00 -0.41253937734E+03  0.17431787318E+04  0.16936597513E+04 0.  0.
        5    1    3    3  502    0  0.33979989400E+03 -0.25277289938E+03 -0.96101805581E+03  0.10502075510E+04  0.46999998093E+01 0.  1.
       -5    1    3    3    0  502 -0.33979989400E+03  0.25277289938E+03  0.54847867848E+03  0.69297118076E+03  0.46999998093E+01 0. -1.
</event>
<event>
 5   0  0.5310003E-04  0.1716968E+04  0.7818609E-02  0.8751746E-01
       -2   -1    0    0    0  501  0.00000000000E+00  0.00000000000E+00  0.27492135840E+03  0.27492135841E+03  0.25500000920E-02 0.  1.
        2   -1    0    0  501    0  0.00000000000E+00  0.00000000000E+00 -0.26807467867E+04  0.26807467867E+04  0.25500000920E-02 0. -1.
    10030    2    1    2    0    0  0.00000000000E+00  0.00000000000E+00 -0.24058254283E+04  0.29556681451E+04  0.17169677319E+04 0.  0.
        1    1    3    3  502    0  0.44447474901E+03 -0.72206774659E+01 -0.24671913875E+04  0.25069190819E+04  0.50400001928E-02 0. -1.
       -1    1    3    3    0  502 -0.44447474901E+03  0.72206774659E+01  0.61365959252E+02  0.44874906315E+03  0.50400001928E-02 0.  1.
</event>
<event>
 5   0  0.2561518E-04  0.1662337E+04  0.7818609E-02  0.8783141E-01
       -1   -1    0    0    0  501  0.00000000000E+00  0.00000000000E+00  0.95269895837E+03  0.95269895838E+03  0.50400001928E-02 0.  1.
        1   -1    0    0  501    0  0.00000000000E+00  0.00000000000E+00 -0.72514074807E+03  0.72514074809E+03  0.50400001928E-02 0. -1.
    10030    2    1    2    0    0  0.00000000000E+00  0.00000000000E+00  0.22755821029E+03  0.16778397065E+04  0.16623367112E+04 0.  0.
        4    1    3    3  502    0 -0.19933800597E+03  0.71687380733E+03 -0.26007439134E+03  0.78821570537E+03  0.12699999809E+01 0. -1.
       -4    1    3    3    0  502  0.19933800597E+03 -0.71687380733E+03  0.48763260164E+03  0.88962400110E+03  0.12699999809E+01 0.  1.
</event>
<event>
 5   0  0.2583422E-04  0.1706341E+04  0.7818609E-02  0.8757756E-01
       -1   -1    0    0    0  501  0.00000000000E+00  0.00000000000E+00  0.13595215228E+04  0.13595215228E+04  0.50400001928E-02 0. -1.
        1   -1    0    0  501    0  0.00000000000E+00  0.00000000000E+00 -0.53540911413E+03  0.53540911416E+03  0.50400001928E-02 0.  1.
    10030    2    1    2    0    0  0.00000000000E+00  0.00000000000E+00  0.82411240862E+03  0.18949306369E+04  0.17063413658E+04 0.  0.
        3    1    3    3  502    0  0.33388471527E+03 -0.43707472801E+03  0.11363578055E+04  0.12624667889E+04  0.10100000352E+00 0. -1.
       -3    1    3    3    0  502 -0.33388471527E+03  0.43707472801E+03 -0.31224539683E+03  0.63246384798E+03  0.10100000352E+00 0.  1.
</event>
<event>
 5   0  0.5342255E-04  0.1579205E+04  0.7818609E-02  0.8833426E-01
        2   -1    0    0  501    0  0.00000000000E+00  0.00000000000E+00  0.81406618761E+03  0.81406618761E+03  0.25500000920E-02 0. -1.
       -2   -1    0    0    0  501  0.00000000000E+00  0.00000000000E+00 -0.76587385073E+03  0.76587385074E+03  0.25500000920E-02 0.  1.
    10030    2    1    2    0    0  0.00000000000E+00  0.00000000000E+00  0.48192336874E+02  0.15799400383E+04  0.15792048706E+04 0.  0.
        5    1    3    3  502    0  0.52564952353E+03  0.42787153459E+03 -0.38114602752E+03  0.77760906373E+03  0.46999998093E+01 0.  1.
       -5    1    3    3    0  502 -0.52564952353E+03 -0.42787153459E+03  0.42933836439E+03  0.80233097462E+03  0.46999998093E+01 0. -1.
</event>
<event>
 5   0  0.5342255E-04  0.1696512E+04  0.7818609E-02  0.8763356E-01
        2   -1    0    0  501    0  0.00000000000E+00  0.00000000000E+00  0.20367879565E+04  0.20367879565E+04  0.25500000920E-02 0.  1.
       -2   -1    0    0    0  501  0.00000000000E+00  0.00000000000E+00 -0.35327107484E+03  0.35327107485E+03  0.25500000920E-02 0. -1.
    10030    2    1    2    0    0  0.00000000000E+00  0.00000000000E+00  0.16835168816E+04  0.23900590313E+04  0.16965120343E+04 0.  0.
        5    1    3    3  502    0  0.47206513767E+03 -0.54615900571E+02 -0.14811090658E+03  0.49778240371E+03  0.46999998093E+01 0. -1.
       -5    1    3    3    0  502 -0.47206513767E+03  0.54615900571E+02  0.18316277882E+04  0.18922766276E+04  0.46999998093E+01 0.  1.
</event>
<event>
 5   0  0.5021349E-04  0.1690849E+04  0.7818609E-02  0.8766601E-01
        2   -1    0    0  501    0  0.00000000000E+00  0.00000000000E+00  0.19302118979E+04  0.19302118979E+04  0.25500000920E-02 0. -1.
       -2   -1    0    0    0  501  0.00000000000E+00  0.00000000000E+00 -0.37029209685E+03  0.37029209686E+03  0.25500000920E-02 0.  1.
    10030    2    1    2    0    0  0.00000000000E+00  0.00000000000E+00  0.15599198011E+04  0.23005039948E+04  0.16908485575E+04 0.  0.
        2    1    3    3  502    0 -0.51628865786E+03 -0.29458359745E+02  0.16899311083E+04  0.17672829213E+04  0.25500000920E-02 0. -1.
       -2    1    3    3    0  502  0.51628865786E+03  0.29458359745E+02 -0.13001130721E+03  0.53322107348E+03  0.25500000920E-02 0.  1.
</event>
<event>
 5   0  0.5198430E-04  0.1717945E+04  0.7818609E-02  0.8751195E-01
        2   -1    0    0  501    0  0.00000000000E+00  0.00000000000E+00  0.53507605614E+03  0.53507605615E+03  0.25500000920E-02 0. -1.
       -2   -1    0    0    0  501  0.00000000000E+00  0.00000000000E+00 -0.13789330083E+04  0.13789330083E+04  0.25500000920E-02 0.  1.
    10030    2    1    2    0    0  0.00000000000E+00  0.00000000000E+00 -0.84385695219E+03  0.19140090645E+04  0.17179453260E+04 0.  0.
        4    1    3    3  502    0  0.81705579448E+03  0.26217279936E+03 -0.46533190338E+03  0.97614043109E+03  0.12699999809E+01 0.  1.
       -4    1    3    3    0  502 -0.81705579448E+03 -0.26217279936E+03 -0.37852504881E+03  0.93786863339E+03  0.12699999809E+01 0. -1.
</event>
<event>
 5   0  0.2630135E-04  0.1658975E+04  0.7818609E-02  0.8785114E-01
        1   -1    0    0  501    0  0.00000000000E+00  0.00000000000E+00  0.23135877688E+04  0.23135877689E+04  0.50400001928E-02 0.  1.
       -1   -1    0    0    0  501  0.00000000000E+00  0.00000000000E+00 -0.29739519634E+03  0.29739519639E+03  0.50400001928E-02 0. -1.
    10030    2    1    2    0    0  0.00000000000E+00  0.00000000000E+00  0.20161925725E+04  0.26109829652E+04  0.16589754535E+04 0.  0.
        1    1    3    3  502    0 -0.19622430723E+03 -0.26722378533E+03  0.22047805914E+04  0.22295672195E+04  0.50400001928E-02 0.  1.
       -1    1    3    3    0  502  0.19622430723E+03  0.26722378533E+03 -0.18858801888E+03  0.38141574572E+03  0.50400001928E-02 0. -1.
</event>
<event>
 5   0  0.2630135E-04  0.1725177E+04  0.7818609E-02  0.8747134E-01
        1   -1    0    0  501    0  0.00000000000E+00  0.00000000000E+00  0.12007816931E+04  0.12007816931E+04  0.50400001928E-02 0. -1.
       -1   -1    0    0    0  501  0.00000000000E+00  0.00000000000E+00 -0.61964578852E+03  0.61964578854E+03  0.50400001928E-02 0.  1.
    10030    2    1    2    0    0  0.00000000000E+00  0.00000000000E+00  0.58113590462E+03  0.18204274817E+04  0.17251774623E+04 0.  0.
        1    1    3    3  502    0  0.14722238823E+03 -0.46841346884E+03 -0.45779494864E+03  0.67131350680E+03  0.50400001928E-02 0.  1.
       -1    1    3    3    0  502 -0.14722238823E+03  0.46841346884E+03  0.10389308533E+04  0.11491139749E+04  0.50400001928E-02 0. -1.
</event>
<event>
 5   0  0.2583422E-04  0.1364750E+04  0.7818609E-02  0.8979737E-01
        1   -1    0    0  501    0  0.00000000000E+00  0.00000000000E+00  0.68479694941E+03  0.68479694943E+03  0.50400001928E-02 0. -1.
       -1   -1    0    0    0  501  0.00000000000E+00  0.00000000000E+00 -0.67996146933E+03  0.67996146935E+03  0.50400001928E-02 0.  1.
    10030    2    1    2    0    0  0.00000000000E+00  0.00000000000E+00  0.48354800747E+01  0.13647584188E+04  0.13647498525E+04 0.  0.
        3    1    3    3  502    0  0.36587540470E+02 -0.95632756679E+01  0.68374824199E+03  0.68479323375E+03  0.10100000352E+00 0. -1.
       -3    1    3    3    0  502 -0.36587540470E+02  0.95632756679E+01 -0.67891276192E+03  0.67996518503E+03  0.10100000352E+00 0.  1.
</event>
<event>
 5   0  0.5310003E-04  0.1715923E+04  0.7818609E-02  0.8752335E-01
        2   -1    0    0  501    0  0.00000000000E+00  0.00000000000E+00  0.87859848766E+03  0.87859848766E+03  0.25500000920E-02 0.  1.
       -2   -1    0    0    0  501  0.00000000000E+00  0.00000000000E+00 -0.83780906408E+03  0.83780906409E+03  0.25500000920E-02 0. -1.
    10030    2    1    2    0    0  0.00000000000E+00  0.00000000000E+00  0.40789423574E+02  0.17164075517E+04  0.17159228149E+04 0.  0.
        1    1    3    3  502    0 -0.72794606414E+03 -0.32415254488E+03  0.33847421453E+03  0.86576274959E+03  0.50400001928E-02 0.  1.
       -1    1    3    3    0  502  0.72794606414E+03  0.32415254488E+03 -0.29768479096E+03  0.85064480216E+03  0.50400001928E-02 0. -1.
</event>
<event>
 5   0  0.1910750E-04  0.1693878E+04  0.7818609E-02  0.8764864E-01
       -3   -1    0    0    0  501  0.00000000000E+00  0.00000000000E+00  0.63752211725E+03  0.63752212525E+03  0.10100000352E+00 0. -1.
        3   -1    0    0  501    0  0.00000000000E+00  0.00000000000E+00 -0.11251466489E+04  0.11251466534E+04  0.10100000352E+00 0.  1.
    10030    2    1    2    0    0  0.00000000000E+00  0.00000000000E+00 -0.48762453161E+03  0.17626687786E+04  0.16938782540E+04 0.  0.
        1    1    3    3  502    0  0.53924171540E+03 -0.11551383242E+03 -0.91270825488E+03  0.10663777153E+04  0.50400001928E-02 0.  1.
       -1    1    3    3    0  502 -0.53924171540E+03  0.11551383242E+03  0.42508372327E+03  0.69629106336E+03  0.50400001928E-02 0. -1.
</event>
<event>
 5   0  0.5021349E-04  0.1710773E+04  0.7818609E-02  0.8755244E-01
        2   -1    0    0  501    0  0.00000000000E+00  0.00000000000E+00  0.10586416562E+04  0.10586416562E+04  0.25500000920E-02 0. -1.
       -2   -1    0    0    0  501  0.00000000000E+00  0.00000000000E+00 -0.69115575963E+03  0.69115575963E+03  0.25500000920E-02 0.  1.
    10030    2    1    2    0    0  0.00000000000E+00  0.00000000000E+00  0.36748589658E+03  0.17497974158E+04  0.17107732498E+04 0.  0.
        2    1    3    3  502    0  0.20615973299E+03  0.46045651302E+03  0.89027076549E+03  0.10232810326E+04  0.25500000920E-02 0. -1.
       -2    1    3    3    0  502 -0.20615973299E+03 -0.46045651302E+03 -0.52278486891E+03  0.72651638320E+03  0.25500000920E-02 0.  1.
</event>
<event>
 5   0  0.2561518E-04  0.1662080E+04  0.7818609E-02  0.8783292E-01
        1   -1    0    0  501    0  0.00000000000E+00  0.00000000000E+00  0.52480415486E+03  0.52480415488E+03  0.50400001928E-02 0.  1.
       -1   -1    0    0    0  501  0.00000000000E+00  0.00000000000E+00 -0.13159723900E+04  0.13159723900E+04  0.50400001928E-02 0. -1.
    10030    2    1    2    0    0  0.00000000000E+00  0.00000000000E+00 -0.79116823512E+03  0.18407765449E+04  0.16620803566E+04 0.  0.
        4    1    3    3  502    0 -0.50305008299E+03 -0.95221684734E+02 -0.11205611873E+04  0.12319843922E+04  0.12699999809E+01 0. -1.
       -4    1    3    3    0  502  0.50305008299E+03  0.95221684734E+02  0.32939295221E+03  0.60879215264E+03  0.12699999809E+01 0.  1.
</event>
<event>
 5   0  0.2785059E-04  0.1700047E+04  0.7818609E-02  0.8761337E-01
        1   -1    0    0  501    0  0.00000000000E+00  0.00000000000E+00  0.56571063238E+03  0.56571063240E+03  0.50400001928E-02 0.  1.
       -1   -1    0    0    0  501  0.00000000000E+00  0.00000000000E+00 -0.12772257066E+04  0.12772257066E+04  0.50400001928E-02 0. -1.
    10030    2    1    2    0    0  0.00000000000E+00  0.00000000000E+00 -0.71151507422E+03  0.18429363390E+04  0.17000472490E+04 0.  0.
        5    1    3    3  502    0 -0.53410777234E+03  0.17370644177E+03  0.33589107153E+03  0.65443864672E+03  0.46999998093E+01 0.  1.
       -5    1    3    3    0  502  0.53410777234E+03 -0.17370644177E+03 -0.10474061458E+04  0.11884976923E+04  0.46999998093E+01 0. -1.
</event>
<event>
 5   0  0.5310003E-04  0.1715693E+04  0.7818609E-02  0.8752464E-01
       -2   -1    0    0    0  501  0.00000000000E+00  0.00000000000E+00  0.45298405932E+03  0.45298405933E+03  0.25500000920E-02 0. -1.
        2   -1    0    0  501    0  0.00000000000E+00  0.00000000000E+00 -0.16245618415E+04  0.16245618415E+04  0.25500000920E-02 0.  1.
    10030    2    1    2    0    0  0.00000000000E+00  0.00000000000E+00 -0.11715777822E+04  0.20775459008E+04  0.17156930000E+04 0.  0.
        1    1    3    3  502    0  0.17424498168E+03 -0.83866942882E+03 -0.52934327365E+03  0.10069419178E+04  0.50400001928E-02 0. -1.
       -1    1    3    3    0  502 -0.17424498168E+03  0.83866942882E+03 -0.64223450853E+03  0.10706039830E+04  0.50400001928E-02 0.  1.
</event>
<event>
 5   0  0.2583422E-04  0.1759742E+04  0.7818609E-02  0.8728006E-01
        1   -1    0    0  501    0  0.00000000000E+00  0.00000000000E+00  0.82595491973E+03  0.82595491974E+03  0.50400001928E-02 0.  1.
       -1   -1    0    0    0  501  0.00000000000E+00  0.00000000000E+00 -0.93730609230E+03  0.93730609231E+03  0.50400001928E-02 0. -1.
    10030    2    1    2    0    0  0.00000000000E+00  0.00000000000E+00 -0.11135117257E+03  0.17632610121E+04  0.17597415472E+04 0.  0.
        3    1    3    3  502    0  0.24754744620E+03  0.76136408078E+03  0.31004420645E+03  0.85853504400E+03  0.10100000352E+00 0.  1.
       -3    1    3    3    0  502 -0.24754744620E+03 -0.76136408078E+03 -0.42139537901E+03  0.90472596806E+03  0.10100000352E+00 0. -1.
</event>
<event>
 5   0  0.5021349E-04  0.1588197E+04  0.7818609E-02  0.8827832E-01
        2   -1    0    0  501    0  0.00000000000E+00  0.00000000000E+00  0.69089566578E+03  0.69089566579E+03  0.25500000920E-02 0. -1.
       -2   -1    0    0    0  501  0.00000000000E+00  0.00000000000E+00 -0.91271728834E+03  0.91271728834E+03  0.25500000920E-02 0.  1.
    10030    2    1    2    0    0  0.00000000000E+00  0.00000000000E+00 -0.22182162255E+03  0.16036129541E+04  0.15881969885E+04 0.  0.
        2    1    3    3  502    0  0.28218612380E+03  0.73431009086E+03 -0.14514428960E+01  0.78666538293E+03  0.25500000920E-02 0.  1.
       -2    1    3    3    0  502 -0.28218612380E+03 -0.73431009086E+03 -0.22037017966E+03  0.81694757120E+03  0.25500000920E-02 0. -1.
</event>
<event>
 5   0  0.5021349E-04  0.1671115E+04  0.7818609E-02  0.8778012E-01
       -2   -1    0    0    0  501  0.00000000000E+00  0.00000000000E+00  0.60483589900E+03  0.60483589900E+03  0.25500000920E-02 0. -1.
        2   -1    0    0  501    0  0.00000000000E+00  0.00000000000E+00 -0.11542910296E+04  0.11542910296E+04  0.25500000920E-02 0.  1.
    10030    2    1    2    0    0  0.00000000000E+00  0.00000000000E+00 -0.54945513061E+03  0.17591269286E+04  0.16711153791E+04 0.  0.
        2    1    3    3  502    0 -0.65450978921E+03  0.48691743394E+03 -0.46503904754E+03  0.93900637239E+03  0.25500000920E-02 0. -1.
       -2    1    3    3    0  502  0.65450978921E+03 -0.48691743394E+03 -0.84416083070E+02  0.82012055622E+03  0.25500000920E-02 0.  1.
</event>
<event>
 5   0  0.5021349E-04  0.1700236E+04  0.7818609E-02  0.8761230E-01
       -2   -1    0    0    0  501  0.00000000000E+00  0.00000000000E+00  0.12029905837E+04  0.12029905837E+04  0.25500000920E-02 0. -1.
        2   -1    0    0  501    0  0.00000000000E+00  0.00000000000E+00 -0.60075350976E+03  0.60075350977E+03  0.25500000920E-02 0.  1.
    10030    2    1    2    0    0  0.00000000000E+00  0.00000000000E+00  0.60223707396E+03  0.18037440935E+04  0.17002362370E+04 0.  0.
        2    1    3    3  502    0 -0.87255137721E+02 -0.56955825444E+03 -0.36198633543E+03  0.68047349052E+03  0.25500000920E-02 0.  1.
       -2    1    3    3    0  502  0.87255137721E+02  0.56955825444E+03  0.96422340940E+03  0.11232706030E+04  0.25500000920E-02 0. -1.
</event>
<event>
 5   0  0.5299877E-04  0.1633347E+04  0.7818609E-02  0.8800319E-01
        2   -1    0    0  501    0  0.00000000000E+00  0.00000000000E+00  0.20247800815E+04  0.20247800815E+04  0.25500000920E-02 0.  1.
       -2   -1    0    0    0  501  0.00000000000E+00  0.00000000000E+00 -0.32939669111E+03  0.32939669112E+03  0.25500000920E-02 0. -1.
    10030    2    1    2    0    0  0.00000000000E+00  0.00000000000E+00  0.16953833904E+04  0.23541767726E+04  0.16333473104E+04 0.  0.
        3    1    3    3  502    0  0.17037629792E+03  0.42162492314E+02 -0.30189128480E+03  0.34920497805E+03  0.10100000352E+00 0. -1.
       -3    1    3    3    0  502 -0.17037629792E+03 -0.42162492314E+02  0.19972746752E+04  0.20049717945E+04  0.10100000352E+00 0.  1.
</event>
<event>
 5   0  0.5310003E-04  0.1714982E+04  0.7818609E-02  0.8752865E-01
        2   -1    0    0  501    0  0.00000000000E+00  0.00000000000E+00  0.16724359614E+04  0.16724359614E+04  0.25500000920E-02 0.  1.
       -2   -1    0    0    0  501  0.00000000000E+00  0.00000000000E+00 -0.43965267540E+03  0.43965267540E+03  0.25500000920E-02 0. -1.
    10030    2    1    2    0    0  0.00000000000E+00  0.00000000000E+00  0.12327832860E+04  0.21120886368E+04  0.17149821514E+04 0.  0.
        1    1    3    3  502    0  0.67378991200E+03  0.44075322528E+03  0.97971953431E+03  0.12681114372E+04  0.50400001928E-02 0.  1.
       -1    1    3    3    0  502 -0.67378991200E+03 -0.44075322528E+03  0.25306375172E+03  0.84397719967E+03  0.50400001928E-02 0. -1.
</event>
<event>
 5   0  0.5342255E-04  0.1701320E+04  0.7818609E-02  0.8760612E-01
       -2   -1    0    0    0  501  0.00000000000E+00  0.00000000000E+00  0.97460396864E+03  0.97460396865E+03  0.25500000920E-02 0. -1.
        2   -1    0    0  501    0  0.00000000000E+00  0.00000000000E+00 -0.74247861243E+03  0.74247861243E+03  0.25500000920E-02 0.  1.
    10030    2    1    2    0    0  0.00000000000E+00  0.00000000000E+00  0.23212535622E+03  0.17170825811E+04  0.17013201960E+04 0.  0.
        5    1    3    3  502    0 -0.82708184381E+03  0.16965683370E+03  0.22071859410E+03  0.87268929486E+03  0.46999998093E+01 0.  1.
       -5    1    3    3    0  502  0.82708184381E+03 -0.16965683370E+03  0.11406762117E+02  0.84439328622E+03  0.46999998093E+01 0. -1.
</event>
<event>
 5   0  0.2561518E-04  0.1694528E+04  0.7818609E-02  0.8764491E-01
        1   -1    0    0  501    0  0.00000000000E+00  0.00000000000E+00  0.16645331484E+04  0.16645331484E+04  0.50400001928E-02 0. -1.
       -1   -1    0    0    0  501  0.00000000000E+00  0.00000000000E+00 -0.43126605007E+03  0.43126605010E+03  0.50400001928E-02 0.  1.
    10030    2    1    2    0    0  0.00000000000E+00  0.00000000000E+00  0.12332670983E+04  0.20957991985E+04  0.16945284136E+04 0.  0.
        4    1    3    3  502    0  0.53406882702E+03  0.53525154766E+03  0.14383903745E+03  0.76968500885E+03  0.12699999809E+01 0.  1.
       -4    1    3    3    0  502 -0.53406882702E+03 -0.53525154766E+03  0.10894280609E+04  0.13261141897E+04  0.12699999809E+01 0. -1.
</event>
<event>
 5   0  0.2785059E-04  0.1566546E+04  0.7818609E-02  0.8841368E-01
       -1   -1    0    0    0  501  0.00000000000E+00  0.00000000000E+00  0.53953001227E+03  0.53953001229E+03  0.50400001928E-02 0. -1.
        1   -1    0    0  501    0  0.00000000000E+00  0.00000000000E+00 -0.11371309794E+04  0.11371309794E+04  0.50400001928E-02 0.  1.
    10030    2    1    2    0    0  0.00000000000E+00  0.00000000000E+00 -0.59760096709E+03  0.16766609917E+04  0.15665456154E+04 0.  0.
        5    1    3    3  502    0 -0.34180005916E+02 -0.20700239487E+03  0.50888058585E+03  0.55045418060E+03  0.46999998093E+01 0. -1.
       -5    1    3    3    0  502  0.34180005916E+02  0.20700239487E+03 -0.11064815529E+04  0.11262068111E+04  0.46999998093E+01 0.  1.
</event>
<event>
 5   0  0.5198430E-04  0.1682717E+04  0.7818609E-02  0.8771283E-01
       -2   -1    0    0    0  501  0.00000000000E+00  0.00000000000E+00  0.33154844592E+03  0.33154844593E+03  0.25500000920E-02 0. -1.
        2   -1    0    0  501    0  0.00000000000E+00  0.00000000000E+00 -0.21350853751E+04  0.21350853751E+04  0.25500000920E-02 0.  1.
    10030    2    1    2    0    0  0.00000000000E+00  0.00000000000E+00 -0.18035369291E+04  0.24666338210E+04  0.16827171337E+04 0.  0.
        4    1    3    3  502    0 -0.24909433505E+02  0.84063169623E+03 -0.93768949741E+03  0.12595814126E+04  0.12699999809E+01 0.  1.
       -4    1    3    3    0  502  0.24909433505E+02 -0.84063169623E+03 -0.86584743173E+03  0.12070524084E+04  0.12699999809E+01 0. -1.
</event>
<event>
 5   0  0.5021349E-04  0.1672545E+04  0.7818609E-02  0.8777180E-01
       -2   -1    0    0    0  501  0.00000000000E+00  0.00000000000E+00  0.15250401691E+04  0.15250401691E+04  0.25500000920E-02 0. -1.
        2   -1    0    0  501    0  0.00000000000E+00  0.00000000000E+00 -0.45857907892E+03  0.45857907893E+03  0.25500000920E-02 0.  1.
    10030    2    1    2    0    0  0.00000000000E+00  0.00000000000E+00  0.10664610901E+04  0.19836192480E+04  0.16725447869E+04 0.  0.
        2    1    3    3  502    0 -0.25313304599E+03 -0.52552757887E+03 -0.17746862098E+03  0.60971361028E+03  0.25500000920E-02 0.  1.
       -2    1    3    3    0  502  0.25313304599E+03  0.52552757887E+03  0.12439297111E+04  0.13739056377E+04  0.25500000920E-02 0. -1.
</event>
<event>
 5   0  0.2785059E-04  0.1685958E+04  0.7818609E-02  0.8769414E-01
        1   -1    0    0  501    0  0.00000000000E+00  0.00000000000E+00  0.92523648522E+03  0.92523648524E+03  0.50400001928E-02 0.  1.
       -1   -1    0    0    0  501  0.00000000000E+00  0.00000000000E+00 -0.76803414650E+03  0.76803414652E+03  0.50400001928E-02 0. -1.
    10030    2    1    2    0    0  0.00000000000E+00  0.00000000000E+00  0.15720233872E+03  0.16932706318E+04  0.16859575490E+04 0.  0.
        5    1    3    3  502    0  0.48103365007E+03  0.80363843888E+02 -0.61194169608E+03  0.78252568603E+03  0.46999998093E+01 0. -1.
       -5    1    3    3    0  502 -0.48103365007E+03 -0.80363843888E+02  0.76914403480E+03  0.91074494572E+03  0.46999998093E+01 0.  1.
</event>
<event>
 5   0  0.2595644E-04  0.1705597E+04  0.7818609E-02  0.8758179E-01
        1   -1    0    0  501    0  0.00000000000E+00  0.00000000000E+00  0.23515898321E+04  0.23515898321E+04  0.50400001928E-02 0. -1.
       -1   -1    0    0    0  501  0.00000000000E+00  0.00000000000E+00 -0.30926538347E+03  0.30926538352E+03  0.50400001928E-02 0.  1.
    10030    2    1    2    0    0  0.00000000000E+00  0.00000000000E+00  0.20423244486E+04  0.26608552156E+04  0.17055970582E+04 0.  0.
        2    1    3    3  502    0  0.10556965890E+03 -0.75275207983E+03  0.16243369781E+04  0.17933909962E+04  0.25500000920E-02 0. -1.
       -2    1    3    3    0  502 -0.10556965890E+03  0.75275207983E+03  0.41798747050E+03  0.86746421947E+03  0.25500000920E-02 0.  1.
</event>
<event>
 5   0  0.5342255E-04  0.1703040E+04  0.7818609E-02  0.8759632E-01
       -2   -1    0    0    0  501  0.00000000000E+00  0.00000000000E+00  0.74750717680E+03  0.74750717680E+03  0.25500000920E-02 0.  1.
        2   -1    0    0  501    0  0.00000000000E+00  0.00000000000E+00 -0.97000625879E+03  0.97000625880E+03  0.25500000920E-02 0. -1.
    10030    2    1    2    0    0  0.00000000000E+00  0.00000000000E+00 -0.22249908200E+03  0.17175134356E+04  0.17030403871E+04 0.  0.
        5    1    3    3  502    0 -0.53965912232E+03  0.71659005395E+02 -0.77156384625E+03  0.94429859695E+03  0.46999998093E+01 0. -1.
       -5    1    3    3    0  502  0.53965912232E+03 -0.71659005395E+02  0.54906476426E+03  0.77321483865E+03  0.46999998093E+01 0.  1.
</event>
<event>
 5   0  0.2595644E-04  0.1681708E+04  0.7818609E-02  0.8771866E-01
        1   -1    0    0  501    0  0.00000000000E+00  0.00000000000E+00  0.18054660168E+04  0.18054660168E+04  0.50400001928E-02 0. -1.
       -1   -1    0    0    0  501  0.00000000000E+00  0.00000000000E+00 -0.39160821452E+03  0.39160821455E+03  0.50400001928E-02 0.  1.
    10030    2    1    2    0    0  0.00000000000E+00  0.00000000000E+00  0.14138578022E+04  0.21970742313E+04  0.16817078501E+04 0.  0.
        2    1    3    3  502    0  0.79060908411E+03 -0.16508553178E+03  0.40132090753E+03  0.90187273355E+03  0.25500000920E-02 0.  1.
       -2    1    3    3    0  502 -0.79060908411E+03  0.16508553178E+03  0.10125368947E+04  0.12952014978E+04  0.25500000920E-02 0. -1.
</event>
<event>
 5   0  0.2583422E-04  0.1590043E+04  0.7818609E-02  0.8826689E-01
       -1   -1    0    0    0  501  0.00000000000E+00  0.00000000000E+00  0.16328252547E+04  0.16328252547E+04  0.50400001928E-02 0. -1.
        1   -1    0    0  501    0  0.00000000000E+00  0.00000000000E+00 -0.38709531060E+03  0.38709531063E+03  0.50400001928E-02 0.  1.
    10030    2    1    2    0    0  0.00000000000E+00  0.00000000000E+00  0.12457299441E+04  0.20199205654E+04  0.15900427657E+04 0.  0.
        3    1    3    3  502    0  0.65252143785E+03  0.28919892200E+03  0.17798860499E+03  0.73559513120E+03  0.10100000352E+00 0.  1.
       -3    1    3    3    0  502 -0.65252143785E+03 -0.28919892200E+03  0.10677413391E+04  0.12843254342E+04  0.10100000352E+00 0. -1.
</event>
<event>
 5   0  0.2630135E-04  0.1701055E+04  0.7818609E-02  0.8760763E-01
        1   -1    0    0  501    0  0.00000000000E+00  0.00000000000E+00  0.11604271278E+04  0.11604271278E+04  0.50400001928E-02 0. -1.
       -1   -1    0    0    0  501  0.00000000000E+00  0.00000000000E+00 -0.62338871025E+03  0.62338871027E+03  0.50400001928E-02 0.  1.
    10030    2    1    2    0    0  0.00000000000E+00  0.00000000000E+00  0.53703841757E+03  0.17838158381E+04  0.17010551673E+04 0.  0.
        1    1    3    3  502    0  0.78185459194E+03 -0.29683170104E+03  0.10609139520E+03  0.84300714459E+03  0.50400001928E-02 0.  1.
       -1    1    3    3    0  502 -0.78185459194E+03  0.29683170104E+03  0.43094702238E+03  0.94080869352E+03  0.50400001928E-02 0. -1.
</event>
<event>
 5   0  0.5310003E-04  0.1693519E+04  0.7818609E-02  0.8765069E-01
       -2   -1    0    0    0  501  0.00000000000E+00  0.00000000000E+00  0.62948266794E+03  0.62948266794E+03  0.25500000920E-02 0.  1.
        2   -1    0    0  501    0  0.00000000000E+00  0.00000000000E+00 -0.11390334881E+04  0.11390334881E+04  0.25500000920E-02 0. -1.
    10030    2    1    2    0    0  0.00000000000E+00  0.00000000000E+00 -0.50955082014E+03  0.17685161560E+04  0.16935192221E+04 0.  0.
        1    1    3    3  502    0 -0.12764603608E+03  0.12025121732E+03 -0.11198617184E+04  0.11335096534E+04  0.50400001928E-02 0. -1.
       -1    1    3    3    0  502  0.12764603608E+03 -0.12025121732E+03  0.61031089831E+03  0.63500650266E+03  0.50400001928E-02 0.  1.
</event>
<event>
 5   0  0.1910750E-04  0.1668827E+04  0.7818609E-02  0.8779346E-01
       -3   -1    0    0    0  501  0.00000000000E+00  0.00000000000E+00  0.55266275113E+03  0.55266276036E+03  0.10100000352E+00 0. -1.
        3   -1    0    0  501    0  0.00000000000E+00  0.00000000000E+00 -0.12598026752E+04  0.12598026792E+04  0.10100000352E+00 0.  1.
    10030    2    1    2    0    0  0.00000000000E+00  0.00000000000E+00 -0.70713992402E+03  0.18124654396E+04  0.16688271623E+04 0.  0.
        3    1    3    3  502    0 -0.46481175653E+03  0.66748297860E+03 -0.55577335138E+03  0.98512310096E+03  0.10100000352E+00 0.  1.
       -3    1    3    3    0  502  0.46481175653E+03 -0.66748297860E+03 -0.15136657263E+03  0.82734233860E+03  0.10100000352E+00 0. -1.
</event>
<event>
 5   0  0.5299877E-04  0.1408537E+04  0.7818609E-02  0.8947662E-01
       -2   -1    0    0    0  501  0.00000000000E+00  0.00000000000E+00  0.38013858831E+03  0.38013858831E+03  0.25500000920E-02 0.  1.
        2   -1    0    0  501    0  0.00000000000E+00  0.00000000000E+00 -0.13047724210E+04  0.13047724210E+04  0.25500000920E-02 0. -1.
    10030    2    1    2    0    0  0.00000000000E+00  0.00000000000E+00 -0.92463383271E+03  0.16849110093E+04  0.14085373210E+04 0.  0.
        3    1    3    3  502    0 -0.39063688369E+03  0.26918965901E+03 -0.10849618157E+04  0.11841462744E+04  0.10100000352E+00 0. -1.
       -3    1    3    3    0  502  0.39063688369E+03 -0.26918965901E+03  0.16032798300E+03  0.50076473493E+03  0.10100000352E+00 0.  1.
</event>
<event>
 5   0  0.5342255E-04  0.1760202E+04  0.7818609E-02  0.8727755E-01
       -2   -1    0    0    0  501  0.00000000000E+00  0.00000000000E+00  0.11777774487E+04  0.11777774487E+04  0.25500000920E-02 0. -1.
        2   -1    0    0  501    0  0.00000000000E+00  0.00000000000E+00 -0.65766042087E+03  0.65766042088E+03  0.25500000920E-02 0.  1.
    10030    2    1    2    0    0  0.00000000000E+00  0.00000000000E+00  0.52011702784E+03  0.18354378696E+04  0.17602018210E+04 0.  0.
        5    1    3    3  502    0  0.47240436348E+02 -0.39621593539E+03 -0.55790449745E+03  0.68592874598E+03  0.46999998093E+01 0.  1.
       -5    1    3    3    0  502 -0.47240436348E+02  0.39621593539E+03  0.10780215253E+04  0.11495091236E+04  0.46999998093E+01 0. -1.
</event>
<event>
 5   0  0.5198430E-04  0.1725928E+04  0.7818609E-02  0.8746713E-01
       -2   -1    0    0    0  501  0.00000000000E+00  0.00000000000E+00  0.43289119262E+03  0.43289119263E+03  0.25500000920E-02 0.  1.
        2   -1    0    0  501    0  0.00000000000E+00  0.00000000000E+00 -0.17203097277E+04  0.17203097277E+04  0.25500000920E-02 0. -1.
    10030    2    1    2    0    0  0.00000000000E+00  0.00000000000E+00 -0.12874185351E+04  0.21532009203E+04  0.17259280746E+04 0.  0.
        4    1    3    3  502    0  0.36898514343E+03 -0.46265973515E+03  0.13987562725E+03  0.60808788066E+03  0.12699999809E+01 0.  1.
       -4    1    3    3    0  502 -0.36898514343E+03  0.46265973515E+03 -0.14272941623E+04  0.15451130397E+04  0.12699999809E+01 0. -1.
</event>
<event>
 5   0  0.5310003E-04  0.1696772E+04  0.7818609E-02  0.8763207E-01
        2   -1    0    0  501    0  0.00000000000E+00  0.00000000000E+00  0.16925341509E+04  0.16925341509E+04  0.25500000920E-02 0.  1.
       -2   -1    0    0    0  501  0.00000000000E+00  0.00000000000E+00 -0.42525515931E+03  0.42525515931E+03  0.25500000920E-02 0. -1.
    10030    2    1    2    0    0  0.00000000000E+00  0.00000000000E+00  0.12672789916E+04  0.21177893102E+04  0.16967720884E+04 0.  0.
        1    1    3    3  502    0 -0.69862355358E+01 -0.11309780920E+03 -0.41576774063E+03  0.43093240318E+03  0.50400001928E-02 0. -1.
       -1    1    3    3    0  502  0.69862355358E+01  0.11309780920E+03  0.16830467323E+04  0.16868569071E+04  0.50400001928E-02 0.  1.
</event>
<event>
 5   0  0.2595644E-04  0.1785347E+04  0.7818609E-02  0.8714131E-01
        1   -1    0    0  501    0  0.00000000000E+00  0.00000000000E+00  0.18412941730E+04  0.18412941730E+04  0.50400001928E-02 0.  1.
       -1   -1    0    0    0  501  0.00000000000E+00  0.00000000000E+00 -0.43277478079E+03  0.43277478082E+03  0.50400001928E-02 0. -1.
    10030    2    1    2    0    0  0.00000000000E+00  0.00000000000E+00  0.14085193922E+04  0.22740689538E+04  0.17853466690E+04 0.  0.
        2    1    3    3  502    0  0.87794277063E+02  0.43661976978E+03  0.16896783440E+04  0.17473859232E+04  0.25500000920E-02 0.  1.
       -2    1    3    3    0  502 -0.87794277063E+02 -0.43661976978E+03 -0.28115895186E+03  0.52668303054E+03  0.25500000920E-02 0. -1.
</event>
<event>
 5   0  0.2583422E-04  0.1409859E+04  0.7818609E-02  0.8946713E-01
       -1   -1    0    0    0  501  0.00000000000E+00  0.00000000000E+00  0.45234041781E+03  0.45234041783E+03  0.50400001928E-02 0. -1.
        1   -1    0    0  501    0  0.00000000000E+00  0.00000000000E+00 -0.10985661897E+04  0.10985661897E+04  0.50400001928E-02 0.  1.
    10030    2    1    2    0    0  0.00000000000E+00  0.00000000000E+00 -0.64622577191E+03  0.15509066076E+04  0.14098594104E+04 0.  0.
        3    1    3    3  502    0  0.56271518278E+03  0.42025978841E+03 -0.38965608072E+03  0.80318026503E+03  0.10100000352E+00 0. -1.
       -3    1    3    3    0  502 -0.56271518278E+03 -0.42025978841E+03 -0.25656969119E+03  0.74772634254E+03  0.10100000352E+00 0.  1.
</event>
<event>
 5   0  0.5299877E-04  0.1768629E+04  0.7818609E-02  0.8723162E-01
        2   -1    0    0  501    0  0.00000000000E+00  0.00000000000E+00  0.98370601827E+03  0.98370601827E+03  0.25500000920E-02 0.  1.
       -2   -1    0    0    0  501  0.00000000000E+00  0.00000000000E+00 -0.79496550308E+03  0.79496550308E+03  0.25500000920E-02 0. -1.
    10030    2    1    2    0    0  0.00000000000E+00  0.00000000000E+00  0.18874051519E+03  0.17786715214E+04  0.17686292429E+04 0.  0.
        3    1    3    3  502    0 -0.70268861334E+03 -0.30286825784E+03  0.54018389044E+03  0.93664246893E+03  0.10100000352E+00 0.  1.
       -3    1    3    3    0  502  0.70268861334E+03  0.30286825784E+03 -0.35144337525E+03  0.84202905242E+03  0.10100000352E+00 0. -1.
</event>
<event>
 5   0  0.5299877E-04  0.1691670E+04  0.7818609E-02  0.8766129E-01
        2   -1    0    0  501    0  0.00000000000E+00  0.00000000000E+00  0.12727114249E+04  0.12727114249E+04  0.25500000920E-02 0.  1.
       -2   -1    0    0    0  501  0.00000000000E+00  0.00000000000E+00 -0.56213616819E+03  0.56213616820E+03  0.25500000920E-02 0. -1.
    10030    2    1    2    0    0  0.00000000000E+00  0.00000000000E+00  0.71057525666E+03  0.18348475931E+04  0.16916703267E+04 0.  0.
        3    1    3    3  502    0  0.45354226446E+03 -0.64539112938E+03  0.24150326614E+02  0.78918536733E+03  0.10100000352E+00 0. -1.
       -3    1    3    3    0  502 -0.45354226446E+03  0.64539112938E+03  0.68642493005E+03  0.10456622257E+04  0.10100000352E+00 0.  1.
</event>
<event>
 5   0  0.2595644E-04  0.1691547E+04  0.7818609E-02  0.8766200E-01
        1   -1    0    0  501    0  0.00000000000E+00  0.00000000000E+00  0.10322056871E+04  0.10322056871E+04  0.50400001928E-02 0.  1.
       -1   -1    0    0    0  501  0.00000000000E+00  0.00000000000E+00 -0.69301421766E+03  0.69301421768E+03  0.50400001928E-02 0. -1.
    10030    2    1    2    0    0  0.00000000000E+00  0.00000000000E+00  0.33919146944E+03  0.17252199048E+04  0.16915474770E+04 0.  0.
        2    1    3    3  502    0  0.18964857099E+03  0.70087439811E+03 -0.27279173452E+03  0.77563318188E+03  0.25500000920E-02 0. -1.
       -2    1    3    3    0  502 -0.18964857099E+03 -0.70087439811E+03  0.61198320396E+03  0.94958672292E+03  0.25500000920E-02 0.  1.
</event>
<event>
 5   0  0.2630135E-04  0.1693687E+04  0.7818609E-02  0.8764973E-01
       -1   -1    0    0    0  501  0.00000000000E+00  0.00000000000E+00  0.58894905369E+03  0.58894905371E+03  0.50400001928E-02 0. -1.
        1   -1    0    0  501    0  0.00000000000E+00  0.00000000000E+00 -0.12176664562E+04  0.12176664562E+04  0.50400001928E-02 0.  1.
    10030    2    1    2    0    0  0.00000000000E+00  0.00000000000E+00 -0.62871740249E+03  0.18066155099E+04  0.16936865201E+04 0.  0.
        1    1    3    3  502    0  0.31743810985E+03  0.78497708714E+03 -0.29975161375E+03  0.89822436557E+03  0.50400001928E-02 0.  1.
       -1    1    3    3    0  502 -0.31743810985E+03 -0.78497708714E+03 -0.32896578873E+03  0.90839114434E+03  0.50400001928E-02 0. -1.
</event>
<event>
 5   0  0.5342255E-04  0.1665486E+04  0.7818609E-02  0.8781298E-01
        2   -1    0    0  501    0  0.00000000000E+00  0.00000000000E+00  0.14724578749E+04  0.14724578749E+04  0.25500000920E-02 0. -1.
       -2   -1    0    0    0  501  0.00000000000E+00  0.00000000000E+00 -0.47095449957E+03  0.47095449958E+03  0.25500000920E-02 0.  1.
    10030    2    1    2    0    0  0.00000000000E+00  0.00000000000E+00  0.10015033754E+04  0.19434123745E+04  0.16654857089E+04 0.  0.
        5    1    3    3  502    0 -0.58447501375E+02  0.47869247292E+03  0.12929174884E+04  0.13799348955E+04  0.46999998093E+01 0. -1.
       -5    1    3    3    0  502  0.58447501375E+02 -0.47869247292E+03 -0.29141411305E+03  0.56347747899E+03  0.46999998093E+01 0.  1.
</event>
<event>
 5   0  0.2561518E-04  0.1703698E+04  0.7818609E-02  0.8759258E-01
        1   -1    0    0  501    0  0.00000000000E+00  0.00000000000E+00  0.11433881488E+04  0.11433881488E+04  0.50400001928E-02 0.  1.
       -1   -1    0    0    0  501  0.00000000000E+00  0.00000000000E+00 -0.63464631999E+03  0.63464632001E+03  0.50400001928E-02 0. -1.
    10030    2    1    2    0    0  0.00000000000E+00  0.00000000000E+00  0.50874182880E+03  0.17780344688E+04  0.17036984252E+04 0.  0.
        4    1    3    3  502    0  0.75494647406E+03 -0.19416433148E+03 -0.10413078705E+03  0.78644058900E+03  0.12699999809E+01 0. -1.
       -4    1    3    3    0  502 -0.75494647406E+03  0.19416433148E+03  0.61287261585E+03  0.99159387981E+03  0.12699999809E+01 0.  1.
</event>
<event>
 5   0  0.2630135E-04  0.1731792E+04  0.7818609E-02  0.8743437E-01
        1   -1    0    0  501    0  0.00000000000E+00  0.00000000000E+00  0.80203951114E+03  0.80203951115E+03  0.50400001928E-02 0. -1.
       -1   -1    0    0    0  501  0.00000000000E+00  0.00000000000E+00 -0.93483676451E+03  0.93483676452E+03  0.50400001928E-02 0.  1.
    10030    2    1    2    0    0  0.00000000000E+00  0.00000000000E+00 -0.13279725337E+03  0.17368762757E+04  0.17317921603E+04 0.  0.
        1    1    3    3  502    0  0.56156260997E+03  0.24652342541E+03 -0.67946205289E+03  0.91531144729E+03  0.50400001928E-02 0.  1.
       -1    1    3    3    0  502 -0.56156260997E+03 -0.24652342541E+03  0.54666479952E+03  0.82156482839E+03  0.50400001928E-02 0. -1.
</event>
<event>
 5   0  0.5198430E-04  0.1703883E+04  0.7818609E-02  0.8759153E-01
        2   -1    0    0  501    0  0.00000000000E+00  0.00000000000E+00  0.14490297206E+04  0.14490297206E+04  0.25500000920E-02 0. -1.
       -2   -1    0    0    0  501  0.00000000000E+00  0.00000000000E+00 -0.50088995991E+03  0.50088995991E+03  0.25500000920E-02 0.  1.
    10030    2    1    2    0    0  0.00000000000E+00  0.00000000000E+00  0.94813976070E+03  0.19499196805E+04  0.17038831400E+04 0.  0.
        4    1    3    3  502    0 -0.31748037952E+03 -0.25636302432E+03  0.13299132544E+04  0.13911098694E+04  0.12699999809E+01 0. -1.
       -4    1    3    3    0  502  0.31748037952E+03  0.25636302432E+03 -0.38177349369E+03  0.55880981112E+03  0.12699999809E+01 0.  1.
</event>
<event>
 5   0  0.2630135E-04  0.1681445E+04  0.7818609E-02  0.8772018E-01
       -1   -1    0    0    0  501  0.00000000000E+00  0.00000000000E+00  0.59909768145E+03  0.59909768147E+03  0.50400001928E-02 0.  1.
        1   -1    0    0  501    0  0.00000000000E+00  0.00000000000E+00 -0.11797976138E+04  0.11797976138E+04  0.50400001928E-02 0. -1.
    10030    2    1    2    0    0  0.00000000000E+00  0.00000000000E+00 -0.58069993234E+03  0.17788952953E+04  0.16814446349E+04 0.  0.
        1    1    3    3  502    0 -0.18004844207E+03 -0.69017098735E+03  0.18048297480E+03  0.73574964321E+03  0.50400001928E-02 0.  1.
       -1    1    3    3    0  502  0.18004844207E+03  0.69017098735E+03 -0.76118290714E+03  0.10431456521E+04  0.50400001928E-02 0. -1.
</event>
<event>
 5   0  0.2630135E-04  0.1579538E+04  0.7818609E-02  0.8833218E-01
       -1   -1    0    0    0  501  0.00000000000E+00  0.00000000000E+00  0.53845948744E+03  0.53845948746E+03  0.50400001928E-02 0. -1.
        1   -1    0    0  501    0  0.00000000000E+00  0.00000000000E+00 -0.11583702712E+04  0.11583702712E+04  0.50400001928E-02 0.  1.
    10030    2    1    2    0    0  0.00000000000E+00  0.00000000000E+00 -0.61991078378E+03  0.16968297587E+04  0.15795384928E+04 0.  0.
        1    1    3    3  502    0  0.38284957975E+03  0.89791335240E+01 -0.10519557852E+04  0.11194933673E+04  0.50400001928E-02 0.  1.
       -1    1    3    3    0  502 -0.38284957975E+03 -0.89791335240E+01  0.43204500137E+03  0.57733639136E+03  0.50400001928E-02 0. -1.
</event>
<event>
 5   0  0.2630135E-04  0.1702559E+04  0.7818609E-02  0.8759906E-01
        1   -1    0    0  501    0  0.00000000000E+00  0.00000000000E+00  0.19224392605E+04  0.19224392605E+04  0.50400001928E-02 0. -1.
       -1   -1    0    0    0  501  0.00000000000E+00  0.00000000000E+00 -0.37695689756E+03  0.37695689759E+03  0.50400001928E-02 0.  1.
    10030    2    1    2    0    0  0.00000000000E+00  0.00000000000E+00  0.15454823629E+04  0.22993961581E+04  0.17025589440E+04 0.  0.
        1    1    3    3  502    0 -0.48782402055E+02 -0.10286148365E+02  0.19204659249E+04  0.19211129317E+04  0.50400001928E-02 0. -1.
       -1    1    3    3    0  502  0.48782402055E+02  0.10286148365E+02 -0.37498356197E+03  0.37828322639E+03  0.50400001928E-02 0.  1.
</event>
<event>
 5   0  0.2785059E-04  0.1697367E+04  0.7818609E-02  0.8762868E-01
        1   -1    0    0  501    0  0.00000000000E+00  0.00000000000E+00  0.15367914014E+04  0.15367914014E+04  0.50400001928E-02 0. -1.
       -1   -1    0    0    0  501  0.00000000000E+00  0.00000000000E+00 -0.46867993382E+03  0.46867993385E+03  0.50400001928E-02 0.  1.
    10030    2    1    2    0    0  0.00000000000E+00  0.00000000000E+00  0.10681114676E+04  0.20054713353E+04  0.16973665395E+04 0.  0.
        5    1    3    3  502    0  0.28753185329E+03  0.75239277304E+03  0.21818598676E+03  0.83450384445E+03  0.46999998093E+01 0. -1.
       -5    1    3    3    0  502 -0.28753185329E+03 -0.75239277304E+03  0.84992548082E+03  0.11709674908E+04  0.46999998093E+01 0.  1.
</event>
<event>
 5   0  0.2785059E-04  0.1552982E+04  0.7818609E-02  0.8849965E-01
       -1   -1    0    0    0  501  0.00000000000E+00  0.00000000000E+00  0.98111614592E+03  0.98111614594E+03  0.50400001928E-02 0. -1.
        1   -1    0    0  501    0  0.00000000000E+00  0.00000000000E+00 -0.61454295072E+03  0.61454295074E+03  0.50400001928E-02 0.  1.
    10030    2    1    2    0    0  0.00000000000E+00  0.00000000000E+00  0.36657319520E+03  0.15956590967E+04  0.15529816629E+04 0.  0.
        5    1    3    3  502    0 -0.50504994406E+03  0.11784080032E+03 -0.41048186018E+03  0.66142221595E+03  0.46999998093E+01 0.  1.
       -5    1    3    3    0  502  0.50504994406E+03 -0.11784080032E+03  0.77705505539E+03  0.93423688073E+03  0.46999998093E+01 0. -1.
</event>
<event>
 5   0  0.2595644E-04  0.1699014E+04  0.7818609E-02  0.8761927E-01
       -1   -1    0    0    0  501  0.00000000000E+00  0.00000000000E+00  0.28768509757E+03  0.28768509761E+03  0.50400001928E-02 0.  1.
        1   -1    0    0  501    0  0.00000000000E+00  0.00000000000E+00 -0.25085133702E+04  0.25085133702E+04  0.50400001928E-02 0. -1.
    10030    2    1    2    0    0  0.00000000000E+00  0.00000000000E+00 -0.22208282727E+04  0.27961984678E+04  0.16990137301E+04 0.  0.
        2    1    3    3  502    0 -0.56797935918E+03  0.36442790172E+03 -0.19596315730E+04  0.20725742809E+04  0.25500000920E-02 0. -1.
       -2    1    3    3    0  502  0.56797935918E+03 -0.36442790172E+03 -0.26119669968E+03  0.72362418695E+03  0.25500000920E-02 0.  1.
</event>
<event>
 5   0  0.2595644E-04  0.1695359E+04  0.7818609E-02  0.8764016E-01
        1   -1    0    0  501    0  0.00000000000E+00  0.00000000000E+00  0.13016563269E+04  0.13016563269E+04  0.50400001928E-02 0. -1.
       -1   -1    0    0    0  501  0.00000000000E+00  0.00000000000E+00 -0.55203526621E+03  0.55203526623E+03  0.50400001928E-02 0.  1.
    10030    2    1    2    0    0  0.00000000000E+00  0.00000000000E+00  0.74962106069E+03  0.18536915931E+04  0.16953586016E+04 0.  0.
        2    1    3    3  502    0  0.83856360188E+02 -0.65370505919E+03  0.95770027918E+03  0.11625626944E+04  0.25500000920E-02 0. -1.
       -2    1    3    3    0  502 -0.83856360188E+02  0.65370505919E+03 -0.20807921849E+03  0.69112889878E+03  0.25500000920E-02 0.  1.
</event>
<event>
 5   0  0.2595644E-04  0.1680140E+04  0.7818609E-02  0.8772773E-01
        1   -1    0    0  501    0  0.00000000000E+00  0.00000000000E+00  0.52698749555E+03  0.52698749557E+03  0.50400001928E-02 0. -1.
       -1   -1    0    0    0  501  0.00000000000E+00  0.00000000000E+00 -0.13391537909E+04  0.13391537909E+04  0.50400001928E-02 0.  1.
    10030    2    1    2    0    0  0.00000000000E+00  0.00000000000E+00 -0.81216629531E+03  0.18661412864E+04  0.16801396399E+04 0.  0.
        2    1    3    3  502    0  0.27573064293E+03 -0.51445924719E+03 -0.10771386225E+04  0.12251217558E+04  0.25500000920E-02 0.  1.
       -2    1    3    3    0  502 -0.27573064293E+03  0.51445924719E+03  0.26497232719E+03  0.64101953064E+03  0.25500000920E-02 0. -1.
</event>
<event>
 5   0  0.5342255E-04  0.1663333E+04  0.7818609E-02  0.8782557E-01
        2   -1    0    0  501    0  0.00000000000E+00  0.00000000000E+00  0.15284965734E+04  0.15284965734E+04  0.25500000920E-02 0.  1.
       -2   -1    0    0    0  501  0.00000000000E+00  0.00000000000E+00 -0.45251621179E+03  0.45251621180E+03  0.25500000920E-02 0. -1.
    10030    2    1    2    0    0  0.00000000000E+00  0.00000000000E+00  0.10759803616E+04  0.19810127852E+04  0.16633333751E+04 0.  0.
        5    1    3    3  502    0 -0.46769922646E+03  0.68101077045E+03  0.65178519259E+03  0.10523137665E+04  0.46999998093E+01 0.  1.
       -5    1    3    3    0  502  0.46769922646E+03 -0.68101077045E+03  0.42419516903E+03  0.92869901870E+03  0.46999998093E+01 0. -1.
</event>
<event>
 5   0  0.2630135E-04  0.1697802E+04  0.7818609E-02  0.8762619E-01
        1   -1    0    0  501    0  0.00000000000E+00  0.00000000000E+00  0.10346447099E+04  0.10346447099E+04  0.50400001928E-02 0.  1.
       -1   -1    0    0    0  501  0.00000000000E+00  0.00000000000E+00 -0.69650302739E+03  0.69650302741E+03  0.50400001928E-02 0. -1.
    10030    2    1    2    0    0  0.00000000000E+00  0.00000000000E+00  0.33814168249E+03  0.17311477373E+04  0.16978023121E+04 0.  0.
        1    1    3    3  502    0 -0.11901225264E+03 -0.68836609806E+03 -0.32271024026E+03  0.76951523729E+03  0.50400001928E-02 0.  1.
       -1    1    3    3    0  502  0.11901225264E+03  0.68836609806E+03  0.66085192275E+03  0.96163250000E+03  0.50400001928E-02 0. -1.
</event>
<event>
 5   0  0.1910750E-04  0.1702755E+04  0.7818609E-02  0.8759795E-01
        3   -1    0    0  501    0  0.00000000000E+00  0.00000000000E+00  0.55749686153E+03  0.55749687068E+03  0.10100000352E+00 0.  1.
       -3   -1    0    0    0  501  0.00000000000E+00  0.00000000000E+00 -0.13001745627E+04  0.13001745666E+04  0.10100000352E+00 0. -1.
    10030    2    1    2    0    0  0.00000000000E+00  0.00000000000E+00 -0.74267770115E+03  0.18576714373E+04  0.17027545334E+04 0.  0.
        2    1    3    3  502    0 -0.82048651873E+03  0.18195802064E+01 -0.61926229362E+03  0.10279529301E+04  0.25500000920E-02 0. -1.
       -2    1    3    3    0  502  0.82048651873E+03 -0.18195802064E+01 -0.12341540753E+03  0.82971850715E+03  0.25500000920E-02 0.  1.
</event>
<event>
 5   0  0.5299877E-04  0.1682914E+04  0.7818609E-02  0.8771170E-01
       -2   -1    0    0    0  501  0.00000000000E+00  0.00000000000E+00  0.38446439828E+03  0.38446439829E+03  0.25500000920E-02 0.  1.
        2   -1    0    0  501    0  0.00000000000E+00  0.00000000000E+00 -0.18416525194E+04  0.18416525194E+04  0.25500000920E-02 0. -1.
    10030    2    1    2    0    0  0.00000000000E+00  0.00000000000E+00 -0.14571881212E+04  0.22261169177E+04  0.16829139345E+04 0.  0.
        3    1    3    3  502    0  0.57363401741E+03 -0.54221011495E+03 -0.11142505950E+04  0.13655043732E+04  0.10100000352E+00 0.  1.
       -3    1    3    3    0  502 -0.57363401741E+03  0.54221011495E+03 -0.34293752616E+03  0.86061254449E+03  0.10100000352E+00 0. -1.
</event>
<event>
 5   0  0.2561518E-04  0.1718427E+04  0.7818609E-02  0.8750924E-01
        1   -1    0    0  501    0  0.00000000000E+00  0.00000000000E+00  0.12407904676E+04  0.12407904676E+04  0.50400001928E-02 0. -1.
       -1   -1    0    0    0  501  0.00000000000E+00  0.00000000000E+00 -0.59498177176E+03  0.59498177178E+03  0.50400001928E-02 0.  1.
    10030    2    1    2    0    0  0.00000000000E+00  0.00000000000E+00  0.64580869586E+03  0.18357722394E+04  0.17184268513E+04 0.  0.
        4    1    3    3  502    0  0.19683152995E+03 -0.73478884513E+03  0.74966950284E+03  0.10680183868E+04  0.12699999809E+01 0. -1.
       -4    1    3    3    0  502 -0.19683152995E+03  0.73478884513E+03 -0.10386080699E+03  0.76775385263E+03  0.12699999809E+01 0.  1.
</event>
<event>
 5   0  0.5198430E-04  0.1685307E+04  0.7818609E-02  0.8769789E-01
       -2   -1    0    0    0  501  0.00000000000E+00  0.00000000000E+00  0.98673002734E+03  0.98673002734E+03  0.25500000920E-02 0.  1.
        2   -1    0    0  501    0  0.00000000000E+00  0.00000000000E+00 -0.71961380617E+03  0.71961380618E+03  0.25500000920E-02 0. -1.
    10030    2    1    2    0    0  0.00000000000E+00  0.00000000000E+00  0.26711622117E+03  0.17063438335E+04  0.16853065604E+04 0.  0.
        4    1    3    3  502    0  0.63552074702E+03 -0.25707368988E+03  0.62966374730E+03  0.93083379262E+03  0.12699999809E+01 0.  1.
       -4    1    3    3    0  502 -0.63552074702E+03  0.25707368988E+03 -0.36254752613E+03  0.77551004090E+03  0.12699999809E+01 0. -1.
</event>
<event>
 5   0  0.5310003E-04  0.1711748E+04  0.7818609E-02  0.8754692E-01
        2   -1    0    0  501    0  0.00000000000E+00  0.00000000000E+00  0.76474940135E+03  0.76474940135E+03  0.25500000920E-02 0. -1.
       -2   -1    0    0    0  501  0.00000000000E+00  0.00000000000E+00 -0.95785689923E+03  0.95785689923E+03  0.25500000920E-02 0.  1.
    10030    2    1    2    0    0  0.00000000000E+00  0.00000000000E+00 -0.19310749788E+03  0.17226063006E+04  0.17117482178E+04 0.  0.
        1    1    3    3  502    0  0.75890950691E+03  0.39536117183E+03 -0.80128624704E+02  0.85946186210E+03  0.50400001928E-02 0.  1.
       -1    1    3    3    0  502 -0.75890950691E+03 -0.39536117183E+03 -0.11297887318E+03  0.86314443848E+03  0.50400001928E-02 0. -1.
</event>
<event>
 5   0  0.2583422E-04  0.1704386E+04  0.7818609E-02  0.8758867E-01
        1   -1    0    0  501    0  0.00000000000E+00  0.00000000000E+00  0.38880286320E+03  0.38880286324E+03  0.50400001928E-02 0. -1.
       -1   -1    0    0    0  501  0.00000000000E+00  0.00000000000E+00 -0.18678693483E+04  0.18678693483E+04  0.50400001928E-02 0.  1.
    10030    2    1    2    0    0  0.00000000000E+00  0.00000000000E+00 -0.14790664851E+04  0.22566722116E+04  0.17043860487E+04 0.  0.
        3    1    3    3  502    0 -0.18253871631E+03 -0.89705892749E+02  0.35619568343E+03  0.41017423766E+03  0.10100000352E+00 0. -1.
       -3    1    3    3    0  502  0.18253871631E+03  0.89705892749E+02 -0.18352621685E+04  0.18464979739E+04  0.10100000352E+00 0.  1.
</event>
<event>
 5   0  0.5299877E-04  0.1869845E+04  0.7818609E-02  0.8670014E-01
       -2   -1    0    0    0  501  0.00000000000E+00  0.00000000000E+00  0.11361074046E+04  0.11361074046E+04  0.25500000920E-02 0.  1.
        2   -1    0    0  501    0  0.00000000000E+00  0.00000000000E+00 -0.76936419384E+03  0.76936419385E+03  0.25500000920E-02 0. -1.
    10030    2    1    2    0    0  0.00000000000E+00  0.00000000000E+00  0.36674321071E+03  0.19054715984E+04  0.18698452957E+04 0.  0.
        3    1    3    3  502    0 -0.12544042298E+03  0.29052082386E+03  0.10798734913E+04  0.11252841491E+04  0.10100000352E+00 0.  1.
       -3    1    3    3    0  502  0.12544042298E+03 -0.29052082386E+03 -0.71313028057E+03  0.78018744932E+03  0.10100000352E+00 0. -1.
</event>
<event>
 5   0  0.2561518E-04  0.1777624E+04  0.7818609E-02  0.8718290E-01
        1   -1    0    0  501    0  0.00000000000E+00  0.00000000000E+00  0.13938955359E+04  0.13938955359E+04  0.50400001928E-02 0.  1.
       -1   -1    0    0    0  501  0.00000000000E+00  0.00000000000E+00 -0.56674750768E+03  0.56674750771E+03  0.50400001928E-02 0. -1.
    10030    2    1    2    0    0  0.00000000000E+00  0.00000000000E+00  0.82714802819E+03  0.19606430436E+04  0.17776240558E+04 0.  0.
        4    1    3    3  502    0  0.39159880471E+03  0.42952035520E+03 -0.32807572533E+03  0.66743737821E+03  0.12699999809E+01 0. -1.
       -4    1    3    3    0  502 -0.39159880471E+03 -0.42952035520E+03  0.11552237535E+04  0.12932056654E+04  0.12699999809E+01 0.  1.
</event>
<event>
 5   0  0.5021349E-04  0.1691860E+04  0.7818609E-02  0.8766020E-01
        2   -1    0    0  501    0  0.00000000000E+00  0.00000000000E+00  0.65747162405E+03  0.65747162406E+03  0.25500000920E-02 0. -1.
       -2   -1    0    0    0  501  0.00000000000E+00  0.00000000000E+00 -0.10884086435E+04  0.10884086435E+04  0.25500000920E-02 0.  1.
    10030    2    1    2    0    0  0.00000000000E+00  0.00000000000E+00 -0.43093701946E+03  0.17458802676E+04  0.16918602761E+04 0.  0.
        2    1    3    3  502    0 -0.11015134607E+03 -0.80876905529E+03 -0.44472664554E+03  0.92952810237E+03  0.25500000920E-02 0.  1.
       -2    1    3    3    0  502  0.11015134607E+03  0.80876905529E+03  0.13789626078E+02  0.81635216521E+03  0.25500000920E-02 0. -1.
</event>
<event>
 5   0  0.2561518E-04  0.1702572E+04  0.7818609E-02  0.8759899E-01
       -1   -1    0    0    0  501  0.00000000000E+00  0.00000000000E+00  0.71161271622E+03  0.71161271624E+03  0.50400001928E-02 0. -1.
        1   -1    0    0  501    0  0.00000000000E+00  0.00000000000E+00 -0.10183743578E+04  0.10183743578E+04  0.50400001928E-02 0.  1.
    10030    2    1    2    0    0  0.00000000000E+00  0.00000000000E+00 -0.30676164157E+03  0.17299870740E+04  0.17025723396E+04 0.  0.
        4    1    3    3  502    0 -0.48372139695E+03 -0.55029883742E+03 -0.59380133468E+03  0.94308898747E+03  0.12699999809E+01 0.  1.
       -4    1    3    3    0  502  0.48372139695E+03  0.55029883742E+03  0.28703969311E+03  0.78689808657E+03  0.12699999809E+01 0. -1.
</event>
<event>
 5   0  0.2561518E-04  0.1707388E+04  0.7818609E-02  0.8757162E-01
       -1   -1    0    0    0  501  0.00000000000E+00  0.00000000000E+00  0.55402355997E+03  0.55402355999E+03  0.50400001928E-02 0. -1.
        1   -1    0    0  501    0  0.00000000000E+00  0.00000000000E+00 -0.13154551270E+04  0.13154551270E+04  0.50400001928E-02 0.  1.
    10030    2    1    2    0    0  0.00000000000E+00  0.00000000000E+00 -0.76143156700E+03  0.18694786870E+04  0.17073876331E+04 0.  0.
        4    1    3    3  502    0 -0.21140786574E+03  0.37936441282E+03  0.42402866492E+03  0.60696998689E+03  0.12699999809E+01 0. -1.
       -4    1    3    3    0  502  0.21140786574E+03 -0.37936441282E+03 -0.11854602319E+04  0.12625087001E+04  0.12699999809E+01 0.  1.
</event>
<event>
 5   0  0.2595644E-04  0.1682463E+04  0.7818609E-02  0.8771430E-01
       -1   -1    0    0    0  501  0.00000000000E+00  0.00000000000E+00  0.78005516813E+03  0.78005516814E+03  0.50400001928E-02 0.  1.
        1   -1    0    0  501    0  0.00000000000E+00  0.00000000000E+00 -0.90720568698E+03  0.90720568699E+03  0.50400001928E-02 0. -1.
    10030    2    1    2    0    0  0.00000000000E+00  0.00000000000E+00 -0.12715051885E+03  0.16872608551E+04  0.16824630572E+04 0.  0.
        2    1    3    3  502    0 -0.58621250175E+02  0.52037418027E+02 -0.90353529505E+03  0.90692908943E+03  0.25500000920E-02 0. -1.
       -2    1    3    3    0  502  0.58621250175E+02 -0.52037418027E+02  0.77638477620E+03  0.78033176571E+03  0.25500000920E-02 0.  1.
</event>
<event>
 5   0  0.5021349E-04  0.1700953E+04  0.7818609E-02  0.8760821E-01
        2   -1    0    0  501    0  0.00000000000E+00  0.00000000000E+00  0.16818883683E+04  0.16818883683E+04  0.25500000920E-02 0.  1.
       -2   -1    0    0    0  501  0.00000000000E+00  0.00000000000E+00 -0.43005846315E+03  0.43005846315E+03  0.25500000920E-02 0. -1.
    10030    2    1    2    0    0  0.00000000000E+00  0.00000000000E+00  0.12518299051E+04  0.21119468314E+04  0.17009530586E+04 0.  0.
        2    1    3    3  502    0 -0.55272349852E+03 -0.53613296552E+03  0.17760643157E+03  0.79024418193E+03  0.25500000920E-02 0. -1.
       -2    1    3    3    0  502  0.55272349852E+03  0.53613296552E+03  0.10742234736E+04  0.13217026495E+04  0.25500000920E-02 0.  1.
</event>
<event>
 5   0  0.5310003E-04  0.1765675E+04  0.7818609E-02  0.8724769E-01
       -2   -1    0    0    0  501  0.00000000000E+00  0.00000000000E+00  0.83060790329E+03  0.83060790330E+03  0.25500000920E-02 0. -1.
        2   -1    0    0  501    0  0.00000000000E+00  0.00000000000E+00 -0.93835173801E+03  0.93835173801E+03  0.25500000920E-02 0.  1.
    10030    2    1    2    0    0  0.00000000000E+00  0.00000000000E+00 -0.10774383471E+03  0.17689596413E+04  0.17656753605E+04 0.  0.
        1    1    3    3  502    0  0.48584133544E+03  0.40425906447E+02  0.68351772535E+03  0.83956687525E+03  0.50400001928E-02 0. -1.
       -1    1    3    3    0  502 -0.48584133544E+03 -0.40425906447E+02 -0.79126156007E+03  0.92939276605E+03  0.50400001928E-02 0.  1.
</event>
<event>
 5   0  0.1910750E-04  0.1728812E+04  0.7818609E-02  0.8745100E-01
        4   -1    0    0  501    0  0.00000000000E+00  0.00000000000E+00  0.82225648779E+03  0.82225746856E+03  0.12699999809E+01 0.  1.
       -4   -1    0    0    0  501  0.00000000000E+00  0.00000000000E+00 -0.90871401958E+03  0.90871490704E+03  0.12699999809E+01 0. -1.
    10030    2    1    2    0    0  0.00000000000E+00  0.00000000000E+00 -0.86457531788E+02  0.17309723756E+04  0.17288118638E+04 0.  0.
        2    1    3    3  502    0  0.29933312770E+03  0.21043587076E+03 -0.82735115691E+03  0.90465104537E+03  0.25500000920E-02 0. -1.
       -2    1    3    3    0  502 -0.29933312770E+03 -0.21043587076E+03  0.74089362512E+03  0.82632133023E+03  0.25500000920E-02 0.  1.
</event>
<event>
 5   0  0.5310003E-04  0.1699499E+04  0.7818609E-02  0.8761650E-01
       -2   -1    0    0    0  501  0.00000000000E+00  0.00000000000E+00  0.41553195313E+03  0.41553195314E+03  0.25500000920E-02 0. -1.
        2   -1    0    0  501    0  0.00000000000E+00  0.00000000000E+00 -0.17377113671E+04  0.17377113671E+04  0.25500000920E-02 0.  1.
    10030    2    1    2    0    0  0.00000000000E+00  0.00000000000E+00 -0.13221794140E+04  0.21532433203E+04  0.16994994538E+04 0.  0.
        1    1    3    3  502    0 -0.19326198912E+03 -0.18023595018E+02 -0.17092481515E+04  0.17202337893E+04  0.50400001928E-02 0.  1.
       -1    1    3    3    0  502  0.19326198912E+03  0.18023595018E+02  0.38706873745E+03  0.43300953102E+03  0.50400001928E-02 0. -1.
</event>
<event>
 5   0  0.2630135E-04  0.1687711E+04  0.7818609E-02  0.8768405E-01
        1   -1    0    0  501    0  0.00000000000E+00  0.00000000000E+00  0.30849129744E+04  0.30849129744E+04  0.50400001928E-02 0. -1.
       -1   -1    0    0    0  501  0.00000000000E+00  0.00000000000E+00 -0.23083045114E+03  0.23083045120E+03  0.50400001928E-02 0.  1.
    10030    2    1    2    0    0  0.00000000000E+00  0.00000000000E+00  0.28540825232E+04  0.33157434256E+04  0.16877107024E+04 0.  0.
        1    1    3    3  502    0 -0.55638674869E+03  0.43369504705E+02  0.18349304891E+03  0.58746644762E+03  0.50400001928E-02 0.  1.
       -1    1    3    3    0  502  0.55638674869E+03 -0.43369504705E+02  0.26705894743E+04  0.27282769779E+04  0.50400001928E-02 0. -1.
</event>
<event>
 5   0  0.5342255E-04  0.1693514E+04  0.7818609E-02  0.8765072E-01
        2   -1    0    0  501    0  0.00000000000E+00  0.00000000000E+00  0.16901840676E+04  0.16901840676E+04  0.25500000920E-02 0.  1.
       -2   -1    0    0    0  501  0.00000000000E+00  0.00000000000E+00 -0.42421249622E+03  0.42421249623E+03  0.25500000920E-02 0. -1.
    10030    2    1    2    0    0  0.00000000000E+00  0.00000000000E+00  0.12659715714E+04  0.21143965639E+04  0.16935137465E+04 0.  0.
        5    1    3    3  502    0  0.65963353142E+03 -0.16555456671E+03  0.31906690548E+01  0.68011541719E+03  0.46999998093E+01 0. -1.
       -5    1    3    3    0  502 -0.65963353142E+03  0.16555456671E+03  0.12627809024E+04  0.14342811467E+04  0.46999998093E+01 0.  1.
</event>
<event>
 5   0  0.1910750E-04  0.1703128E+04  0.7818609E-02  0.8759582E-01
       -3   -1    0    0    0  501  0.00000000000E+00  0.00000000000E+00  0.75102839764E+03  0.75102840444E+03  0.10100000352E+00 0.  1.
        3   -1    0    0  501    0  0.00000000000E+00  0.00000000000E+00 -0.96555748965E+03  0.96555749493E+03  0.10100000352E+00 0. -1.
    10030    2    1    2    0    0  0.00000000000E+00  0.00000000000E+00 -0.21452909201E+03  0.17165858994E+04  0.17031278339E+04 0.  0.
        1    1    3    3  502    0 -0.41228746142E+03  0.66785052289E+03  0.22573356353E+03  0.81667674970E+03  0.50400001928E-02 0.  1.
       -1    1    3    3    0  502  0.41228746142E+03 -0.66785052289E+03 -0.44026265553E+03  0.89990914967E+03  0.50400001928E-02 0. -1.
</event>
<event>
 5   0  0.5198430E-04  0.1851622E+04  0.7818609E-02  0.8679319E-01
        2   -1    0    0  501    0  0.00000000000E+00  0.00000000000E+00  0.11499678789E+04  0.11499678789E+04  0.25500000920E-02 0. -1.
       -2   -1    0    0    0  501  0.00000000000E+00  0.00000000000E+00 -0.74534791640E+03  0.74534791640E+03  0.25500000920E-02 0.  1.
    10030    2    1    2    0    0  0.00000000000E+00  0.00000000000E+00  0.40461996251E+03  0.18953157953E+04  0.18516221671E+04 0.  0.
        4    1    3    3  502    0  0.86786576467E+03  0.23473874761E+03 -0.23882562443E+02  0.89936936506E+03  0.12699999809E+01 0.  1.
       -4    1    3    3    0  502 -0.86786576467E+03 -0.23473874761E+03  0.42850252495E+03  0.99594643024E+03  0.12699999809E+01 0. -1.
</event>
<event>
 5   0  0.5198430E-04  0.1683838E+04  0.7818609E-02  0.8770636E-01
        2   -1    0    0  501    0  0.00000000000E+00  0.00000000000E+00  0.10590232888E+04  0.10590232888E+04  0.25500000920E-02 0. -1.
       -2   -1    0    0    0  501  0.00000000000E+00  0.00000000000E+00 -0.66932233632E+03  0.66932233633E+03  0.25500000920E-02 0.  1.
    10030    2    1    2    0    0  0.00000000000E+00  0.00000000000E+00  0.38970095250E+03  0.17283456251E+04  0.16838384031E+04 0.  0.
        4    1    3    3  502    0  0.38662046298E+03 -0.11371697632E+03  0.95359092641E+03  0.10352507913E+04  0.12699999809E+01 0. -1.
       -4    1    3    3    0  502 -0.38662046298E+03  0.11371697632E+03 -0.56388997391E+03  0.69309483383E+03  0.12699999809E+01 0.  1.
</event>
<event>
 5   0  0.2595644E-04  0.1713326E+04  0.7818609E-02  0.8753800E-01
        1   -1    0    0  501    0  0.00000000000E+00  0.00000000000E+00  0.17407593100E+04  0.17407593100E+04  0.50400001928E-02 0.  1.
       -1   -1    0    0    0  501  0.00000000000E+00  0.00000000000E+00 -0.42158140911E+03  0.42158140914E+03  0.50400001928E-02 0. -1.
    10030    2    1    2    0    0  0.00000000000E+00  0.00000000000E+00  0.13191779009E+04  0.21623407191E+04  0.17133263120E+04 0.  0.
        2    1    3    3  502    0 -0.24508058713E+03 -0.32315047450E+03 -0.29273683282E+03  0.50018554223E+03  0.25500000920E-02 0. -1.
       -2    1    3    3    0  502  0.24508058713E+03  0.32315047450E+03  0.16119147337E+04  0.16621551769E+04  0.25500000920E-02 0.  1.
</event>
<event>
 5   0  0.2630135E-04  0.1725757E+04  0.7818609E-02  0.8746809E-01
       -1   -1    0    0    0  501  0.00000000000E+00  0.00000000000E+00  0.67233289919E+03  0.67233289921E+03  0.50400001928E-02 0.  1.
        1   -1    0    0  501    0  0.00000000000E+00  0.00000000000E+00 -0.11074265717E+04  0.11074265717E+04  0.50400001928E-02 0. -1.
    10030    2    1    2    0    0  0.00000000000E+00  0.00000000000E+00 -0.43509367251E+03  0.17797594709E+04  0.17257570137E+04 0.  0.
        1    1    3    3  502    0  0.22745678544E+03 -0.27754496871E+03  0.59173262235E+03  0.69203706207E+03  0.50400001928E-02 0.  1.
       -1    1    3    3    0  502 -0.22745678544E+03  0.27754496871E+03 -0.10268262949E+04  0.10877224089E+04  0.50400001928E-02 0. -1.
</event>
<event>
 5   0  0.2785059E-04  0.1690782E+04  0.7818609E-02  0.8766639E-01
        1   -1    0    0  501    0  0.00000000000E+00  0.00000000000E+00  0.75640884452E+03  0.75640884454E+03  0.50400001928E-02 0.  1.
       -1   -1    0    0    0  501  0.00000000000E+00  0.00000000000E+00 -0.94484094298E+03  0.94484094299E+03  0.50400001928E-02 0. -1.
    10030    2    1    2    0    0  0.00000000000E+00  0.00000000000E+00 -0.18843209846E+03  0.17012497875E+04  0.16907821219E+04 0.  0.
        5    1    3    3  502    0 -0.44450389622E+03 -0.13163966385E+03  0.61709143393E+03  0.77183977785E+03  0.46999998093E+01 0.  1.
       -5    1    3    3    0  502  0.44450389622E+03  0.13163966385E+03 -0.80552353239E+03  0.92941000967E+03  0.46999998093E+01 0. -1.
</event>
<event>
 5   0  0.5198430E-04  0.1751435E+04  0.7818609E-02  0.8732561E-01
       -2   -1    0    0    0  501  0.00000000000E+00  0.00000000000E+00  0.43610019319E+03  0.43610019320E+03  0.25500000920E-02 0.  1.
        2   -1    0    0  501    0  0.00000000000E+00  0.00000000000E+00 -0.17584975135E+04  0.17584975135E+04  0.25500000920E-02 0. -1.
    10030    2    1    2    0    0  0.00000000000E+00  0.00000000000E+00 -0.13223973203E+04  0.21945977067E+04  0.17514349607E+04 0.  0.
        4    1    3    3  502    0 -0.73692098414E+03 -0.41329597284E+03 -0.37269341513E+03  0.92345443450E+03  0.12699999809E+01 0.  1.
       -4    1    3    3    0  502  0.73692098414E+03  0.41329597284E+03 -0.94970390519E+03  0.12711432722E+04  0.12699999809E+01 0. -1.
</event>
<event>
 5   0  0.5342255E-04  0.1699733E+04  0.7818609E-02  0.8761517E-01
       -2   -1    0    0    0  501  0.00000000000E+00  0.00000000000E+00  0.42198422893E+03  0.42198422893E+03  0.25500000920E-02 0. -1.
        2   -1    0    0  501    0  0.00000000000E+00  0.00000000000E+00 -0.17116119295E+04  0.17116119295E+04  0.25500000920E-02 0.  1.
    10030    2    1    2    0    0  0.00000000000E+00  0.00000000000E+00 -0.12896277006E+04  0.21335961584E+04  0.16997332030E+04 0.  0.
        5    1    3    3  502    0  0.71165757047E+03  0.32209001677E+03 -0.10650008144E+04  0.13207752652E+04  0.46999998093E+01 0.  1.
       -5    1    3    3    0  502 -0.71165757047E+03 -0.32209001677E+03 -0.22462688621E+03  0.81282089326E+03  0.46999998093E+01 0. -1.
</event>
<event>
 5   0  0.5310003E-04  0.1726372E+04  0.7818609E-02  0.8746465E-01
        2   -1    0    0  501    0  0.00000000000E+00  0.00000000000E+00  0.11015506651E+04  0.11015506651E+04  0.25500000920E-02 0. -1.
       -2   -1    0    0    0  501  0.00000000000E+00  0.00000000000E+00 -0.67640124576E+03  0.67640124576E+03  0.25500000920E-02 0.  1.
    10030    2    1    2    0    0  0.00000000000E+00  0.00000000000E+00  0.42514941935E+03  0.17779519109E+04  0.17263721987E+04 0.  0.
        1    1    3    3  502    0  0.85801017316E+03  0.82370720280E+02  0.26003686183E+03  0.90032525364E+03  0.50400001928E-02 0.  1.
       -1    1    3    3    0  502 -0.85801017316E+03 -0.82370720280E+02  0.16511255752E+03  0.87762665723E+03  0.50400001928E-02 0. -1.
</event>
<event>
 5   0  0.5310003E-04  0.1603490E+04  0.7818609E-02  0.8818407E-01
        2   -1    0    0  501    0  0.00000000000E+00  0.00000000000E+00  0.10111794492E+04  0.10111794492E+04  0.25500000920E-02 0. -1.
       -2   -1    0    0    0  501  0.00000000000E+00  0.00000000000E+00 -0.63568832169E+03  0.63568832170E+03  0.25500000920E-02 0.  1.
    10030    2    1    2    0    0  0.00000000000E+00  0.00000000000E+00  0.37549112748E+03  0.16468677709E+04  0.16034899027E+04 0.  0.
        1    1    3    3  502    0 -0.15441927091E+03  0.45854656830E+03  0.84432411433E+03  0.97313589832E+03  0.50400001928E-02 0. -1.
       -1    1    3    3    0  502  0.15441927091E+03 -0.45854656830E+03 -0.46883298684E+03  0.67373187256E+03  0.50400001928E-02 0.  1.
</event>
<event>
 5   0  0.2785059E-04  0.1664802E+04  0.7818609E-02  0.8781698E-01
       -1   -1    0    0    0  501  0.00000000000E+00  0.00000000000E+00  0.34546975563E+03  0.34546975567E+03  0.50400001928E-02 0. -1.
        1   -1    0    0  501    0  0.00000000000E+00  0.00000000000E+00 -0.20056500870E+04  0.20056500871E+04  0.50400001928E-02 0.  1.
    10030    2    1    2    0    0  0.00000000000E+00  0.00000000000E+00 -0.16601803314E+04  0.23511198427E+04  0.16648020249E+04 0.  0.
        5    1    3    3  502    0  0.58570939911E+03  0.34110943585E+03 -0.15124551696E+04  0.16573937002E+04  0.46999998093E+01 0.  1.
       -5    1    3    3    0  502 -0.58570939911E+03 -0.34110943585E+03 -0.14772516186E+03  0.69372614256E+03  0.46999998093E+01 0. -1.
</event>
<event>
 5   0  0.2785059E-04  0.1306114E+04  0.7818609E-02  0.9024731E-01
       -1   -1    0    0    0  501  0.00000000000E+00  0.00000000000E+00  0.14825898960E+04  0.14825898960E+04  0.50400001928E-02 0.  1.
        1   -1    0    0  501    0  0.00000000000E+00  0.00000000000E+00 -0.28766093299E+03  0.28766093304E+03  0.50400001928E-02 0. -1.
    10030    2    1    2    0    0  0.00000000000E+00  0.00000000000E+00  0.11949289630E+04  0.17702508291E+04  0.13061136134E+04 0.  0.
        5    1    3    3  502    0 -0.51094167815E+03  0.40669300821E+03  0.59650477416E+03  0.88447760684E+03  0.46999998093E+01 0.  1.
       -5    1    3    3    0  502  0.51094167815E+03 -0.40669300821E+03  0.59842418887E+03  0.88577322223E+03  0.46999998093E+01 0. -1.
</event>
<event>
 5   0  0.5198430E-04  0.1597424E+04  0.7818609E-02  0.8822132E-01
        2   -1    0    0  501    0  0.00000000000E+00  0.00000000000E+00  0.60723908773E+03  0.60723908773E+03  0.25500000920E-02 0. -1.
       -2   -1    0    0    0  501  0.00000000000E+00  0.00000000000E+00 -0.10505590936E+04  0.10505590936E+04  0.25500000920E-02 0.  1.
    10030    2    1    2    0    0  0.00000000000E+00  0.00000000000E+00 -0.44332000592E+03  0.16577981814E+04  0.15974236077E+04 0.  0.
        4    1    3    3  502    0 -0.14832576366E+02 -0.73018413075E+03  0.11390271940E+03  0.73916460447E+03  0.12699999809E+01 0. -1.
       -4    1    3    3    0  502  0.14832576366E+02  0.73018413075E+03 -0.55722272531E+03  0.91863357691E+03  0.12699999809E+01 0.  1.
</event>
<event>
 5   0  0.2561518E-04  0.1672180E+04  0.7818609E-02  0.8777392E-01
       -1   -1    0    0    0  501  0.00000000000E+00  0.00000000000E+00  0.98452201309E+03  0.98452201311E+03  0.50400001928E-02 0.  1.
        1   -1    0    0  501    0  0.00000000000E+00  0.00000000000E+00 -0.71003604405E+03  0.71003604407E+03  0.50400001928E-02 0. -1.
    10030    2    1    2    0    0  0.00000000000E+00  0.00000000000E+00  0.27448596904E+03  0.16945580572E+04  0.16721795543E+04 0.  0.
        4    1    3    3  502    0 -0.21421187461E+03  0.60647099465E+03  0.67857413752E+03  0.93496431353E+03  0.12699999809E+01 0.  1.
       -4    1    3    3    0  502  0.21421187461E+03 -0.60647099465E+03 -0.40408816848E+03  0.75959374364E+03  0.12699999809E+01 0. -1.
</event>
<event>
 5   0  0.5198430E-04  0.1650601E+04  0.7818609E-02  0.8790051E-01
       -2   -1    0    0    0  501  0.00000000000E+00  0.00000000000E+00  0.65059637607E+03  0.65059637607E+03  0.25500000920E-02 0. -1.
        2   -1    0    0  501    0  0.00000000000E+00  0.00000000000E+00 -0.10469176881E+04  0.10469176881E+04  0.25500000920E-02 0.  1.
    10030    2    1    2    0    0  0.00000000000E+00  0.00000000000E+00 -0.39632131205E+03  0.16975140642E+04  0.16506009256E+04 0.  0.
        4    1    3    3  502    0  0.63440458635E+03 -0.50456930365E+03 -0.35768171441E+03  0.88600066765E+03  0.12699999809E+01 0.  1.
       -4    1    3    3    0  502 -0.63440458635E+03  0.50456930365E+03 -0.38639597644E+02  0.81151339654E+03  0.12699999809E+01 0. -1.
</event>
<event>
 5   0  0.2583422E-04  0.1675235E+04  0.7818609E-02  0.8775616E-01
        1   -1    0    0  501    0  0.00000000000E+00  0.00000000000E+00  0.15036820928E+04  0.15036820928E+04  0.50400001928E-02 0.  1.
       -1   -1    0    0    0  501  0.00000000000E+00  0.00000000000E+00 -0.46658977565E+03  0.46658977567E+03  0.50400001928E-02 0. -1.
    10030    2    1    2    0    0  0.00000000000E+00  0.00000000000E+00  0.10370923171E+04  0.19702718685E+04  0.16752345392E+04 0.  0.
        3    1    3    3  502    0  0.70756116623E+02 -0.57450432232E+03  0.12305983697E+04  0.13599389700E+04  0.10100000352E+00 0.  1.
       -3    1    3    3    0  502 -0.70756116623E+02  0.57450432232E+03 -0.19350605255E+03  0.61033289848E+03  0.10100000352E+00 0. -1.
</event>
<event>
 5   0  0.2561518E-04  0.1705731E+04  0.7818609E-02  0.8758102E-01
       -1   -1    0    0    0  501  0.00000000000E+00  0.00000000000E+00  0.11520676921E+04  0.11520676922E+04  0.50400001928E-02 0. -1.
        1   -1    0    0  501    0  0.00000000000E+00  0.00000000000E+00 -0.63136897018E+03  0.63136897020E+03  0.50400001928E-02 0.  1.
    10030    2    1    2    0    0  0.00000000000E+00  0.00000000000E+00  0.52069872197E+03  0.17834366624E+04  0.17057312712E+04 0.  0.
        4    1    3    3  502    0 -0.79564678560E+03  0.30491803960E+03  0.22194229026E+03  0.88050486167E+03  0.12699999809E+01 0.  1.
       -4    1    3    3    0  502  0.79564678560E+03 -0.30491803960E+03  0.29875643171E+03  0.90293180069E+03  0.12699999809E+01 0. -1.
</event>
<event>
 5   0  0.2595644E-04  0.1651452E+04  0.7818609E-02  0.8789548E-01
        1   -1    0    0  501    0  0.00000000000E+00  0.00000000000E+00  0.13628364685E+04  0.13628364685E+04  0.50400001928E-02 0. -1.
       -1   -1    0    0    0  501  0.00000000000E+00  0.00000000000E+00 -0.50029722556E+03  0.50029722558E+03  0.50400001928E-02 0.  1.
    10030    2    1    2    0    0  0.00000000000E+00  0.00000000000E+00  0.86253924298E+03  0.18631336941E+04  0.16514518511E+04 0.  0.
        2    1    3    3  502    0  0.48591068891E+03 -0.45043698311E+03 -0.12466138276E+03  0.67419814128E+03  0.25500000920E-02 0.  1.
       -2    1    3    3    0  502 -0.48591068891E+03  0.45043698311E+03  0.98720062574E+03  0.11889355528E+04  0.25500000920E-02 0. -1.
</event>
<event>
 5   0  0.5310003E-04  0.1687044E+04  0.7818609E-02  0.8768788E-01
        2   -1    0    0  501    0  0.00000000000E+00  0.00000000000E+00  0.21519803546E+04  0.21519803546E+04  0.25500000920E-02 0. -1.
       -2   -1    0    0    0  501  0.00000000000E+00  0.00000000000E+00 -0.33063922451E+03  0.33063922452E+03  0.25500000920E-02 0.  1.
    10030    2    1    2    0    0  0.00000000000E+00  0.00000000000E+00  0.18213411301E+04  0.24826195791E+04  0.16870437050E+04 0.  0.
        1    1    3    3  502    0 -0.27312055491E+03 -0.23575571786E+03  0.20326993419E+04  0.20644714119E+04  0.50400001928E-02 0. -1.
       -1    1    3    3    0  502  0.27312055491E+03  0.23575571786E+03 -0.21135821181E+03  0.41814816721E+03  0.50400001928E-02 0.  1.
</event>
<event>
 5   0  0.2630135E-04  0.1676647E+04  0.7818609E-02  0.8774797E-01
       -1   -1    0    0    0  501  0.00000000000E+00  0.00000000000E+00  0.68472994376E+03  0.68472994377E+03  0.50400001928E-02 0.  1.
        1   -1    0    0  501    0  0.00000000000E+00  0.00000000000E+00 -0.10263694956E+04  0.10263694957E+04  0.50400001928E-02 0. -1.
    10030    2    1    2    0    0  0.00000000000E+00  0.00000000000E+00 -0.34163955189E+03  0.17110994394E+04  0.16766465663E+04 0.  0.
        1    1    3    3  502    0 -0.74503750479E+03 -0.36225712819E+03 -0.39828003386E+02  0.82939579233E+03  0.50400001928E-02 0.  1.
       -1    1    3    3    0  502  0.74503750479E+03  0.36225712819E+03 -0.30181154850E+03  0.88170364709E+03  0.50400001928E-02 0. -1.
</event>
<event>
 5   0  0.5310003E-04  0.1710855E+04  0.7818609E-02  0.8755197E-01
        2   -1    0    0  501    0  0.00000000000E+00  0.00000000000E+00  0.60869243960E+03  0.60869243961E+03  0.25500000920E-02 0. -1.
       -2   -1    0    0    0  501  0.00000000000E+00  0.00000000000E+00 -0.12021774408E+04  0.12021774408E+04  0.25500000920E-02 0.  1.
    10030    2    1    2    0    0  0.00000000000E+00  0.00000000000E+00 -0.59348500116E+03  0.18108698804E+04  0.17108551303E+04 0.  0.
        1    1    3    3  502    0  0.81288114313E+03  0.23707569970E+03 -0.16808126066E+03  0.86326817992E+03  0.50400001928E-02 0. -1.
       -1    1    3    3    0  502 -0.81288114313E+03 -0.23707569970E+03 -0.42540374050E+03  0.94760170045E+03  0.50400001928E-02 0.  1.
</event>
<event>
 5   0  0.5021349E-04  0.1709690E+04  0.7818609E-02  0.8755857E-01
       -2   -1    0    0    0  501  0.00000000000E+00  0.00000000000E+00  0.61466265097E+03  0.61466265097E+03  0.25500000920E-02 0. -1.
        2   -1    0    0  501    0  0.00000000000E+00  0.00000000000E+00 -0.11888799480E+04  0.11888799480E+04  0.25500000920E-02 0.  1.
    10030    2    1    2    0    0  0.00000000000E+00  0.00000000000E+00 -0.57421729703E+03  0.18035425990E+04  0.17096901480E+04 0.  0.
        2    1    3    3  502    0 -0.50573218383E+03 -0.66414089904E+03 -0.92847828819E+02  0.83992195760E+03  0.25500000920E-02 0.  1.
       -2    1    3    3    0  502  0.50573218383E+03  0.66414089904E+03 -0.48136946821E+03  0.96362064137E+03  0.25500000920E-02 0. -1.
</event>
<event>
 5   0  0.5198430E-04  0.1699892E+04  0.7818609E-02  0.8761426E-01
        2   -1    0    0  501    0  0.00000000000E+00  0.00000000000E+00  0.39207683616E+03  0.39207683617E+03  0.25500000920E-02 0.  1.
       -2   -1    0    0    0  501  0.00000000000E+00  0.00000000000E+00 -0.18425169438E+04  0.18425169438E+04  0.25500000920E-02 0. -1.
    10030    2    1    2    0    0  0.00000000000E+00  0.00000000000E+00 -0.14504401076E+04  0.22345937800E+04  0.16998920129E+04 0.  0.
        4    1    3    3  502    0 -0.61408186355E+02  0.70386966529E+03 -0.10416887220E+03  0.71418221617E+03  0.12699999809E+01 0.  1.
       -4    1    3    3    0  502  0.61408186355E+02 -0.70386966529E+03 -0.13462712354E+04  0.15204115638E+04  0.12699999809E+01 0. -1.
</event>
<event>
 5   0  0.2595644E-04  0.1704909E+04  0.7818609E-02  0.8758569E-01
       -1   -1    0    0    0  501  0.00000000000E+00  0.00000000000E+00  0.18039824348E+04  0.18039824348E+04  0.50400001928E-02 0. -1.
        1   -1    0    0  501    0  0.00000000000E+00  0.00000000000E+00 -0.40281924760E+03  0.40281924763E+03  0.50400001928E-02 0.  1.
    10030    2    1    2    0    0  0.00000000000E+00  0.00000000000E+00  0.14011631872E+04  0.22068016825E+04  0.17049092024E+04 0.  0.
        2    1    3    3  502    0  0.43766227051E+03  0.52491951023E+03  0.41094793277E+02  0.68467330698E+03  0.25500000920E-02 0.  1.
       -2    1    3    3    0  502 -0.43766227051E+03 -0.52491951023E+03  0.13600683939E+04  0.15221283755E+04  0.25500000920E-02 0. -1.
</event>
<event>
 5   0  0.2630135E-04  0.1701795E+04  0.7818609E-02  0.8760341E-01
        1   -1    0    0  501    0  0.00000000000E+00  0.00000000000E+00  0.74080780798E+03  0.74080780800E+03  0.50400001928E-02 0. -1.
       -1   -1    0    0    0  501  0.00000000000E+00  0.00000000000E+00 -0.97734699378E+03  0.97734699379E+03  0.50400001928E-02 0.  1.
    10030    2    1    2    0    0  0.00000000000E+00  0.00000000000E+00 -0.23653918580E+03  0.17181548018E+04  0.17017946811E+04 0.  0.
        1    1    3    3  502    0 -0.19995616534E+03  0.24864640534E+03 -0.91466122135E+03  0.96871701380E+03  0.50400001928E-02 0.  1.
       -1    1    3    3    0  502  0.19995616534E+03 -0.24864640534E+03  0.67812203555E+03  0.74943778799E+03  0.50400001928E-02 0. -1.
</event>
<event>
 5   0  0.5198430E-04  0.1695249E+04  0.7818609E-02  0.8764079E-01
       -2   -1    0    0    0  501  0.00000000000E+00  0.00000000000E+00  0.52477124097E+03  0.52477124098E+03  0.25500000920E-02 0.  1.
        2   -1    0    0  501    0  0.00000000000E+00  0.00000000000E+00 -0.13691053179E+04  0.13691053179E+04  0.25500000920E-02 0. -1.
    10030    2    1    2    0    0  0.00000000000E+00  0.00000000000E+00 -0.84433407691E+03  0.18938765589E+04  0.16952487684E+04 0.  0.
        4    1    3    3  502    0  0.64130694205E+03  0.19034372865E+03 -0.10036954624E+04  0.12061971328E+04  0.12699999809E+01 0. -1.
       -4    1    3    3    0  502 -0.64130694205E+03 -0.19034372865E+03  0.15936138550E+03  0.68767942608E+03  0.12699999809E+01 0.  1.
</event>
<event>
 5   0  0.5342255E-04  0.1699479E+04  0.7818609E-02  0.8761661E-01
        2   -1    0    0  501    0  0.00000000000E+00  0.00000000000E+00  0.16170943752E+04  0.16170943752E+04  0.25500000920E-02 0.  1.
       -2   -1    0    0    0  501  0.00000000000E+00  0.00000000000E+00 -0.44651534665E+03  0.44651534666E+03  0.25500000920E-02 0. -1.
    10030    2    1    2    0    0  0.00000000000E+00  0.00000000000E+00  0.11705790285E+04  0.20636097218E+04  0.16994792797E+04 0.  0.
        5    1    3    3  502    0  0.18961925260E+03 -0.58074448731E+03 -0.13186003748E+03  0.62500302397E+03  0.46999998093E+01 0. -1.
       -5    1    3    3    0  502 -0.18961925260E+03  0.58074448731E+03  0.13024390660E+04  0.14386066979E+04  0.46999998093E+01 0.  1.
</event>
<event>
 5   0  0.2595644E-04  0.1642075E+04  0.7818609E-02  0.8795109E-01
        1   -1    0    0  501    0  0.00000000000E+00  0.00000000000E+00  0.97480865926E+03  0.97480865927E+03  0.50400001928E-02 0.  1.
       -1   -1    0    0    0  501  0.00000000000E+00  0.00000000000E+00 -0.69152299447E+03  0.69152299449E+03  0.50400001928E-02 0. -1.
    10030    2    1    2    0    0  0.00000000000E+00  0.00000000000E+00  0.28328566479E+03  0.16663316538E+04  0.16420750325E+04 0.  0.
        2    1    3    3  502    0 -0.23283020856E+03  0.47786698245E+03 -0.49332863404E+03  0.72521713997E+03  0.25500000920E-02 0.  1.
       -2    1    3    3    0  502  0.23283020856E+03 -0.47786698245E+03  0.77661429883E+03  0.94111451380E+03  0.25500000920E-02 0. -1.
</event>
<event>
 5   0  0.1910750E-04  0.1796834E+04  0.7818609E-02  0.8707985E-01
       -3   -1    0    0    0  501  0.00000000000E+00  0.00000000000E+00  0.52586451630E+03  0.52586452600E+03  0.10100000352E+00 0.  1.
        3   -1    0    0  501    0  0.00000000000E+00  0.00000000000E+00 -0.15349063201E+04  0.15349063234E+04  0.10100000352E+00 0. -1.
    10030    2    1    2    0    0  0.00000000000E+00  0.00000000000E+00 -0.10090418038E+04  0.20607708494E+04  0.17968336406E+04 0.  0.
        5    1    3    3  502    0 -0.64537871998E+03 -0.60266603315E+03 -0.31463989514E+03  0.93741153893E+03  0.46999998093E+01 0. -1.
       -5    1    3    3    0  502  0.64537871998E+03  0.60266603315E+03 -0.69440190865E+03  0.11233593105E+04  0.46999998093E+01 0.  1.
</event>
<event>
 5   0  0.2583422E-04  0.1704404E+04  0.7818609E-02  0.8758857E-01
       -1   -1    0    0    0  501  0.00000000000E+00  0.00000000000E+00  0.91683430211E+03  0.91683430213E+03  0.50400001928E-02 0.  1.
        1   -1    0    0  501    0  0.00000000000E+00  0.00000000000E+00 -0.79212583026E+03  0.79212583028E+03  0.50400001928E-02 0. -1.
    10030    2    1    2    0    0  0.00000000000E+00  0.00000000000E+00  0.12470847185E+03  0.17089601324E+04  0.17044038639E+04 0.  0.
        3    1    3    3  502    0  0.75455704398E+03  0.17171079669E+03  0.42024986451E+03  0.88059689367E+03  0.10100000352E+00 0.  1.
       -3    1    3    3    0  502 -0.75455704398E+03 -0.17171079669E+03 -0.29554139267E+03  0.82836323874E+03  0.10100000352E+00 0. -1.
</event>
<event>
 5   0  0.5021349E-04  0.1638623E+04  0.7818609E-02  0.8797166E-01
       -2   -1    0    0    0  501  0.00000000000E+00  0.00000000000E+00  0.66818816631E+03  0.66818816631E+03  0.25500000920E-02 0. -1.
        2   -1    0    0  501    0  0.00000000000E+00  0.00000000000E+00 -0.10046141989E+04  0.10046141989E+04  0.25500000920E-02 0.  1.
    10030    2    1    2    0    0  0.00000000000E+00  0.00000000000E+00 -0.33642603258E+03  0.16728023652E+04  0.16386229821E+04 0.  0.
        2    1    3    3  502    0 -0.54808121034E+03  0.57726575385E+03 -0.36627683273E+03  0.87623483262E+03  0.25500000920E-02 0.  1.
       -2    1    3    3    0  502  0.54808121034E+03 -0.57726575385E+03  0.29850800157E+02  0.79656753258E+03  0.25500000920E-02 0. -1.
</event>
<event>
 5   0  0.5198430E-04  0.1713923E+04  0.7818609E-02  0.8753463E-01
       -2   -1    0    0    0  501  0.00000000000E+00  0.00000000000E+00  0.76333484551E+03  0.76333484551E+03  0.25500000920E-02 0.  1.
        2   -1    0    0  501    0  0.00000000000E+00  0.00000000000E+00 -0.96207211948E+03  0.96207211948E+03  0.25500000920E-02 0. -1.
    10030    2    1    2    0    0  0.00000000000E+00  0.00000000000E+00 -0.19873727397E+03  0.17254069650E+04  0.17139231870E+04 0.  0.
        4    1    3    3  502    0  0.33753559729E+03  0.28714819070E+03 -0.83776610546E+03  0.94775419979E+03  0.12699999809E+01 0. -1.
       -4    1    3    3    0  502 -0.33753559729E+03 -0.28714819070E+03  0.63902883149E+03  0.77765276521E+03  0.12699999809E+01 0.  1.
</event>
<event>
 5   0  0.2630135E-04  0.1694832E+04  0.7818609E-02  0.8764317E-01
       -1   -1    0    0    0  501  0.00000000000E+00  0.00000000000E+00  0.58432369604E+03  0.58432369606E+03  0.50400001928E-02 0. -1.
        1   -1    0    0  501    0  0.00000000000E+00  0.00000000000E+00 -0.12289659480E+04  0.12289659480E+04  0.50400001928E-02 0.  1.
    10030    2    1    2    0    0  0.00000000000E+00  0.00000000000E+00 -0.64464225199E+03  0.18132896441E+04  0.16948320567E+04 0.  0.
        1    1    3    3  502    0 -0.19977002867E+03  0.58122492629E+02  0.55657376822E+03  0.59418906755E+03  0.50400001928E-02 0. -1.
       -1    1    3    3    0  502  0.19977002867E+03 -0.58122492629E+02 -0.12012160202E+04  0.12191005765E+04  0.50400001928E-02 0.  1.
</event>
<event>
 5   0  0.2630135E-04  0.1690159E+04  0.7818609E-02  0.8766997E-01
       -1   -1    0    0    0  501  0.00000000000E+00  0.00000000000E+00  0.12855769308E+04  0.12855769309E+04  0.50400001928E-02 0. -1.
        1   -1    0    0  501    0  0.00000000000E+00  0.00000000000E+00 -0.55551694012E+03  0.55551694015E+03  0.50400001928E-02 0.  1.
    10030    2    1    2    0    0  0.00000000000E+00  0.00000000000E+00  0.73005999072E+03  0.18410938710E+04  0.16901594753E+04 0.  0.
        1    1    3    3  502    0  0.13347475697E+03 -0.44484457034E+03 -0.40403375518E+03  0.61558547567E+03  0.50400001928E-02 0.  1.
       -1    1    3    3    0  502 -0.13347475697E+03  0.44484457034E+03  0.11340937459E+04  0.12255083953E+04  0.50400001928E-02 0. -1.
</event>
<event>
 5   0  0.5299877E-04  0.1708320E+04  0.7818609E-02  0.8756633E-01
        2   -1    0    0  501    0  0.00000000000E+00  0.00000000000E+00  0.17278768316E+04  0.17278768316E+04  0.25500000920E-02 0. -1.
       -2   -1    0    0    0  501  0.00000000000E+00  0.00000000000E+00 -0.42224608532E+03  0.42224608533E+03  0.25500000920E-02 0.  1.
    10030    2    1    2    0    0  0.00000000000E+00  0.00000000000E+00  0.13056307462E+04  0.21501229169E+04  0.17083199092E+04 0.  0.
        3    1    3    3  502    0  0.30176132607E+03  0.30192323789E+03  0.15839988200E+04  0.16405090099E+04  0.10100000352E+00 0. -1.
       -3    1    3    3    0  502 -0.30176132607E+03 -0.30192323789E+03 -0.27836807380E+03  0.50961390699E+03  0.10100000352E+00 0.  1.
</event>
<event>
 5   0  0.2561518E-04  0.1732248E+04  0.7818609E-02  0.8743183E-01
       -1   -1    0    0    0  501  0.00000000000E+00  0.00000000000E+00  0.18734125439E+04  0.18734125440E+04  0.50400001928E-02 0.  1.
        1   -1    0    0  501    0  0.00000000000E+00  0.00000000000E+00 -0.40043024082E+03  0.40043024085E+03  0.50400001928E-02 0. -1.
    10030    2    1    2    0    0  0.00000000000E+00  0.00000000000E+00  0.14729823031E+04  0.22738427848E+04  0.17322482919E+04 0.  0.
        4    1    3    3  502    0 -0.63662669353E+03 -0.45111571039E+03  0.24294283240E+03  0.81720362444E+03  0.12699999809E+01 0. -1.
       -4    1    3    3    0  502  0.63662669353E+03  0.45111571039E+03  0.12300394707E+04  0.14566391604E+04  0.12699999809E+01 0.  1.
</event>
<event>
 5   0  0.2630135E-04  0.1679669E+04  0.7818609E-02  0.8773045E-01
        1   -1    0    0  501    0  0.00000000000E+00  0.00000000000E+00  0.11827996654E+04  0.11827996654E+04  0.50400001928E-02 0.  1.
       -1   -1    0    0    0  501  0.00000000000E+00  0.00000000000E+00 -0.59631588060E+03  0.59631588062E+03  0.50400001928E-02 0. -1.
    10030    2    1    2    0    0  0.00000000000E+00  0.00000000000E+00  0.58648378484E+03  0.17791155461E+04  0.16796692818E+04 0.  0.
        1    1    3    3  502    0 -0.10996122769E+03 -0.76939599220E+03  0.63029670806E+03  0.10006675795E+04  0.50400001928E-02 0. -1.
       -1    1    3    3    0  502  0.10996122769E+03  0.76939599220E+03 -0.43812923221E+02  0.77844796659E+03  0.50400001928E-02 0.  1.
</event>
<event>
 5   0  0.2630135E-04  0.1736435E+04  0.7818609E-02  0.8740852E-01
       -1   -1    0    0    0  501  0.00000000000E+00  0.00000000000E+00  0.68542771332E+03  0.68542771334E+03  0.50400001928E-02 0. -1.
        1   -1    0    0  501    0  0.00000000000E+00  0.00000000000E+00 -0.10997542690E+04  0.10997542690E+04  0.50400001928E-02 0.  1.
    10030    2    1    2    0    0  0.00000000000E+00  0.00000000000E+00 -0.41432655570E+03  0.17851819824E+04  0.17364354913E+04 0.  0.
        1    1    3    3  502    0 -0.36877698310E+03 -0.11958600354E+03 -0.10058274408E+04  0.10779545984E+04  0.50400001928E-02 0.  1.
       -1    1    3    3    0  502  0.36877698310E+03  0.11958600354E+03  0.59150088511E+03  0.70722738396E+03  0.50400001928E-02 0. -1.
</event>
<event>
 5   0  0.2583422E-04  0.1723005E+04  0.7818609E-02  0.8748351E-01
        1   -1    0    0  501    0  0.00000000000E+00  0.00000000000E+00  0.52280911764E+03  0.52280911767E+03  0.50400001928E-02 0. -1.
       -1   -1    0    0    0  501  0.00000000000E+00  0.00000000000E+00 -0.14196133733E+04  0.14196133733E+04  0.50400001928E-02 0.  1.
    10030    2    1    2    0    0  0.00000000000E+00  0.00000000000E+00 -0.89680425569E+03  0.19424224910E+04  0.17230052990E+04 0.  0.
        3    1    3    3  502    0 -0.29525083557E+03  0.73222011988E+02  0.46024983784E+03  0.55169234396E+03  0.10100000352E+00 0. -1.
       -3    1    3    3    0  502  0.29525083557E+03 -0.73222011988E+02 -0.13570540935E+04  0.13907301471E+04  0.10100000352E+00 0.  1.
</event>
<event>
 5   0  0.5342255E-04  0.1692156E+04  0.7818609E-02  0.8765851E-01
       -2   -1    0    0    0  501  0.00000000000E+00  0.00000000000E+00  0.13815656753E+04  0.13815656753E+04  0.25500000920E-02 0. -1.
        2   -1    0    0  501    0  0.00000000000E+00  0.00000000000E+00 -0.51814250383E+03  0.51814250384E+03  0.25500000920E-02 0.  1.
    10030    2    1    2    0    0  0.00000000000E+00  0.00000000000E+00  0.86342317144E+03  0.18997081791E+04  0.16921559009E+04 0.  0.
        5    1    3    3  502    0  0.50235936797E+03 -0.67848046056E+03  0.49447132599E+03  0.97837858326E+03  0.46999998093E+01 0.  1.
       -5    1    3    3    0  502 -0.50235936797E+03  0.67848046056E+03  0.36895184545E+03  0.92132959586E+03  0.46999998093E+01 0. -1.
</event>
<event>
 5   0  0.2561518E-04  0.1389638E+04  0.7818609E-02  0.8961354E-01
       -1   -1    0    0    0  501  0.00000000000E+00  0.00000000000E+00  0.67252653934E+03  0.67252653935E+03  0.50400001928E-02 0.  1.
        1   -1    0    0  501    0  0.00000000000E+00  0.00000000000E+00 -0.71784993699E+03  0.71784993701E+03  0.50400001928E-02 0. -1.
    10030    2    1    2    0    0  0.00000000000E+00  0.00000000000E+00 -0.45323397656E+02  0.13903764764E+04  0.13896375555E+04 0.  0.
        4    1    3    3  502    0  0.50520072784E+03  0.58157303365E+02 -0.49637039273E+03  0.71063016191E+03  0.12699999809E+01 0. -1.
       -4    1    3    3    0  502 -0.50520072784E+03 -0.58157303365E+02  0.45104699508E+03  0.67974631445E+03  0.12699999809E+01 0.  1.
</event>
<event>
 5   0  0.2630135E-04  0.1534650E+04  0.7818609E-02  0.8861732E-01
       -1   -1    0    0    0  501  0.00000000000E+00  0.00000000000E+00  0.78564640377E+03  0.78564640378E+03  0.50400001928E-02 0.  1.
        1   -1    0    0  501    0  0.00000000000E+00  0.00000000000E+00 -0.74943131853E+03  0.74943131854E+03  0.50400001928E-02 0. -1.
    10030    2    1    2    0    0  0.00000000000E+00  0.00000000000E+00  0.36215085239E+02  0.15350777223E+04  0.15346504752E+04 0.  0.
        1    1    3    3  502    0  0.25061518873E+03  0.12443550308E+03  0.73279638186E+03  0.78439958219E+03  0.50400001928E-02 0.  1.
       -1    1    3    3    0  502 -0.25061518873E+03 -0.12443550308E+03 -0.69658129662E+03  0.75067814013E+03  0.50400001928E-02 0. -1.
</event>
<event>
 5   0  0.2630135E-04  0.1657704E+04  0.7818609E-02  0.8785862E-01
       -1   -1    0    0    0  501  0.00000000000E+00  0.00000000000E+00  0.60971464694E+03  0.60971464696E+03  0.50400001928E-02 0.  1.
        1   -1    0    0  501    0  0.00000000000E+00  0.00000000000E+00 -0.11267494524E+04  0.11267494524E+04  0.50400001928E-02 0. -1.
    10030    2    1    2    0    0  0.00000000000E+00  0.00000000000E+00 -0.51703480544E+03  0.17364640993E+04  0.16577040080E+04 0.  0.
        1    1    3    3  502    0 -0.16307391168E+03  0.41397078814E+03  0.47401509583E+03  0.65011939303E+03  0.50400001928E-02 0.  1.
       -1    1    3    3    0  502  0.16307391168E+03 -0.41397078814E+03 -0.99104990126E+03  0.10863447063E+04  0.50400001928E-02 0. -1.
</event>
<event>
 5   0  0.5342255E-04  0.1722328E+04  0.7818609E-02  0.8748731E-01
       -2   -1    0    0    0  501  0.00000000000E+00  0.00000000000E+00  0.10172057098E+04  0.10172057098E+04  0.25500000920E-02 0. -1.
        2   -1    0    0  501    0  0.00000000000E+00  0.00000000000E+00 -0.72905986192E+03  0.72905986192E+03  0.25500000920E-02 0.  1.
    10030    2    1    2    0    0  0.00000000000E+00  0.00000000000E+00  0.28814584783E+03  0.17462655717E+04  0.17223284870E+04 0.  0.
        5    1    3    3  502    0  0.69125978236E+03  0.51350069828E+03  0.13630415792E+03  0.87185088594E+03  0.46999998093E+01 0.  1.
       -5    1    3    3    0  502 -0.69125978236E+03 -0.51350069828E+03  0.15184168991E+03  0.87441468574E+03  0.46999998093E+01 0. -1.
</event>
<event>
 5   0  0.5198430E-04  0.1668832E+04  0.7818609E-02  0.8779343E-01
       -2   -1    0    0    0  501  0.00000000000E+00  0.00000000000E+00  0.47596661691E+03  0.47596661691E+03  0.25500000920E-02 0. -1.
        2   -1    0    0  501    0  0.00000000000E+00  0.00000000000E+00 -0.14628122844E+04  0.14628122844E+04  0.25500000920E-02 0.  1.
    10030    2    1    2    0    0  0.00000000000E+00  0.00000000000E+00 -0.98684566747E+03  0.19387789013E+04  0.16688317041E+04 0.  0.
        4    1    3    3  502    0  0.29987188386E+03  0.36869870488E+03  0.30336571582E+03  0.56382111715E+03  0.12699999809E+01 0. -1.
       -4    1    3    3    0  502 -0.29987188386E+03 -0.36869870488E+03 -0.12902113833E+04  0.13749577841E+04  0.12699999809E+01 0.  1.
</event>
<event>
 5   0  0.2785059E-04  0.1691519E+04  0.7818609E-02  0.8766216E-01
       -1   -1    0    0    0  501  0.00000000000E+00  0.00000000000E+00  0.65886454126E+03  0.65886454128E+03  0.50400001928E-02 0. -1.
        1   -1    0    0  501    0  0.00000000000E+00  0.00000000000E+00 -0.10856693716E+04  0.10856693716E+04  0.50400001928E-02 0.  1.
    10030    2    1    2    0    0  0.00000000000E+00  0.00000000000E+00 -0.42680483035E+03  0.17445339129E+04  0.16915189062E+04 0.  0.
        5    1    3    3  502    0 -0.20704175625E+03 -0.60347532245E+03  0.35919027080E+03  0.73218064320E+03  0.46999998093E+01 0. -1.
       -5    1    3    3    0  502  0.20704175625E+03  0.60347532245E+03 -0.78599510115E+03  0.10123532697E+04  0.46999998093E+01 0.  1.
</event>
<event>
 5   0  0.5198430E-04  0.1694907E+04  0.7818609E-02  0.8764274E-01
       -2   -1    0    0    0  501  0.00000000000E+00  0.00000000000E+00  0.67811918752E+03  0.67811918753E+03  0.25500000920E-02 0.  1.
        2   -1    0    0  501    0  0.00000000000E+00  0.00000000000E+00 -0.10590728939E+04  0.10590728939E+04  0.25500000920E-02 0. -1.
    10030    2    1    2    0    0  0.00000000000E+00  0.00000000000E+00 -0.38095370639E+03  0.17371920814E+04  0.16949072545E+04 0.  0.
        4    1    3    3  502    0 -0.43528989188E+03 -0.15998761597E+03  0.53651614977E+03  0.70917171341E+03  0.12699999809E+01 0.  1.
       -4    1    3    3    0  502  0.43528989188E+03  0.15998761597E+03 -0.91746985616E+03  0.10280203680E+04  0.12699999809E+01 0. -1.
</event>
<event>
 5   0  0.2583422E-04  0.1703028E+04  0.7818609E-02  0.8759639E-01
        1   -1    0    0  501    0  0.00000000000E+00  0.00000000000E+00  0.14361014742E+04  0.14361014742E+04  0.50400001928E-02 0. -1.
       -1   -1    0    0    0  501  0.00000000000E+00  0.00000000000E+00 -0.50489184493E+03  0.50489184495E+03  0.50400001928E-02 0.  1.
    10030    2    1    2    0    0  0.00000000000E+00  0.00000000000E+00  0.93120962928E+03  0.19409933192E+04  0.17030278011E+04 0.  0.
        3    1    3    3  502    0  0.20169396052E+03  0.82606884160E+03  0.51664806333E+03  0.99498513372E+03  0.10100000352E+00 0. -1.
       -3    1    3    3    0  502 -0.20169396052E+03 -0.82606884160E+03  0.41456156595E+03  0.94600818545E+03  0.10100000352E+00 0.  1.
</event>
<event>
 5   0  0.5021349E-04  0.1684302E+04  0.7818609E-02  0.8770369E-01
       -2   -1    0    0    0  501  0.00000000000E+00  0.00000000000E+00  0.46147820448E+03  0.46147820449E+03  0.25500000920E-02 0.  1.
        2   -1    0    0  501    0  0.00000000000E+00  0.00000000000E+00 -0.15368399837E+04  0.15368399837E+04  0.25500000920E-02 0. -1.
    10030    2    1    2    0    0  0.00000000000E+00  0.00000000000E+00 -0.10753617792E+04  0.19983181881E+04  0.16843018212E+04 0.  0.
        2    1    3    3  502    0 -0.32780503202E+03 -0.19242964123E+03  0.35391128614E+03  0.51936355697E+03  0.25500000920E-02 0.  1.
       -2    1    3    3    0  502  0.32780503202E+03  0.19242964123E+03 -0.14292730653E+04  0.14789546312E+04  0.25500000920E-02 0. -1.
</event>
<event>
 5   0  0.5310003E-04  0.1689977E+04  0.7818609E-02  0.8767101E-01
       -2   -1    0    0    0  501  0.00000000000E+00  0.00000000000E+00  0.10428518807E+04  0.10428518807E+04  0.25500000920E-02 0.  1.
        2   -1    0    0  501    0  0.00000000000E+00  0.00000000000E+00 -0.68466649291E+03  0.68466649292E+03  0.25500000920E-02 0. -1.
    10030    2    1    2    0    0  0.00000000000E+00  0.00000000000E+00  0.35818538778E+03  0.17275183736E+04  0.16899772067E+04 0.  0.
        1    1    3    3  502    0 -0.39110271181E+03  0.31123324498E+02  0.94409934583E+03  0.10223764313E+04  0.50400001928E-02 0.  1.
       -1    1    3    3    0  502  0.39110271181E+03 -0.31123324498E+02 -0.58591395805E+03  0.70514194229E+03  0.50400001928E-02 0. -1.
</event>
<event>
 5   0  0.2561518E-04  0.1682603E+04  0.7818609E-02  0.8771349E-01
        1   -1    0    0  501    0  0.00000000000E+00  0.00000000000E+00  0.88297034567E+03  0.88297034569E+03  0.50400001928E-02 0. -1.
       -1   -1    0    0    0  501  0.00000000000E+00  0.00000000000E+00 -0.80159916657E+03  0.80159916658E+03  0.50400001928E-02 0.  1.
    10030    2    1    2    0    0  0.00000000000E+00  0.00000000000E+00  0.81371179107E+02  0.16845695123E+04  0.16826030943E+04 0.  0.
        4    1    3    3  502    0  0.70069483636E+02  0.71358106607E+02 -0.79562588989E+03  0.80188769879E+03  0.12699999809E+01 0.  1.
       -4    1    3    3    0  502 -0.70069483636E+02 -0.71358106607E+02  0.87699706899E+03  0.88268181348E+03  0.12699999809E+01 0. -1.
</event>
<event>
 5   0  0.5310003E-04  0.1679867E+04  0.7818609E-02  0.8772931E-01
       -2   -1    0    0    0  501  0.00000000000E+00  0.00000000000E+00  0.75902623987E+03  0.75902623988E+03  0.25500000920E-02 0. -1.
        2   -1    0    0  501    0  0.00000000000E+00  0.00000000000E+00 -0.92946528253E+03  0.92946528254E+03  0.25500000920E-02 0.  1.
    10030    2    1    2    0    0  0.00000000000E+00  0.00000000000E+00 -0.17043904266E+03  0.16884915224E+04  0.16798673025E+04 0.  0.
        1    1    3    3  502    0  0.47895166803E+03  0.63155232743E+03  0.19411999521E+03  0.81604878234E+03  0.50400001928E-02 0.  1.
       -1    1    3    3    0  502 -0.47895166803E+03 -0.63155232743E+03 -0.36455903786E+03  0.87244274007E+03  0.50400001928E-02 0. -1.
</event>
<event>
 5   0  0.2595644E-04  0.1669163E+04  0.7818609E-02  0.8779150E-01
       -1   -1    0    0    0  501  0.00000000000E+00  0.00000000000E+00  0.51782199127E+03  0.51782199129E+03  0.50400001928E-02 0.  1.
        1   -1    0    0  501    0  0.00000000000E+00  0.00000000000E+00 -0.13451080911E+04  0.13451080911E+04  0.50400001928E-02 0. -1.
    10030    2    1    2    0    0  0.00000000000E+00  0.00000000000E+00 -0.82728609982E+03  0.18629300824E+04  0.16691633236E+04 0.  0.
        2    1    3    3  502    0  0.71155577834E+03 -0.42888825143E+03 -0.50201700663E+03  0.97070996331E+03  0.25500000920E-02 0.  1.
       -2    1    3    3    0  502 -0.71155577834E+03  0.42888825143E+03 -0.32526909320E+03  0.89222011909E+03  0.25500000920E-02 0. -1.
</event>
<event>
 5   0  0.5198430E-04  0.1670568E+04  0.7818609E-02  0.8778331E-01
       -2   -1    0    0    0  501  0.00000000000E+00  0.00000000000E+00  0.96719771604E+03  0.96719771604E+03  0.25500000920E-02 0. -1.
        2   -1    0    0  501    0  0.00000000000E+00  0.00000000000E+00 -0.72136146817E+03  0.72136146817E+03  0.25500000920E-02 0.  1.
    10030    2    1    2    0    0  0.00000000000E+00  0.00000000000E+00  0.24583624787E+03  0.16885591842E+04  0.16705677651E+04 0.  0.
        4    1    3    3  502    0 -0.10769852690E+03 -0.19424625045E+03  0.93680235170E+03  0.96277247445E+03  0.12699999809E+01 0. -1.
       -4    1    3    3    0  502  0.10769852690E+03  0.19424625045E+03 -0.69096610383E+03  0.72578670976E+03  0.12699999809E+01 0.  1.
</event>
<event>
 5   0  0.5299877E-04  0.1671081E+04  0.7818609E-02  0.8778032E-01
        2   -1    0    0  501    0  0.00000000000E+00  0.00000000000E+00  0.10361284881E+04  0.10361284881E+04  0.25500000920E-02 0. -1.
       -2   -1    0    0    0  501  0.00000000000E+00  0.00000000000E+00 -0.67378527223E+03  0.67378527223E+03  0.25500000920E-02 0.  1.
    10030    2    1    2    0    0  0.00000000000E+00  0.00000000000E+00  0.36234321585E+03  0.17099137603E+04  0.16710812253E+04 0.  0.
        3    1    3    3  502    0 -0.28273097506E+03 -0.76744736433E+03  0.35607001950E+03  0.89201913111E+03  0.10100000352E+00 0.  1.
       -3    1    3    3    0  502  0.28273097506E+03  0.76744736433E+03  0.62731963507E+01  0.81789462920E+03  0.10100000352E+00 0. -1.
</event>
<event>
 5   0  0.2595644E-04  0.1695521E+04  0.7818609E-02  0.8763923E-01
       -1   -1    0    0    0  501  0.00000000000E+00  0.00000000000E+00  0.58701798320E+03  0.58701798323E+03  0.50400001928E-02 0.  1.
        1   -1    0    0  501    0  0.00000000000E+00  0.00000000000E+00 -0.12243197511E+04  0.12243197511E+04  0.50400001928E-02 0. -1.
    10030    2    1    2    0    0  0.00000000000E+00  0.00000000000E+00 -0.63730176787E+03  0.18113377343E+04  0.16955208180E+04 0.  0.
        2    1    3    3  502    0 -0.27506699857E+03 -0.45347852023E+03  0.38788181543E+03  0.65708212939E+03  0.25500000920E-02 0.  1.
       -2    1    3    3    0  502  0.27506699857E+03  0.45347852023E+03 -0.10251835833E+04  0.11542556049E+04  0.25500000920E-02 0. -1.
</event>
<event>
 5   0  0.2561518E-04  0.1651541E+04  0.7818609E-02  0.8789495E-01
        1   -1    0    0  501    0  0.00000000000E+00  0.00000000000E+00  0.73143990106E+03  0.73143990108E+03  0.50400001928E-02 0. -1.
       -1   -1    0    0    0  501  0.00000000000E+00  0.00000000000E+00 -0.93226690893E+03  0.93226690895E+03  0.50400001928E-02 0.  1.
    10030    2    1    2    0    0  0.00000000000E+00  0.00000000000E+00 -0.20082700787E+03  0.16637068100E+04  0.16515413597E+04 0.  0.
        4    1    3    3  502    0  0.31287497811E+02  0.59568998395E+03 -0.67564526044E+03  0.90128996186E+03  0.12699999809E+01 0.  1.
       -4    1    3    3    0  502 -0.31287497811E+02 -0.59568998395E+03  0.47481825257E+03  0.76241684817E+03  0.12699999809E+01 0. -1.
</event>
<event>
 5   0  0.2583422E-04  0.1658659E+04  0.7818609E-02  0.8785300E-01
        1   -1    0    0  501    0  0.00000000000E+00  0.00000000000E+00  0.77687006582E+03  0.77687006584E+03  0.50400001928E-02 0.  1.
       -1   -1    0    0    0  501  0.00000000000E+00  0.00000000000E+00 -0.88533133347E+03  0.88533133348E+03  0.50400001928E-02 0. -1.
    10030    2    1    2    0    0  0.00000000000E+00  0.00000000000E+00 -0.10846126764E+03  0.16622013993E+04  0.16586589901E+04 0.  0.
        3    1    3    3  502    0  0.58638373945E+03 -0.33863891232E+03 -0.53406970113E+03  0.86241095696E+03  0.10100000352E+00 0. -1.
       -3    1    3    3    0  502 -0.58638373945E+03  0.33863891232E+03  0.42560843348E+03  0.79979044236E+03  0.10100000352E+00 0.  1.
</event>
<event>
 5   0  0.2583422E-04  0.1707599E+04  0.7818609E-02  0.8757042E-01
       -1   -1    0    0    0  501  0.00000000000E+00  0.00000000000E+00  0.78410130588E+03  0.78410130590E+03  0.50400001928E-02 0.  1.
        1   -1    0    0  501    0  0.00000000000E+00  0.00000000000E+00 -0.92969279268E+03  0.92969279270E+03  0.50400001928E-02 0. -1.
    10030    2    1    2    0    0  0.00000000000E+00  0.00000000000E+00 -0.14559148680E+03  0.17137940986E+04  0.17075987033E+04 0.  0.
        3    1    3    3  502    0 -0.63901305665E+03 -0.81094763826E+02  0.48964741560E+03  0.80911596764E+03  0.10100000352E+00 0.  1.
       -3    1    3    3    0  502  0.63901305665E+03  0.81094763826E+02 -0.63523890240E+03  0.90467813095E+03  0.10100000352E+00 0. -1.
</event>
<event>
 5   0  0.5310003E-04  0.1707929E+04  0.7818609E-02  0.8756855E-01
        2   -1    0    0  501    0  0.00000000000E+00  0.00000000000E+00  0.20086001089E+04  0.20086001089E+04  0.25500000920E-02 0. -1.
       -2   -1    0    0    0  501  0.00000000000E+00  0.00000000000E+00 -0.36306645494E+03  0.36306645495E+03  0.25500000920E-02 0.  1.
    10030    2    1    2    0    0  0.00000000000E+00  0.00000000000E+00  0.16455336540E+04  0.23716665639E+04  0.17079289458E+04 0.  0.
        1    1    3    3  502    0  0.76682789255E+03 -0.24413566136E+03  0.42602898146E+03  0.91056462209E+03  0.50400001928E-02 0.  1.
       -1    1    3    3    0  502 -0.76682789255E+03  0.24413566136E+03  0.12195046725E+04  0.14611019418E+04  0.50400001928E-02 0. -1.
</event>
<event>
 5   0  0.5342255E-04  0.1705136E+04  0.7818609E-02  0.8758441E-01
       -2   -1    0    0    0  501  0.00000000000E+00  0.00000000000E+00  0.58253994967E+03  0.58253994967E+03  0.25500000920E-02 0. -1.
        2   -1    0    0  501    0  0.00000000000E+00  0.00000000000E+00 -0.12477636236E+04  0.12477636236E+04  0.25500000920E-02 0.  1.
    10030    2    1    2    0    0  0.00000000000E+00  0.00000000000E+00 -0.66522367397E+03  0.18303035733E+04  0.17051359577E+04 0.  0.
        5    1    3    3  502    0  0.93354575461E+02  0.83810674934E+03 -0.19806273726E+03  0.86624992811E+03  0.46999998093E+01 0. -1.
       -5    1    3    3    0  502 -0.93354575461E+02 -0.83810674934E+03 -0.46716093672E+03  0.96405364521E+03  0.46999998093E+01 0.  1.
</event>
<event>
 5   0  0.5021349E-04  0.1705829E+04  0.7818609E-02  0.8758047E-01
       -2   -1    0    0    0  501  0.00000000000E+00  0.00000000000E+00  0.18467844271E+04  0.18467844271E+04  0.25500000920E-02 0. -1.
        2   -1    0    0  501    0  0.00000000000E+00  0.00000000000E+00 -0.39390801669E+03  0.39390801670E+03  0.25500000920E-02 0.  1.
    10030    2    1    2    0    0  0.00000000000E+00  0.00000000000E+00  0.14528764104E+04  0.22406924438E+04  0.17058290547E+04 0.  0.
        2    1    3    3  502    0 -0.83890117421E+03  0.97223504912E+02  0.88327194805E+03  0.12220380208E+04  0.25500000920E-02 0.  1.
       -2    1    3    3    0  502  0.83890117421E+03 -0.97223504912E+02  0.56960446232E+03  0.10186544230E+04  0.25500000920E-02 0. -1.
</event>
<event>
 5   0  0.2630135E-04  0.1713537E+04  0.7818609E-02  0.8753681E-01
       -1   -1    0    0    0  501  0.00000000000E+00  0.00000000000E+00  0.98260979988E+03  0.98260979989E+03  0.50400001928E-02 0.  1.
        1   -1    0    0  501    0  0.00000000000E+00  0.00000000000E+00 -0.74704334725E+03  0.74704334727E+03  0.50400001928E-02 0. -1.
    10030    2    1    2    0    0  0.00000000000E+00  0.00000000000E+00  0.23556645263E+03  0.17296531472E+04  0.17135368265E+04 0.  0.
        1    1    3    3  502    0  0.76267587255E+03  0.29154384595E+03 -0.14423438340E+03  0.82914163932E+03  0.50400001928E-02 0. -1.
       -1    1    3    3    0  502 -0.76267587255E+03 -0.29154384595E+03  0.37980083603E+03  0.90051150784E+03  0.50400001928E-02 0.  1.
</event>
<event>
 5   0  0.5021349E-04  0.1716877E+04  0.7818609E-02  0.8751797E-01
       -2   -1    0    0    0  501  0.00000000000E+00  0.00000000000E+00  0.44305661311E+03  0.44305661311E+03  0.25500000920E-02 0.  1.
        2   -1    0    0  501    0  0.00000000000E+00  0.00000000000E+00 -0.16632554540E+04  0.16632554540E+04  0.25500000920E-02 0. -1.
    10030    2    1    2    0    0  0.00000000000E+00  0.00000000000E+00 -0.12201988409E+04  0.21063120672E+04  0.17168766155E+04 0.  0.
        2    1    3    3  502    0 -0.64117294471E+03  0.56654425954E+03 -0.52473842384E+03  0.10037059114E+04  0.25500000920E-02 0. -1.
       -2    1    3    3    0  502  0.64117294471E+03 -0.56654425954E+03 -0.69546041709E+03  0.11026061558E+04  0.25500000920E-02 0.  1.
</event>
<event>
 5   0  0.2630135E-04  0.1660759E+04  0.7818609E-02  0.8784067E-01
       -1   -1    0    0    0  501  0.00000000000E+00  0.00000000000E+00  0.40743786417E+03  0.40743786420E+03  0.50400001928E-02 0.  1.
        1   -1    0    0  501    0  0.00000000000E+00  0.00000000000E+00 -0.16923564716E+04  0.16923564716E+04  0.50400001928E-02 0. -1.
    10030    2    1    2    0    0  0.00000000000E+00  0.00000000000E+00 -0.12849186074E+04  0.20997943358E+04  0.16607589906E+04 0.  0.
        1    1    3    3  502    0 -0.30843291644E+03 -0.15750615636E+03 -0.15966863615E+04  0.16338134502E+04  0.50400001928E-02 0. -1.
       -1    1    3    3    0  502  0.30843291644E+03  0.15750615636E+03  0.31176775404E+03  0.46598088557E+03  0.50400001928E-02 0.  1.
</event>
<event>
 5   0  0.2785059E-04  0.1700763E+04  0.7818609E-02  0.8760929E-01
       -1   -1    0    0    0  501  0.00000000000E+00  0.00000000000E+00  0.12314883585E+04  0.12314883585E+04  0.50400001928E-02 0. -1.
        1   -1    0    0  501    0  0.00000000000E+00  0.00000000000E+00 -0.58721505184E+03  0.58721505186E+03  0.50400001928E-02 0.  1.
    10030    2    1    2    0    0  0.00000000000E+00  0.00000000000E+00  0.64427330669E+03  0.18187034104E+04  0.17007627704E+04 0.  0.
        5    1    3    3  502    0 -0.25940966574E+03  0.67140776556E+03 -0.16208294101E+03  0.73781754662E+03  0.46999998093E+01 0.  1.
       -5    1    3    3    0  502  0.25940966574E+03 -0.67140776556E+03  0.80635624769E+03  0.10808858638E+04  0.46999998093E+01 0. -1.
</event>
<event>
 5   0  0.5198430E-04  0.1718136E+04  0.7818609E-02  0.8751088E-01
        2   -1    0    0  501    0  0.00000000000E+00  0.00000000000E+00  0.89660099557E+03  0.89660099558E+03  0.25500000920E-02 0.  1.
       -2   -1    0    0    0  501  0.00000000000E+00  0.00000000000E+00 -0.82310649549E+03  0.82310649549E+03  0.25500000920E-02 0. -1.
    10030    2    1    2    0    0  0.00000000000E+00  0.00000000000E+00  0.73494500084E+02  0.17197074911E+04  0.17181363198E+04 0.  0.
        4    1    3    3  502    0  0.68105835834E+03 -0.46582789142E+03  0.27604824958E+03  0.87008066344E+03  0.12699999809E+01 0.  1.
       -4    1    3    3    0  502 -0.68105835834E+03  0.46582789142E+03 -0.20255374950E+03  0.84962682763E+03  0.12699999809E+01 0. -1.
</event>
<event>
 5   0  0.2630135E-04  0.1710331E+04  0.7818609E-02  0.8755494E-01
        1   -1    0    0  501    0  0.00000000000E+00  0.00000000000E+00  0.12240089921E+04  0.12240089921E+04  0.50400001928E-02 0. -1.
       -1   -1    0    0    0  501  0.00000000000E+00  0.00000000000E+00 -0.59746969553E+03  0.59746969555E+03  0.50400001928E-02 0.  1.
    10030    2    1    2    0    0  0.00000000000E+00  0.00000000000E+00  0.62653929654E+03  0.18214786876E+04  0.17103312894E+04 0.  0.
        1    1    3    3  502    0 -0.54291548982E+03  0.79236720452E+02  0.10118489199E+04  0.11510316779E+04  0.50400001928E-02 0. -1.
       -1    1    3    3    0  502  0.54291548982E+03 -0.79236720452E+02 -0.38530962333E+03  0.67044700969E+03  0.50400001928E-02 0.  1.
</event>
<event>
 5   0  0.1910750E-04  0.1680504E+04  0.7818609E-02  0.8772562E-01
        3   -1    0    0  501    0  0.00000000000E+00  0.00000000000E+00  0.70615927958E+03  0.70615928680E+03  0.10100000352E+00 0.  1.
       -3   -1    0    0    0  501  0.00000000000E+00  0.00000000000E+00 -0.99980815338E+03  0.99980815848E+03  0.10100000352E+00 0. -1.
    10030    2    1    2    0    0  0.00000000000E+00  0.00000000000E+00 -0.29364887380E+03  0.17059674453E+04  0.16805044669E+04 0.  0.
        2    1    3    3  502    0  0.83120998229E+03 -0.12278407400E+03 -0.14057879136E+03  0.85190865712E+03  0.25500000920E-02 0.  1.
       -2    1    3    3    0  502 -0.83120998229E+03  0.12278407400E+03 -0.15307008244E+03  0.85405878816E+03  0.25500000920E-02 0. -1.
</event>
<event>
 5   0  0.2630135E-04  0.1695891E+04  0.7818609E-02  0.8763712E-01
        1   -1    0    0  501    0  0.00000000000E+00  0.00000000000E+00  0.57041997503E+03  0.57041997506E+03  0.50400001928E-02 0.  1.
       -1   -1    0    0    0  501  0.00000000000E+00  0.00000000000E+00 -0.12604946285E+04  0.12604946285E+04  0.50400001928E-02 0. -1.
    10030    2    1    2    0    0  0.00000000000E+00  0.00000000000E+00 -0.69007465345E+03  0.18309146036E+04  0.16958906976E+04 0.  0.
        1    1    3    3  502    0  0.33024203945E+02 -0.62994506472E+03  0.26672619139E+03  0.68488264967E+03  0.50400001928E-02 0.  1.
       -1    1    3    3    0  502 -0.33024203945E+02  0.62994506472E+03 -0.95680084484E+03  0.11460319539E+04  0.50400001928E-02 0. -1.
</event>
<event>
 5   0  0.2595644E-04  0.1671519E+04  0.7818609E-02  0.8777777E-01
       -1   -1    0    0    0  501  0.00000000000E+00  0.00000000000E+00  0.68096688323E+03  0.68096688325E+03  0.50400001928E-02 0.  1.
        1   -1    0    0  501    0  0.00000000000E+00  0.00000000000E+00 -0.10257383680E+04  0.10257383680E+04  0.50400001928E-02 0. -1.
    10030    2    1    2    0    0  0.00000000000E+00  0.00000000000E+00 -0.34477148477E+03  0.17067052513E+04  0.16715189015E+04 0.  0.
        2    1    3    3  502    0 -0.53516562807E+03  0.24870871822E+03  0.43187915569E+03  0.73128508881E+03  0.25500000920E-02 0.  1.
       -2    1    3    3    0  502  0.53516562807E+03 -0.24870871822E+03 -0.77665064046E+03  0.97542016245E+03  0.25500000920E-02 0. -1.
</event>
<event>
 5   0  0.2561518E-04  0.1713963E+04  0.7818609E-02  0.8753441E-01
        1   -1    0    0  501    0  0.00000000000E+00  0.00000000000E+00  0.15057603706E+04  0.15057603707E+04  0.50400001928E-02 0. -1.
       -1   -1    0    0    0  501  0.00000000000E+00  0.00000000000E+00 -0.48773835751E+03  0.48773835754E+03  0.50400001928E-02 0.  1.
    10030    2    1    2    0    0  0.00000000000E+00  0.00000000000E+00  0.10180220131E+04  0.19934987282E+04  0.17139627651E+04 0.  0.
        4    1    3    3  502    0  0.38266792192E+03 -0.62587138896E+03  0.10242833484E+04  0.12598840124E+04  0.12699999809E+01 0. -1.
       -4    1    3    3    0  502 -0.38266792192E+03  0.62587138896E+03 -0.62613352801E+01  0.73361471578E+03  0.12699999809E+01 0.  1.
</event>
<event>
 5   0  0.2785059E-04  0.1712913E+04  0.7818609E-02  0.8754033E-01
        1   -1    0    0  501    0  0.00000000000E+00  0.00000000000E+00  0.72328251451E+03  0.72328251452E+03  0.50400001928E-02 0.  1.
       -1   -1    0    0    0  501  0.00000000000E+00  0.00000000000E+00 -0.10141514981E+04  0.10141514981E+04  0.50400001928E-02 0. -1.
    10030    2    1    2    0    0  0.00000000000E+00  0.00000000000E+00 -0.29086898359E+03  0.17374340126E+04  0.17129133611E+04 0.  0.
        5    1    3    3  502    0 -0.60456670800E+03  0.60509501069E+03 -0.18912168657E+03  0.87603080923E+03  0.46999998093E+01 0. -1.
       -5    1    3    3    0  502  0.60456670800E+03 -0.60509501069E+03 -0.10174729702E+03  0.86140320341E+03  0.46999998093E+01 0.  1.
</event>
<event>
 5   0  0.5310003E-04  0.1760635E+04  0.7818609E-02  0.8727518E-01
       -2   -1    0    0    0  501  0.00000000000E+00  0.00000000000E+00  0.10743400001E+04  0.10743400001E+04  0.25500000920E-02 0. -1.
        2   -1    0    0  501    0  0.00000000000E+00  0.00000000000E+00 -0.72133485000E+03  0.72133485001E+03  0.25500000920E-02 0.  1.
    10030    2    1    2    0    0  0.00000000000E+00  0.00000000000E+00  0.35300515005E+03  0.17956748501E+04  0.17606349795E+04 0.  0.
        1    1    3    3  502    0 -0.31153835188E+03  0.82307479593E+03  0.19815282066E+03  0.90209356762E+03  0.50400001928E-02 0. -1.
       -1    1    3    3    0  502  0.31153835188E+03 -0.82307479593E+03  0.15485232939E+03  0.89358128244E+03  0.50400001928E-02 0.  1.
</event>
<event>
 5   0  0.2595644E-04  0.1739585E+04  0.7818609E-02  0.8739104E-01
       -1   -1    0    0    0  501  0.00000000000E+00  0.00000000000E+00  0.41464758046E+03  0.41464758049E+03  0.50400001928E-02 0.  1.
        1   -1    0    0  501    0  0.00000000000E+00  0.00000000000E+00 -0.18245359233E+04  0.18245359233E+04  0.50400001928E-02 0. -1.
    10030    2    1    2    0    0  0.00000000000E+00  0.00000000000E+00 -0.14098883428E+04  0.22391835038E+04  0.17395854749E+04 0.  0.
        2    1    3    3  502    0 -0.24788565987E+03 -0.59514521541E+03 -0.14564870592E+04  0.15927961832E+04  0.25500000920E-02 0. -1.
       -2    1    3    3    0  502  0.24788565987E+03  0.59514521541E+03  0.46598716338E+02  0.64638732055E+03  0.25500000920E-02 0.  1.
</event>
<event>
 5   0  0.5299877E-04  0.1755024E+04  0.7818609E-02  0.8730590E-01
        2   -1    0    0  501    0  0.00000000000E+00  0.00000000000E+00  0.90066805027E+03  0.90066805028E+03  0.25500000920E-02 0.  1.
       -2   -1    0    0    0  501  0.00000000000E+00  0.00000000000E+00 -0.85495102830E+03  0.85495102830E+03  0.25500000920E-02 0. -1.
    10030    2    1    2    0    0  0.00000000000E+00  0.00000000000E+00  0.45717021974E+02  0.17556190786E+04  0.17550237329E+04 0.  0.
        3    1    3    3  502    0 -0.71768315194E+03 -0.33206090436E+03 -0.35765653256E+03  0.86790077559E+03  0.10100000352E+00 0. -1.
       -3    1    3    3    0  502  0.71768315194E+03  0.33206090436E+03  0.40337355453E+03  0.88771830300E+03  0.10100000352E+00 0.  1.
</event>
<event>
 5   0  0.2561518E-04  0.1850821E+04  0.7818609E-02  0.8679731E-01
        1   -1    0    0  501    0  0.00000000000E+00  0.00000000000E+00  0.78474386900E+03  0.78474386902E+03  0.50400001928E-02 0. -1.
       -1   -1    0    0    0  501  0.00000000000E+00  0.00000000000E+00 -0.10912917998E+04  0.10912917998E+04  0.50400001928E-02 0.  1.
    10030    2    1    2    0    0  0.00000000000E+00  0.00000000000E+00 -0.30654793082E+03  0.18760356689E+04  0.18508209522E+04 0.  0.
        4    1    3    3  502    0 -0.47185563055E+03 -0.49816041000E+03 -0.78267737855E+03  0.10408635943E+04  0.12699999809E+01 0.  1.
       -4    1    3    3    0  502  0.47185563055E+03  0.49816041000E+03  0.47612944774E+03  0.83517207453E+03  0.12699999809E+01 0. -1.
</event>
<event>
 5   0  0.5310003E-04  0.1700529E+04  0.7818609E-02  0.8761063E-01
        2   -1    0    0  501    0  0.00000000000E+00  0.00000000000E+00  0.74220420687E+03  0.74220420687E+03  0.25500000920E-02 0.  1.
       -2   -1    0    0    0  501  0.00000000000E+00  0.00000000000E+00 -0.97405736343E+03  0.97405736343E+03  0.25500000920E-02 0. -1.
    10030    2    1    2    0    0  0.00000000000E+00  0.00000000000E+00 -0.23185315656E+03  0.17162615703E+04  0.17005287094E+04 0.  0.
        1    1    3    3  502    0 -0.44398682674E+03  0.18438702851E+03  0.59186520057E+03  0.76251379940E+03  0.50400001928E-02 0.  1.
       -1    1    3    3    0  502  0.44398682674E+03 -0.18438702851E+03 -0.82371835713E+03  0.95374777091E+03  0.50400001928E-02 0. -1.
</event>
<event>
 5   0  0.2583422E-04  0.1751515E+04  0.7818609E-02  0.8732517E-01
        1   -1    0    0  501    0  0.00000000000E+00  0.00000000000E+00  0.20143026257E+04  0.20143026257E+04  0.50400001928E-02 0. -1.
       -1   -1    0    0    0  501  0.00000000000E+00  0.00000000000E+00 -0.38075266602E+03  0.38075266605E+03  0.50400001928E-02 0.  1.
    10030    2    1    2    0    0  0.00000000000E+00  0.00000000000E+00  0.16335499597E+04  0.23950552918E+04  0.17515148814E+04 0.  0.
        3    1    3    3  502    0  0.22204836879E+03  0.35835568294E+03 -0.23287127935E+03  0.48161532007E+03  0.10100000352E+00 0.  1.
       -3    1    3    3    0  502 -0.22204836879E+03 -0.35835568294E+03  0.18664212390E+04  0.19134399717E+04  0.10100000352E+00 0. -1.
</event>
<event>
 5   0  0.5198430E-04  0.1715436E+04  0.7818609E-02  0.8752609E-01
        2   -1    0    0  501    0  0.00000000000E+00  0.00000000000E+00  0.11136056881E+04  0.11136056881E+04  0.25500000920E-02 0. -1.
       -2   -1    0    0    0  501  0.00000000000E+00  0.00000000000E+00 -0.66062897897E+03  0.66062897897E+03  0.25500000920E-02 0.  1.
    10030    2    1    2    0    0  0.00000000000E+00  0.00000000000E+00  0.45297670910E+03  0.17742346670E+04  0.17154360247E+04 0.  0.
        4    1    3    3  502    0  0.73228245836E+03 -0.20567407694E+03 -0.18350681106E+03  0.78244219425E+03  0.12699999809E+01 0.  1.
       -4    1    3    3    0  502 -0.73228245836E+03  0.20567407694E+03  0.63648352016E+03  0.99179247279E+03  0.12699999809E+01 0. -1.
</event>
<event>
 5   0  0.1910750E-04  0.1606919E+04  0.7818609E-02  0.8816309E-01
       -3   -1    0    0    0  501  0.00000000000E+00  0.00000000000E+00  0.37973492479E+03  0.37973493823E+03  0.10100000352E+00 0. -1.
        3   -1    0    0  501    0  0.00000000000E+00  0.00000000000E+00 -0.16999939306E+04  0.16999939336E+04  0.10100000352E+00 0.  1.
    10030    2    1    2    0    0  0.00000000000E+00  0.00000000000E+00 -0.13202590058E+04  0.20797288719E+04  0.16069188959E+04 0.  0.
        3    1    3    3  502    0 -0.97340638639E+02 -0.67602872172E+03 -0.12077862794E+04  0.13875293653E+04  0.10100000352E+00 0.  1.
       -3    1    3    3    0  502  0.97340638639E+02  0.67602872172E+03 -0.11247272641E+03  0.69219950658E+03  0.10100000352E+00 0. -1.
</event>
<event>
 5   0  0.5021349E-04  0.1567878E+04  0.7818609E-02  0.8840529E-01
       -2   -1    0    0    0  501  0.00000000000E+00  0.00000000000E+00  0.12268835570E+04  0.12268835570E+04  0.25500000920E-02 0.  1.
        2   -1    0    0  501    0  0.00000000000E+00  0.00000000000E+00 -0.50091143894E+03  0.50091143895E+03  0.25500000920E-02 0. -1.
    10030    2    1    2    0    0  0.00000000000E+00  0.00000000000E+00  0.72597211802E+03  0.17277949959E+04  0.15678775564E+04 0.  0.
        2    1    3    3  502    0  0.68048802375E+03  0.34129402148E+03  0.56919320566E+03  0.95054009118E+03  0.25500000920E-02 0.  1.
       -2    1    3    3    0  502 -0.68048802375E+03 -0.34129402148E+03  0.15677891236E+03  0.77725490474E+03  0.25500000920E-02 0. -1.
</event>
<event>
 5   0  0.5342255E-04  0.1702594E+04  0.7818609E-02  0.8759886E-01
       -2   -1    0    0    0  501  0.00000000000E+00  0.00000000000E+00  0.27061885476E+03  0.27061885478E+03  0.25500000920E-02 0. -1.
        2   -1    0    0  501    0  0.00000000000E+00  0.00000000000E+00 -0.26779618783E+04  0.26779618783E+04  0.25500000920E-02 0.  1.
    10030    2    1    2    0    0  0.00000000000E+00  0.00000000000E+00 -0.24073430235E+04  0.29485807330E+04  0.17025944633E+04 0.  0.
        5    1    3    3  502    0 -0.63670954790E+03 -0.45648459301E+03 -0.62692819962E+03  0.10034133194E+04  0.46999998093E+01 0. -1.
       -5    1    3    3    0  502  0.63670954790E+03  0.45648459301E+03 -0.17804148239E+04  0.19451674136E+04  0.46999998093E+01 0.  1.
</event>
<event>
 5   0  0.5021349E-04  0.1519152E+04  0.7818609E-02  0.8871816E-01
       -2   -1    0    0    0  501  0.00000000000E+00  0.00000000000E+00  0.71292250365E+03  0.71292250366E+03  0.25500000920E-02 0. -1.
        2   -1    0    0  501    0  0.00000000000E+00  0.00000000000E+00 -0.80928262201E+03  0.80928262202E+03  0.25500000920E-02 0.  1.
    10030    2    1    2    0    0  0.00000000000E+00  0.00000000000E+00 -0.96360118361E+02  0.15222051257E+04  0.15191521228E+04 0.  0.
        2    1    3    3  502    0 -0.55645754620E+03  0.50301851671E+03 -0.16793243247E+03  0.76868324475E+03  0.25500000920E-02 0. -1.
       -2    1    3    3    0  502  0.55645754620E+03 -0.50301851671E+03  0.71572314105E+02  0.75352188092E+03  0.25500000920E-02 0.  1.
</event>
<event>
 5   0  0.5299877E-04  0.1560383E+04  0.7818609E-02  0.8845263E-01
       -2   -1    0    0    0  501  0.00000000000E+00  0.00000000000E+00  0.55225048064E+03  0.55225048064E+03  0.25500000920E-02 0. -1.
        2   -1    0    0  501    0  0.00000000000E+00  0.00000000000E+00 -0.11022147987E+04  0.11022147987E+04  0.25500000920E-02 0.  1.
    10030    2    1    2    0    0  0.00000000000E+00  0.00000000000E+00 -0.54996431807E+03  0.16544652794E+04  0.15603828407E+04 0.  0.
        3    1    3    3  502    0  0.59080218597E+03 -0.22331227526E+03 -0.76061906793E+03  0.98866423620E+03  0.10100000352E+00 0. -1.
       -3    1    3    3    0  502 -0.59080218597E+03  0.22331227526E+03  0.21065474986E+03  0.66580104316E+03  0.10100000352E+00 0.  1.
</event>
<event>
 5   0  0.5299877E-04  0.1717049E+04  0.7818609E-02  0.8751700E-01
       -2   -1    0    0    0  501  0.00000000000E+00  0.00000000000E+00  0.68894879318E+03  0.68894879319E+03  0.25500000920E-02 0. -1.
        2   -1    0    0  501    0  0.00000000000E+00  0.00000000000E+00 -0.10698396156E+04  0.10698396156E+04  0.25500000920E-02 0.  1.
    10030    2    1    2    0    0  0.00000000000E+00  0.00000000000E+00 -0.38089082246E+03  0.17587884088E+04  0.17170494601E+04 0.  0.
        3    1    3    3  502    0 -0.43335581959E+03  0.18074060215E+03  0.54577542409E+03  0.71995503705E+03  0.10100000352E+00 0. -1.
       -3    1    3    3    0  502  0.43335581959E+03 -0.18074060215E+03 -0.92666624655E+03  0.10388333718E+04  0.10100000352E+00 0.  1.
</event>
<event>
 5   0  0.5021349E-04  0.1673512E+04  0.7818609E-02  0.8776617E-01
       -2   -1    0    0    0  501  0.00000000000E+00  0.00000000000E+00  0.52774143145E+03  0.52774143146E+03  0.25500000920E-02 0.  1.
        2   -1    0    0  501    0  0.00000000000E+00  0.00000000000E+00 -0.13267113440E+04  0.13267113440E+04  0.25500000920E-02 0. -1.
    10030    2    1    2    0    0  0.00000000000E+00  0.00000000000E+00 -0.79896991258E+03  0.18544527755E+04  0.16735119286E+04 0.  0.
        2    1    3    3  502    0 -0.53060559824E+03  0.64681860122E+03 -0.41679222429E+03  0.93468302756E+03  0.25500000920E-02 0. -1.
       -2    1    3    3    0  502  0.53060559824E+03 -0.64681860122E+03 -0.38217768829E+03  0.91976974793E+03  0.25500000920E-02 0.  1.
</event>
<event>
 5   0  0.1910750E-04  0.1574198E+04  0.7818609E-02  0.8836558E-01
        3   -1    0    0  501    0  0.00000000000E+00  0.00000000000E+00  0.86563145510E+03  0.86563146100E+03  0.10100000352E+00 0. -1.
       -3   -1    0    0    0  501  0.00000000000E+00  0.00000000000E+00 -0.71569138823E+03  0.71569139536E+03  0.10100000352E+00 0.  1.
    10030    2    1    2    0    0  0.00000000000E+00  0.00000000000E+00  0.14994006687E+03  0.15813228564E+04  0.15741981935E+04 0.  0.
        1    1    3    3  502    0  0.24657460159E+02 -0.32299081612E+03  0.79556872349E+03  0.85898815560E+03  0.50400001928E-02 0. -1.
       -1    1    3    3    0  502 -0.24657460159E+02  0.32299081612E+03 -0.64562865662E+03  0.72233470076E+03  0.50400001928E-02 0.  1.
</event>
<event>
 5   0  0.1910750E-04  0.1694237E+04  0.7818609E-02  0.8764658E-01
       -4   -1    0    0    0  501  0.00000000000E+00  0.00000000000E+00  0.34857852591E+03  0.34858083944E+03  0.12699999809E+01 0.  1.
        4   -1    0    0  501    0  0.00000000000E+00  0.00000000000E+00 -0.20586650415E+04  0.20586654333E+04  0.12699999809E+01 0. -1.
    10030    2    1    2    0    0  0.00000000000E+00  0.00000000000E+00 -0.17100865156E+04  0.24072462727E+04  0.16942369157E+04 0.  0.
        2    1    3    3  502    0 -0.15177428707E+03  0.40538085712E+01  0.32909001212E+03  0.36242530771E+03  0.25500000920E-02 0.  1.
       -2    1    3    3    0  502  0.15177428707E+03 -0.40538085712E+01 -0.20391765278E+04  0.20448209650E+04  0.25500000920E-02 0. -1.
</event>
<event>
 5   0  0.5299877E-04  0.1702741E+04  0.7818609E-02  0.8759803E-01
        2   -1    0    0  501    0  0.00000000000E+00  0.00000000000E+00  0.62170096846E+03  0.62170096847E+03  0.25500000920E-02 0.  1.
       -2   -1    0    0    0  501  0.00000000000E+00  0.00000000000E+00 -0.11658850019E+04  0.11658850019E+04  0.25500000920E-02 0. -1.
    10030    2    1    2    0    0  0.00000000000E+00  0.00000000000E+00 -0.54418403341E+03  0.17875859703E+04  0.17027411251E+04 0.  0.
        3    1    3    3  502    0  0.49519086059E+03  0.29940500991E+03  0.38350414740E+03  0.69421379246E+03  0.10100000352E+00 0.  1.
       -3    1    3    3    0  502 -0.49519086059E+03 -0.29940500991E+03 -0.92768818080E+03  0.10933721779E+04  0.10100000352E+00 0. -1.
</event>
<event>
 5   0  0.2561518E-04  0.1699156E+04  0.7818609E-02  0.8761846E-01
       -1   -1    0    0    0  501  0.00000000000E+00  0.00000000000E+00  0.80163070172E+03  0.80163070173E+03  0.50400001928E-02 0.  1.
        1   -1    0    0  501    0  0.00000000000E+00  0.00000000000E+00 -0.90039276346E+03  0.90039276348E+03  0.50400001928E-02 0. -1.
    10030    2    1    2    0    0  0.00000000000E+00  0.00000000000E+00 -0.98762061746E+02  0.17020234652E+04  0.16991556525E+04 0.  0.
        4    1    3    3  502    0 -0.51229156509E+03 -0.56780807608E+03 -0.42004911133E+03  0.87252021624E+03  0.12699999809E+01 0. -1.
       -4    1    3    3    0  502  0.51229156509E+03  0.56780807608E+03  0.32128704958E+03  0.82950324897E+03  0.12699999809E+01 0.  1.
</event>
<event>
 5   0  0.5310003E-04  0.1697588E+04  0.7818609E-02  0.8762741E-01
        2   -1    0    0  501    0  0.00000000000E+00  0.00000000000E+00  0.22164267155E+04  0.22164267155E+04  0.25500000920E-02 0.  1.
       -2   -1    0    0    0  501  0.00000000000E+00  0.00000000000E+00 -0.32505091856E+03  0.32505091857E+03  0.25500000920E-02 0. -1.
    10030    2    1    2    0    0  0.00000000000E+00  0.00000000000E+00  0.18913757969E+04  0.25414776340E+04  0.16975883362E+04 0.  0.
        1    1    3    3  502    0  0.45928299689E+03 -0.58821409505E+03  0.15510740827E+04  0.17212691547E+04  0.50400001928E-02 0.  1.
       -1    1    3    3    0  502 -0.45928299689E+03  0.58821409505E+03  0.34030171417E+03  0.82020847931E+03  0.50400001928E-02 0. -1.
</event>
<event>
 5   0  0.5021349E-04  0.1721620E+04  0.7818609E-02  0.8749129E-01
       -2   -1    0    0    0  501  0.00000000000E+00  0.00000000000E+00  0.65084974747E+03  0.65084974748E+03  0.25500000920E-02 0.  1.
        2   -1    0    0  501    0  0.00000000000E+00  0.00000000000E+00 -0.11385018060E+04  0.11385018060E+04  0.25500000920E-02 0. -1.
    10030    2    1    2    0    0  0.00000000000E+00  0.00000000000E+00 -0.48765205850E+03  0.17893515535E+04  0.17216197175E+04 0.  0.
        2    1    3    3  502    0  0.55831223249E+03  0.31347559960E+03 -0.84179920374E+03  0.10576414326E+04  0.25500000920E-02 0.  1.
       -2    1    3    3    0  502 -0.55831223249E+03 -0.31347559960E+03  0.35414714524E+03  0.73171012087E+03  0.25500000920E-02 0. -1.
</event>
<event>
 5   0  0.2595644E-04  0.1720373E+04  0.7818609E-02  0.8749830E-01
        1   -1    0    0  501    0  0.00000000000E+00  0.00000000000E+00  0.14458568844E+04  0.14458568844E+04  0.50400001928E-02 0. -1.
       -1   -1    0    0    0  501  0.00000000000E+00  0.00000000000E+00 -0.51175224643E+03  0.51175224646E+03  0.50400001928E-02 0.  1.
    10030    2    1    2    0    0  0.00000000000E+00  0.00000000000E+00  0.93410463800E+03  0.19576091309E+04  0.17203726441E+04 0.  0.
        2    1    3    3  502    0 -0.49346303676E+03  0.24079697373E+03  0.12205021799E+04  0.13383252677E+04  0.25500000920E-02 0. -1.
       -2    1    3    3    0  502  0.49346303676E+03 -0.24079697373E+03 -0.28639754185E+03  0.61928386317E+03  0.25500000920E-02 0.  1.
</event>
<event>
 5   0  0.5342255E-04  0.1698164E+04  0.7818609E-02  0.8762412E-01
        2   -1    0    0  501    0  0.00000000000E+00  0.00000000000E+00  0.10477421337E+04  0.10477421337E+04  0.25500000920E-02 0. -1.
       -2   -1    0    0    0  501  0.00000000000E+00  0.00000000000E+00 -0.68808935227E+03  0.68808935228E+03  0.25500000920E-02 0.  1.
    10030    2    1    2    0    0  0.00000000000E+00  0.00000000000E+00  0.35965278140E+03  0.17358314860E+04  0.16981639569E+04 0.  0.
        5    1    3    3  502    0  0.39376784978E+03  0.48278953386E+03  0.76949236788E+03  0.99009062603E+03  0.46999998093E+01 0. -1.
       -5    1    3    3    0  502 -0.39376784978E+03 -0.48278953386E+03 -0.40983958647E+03  0.74574085993E+03  0.46999998093E+01 0.  1.
</event>
<event>
 5   0  0.2583422E-04  0.1724843E+04  0.7818609E-02  0.8747321E-01
       -1   -1    0    0    0  501  0.00000000000E+00  0.00000000000E+00  0.75301730695E+03  0.75301730696E+03  0.50400001928E-02 0.  1.
        1   -1    0    0  501    0  0.00000000000E+00  0.00000000000E+00 -0.98772048135E+03  0.98772048137E+03  0.50400001928E-02 0. -1.
    10030    2    1    2    0    0  0.00000000000E+00  0.00000000000E+00 -0.23470317441E+03  0.17407377883E+04  0.17248427371E+04 0.  0.
        3    1    3    3  502    0 -0.21655666316E+03  0.50330100250E+03  0.55479032910E+03  0.77974419327E+03  0.10100000352E+00 0.  1.
       -3    1    3    3    0  502  0.21655666316E+03 -0.50330100250E+03 -0.78949350350E+03  0.96099359506E+03  0.10100000352E+00 0. -1.
</event>
<event>
 5   0  0.2583422E-04  0.1706658E+04  0.7818609E-02  0.8757576E-01
        1   -1    0    0  501    0  0.00000000000E+00  0.00000000000E+00  0.76612439705E+03  0.76612439706E+03  0.50400001928E-02 0.  1.
       -1   -1    0    0    0  501  0.00000000000E+00  0.00000000000E+00 -0.95045954707E+03  0.95045954708E+03  0.50400001928E-02 0. -1.
    10030    2    1    2    0    0  0.00000000000E+00  0.00000000000E+00 -0.18433515002E+03  0.17165839441E+04  0.17066578420E+04 0.  0.
        3    1    3    3  502    0  0.52095821633E+03 -0.43662762033E+03 -0.61104498579E+03  0.91401155729E+03  0.10100000352E+00 0. -1.
       -3    1    3    3    0  502 -0.52095821633E+03  0.43662762033E+03  0.42670983577E+03  0.80257238685E+03  0.10100000352E+00 0.  1.
</event>
<event>
 5   0  0.2561518E-04  0.1709889E+04  0.7818609E-02  0.8755744E-01
       -1   -1    0    0    0  501  0.00000000000E+00  0.00000000000E+00  0.51400936839E+03  0.51400936841E+03  0.50400001928E-02 0.  1.
        1   -1    0    0  501    0  0.00000000000E+00  0.00000000000E+00 -0.14220171955E+04  0.14220171955E+04  0.50400001928E-02 0. -1.
    10030    2    1    2    0    0  0.00000000000E+00  0.00000000000E+00 -0.90800782715E+03  0.19360265640E+04  0.17098890731E+04 0.  0.
        4    1    3    3  502    0  0.50534170358E+03 -0.41252853817E+03 -0.10796988130E+04  0.12614678640E+04  0.12699999809E+01 0. -1.
       -4    1    3    3    0  502 -0.50534170358E+03  0.41252853817E+03  0.17169098585E+03  0.67455869997E+03  0.12699999809E+01 0.  1.
</event>
<event>
 5   0  0.5198430E-04  0.1707045E+04  0.7818609E-02  0.8757356E-01
       -2   -1    0    0    0  501  0.00000000000E+00  0.00000000000E+00  0.70608461639E+03  0.70608461640E+03  0.25500000920E-02 0. -1.
        2   -1    0    0  501    0  0.00000000000E+00  0.00000000000E+00 -0.10317470720E+04  0.10317470720E+04  0.25500000920E-02 0.  1.
    10030    2    1    2    0    0  0.00000000000E+00  0.00000000000E+00 -0.32566245557E+03  0.17378316884E+04  0.17070450908E+04 0.  0.
        4    1    3    3  502    0  0.58966136002E+03 -0.59462932776E+03 -0.33077481415E+03  0.90038777619E+03  0.12699999809E+01 0.  1.
       -4    1    3    3    0  502 -0.58966136002E+03  0.59462932776E+03  0.51123585759E+01  0.83744391218E+03  0.12699999809E+01 0. -1.
</event>
<event>
 5   0  0.5021349E-04  0.1703887E+04  0.7818609E-02  0.8759150E-01
        2   -1    0    0  501    0  0.00000000000E+00  0.00000000000E+00  0.17761007458E+04  0.17761007458E+04  0.25500000920E-02 0. -1.
       -2   -1    0    0    0  501  0.00000000000E+00  0.00000000000E+00 -0.40865241067E+03  0.40865241067E+03  0.25500000920E-02 0.  1.
    10030    2    1    2    0    0  0.00000000000E+00  0.00000000000E+00  0.13674483352E+04  0.21847531565E+04  0.17038871458E+04 0.  0.
        2    1    3    3  502    0 -0.20439768020E+03 -0.70864615473E+02 -0.37284730665E+03  0.43106301103E+03  0.25500000920E-02 0.  1.
       -2    1    3    3    0  502  0.20439768020E+03  0.70864615473E+02  0.17402956418E+04  0.17536901455E+04  0.25500000920E-02 0. -1.
</event>
<event>
 5   0  0.5198430E-04  0.1694110E+04  0.7818609E-02  0.8764731E-01
       -2   -1    0    0    0  501  0.00000000000E+00  0.00000000000E+00  0.88465354845E+03  0.88465354846E+03  0.25500000920E-02 0.  1.
        2   -1    0    0  501    0  0.00000000000E+00  0.00000000000E+00 -0.81105476500E+03  0.81105476501E+03  0.25500000920E-02 0. -1.
    10030    2    1    2    0    0  0.00000000000E+00  0.00000000000E+00  0.73598783453E+02  0.16957083135E+04  0.16941103575E+04 0.  0.
        4    1    3    3  502    0  0.66547185444E+03  0.14009108817E+03 -0.46867452825E+03  0.82591508544E+03  0.12699999809E+01 0. -1.
       -4    1    3    3    0  502 -0.66547185444E+03 -0.14009108817E+03  0.54227331170E+03  0.86979322802E+03  0.12699999809E+01 0.  1.
</event>
<event>
 5   0  0.5310003E-04  0.1707591E+04  0.7818609E-02  0.8757047E-01
       -2   -1    0    0    0  501  0.00000000000E+00  0.00000000000E+00  0.46254379084E+03  0.46254379085E+03  0.25500000920E-02 0. -1.
        2   -1    0    0  501    0  0.00000000000E+00  0.00000000000E+00 -0.15759955792E+04  0.15759955792E+04  0.25500000920E-02 0.  1.
    10030    2    1    2    0    0  0.00000000000E+00  0.00000000000E+00 -0.11134517883E+04  0.20385393700E+04  0.17075912503E+04 0.  0.
        1    1    3    3  502    0  0.54853672385E+03 -0.41552600356E+03  0.46606047155E+02  0.68972930973E+03  0.50400001928E-02 0. -1.
       -1    1    3    3    0  502 -0.54853672385E+03  0.41552600356E+03 -0.11600578355E+04  0.13488100603E+04  0.50400001928E-02 0.  1.
</event>
<event>
 5   0  0.5299877E-04  0.1507371E+04  0.7818609E-02  0.8879566E-01
        2   -1    0    0  501    0  0.00000000000E+00  0.00000000000E+00  0.14353762358E+04  0.14353762358E+04  0.25500000920E-02 0.  1.
       -2   -1    0    0    0  501  0.00000000000E+00  0.00000000000E+00 -0.39574408363E+03  0.39574408363E+03  0.25500000920E-02 0. -1.
    10030    2    1    2    0    0  0.00000000000E+00  0.00000000000E+00  0.10396321522E+04  0.18311203194E+04  0.15073707614E+04 0.  0.
        3    1    3    3  502    0  0.57532145723E+03 -0.48682820497E+03  0.51165239003E+03  0.91092516637E+03  0.10100000352E+00 0.  1.
       -3    1    3    3    0  502 -0.57532145723E+03  0.48682820497E+03  0.52797976215E+03  0.92019515307E+03  0.10100000352E+00 0. -1.
</event>
<event>
 5   0  0.2630135E-04  0.1719804E+04  0.7818609E-02  0.8750149E-01
       -1   -1    0    0    0  501  0.00000000000E+00  0.00000000000E+00  0.96969255946E+03  0.96969255947E+03  0.50400001928E-02 0. -1.
        1   -1    0    0  501    0  0.00000000000E+00  0.00000000000E+00 -0.76254205415E+03  0.76254205417E+03  0.50400001928E-02 0.  1.
    10030    2    1    2    0    0  0.00000000000E+00  0.00000000000E+00  0.20715050531E+03  0.17322346136E+04  0.17198038914E+04 0.  0.
        1    1    3    3  502    0  0.25102022940E+03  0.55106179767E+03 -0.51137112774E+03  0.79257850761E+03  0.50400001928E-02 0.  1.
       -1    1    3    3    0  502 -0.25102022940E+03 -0.55106179767E+03  0.71852163305E+03  0.93965610603E+03  0.50400001928E-02 0. -1.
</event>
<event>
 5   0  0.5021349E-04  0.1687699E+04  0.7818609E-02  0.8768412E-01
       -2   -1    0    0    0  501  0.00000000000E+00  0.00000000000E+00  0.38120533200E+03  0.38120533200E+03  0.25500000920E-02 0.  1.
        2   -1    0    0  501    0  0.00000000000E+00  0.00000000000E+00 -0.18679738514E+04  0.18679738514E+04  0.25500000920E-02 0. -1.
    10030    2    1    2    0    0  0.00000000000E+00  0.00000000000E+00 -0.14867685194E+04  0.22491791834E+04  0.16876985420E+04 0.  0.
        2    1    3    3  502    0  0.17301221656E+03  0.57853636429E+03  0.42161725733E+02  0.60532236288E+03  0.25500000920E-02 0.  1.
       -2    1    3    3    0  502 -0.17301221656E+03 -0.57853636429E+03 -0.15289302451E+04  0.16438568205E+04  0.25500000920E-02 0. -1.
</event>
<event>
 5   0  0.2595644E-04  0.1697661E+04  0.7818609E-02  0.8762699E-01
        1   -1    0    0  501    0  0.00000000000E+00  0.00000000000E+00  0.18913085014E+04  0.18913085014E+04  0.50400001928E-02 0.  1.
       -1   -1    0    0    0  501  0.00000000000E+00  0.00000000000E+00 -0.38096037101E+03  0.38096037104E+03  0.50400001928E-02 0. -1.
    10030    2    1    2    0    0  0.00000000000E+00  0.00000000000E+00  0.15103481304E+04  0.22722688724E+04  0.16976614367E+04 0.  0.
        2    1    3    3  502    0 -0.51291083096E+03  0.54339664330E+03  0.12941574232E+04  0.14943897981E+04  0.25500000920E-02 0.  1.
       -2    1    3    3    0  502  0.51291083096E+03 -0.54339664330E+03  0.21619070715E+03  0.77787907436E+03  0.25500000920E-02 0. -1.
</event>
<event>
 5   0  0.5021349E-04  0.1397626E+04  0.7818609E-02  0.8955538E-01
        2   -1    0    0  501    0  0.00000000000E+00  0.00000000000E+00  0.47478298464E+03  0.47478298465E+03  0.25500000920E-02 0. -1.
       -2   -1    0    0    0  501  0.00000000000E+00  0.00000000000E+00 -0.10285540109E+04  0.10285540109E+04  0.25500000920E-02 0.  1.
    10030    2    1    2    0    0  0.00000000000E+00  0.00000000000E+00 -0.55377102624E+03  0.15033369955E+04  0.13976264782E+04 0.  0.
        2    1    3    3  502    0 -0.53251729899E+03  0.30544196132E+02  0.20874028590E+03  0.57278279357E+03  0.25500000920E-02 0. -1.
       -2    1    3    3    0  502  0.53251729899E+03 -0.30544196132E+02 -0.76251131213E+03  0.93055420196E+03  0.25500000920E-02 0.  1.
</event>
<event>
 5   0  0.5198430E-04  0.1669368E+04  0.7818609E-02  0.8779030E-01
       -2   -1    0    0    0  501  0.00000000000E+00  0.00000000000E+00  0.10516340026E+04  0.10516340026E+04  0.25500000920E-02 0. -1.
        2   -1    0    0  501    0  0.00000000000E+00  0.00000000000E+00 -0.66249032410E+03  0.66249032410E+03  0.25500000920E-02 0.  1.
    10030    2    1    2    0    0  0.00000000000E+00  0.00000000000E+00  0.38914367852E+03  0.17141243267E+04  0.16693679657E+04 0.  0.
        4    1    3    3  502    0  0.74618044469E+03 -0.37271340795E+03  0.22696437554E+03  0.86441597692E+03  0.12699999809E+01 0. -1.
       -4    1    3    3    0  502 -0.74618044469E+03  0.37271340795E+03  0.16217930297E+03  0.84970834979E+03  0.12699999809E+01 0.  1.
</event>
<event>
 5   0  0.2630135E-04  0.1726387E+04  0.7818609E-02  0.8746456E-01
        1   -1    0    0  501    0  0.00000000000E+00  0.00000000000E+00  0.26398831856E+04  0.26398831857E+04  0.50400001928E-02 0.  1.
       -1   -1    0    0    0  501  0.00000000000E+00  0.00000000000E+00 -0.28224856913E+03  0.28224856918E+03  0.50400001928E-02 0. -1.
    10030    2    1    2    0    0  0.00000000000E+00  0.00000000000E+00  0.23576346165E+04  0.29221317548E+04  0.17263872704E+04 0.  0.
        1    1    3    3  502    0  0.67665934040E+03  0.40262898192E+03  0.58008303323E+03  0.97799503347E+03  0.50400001928E-02 0. -1.
       -1    1    3    3    0  502 -0.67665934040E+03 -0.40262898192E+03  0.17775515833E+04  0.19441367214E+04  0.50400001928E-02 0.  1.
</event>
<event>
 5   0  0.2583422E-04  0.1687522E+04  0.7818609E-02  0.8768513E-01
        1   -1    0    0  501    0  0.00000000000E+00  0.00000000000E+00  0.70798999954E+03  0.70798999955E+03  0.50400001928E-02 0. -1.
       -1   -1    0    0    0  501  0.00000000000E+00  0.00000000000E+00 -0.10055681829E+04  0.10055681829E+04  0.50400001928E-02 0.  1.
    10030    2    1    2    0    0  0.00000000000E+00  0.00000000000E+00 -0.29757818336E+03  0.17135581825E+04  0.16875215167E+04 0.  0.
        3    1    3    3  502    0  0.94433041262E+02 -0.10840979005E+03  0.69546049059E+03  0.71016588628E+03  0.10100000352E+00 0. -1.
       -3    1    3    3    0  502 -0.94433041262E+02  0.10840979005E+03 -0.99303867395E+03  0.10033922962E+04  0.10100000352E+00 0.  1.
</event>
<event>
 5   0  0.5299877E-04  0.1699379E+04  0.7818609E-02  0.8761719E-01
       -2   -1    0    0    0  501  0.00000000000E+00  0.00000000000E+00  0.36121200137E+03  0.36121200138E+03  0.25500000920E-02 0. -1.
        2   -1    0    0  501    0  0.00000000000E+00  0.00000000000E+00 -0.19987490819E+04  0.19987490819E+04  0.25500000920E-02 0.  1.
    10030    2    1    2    0    0  0.00000000000E+00  0.00000000000E+00 -0.16375370805E+04  0.23599610833E+04  0.16993788937E+04 0.  0.
        3    1    3    3  502    0 -0.62394066699E+03 -0.86865128151E+02 -0.26924662724E+02  0.63053346785E+03  0.10100000352E+00 0. -1.
       -3    1    3    3    0  502  0.62394066699E+03  0.86865128151E+02 -0.16106124178E+04  0.17294276154E+04  0.10100000352E+00 0.  1.
</event>
<event>
 5   0  0.2785059E-04  0.1571658E+04  0.7818609E-02  0.8838151E-01
        1   -1    0    0  501    0  0.00000000000E+00  0.00000000000E+00  0.78914993768E+03  0.78914993769E+03  0.50400001928E-02 0.  1.
       -1   -1    0    0    0  501  0.00000000000E+00  0.00000000000E+00 -0.78252221740E+03  0.78252221742E+03  0.50400001928E-02 0. -1.
    10030    2    1    2    0    0  0.00000000000E+00  0.00000000000E+00  0.66277202711E+01  0.15716721551E+04  0.15716581805E+04 0.  0.
        5    1    3    3  502    0 -0.71642208564E+03  0.31229841394E+03 -0.78628097283E+02  0.78549052943E+03  0.46999998093E+01 0. -1.
       -5    1    3    3    0  502  0.71642208564E+03 -0.31229841394E+03  0.85255817554E+02  0.78618162568E+03  0.46999998093E+01 0.  1.
</event>
<event>
 5   0  0.2561518E-04  0.1743814E+04  0.7818609E-02  0.8736763E-01
       -1   -1    0    0    0  501  0.00000000000E+00  0.00000000000E+00  0.66934707666E+03  0.66934707668E+03  0.50400001928E-02 0.  1.
        1   -1    0    0  501    0  0.00000000000E+00  0.00000000000E+00 -0.11357667788E+04  0.11357667788E+04  0.50400001928E-02 0. -1.
    10030    2    1    2    0    0  0.00000000000E+00  0.00000000000E+00 -0.46641970210E+03  0.18051138555E+04  0.17438144089E+04 0.  0.
        4    1    3    3  502    0  0.44582486646E+03  0.21345876796E+03  0.51029783351E+03  0.71044348752E+03  0.12699999809E+01 0.  1.
       -4    1    3    3    0  502 -0.44582486646E+03 -0.21345876796E+03 -0.97671753561E+03  0.10946703679E+04  0.12699999809E+01 0. -1.
</event>
<event>
 5   0  0.5198430E-04  0.1696737E+04  0.7818609E-02  0.8763227E-01
       -2   -1    0    0    0  501  0.00000000000E+00  0.00000000000E+00  0.12642242592E+04  0.12642242592E+04  0.25500000920E-02 0. -1.
        2   -1    0    0  501    0  0.00000000000E+00  0.00000000000E+00 -0.56930510289E+03  0.56930510290E+03  0.25500000920E-02 0.  1.
    10030    2    1    2    0    0  0.00000000000E+00  0.00000000000E+00  0.69491915633E+03  0.18335293621E+04  0.16967372478E+04 0.  0.
        4    1    3    3  502    0 -0.71932922102E+03  0.12885733433E+03 -0.11819762664E+03  0.74027767268E+03  0.12699999809E+01 0. -1.
       -4    1    3    3    0  502  0.71932922102E+03 -0.12885733433E+03  0.81311678297E+03  0.10932516894E+04  0.12699999809E+01 0.  1.
</event>
<event>
 5   0  0.5310003E-04  0.1928313E+04  0.7818609E-02  0.8640890E-01
       -2   -1    0    0    0  501  0.00000000000E+00  0.00000000000E+00  0.70689188439E+03  0.70689188440E+03  0.25500000920E-02 0. -1.
        2   -1    0    0  501    0  0.00000000000E+00  0.00000000000E+00 -0.13150492719E+04  0.13150492719E+04  0.25500000920E-02 0.  1.
    10030    2    1    2    0    0  0.00000000000E+00  0.00000000000E+00 -0.60815738748E+03  0.20219411563E+04  0.19283128977E+04 0.  0.
        1    1    3    3  502    0 -0.81512082610E+03  0.20732912846E+03 -0.79833655146E+03  0.11596329497E+04  0.50400001928E-02 0.  1.
       -1    1    3    3    0  502  0.81512082610E+03 -0.20732912846E+03  0.19017916398E+03  0.86230820656E+03  0.50400001928E-02 0. -1.
</event>
<event>
 5   0  0.2595644E-04  0.1669468E+04  0.7818609E-02  0.8778972E-01
        1   -1    0    0  501    0  0.00000000000E+00  0.00000000000E+00  0.12782250881E+04  0.12782250881E+04  0.50400001928E-02 0.  1.
       -1   -1    0    0    0  501  0.00000000000E+00  0.00000000000E+00 -0.54511621734E+03  0.54511621737E+03  0.50400001928E-02 0. -1.
    10030    2    1    2    0    0  0.00000000000E+00  0.00000000000E+00  0.73310887076E+03  0.18233413055E+04  0.16694684483E+04 0.  0.
        2    1    3    3  502    0  0.37452612408E+03 -0.70929844971E+03  0.11415445287E+03  0.81018846418E+03  0.25500000920E-02 0.  1.
       -2    1    3    3    0  502 -0.37452612408E+03  0.70929844971E+03  0.61895441789E+03  0.10131528413E+04  0.25500000920E-02 0. -1.
</event>
<event>
 5   0  0.5021349E-04  0.1689632E+04  0.7818609E-02  0.8767300E-01
        2   -1    0    0  501    0  0.00000000000E+00  0.00000000000E+00  0.65437168570E+03  0.65437168570E+03  0.25500000920E-02 0.  1.
       -2   -1    0    0    0  501  0.00000000000E+00  0.00000000000E+00 -0.10906854802E+04  0.10906854802E+04  0.25500000920E-02 0. -1.
    10030    2    1    2    0    0  0.00000000000E+00  0.00000000000E+00 -0.43631379450E+03  0.17450571659E+04  0.16896315530E+04 0.  0.
        2    1    3    3  502    0  0.59152762083E+03  0.12586738725E+03  0.39107994625E+03  0.72020208951E+03  0.25500000920E-02 0.  1.
       -2    1    3    3    0  502 -0.59152762083E+03 -0.12586738725E+03 -0.82739374075E+03  0.10248550764E+04  0.25500000920E-02 0. -1.
</event>
<event>
 5   0  0.5310003E-04  0.1685466E+04  0.7818609E-02  0.8769697E-01
       -2   -1    0    0    0  501  0.00000000000E+00  0.00000000000E+00  0.81677290764E+03  0.81677290765E+03  0.25500000920E-02 0.  1.
        2   -1    0    0  501    0  0.00000000000E+00  0.00000000000E+00 -0.86951840294E+03  0.86951840294E+03  0.25500000920E-02 0. -1.
    10030    2    1    2    0    0  0.00000000000E+00  0.00000000000E+00 -0.52745495294E+02  0.16862913106E+04  0.16854661957E+04 0.  0.
        1    1    3    3  502    0 -0.67447576545E+03  0.50518893118E+03 -0.34479789677E+02  0.84339923541E+03  0.50400001928E-02 0. -1.
       -1    1    3    3    0  502  0.67447576545E+03 -0.50518893118E+03 -0.18265705617E+02  0.84289207518E+03  0.50400001928E-02 0.  1.
</event>
<event>
 5   0  0.5299877E-04  0.1561780E+04  0.7818609E-02  0.8844379E-01
       -2   -1    0    0    0  501  0.00000000000E+00  0.00000000000E+00  0.59585389178E+03  0.59585389179E+03  0.25500000920E-02 0.  1.
        2   -1    0    0  501    0  0.00000000000E+00  0.00000000000E+00 -0.10233865271E+04  0.10233865271E+04  0.25500000920E-02 0. -1.
    10030    2    1    2    0    0  0.00000000000E+00  0.00000000000E+00 -0.42753263536E+03  0.16192404189E+04  0.15617795555E+04 0.  0.
        3    1    3    3  502    0  0.13513979176E+03  0.21014290158E+03 -0.98082841607E+03  0.10121497885E+04  0.10100000352E+00 0. -1.
       -3    1    3    3    0  502 -0.13513979176E+03 -0.21014290158E+03  0.55329578071E+03  0.60709063043E+03  0.10100000352E+00 0.  1.
</event>
<event>
 5   0  0.5021349E-04  0.1737021E+04  0.7818609E-02  0.8740527E-01
       -2   -1    0    0    0  501  0.00000000000E+00  0.00000000000E+00  0.55442398083E+03  0.55442398083E+03  0.25500000920E-02 0.  1.
        2   -1    0    0  501    0  0.00000000000E+00  0.00000000000E+00 -0.13605301088E+04  0.13605301088E+04  0.25500000920E-02 0. -1.
    10030    2    1    2    0    0  0.00000000000E+00  0.00000000000E+00 -0.80610612797E+03  0.19149540896E+04  0.17370210349E+04 0.  0.
        2    1    3    3  502    0 -0.36748296856E+03 -0.33634898283E+03 -0.11873616451E+04  0.12876342830E+04  0.25500000920E-02 0. -1.
       -2    1    3    3    0  502  0.36748296856E+03  0.33634898283E+03  0.38125551715E+03  0.62731980664E+03  0.25500000920E-02 0.  1.
</event>
<event>
 5   0  0.2785059E-04  0.1706853E+04  0.7818609E-02  0.8757465E-01
       -1   -1    0    0    0  501  0.00000000000E+00  0.00000000000E+00  0.97520174514E+03  0.97520174515E+03  0.50400001928E-02 0. -1.
        1   -1    0    0  501    0  0.00000000000E+00  0.00000000000E+00 -0.74685751211E+03  0.74685751213E+03  0.50400001928E-02 0.  1.
    10030    2    1    2    0    0  0.00000000000E+00  0.00000000000E+00  0.22834423302E+03  0.17220592573E+04  0.17068529511E+04 0.  0.
        5    1    3    3  502    0  0.11947529327E+03 -0.74290679513E+03 -0.29206857013E+03  0.80716230809E+03  0.46999998093E+01 0.  1.
       -5    1    3    3    0  502 -0.11947529327E+03  0.74290679513E+03  0.52041280316E+03  0.91489694919E+03  0.46999998093E+01 0. -1.
</event>
<event>
 5   0  0.5198430E-04  0.1723113E+04  0.7818609E-02  0.8748291E-01
        2   -1    0    0  501    0  0.00000000000E+00  0.00000000000E+00  0.57348809666E+03  0.57348809667E+03  0.25500000920E-02 0.  1.
       -2   -1    0    0    0  501  0.00000000000E+00  0.00000000000E+00 -0.12943248533E+04  0.12943248533E+04  0.25500000920E-02 0. -1.
    10030    2    1    2    0    0  0.00000000000E+00  0.00000000000E+00 -0.72083675667E+03  0.18678129500E+04  0.17231133411E+04 0.  0.
        4    1    3    3  502    0  0.84665072296E+03 -0.61939871961E+02 -0.20101759233E+03  0.87238963758E+03  0.12699999809E+01 0. -1.
       -4    1    3    3    0  502 -0.84665072296E+03  0.61939871961E+02 -0.51981916433E+03  0.99542331243E+03  0.12699999809E+01 0.  1.
</event>
<event>
 5   0  0.2583422E-04  0.1543124E+04  0.7818609E-02  0.8856272E-01
       -1   -1    0    0    0  501  0.00000000000E+00  0.00000000000E+00  0.15137173964E+04  0.15137173964E+04  0.50400001928E-02 0.  1.
        1   -1    0    0  501    0  0.00000000000E+00  0.00000000000E+00 -0.39327555505E+03  0.39327555508E+03  0.50400001928E-02 0. -1.
    10030    2    1    2    0    0  0.00000000000E+00  0.00000000000E+00  0.11204418413E+04  0.19069929515E+04  0.15431241678E+04 0.  0.
        3    1    3    3  502    0  0.35433682781E+02  0.58120926943E+03  0.11857949243E+04  0.13210485886E+04  0.10100000352E+00 0.  1.
       -3    1    3    3    0  502 -0.35433682781E+02 -0.58120926943E+03 -0.65353082948E+02  0.58594436288E+03  0.10100000352E+00 0. -1.
</event>
<event>
 5   0  0.2630135E-04  0.1704988E+04  0.7818609E-02  0.8758524E-01
        1   -1    0    0  501    0  0.00000000000E+00  0.00000000000E+00  0.13588640469E+04  0.13588640469E+04  0.50400001928E-02 0.  1.
       -1   -1    0    0    0  501  0.00000000000E+00  0.00000000000E+00 -0.53481901520E+03  0.53481901522E+03  0.50400001928E-02 0. -1.
    10030    2    1    2    0    0  0.00000000000E+00  0.00000000000E+00  0.82404503170E+03  0.18936830621E+04  0.17049883652E+04 0.  0.
        1    1    3    3  502    0  0.27195612805E+03 -0.29065680252E+03 -0.42526871793E+03  0.58249033889E+03  0.50400001928E-02 0. -1.
       -1    1    3    3    0  502 -0.27195612805E+03  0.29065680252E+03  0.12493137496E+04  0.13111927232E+04  0.50400001928E-02 0.  1.
</event>
<event>
 5   0  0.5299877E-04  0.1714435E+04  0.7818609E-02  0.8753174E-01
        2   -1    0    0  501    0  0.00000000000E+00  0.00000000000E+00  0.64213783297E+03  0.64213783298E+03  0.25500000920E-02 0. -1.
       -2   -1    0    0    0  501  0.00000000000E+00  0.00000000000E+00 -0.11443360640E+04  0.11443360640E+04  0.25500000920E-02 0.  1.
    10030    2    1    2    0    0  0.00000000000E+00  0.00000000000E+00 -0.50219823107E+03  0.17864738970E+04  0.17144345778E+04 0.  0.
        3    1    3    3  502    0  0.76937777860E+03  0.31905092394E+03 -0.46231262584E+03  0.95261148034E+03  0.10100000352E+00 0.  1.
       -3    1    3    3    0  502 -0.76937777860E+03 -0.31905092394E+03 -0.39885605232E+02  0.83386241669E+03  0.10100000352E+00 0. -1.
</event>
<event>
 5   0  0.1910750E-04  0.1589436E+04  0.7818609E-02  0.8827064E-01
        3   -1    0    0  501    0  0.00000000000E+00  0.00000000000E+00  0.46622740292E+03  0.46622741386E+03  0.10100000352E+00 0.  1.
       -3   -1    0    0    0  501  0.00000000000E+00  0.00000000000E+00 -0.13546532528E+04  0.13546532565E+04  0.10100000352E+00 0. -1.
    10030    2    1    2    0    0  0.00000000000E+00  0.00000000000E+00 -0.88842584987E+03  0.18208806704E+04  0.15894357254E+04 0.  0.
        2    1    3    3  502    0  0.61728350238E+03 -0.30029376207E+03 -0.90297571461E+03  0.11342752783E+04  0.25500000920E-02 0. -1.
       -2    1    3    3    0  502 -0.61728350238E+03  0.30029376207E+03  0.14549864748E+02  0.68660539207E+03  0.25500000920E-02 0.  1.
</event>
<event>
 5   0  0.2583422E-04  0.1683299E+04  0.7818609E-02  0.8770947E-01
        1   -1    0    0  501    0  0.00000000000E+00  0.00000000000E+00  0.10388320370E+04  0.10388320370E+04  0.50400001928E-02 0. -1.
       -1   -1    0    0    0  501  0.00000000000E+00  0.00000000000E+00 -0.68189464704E+03  0.68189464706E+03  0.50400001928E-02 0.  1.
    10030    2    1    2    0    0  0.00000000000E+00  0.00000000000E+00  0.35693738996E+03  0.17207266841E+04  0.16832991478E+04 0.  0.
        3    1    3    3  502    0  0.61537816823E+03  0.20837832066E+03 -0.36846235254E+03  0.74691119278E+03  0.10100000352E+00 0.  1.
       -3    1    3    3    0  502 -0.61537816823E+03 -0.20837832066E+03  0.72539974250E+03  0.97381549129E+03  0.10100000352E+00 0. -1.
</event>
<event>
 5   0  0.2561518E-04  0.1626830E+04  0.7818609E-02  0.8804233E-01
       -1   -1    0    0    0  501  0.00000000000E+00  0.00000000000E+00  0.30530073497E+03  0.30530073501E+03  0.50400001928E-02 0. -1.
        1   -1    0    0  501    0  0.00000000000E+00  0.00000000000E+00 -0.21671875444E+04  0.21671875445E+04  0.50400001928E-02 0.  1.
    10030    2    1    2    0    0  0.00000000000E+00  0.00000000000E+00 -0.18618868095E+04  0.24724882795E+04  0.16268299852E+04 0.  0.
        4    1    3    3  502    0  0.41860504705E+03 -0.60762031977E+03 -0.41061941688E+03  0.84441847258E+03  0.12699999809E+01 0. -1.
       -4    1    3    3    0  502 -0.41860504705E+03  0.60762031977E+03 -0.14512673926E+04  0.16280698069E+04  0.12699999809E+01 0.  1.
</event>
<event>
 5   0  0.2785059E-04  0.1646203E+04  0.7818609E-02  0.8792656E-01
        1   -1    0    0  501    0  0.00000000000E+00  0.00000000000E+00  0.12586260286E+04  0.12586260286E+04  0.50400001928E-02 0. -1.
       -1   -1    0    0    0  501  0.00000000000E+00  0.00000000000E+00 -0.53828211565E+03  0.53828211567E+03  0.50400001928E-02 0.  1.
    10030    2    1    2    0    0  0.00000000000E+00  0.00000000000E+00  0.72034391292E+03  0.17969081443E+04  0.16462027597E+04 0.  0.
        5    1    3    3  502    0 -0.72686029057E+03  0.13432129061E+03 -0.35061171180E+02  0.74001315316E+03  0.46999998093E+01 0.  1.
       -5    1    3    3    0  502  0.72686029057E+03 -0.13432129061E+03  0.75540508410E+03  0.10568949911E+04  0.46999998093E+01 0. -1.
</event>
<event>
 5   0  0.2561518E-04  0.1699683E+04  0.7818609E-02  0.8761545E-01
       -1   -1    0    0    0  501  0.00000000000E+00  0.00000000000E+00  0.67069832261E+03  0.67069832263E+03  0.50400001928E-02 0. -1.
        1   -1    0    0  501    0  0.00000000000E+00  0.00000000000E+00 -0.10768335039E+04  0.10768335039E+04  0.50400001928E-02 0.  1.
    10030    2    1    2    0    0  0.00000000000E+00  0.00000000000E+00 -0.40613518126E+03  0.17475318265E+04  0.16996828231E+04 0.  0.
        4    1    3    3  502    0  0.41895068240E+03  0.73919965351E+03 -0.18546817126E+03  0.86967571972E+03  0.12699999809E+01 0.  1.
       -4    1    3    3    0  502 -0.41895068240E+03 -0.73919965351E+03 -0.22066701000E+03  0.87785610679E+03  0.12699999809E+01 0. -1.
</event>
<event>
 5   0  0.5299877E-04  0.1681615E+04  0.7818609E-02  0.8771920E-01
        2   -1    0    0  501    0  0.00000000000E+00  0.00000000000E+00  0.95002334584E+03  0.95002334584E+03  0.25500000920E-02 0. -1.
       -2   -1    0    0    0  501  0.00000000000E+00  0.00000000000E+00 -0.74414720965E+03  0.74414720966E+03  0.25500000920E-02 0.  1.
    10030    2    1    2    0    0  0.00000000000E+00  0.00000000000E+00  0.20587613619E+03  0.16941705555E+04  0.16816149642E+04 0.  0.
        3    1    3    3  502    0 -0.75867449792E+02 -0.11321253400E+03 -0.73294597204E+03  0.74550838756E+03  0.10100000352E+00 0.  1.
       -3    1    3    3    0  502  0.75867449792E+02  0.11321253400E+03  0.93882210822E+03  0.94866216794E+03  0.10100000352E+00 0. -1.
</event>
<event>
 5   0  0.2561518E-04  0.1609171E+04  0.7818609E-02  0.8814933E-01
       -1   -1    0    0    0  501  0.00000000000E+00  0.00000000000E+00  0.10261283371E+04  0.10261283372E+04  0.50400001928E-02 0.  1.
        1   -1    0    0  501    0  0.00000000000E+00  0.00000000000E+00 -0.63087434824E+03  0.63087434826E+03  0.50400001928E-02 0. -1.
    10030    2    1    2    0    0  0.00000000000E+00  0.00000000000E+00  0.39525398891E+03  0.16570026854E+04  0.16091712723E+04 0.  0.
        4    1    3    3  502    0  0.23120281330E+03 -0.31442150617E+03 -0.52687809766E+03  0.65568114745E+03  0.12699999809E+01 0. -1.
       -4    1    3    3    0  502 -0.23120281330E+03  0.31442150617E+03  0.92213208657E+03  0.10013215380E+04  0.12699999809E+01 0.  1.
</event>
<event>
 5   0  0.5299877E-04  0.1726424E+04  0.7818609E-02  0.8746436E-01
       -2   -1    0    0    0  501  0.00000000000E+00  0.00000000000E+00  0.46475817317E+03  0.46475817317E+03  0.25500000920E-02 0.  1.
        2   -1    0    0  501    0  0.00000000000E+00  0.00000000000E+00 -0.16032745090E+04  0.16032745090E+04  0.25500000920E-02 0. -1.
    10030    2    1    2    0    0  0.00000000000E+00  0.00000000000E+00 -0.11385163358E+04  0.20680326822E+04  0.17264239710E+04 0.  0.
        3    1    3    3  502    0 -0.51487186528E+03 -0.49569909241E+03  0.10595753896E+02  0.71478871569E+03  0.10100000352E+00 0.  1.
       -3    1    3    3    0  502  0.51487186528E+03  0.49569909241E+03 -0.11491120897E+04  0.13532439665E+04  0.10100000352E+00 0. -1.
</event>
<event>
 5   0  0.5198430E-04  0.2079250E+04  0.7818609E-02  0.8570439E-01
        2   -1    0    0  501    0  0.00000000000E+00  0.00000000000E+00  0.23557454667E+04  0.23557454667E+04  0.25500000920E-02 0.  1.
       -2   -1    0    0    0  501  0.00000000000E+00  0.00000000000E+00 -0.45880170564E+03  0.45880170565E+03  0.25500000920E-02 0. -1.
    10030    2    1    2    0    0  0.00000000000E+00  0.00000000000E+00  0.18969437610E+04  0.28145471723E+04  0.20792499014E+04 0.  0.
        4    1    3    3  502    0  0.36118539376E+03 -0.23402201425E+02 -0.37076126398E+03  0.51813905418E+03  0.12699999809E+01 0. -1.
       -4    1    3    3    0  502 -0.36118539376E+03  0.23402201425E+02  0.22677050250E+04  0.22964081181E+04  0.12699999809E+01 0.  1.
</event>
<event>
 5   0  0.2561518E-04  0.1711895E+04  0.7818609E-02  0.8754609E-01
        1   -1    0    0  501    0  0.00000000000E+00  0.00000000000E+00  0.13600063506E+04  0.13600063506E+04  0.50400001928E-02 0.  1.
       -1   -1    0    0    0  501  0.00000000000E+00  0.00000000000E+00 -0.53870800811E+03  0.53870800813E+03  0.50400001928E-02 0. -1.
    10030    2    1    2    0    0  0.00000000000E+00  0.00000000000E+00  0.82129834250E+03  0.18987143588E+04  0.17118952213E+04 0.  0.
        4    1    3    3  502    0  0.19447481030E+03  0.17123991538E+03  0.13154580562E+04  0.13407367642E+04  0.12699999809E+01 0.  1.
       -4    1    3    3    0  502 -0.19447481030E+03 -0.17123991538E+03 -0.49415971369E+03  0.55797759452E+03  0.12699999809E+01 0. -1.
</event>
<event>
 5   0  0.2630135E-04  0.1707914E+04  0.7818609E-02  0.8756863E-01
        1   -1    0    0  501    0  0.00000000000E+00  0.00000000000E+00  0.82454053644E+03  0.82454053645E+03  0.50400001928E-02 0.  1.
       -1   -1    0    0    0  501  0.00000000000E+00  0.00000000000E+00 -0.88442305798E+03  0.88442305800E+03  0.50400001928E-02 0. -1.
    10030    2    1    2    0    0  0.00000000000E+00  0.00000000000E+00 -0.59882521547E+02  0.17089635945E+04  0.17079141228E+04 0.  0.
        1    1    3    3  502    0  0.83742801104E+03  0.15947972109E+03  0.20321144669E+02  0.85272058968E+03  0.50400001928E-02 0.  1.
       -1    1    3    3    0  502 -0.83742801104E+03 -0.15947972109E+03 -0.80203666217E+02  0.85624300477E+03  0.50400001928E-02 0. -1.
</event>
<event>
 5   0  0.5021349E-04  0.1715220E+04  0.7818609E-02  0.8752731E-01
       -2   -1    0    0    0  501  0.00000000000E+00  0.00000000000E+00  0.48292595121E+03  0.48292595122E+03  0.25500000920E-02 0. -1.
        2   -1    0    0  501    0  0.00000000000E+00  0.00000000000E+00 -0.15229978533E+04  0.15229978533E+04  0.25500000920E-02 0.  1.
    10030    2    1    2    0    0  0.00000000000E+00  0.00000000000E+00 -0.10400719021E+04  0.20059238045E+04  0.17152203205E+04 0.  0.
        2    1    3    3  502    0 -0.23550216832E+03  0.32349190514E+03  0.36706798281E+03  0.54299833148E+03  0.25500000920E-02 0. -1.
       -2    1    3    3    0  502  0.23550216832E+03 -0.32349190514E+03 -0.14071398849E+04  0.14629254730E+04  0.25500000920E-02 0.  1.
</event>
<event>
 5   0  0.5299877E-04  0.1682847E+04  0.7818609E-02  0.8771208E-01
       -2   -1    0    0    0  501  0.00000000000E+00  0.00000000000E+00  0.70528108764E+03  0.70528108764E+03  0.25500000920E-02 0. -1.
        2   -1    0    0  501    0  0.00000000000E+00  0.00000000000E+00 -0.10038464056E+04  0.10038464056E+04  0.25500000920E-02 0.  1.
    10030    2    1    2    0    0  0.00000000000E+00  0.00000000000E+00 -0.29856531793E+03  0.17091274932E+04  0.16828474497E+04 0.  0.
        3    1    3    3  502    0 -0.78964393994E+03  0.27322485072E+03 -0.48718664197E+02  0.83699634968E+03  0.10100000352E+00 0. -1.
       -3    1    3    3    0  502  0.78964393994E+03 -0.27322485072E+03 -0.24984665373E+03  0.87213114353E+03  0.10100000352E+00 0.  1.
</event>
<event>
 5   0  0.2561518E-04  0.1691376E+04  0.7818609E-02  0.8766298E-01
        1   -1    0    0  501    0  0.00000000000E+00  0.00000000000E+00  0.50559746681E+03  0.50559746683E+03  0.50400001928E-02 0. -1.
       -1   -1    0    0    0  501  0.00000000000E+00  0.00000000000E+00 -0.14145415180E+04  0.14145415180E+04  0.50400001928E-02 0.  1.
    10030    2    1    2    0    0  0.00000000000E+00  0.00000000000E+00 -0.90894405120E+03  0.19201389848E+04  0.16913764906E+04 0.  0.
        4    1    3    3  502    0  0.35274018185E+03 -0.38081316054E+03 -0.12124114425E+04  0.13188583768E+04  0.12699999809E+01 0.  1.
       -4    1    3    3    0  502 -0.35274018185E+03  0.38081316054E+03  0.30346739133E+03  0.60128060806E+03  0.12699999809E+01 0. -1.
</event>
<event>
 5   0  0.2595644E-04  0.1713598E+04  0.7818609E-02  0.8753647E-01
        1   -1    0    0  501    0  0.00000000000E+00  0.00000000000E+00  0.16598241269E+04  0.16598241270E+04  0.50400001928E-02 0. -1.
       -1   -1    0    0    0  501  0.00000000000E+00  0.00000000000E+00 -0.44227856285E+03  0.44227856287E+03  0.50400001928E-02 0.  1.
    10030    2    1    2    0    0  0.00000000000E+00  0.00000000000E+00  0.12175455641E+04  0.21021026898E+04  0.17135981203E+04 0.  0.
        2    1    3    3  502    0  0.46266409449E+03  0.21167345268E+03 -0.23689904442E+03  0.56123513090E+03  0.25500000920E-02 0.  1.
       -2    1    3    3    0  502 -0.46266409449E+03 -0.21167345268E+03  0.14544446085E+04  0.15408675589E+04  0.25500000920E-02 0. -1.
</event>
<event>
 5   0  0.2630135E-04  0.1712522E+04  0.7818609E-02  0.8754254E-01
        1   -1    0    0  501    0  0.00000000000E+00  0.00000000000E+00  0.73941137694E+03  0.73941137696E+03  0.50400001928E-02 0. -1.
       -1   -1    0    0    0  501  0.00000000000E+00  0.00000000000E+00 -0.99157700769E+03  0.99157700770E+03  0.50400001928E-02 0.  1.
    10030    2    1    2    0    0  0.00000000000E+00  0.00000000000E+00 -0.25216563075E+03  0.17309883847E+04  0.17125224911E+04 0.  0.
        1    1    3    3  502    0 -0.46802949757E+03  0.31514049805E+03  0.52492583410E+03  0.77065704138E+03  0.50400001928E-02 0. -1.
       -1    1    3    3    0  502  0.46802949757E+03 -0.31514049805E+03 -0.77709146485E+03  0.96033134327E+03  0.50400001928E-02 0.  1.
</event>
<event>
 5   0  0.5021349E-04  0.1913248E+04  0.7818609E-02  0.8648290E-01
       -2   -1    0    0    0  501  0.00000000000E+00  0.00000000000E+00  0.10169305803E+04  0.10169305803E+04  0.25500000920E-02 0.  1.
        2   -1    0    0  501    0  0.00000000000E+00  0.00000000000E+00 -0.89989336941E+03  0.89989336941E+03  0.25500000920E-02 0. -1.
    10030    2    1    2    0    0  0.00000000000E+00  0.00000000000E+00  0.11703721092E+03  0.19168239497E+04  0.19132475913E+04 0.  0.
        2    1    3    3  502    0  0.74802402936E+03  0.57024545962E+03  0.23322706419E+03  0.96907930336E+03  0.25500000920E-02 0.  1.
       -2    1    3    3    0  502 -0.74802402936E+03 -0.57024545962E+03 -0.11618985327E+03  0.94774464638E+03  0.25500000920E-02 0. -1.
</event>
<event>
 5   0  0.2785059E-04  0.1709824E+04  0.7818609E-02  0.8755781E-01
        1   -1    0    0  501    0  0.00000000000E+00  0.00000000000E+00  0.10802938187E+04  0.10802938187E+04  0.50400001928E-02 0. -1.
       -1   -1    0    0    0  501  0.00000000000E+00  0.00000000000E+00 -0.67655134759E+03  0.67655134761E+03  0.50400001928E-02 0.  1.
    10030    2    1    2    0    0  0.00000000000E+00  0.00000000000E+00  0.40374247110E+03  0.17568451663E+04  0.17098236621E+04 0.  0.
        5    1    3    3  502    0 -0.72913693852E+03  0.16905368816E+03  0.62630782726E+03  0.97596281132E+03  0.46999998093E+01 0.  1.
       -5    1    3    3    0  502  0.72913693852E+03 -0.16905368816E+03 -0.22256535616E+03  0.78088235500E+03  0.46999998093E+01 0. -1.
</event>
<event>
 5   0  0.2583422E-04  0.1679263E+04  0.7818609E-02  0.8773281E-01
        1   -1    0    0  501    0  0.00000000000E+00  0.00000000000E+00  0.15988553386E+04  0.15988553386E+04  0.50400001928E-02 0. -1.
       -1   -1    0    0    0  501  0.00000000000E+00  0.00000000000E+00 -0.44092865566E+03  0.44092865569E+03  0.50400001928E-02 0.  1.
    10030    2    1    2    0    0  0.00000000000E+00  0.00000000000E+00  0.11579266829E+04  0.20397839943E+04  0.16792630944E+04 0.  0.
        3    1    3    3  502    0 -0.45276042502E+03  0.53946337066E+03  0.23691386990E+02  0.70468008540E+03  0.10100000352E+00 0.  1.
       -3    1    3    3    0  502  0.45276042502E+03 -0.53946337066E+03  0.11342352959E+04  0.13351039089E+04  0.10100000352E+00 0. -1.
</event>
<event>
 5   0  0.5299877E-04  0.1704044E+04  0.7818609E-02  0.8759061E-01
        2   -1    0    0  501    0  0.00000000000E+00  0.00000000000E+00  0.18351376952E+04  0.18351376952E+04  0.25500000920E-02 0. -1.
       -2   -1    0    0    0  501  0.00000000000E+00  0.00000000000E+00 -0.39557874572E+03  0.39557874573E+03  0.25500000920E-02 0.  1.
    10030    2    1    2    0    0  0.00000000000E+00  0.00000000000E+00  0.14395589495E+04  0.22307164410E+04  0.17040439756E+04 0.  0.
        3    1    3    3  502    0 -0.47391184673E+01 -0.22059004060E+03  0.17970901733E+04  0.18105843053E+04  0.10100000352E+00 0. -1.
       -3    1    3    3    0  502  0.47391184673E+01  0.22059004060E+03 -0.35753122380E+03  0.42013213570E+03  0.10100000352E+00 0.  1.
</event>
<event>
 5   0  0.5299877E-04  0.1679072E+04  0.7818609E-02  0.8773391E-01
        2   -1    0    0  501    0  0.00000000000E+00  0.00000000000E+00  0.63599076934E+03  0.63599076934E+03  0.25500000920E-02 0. -1.
       -2   -1    0    0    0  501  0.00000000000E+00  0.00000000000E+00 -0.11082253250E+04  0.11082253250E+04  0.25500000920E-02 0.  1.
    10030    2    1    2    0    0  0.00000000000E+00  0.00000000000E+00 -0.47223455570E+03  0.17442160944E+04  0.16790724548E+04 0.  0.
        3    1    3    3  502    0 -0.53327686652E+02  0.56892556868E+03  0.40280723773E+03  0.69912361269E+03  0.10100000352E+00 0. -1.
       -3    1    3    3    0  502  0.53327686652E+02 -0.56892556868E+03 -0.87504179342E+03  0.10450924817E+04  0.10100000352E+00 0.  1.
</event>
<event>
 5   0  0.2630135E-04  0.1705906E+04  0.7818609E-02  0.8758003E-01
        1   -1    0    0  501    0  0.00000000000E+00  0.00000000000E+00  0.12483202215E+04  0.12483202215E+04  0.50400001928E-02 0.  1.
       -1   -1    0    0    0  501  0.00000000000E+00  0.00000000000E+00 -0.58280612980E+03  0.58280612982E+03  0.50400001928E-02 0. -1.
    10030    2    1    2    0    0  0.00000000000E+00  0.00000000000E+00  0.66551409174E+03  0.18311263514E+04  0.17059058322E+04 0.  0.
        1    1    3    3  502    0  0.35422218201E+03 -0.27777988818E+03 -0.44491935587E+03  0.63292041661E+03  0.50400001928E-02 0. -1.
       -1    1    3    3    0  502 -0.35422218201E+03  0.27777988818E+03  0.11104334476E+04  0.11982059348E+04  0.50400001928E-02 0.  1.
</event>
<event>
 5   0  0.5310003E-04  0.1722468E+04  0.7818609E-02  0.8748653E-01
        2   -1    0    0  501    0  0.00000000000E+00  0.00000000000E+00  0.85034361268E+03  0.85034361269E+03  0.25500000920E-02 0.  1.
       -2   -1    0    0    0  501  0.00000000000E+00  0.00000000000E+00 -0.87226370566E+03  0.87226370566E+03  0.25500000920E-02 0. -1.
    10030    2    1    2    0    0  0.00000000000E+00  0.00000000000E+00 -0.21920092975E+02  0.17226073184E+04  0.17224678467E+04 0.  0.
        1    1    3    3  502    0  0.48983297898E+03  0.16356393674E+03  0.67832312759E+03  0.85253256486E+03  0.50400001928E-02 0.  1.
       -1    1    3    3    0  502 -0.48983297898E+03 -0.16356393674E+03 -0.70024322056E+03  0.87007475349E+03  0.50400001928E-02 0. -1.
</event>
<event>
 5   0  0.2595644E-04  0.1670370E+04  0.7818609E-02  0.8778446E-01
       -1   -1    0    0    0  501  0.00000000000E+00  0.00000000000E+00  0.82283700509E+03  0.82283700511E+03  0.50400001928E-02 0.  1.
        1   -1    0    0  501    0  0.00000000000E+00  0.00000000000E+00 -0.84771852052E+03  0.84771852053E+03  0.50400001928E-02 0. -1.
    10030    2    1    2    0    0  0.00000000000E+00  0.00000000000E+00 -0.24881515423E+02  0.16705555256E+04  0.16703702208E+04 0.  0.
        2    1    3    3  502    0 -0.24897327696E+03  0.42916899024E+03 -0.68434893890E+03  0.84528526842E+03  0.25500000920E-02 0. -1.
       -2    1    3    3    0  502  0.24897327696E+03 -0.42916899024E+03  0.65946742348E+03  0.82527025722E+03  0.25500000920E-02 0.  1.
</event>
<event>
 5   0  0.2630135E-04  0.1726162E+04  0.7818609E-02  0.8746582E-01
       -1   -1    0    0    0  501  0.00000000000E+00  0.00000000000E+00  0.69658469658E+03  0.69658469660E+03  0.50400001928E-02 0.  1.
        1   -1    0    0  501    0  0.00000000000E+00  0.00000000000E+00 -0.10693728011E+04  0.10693728011E+04  0.50400001928E-02 0. -1.
    10030    2    1    2    0    0  0.00000000000E+00  0.00000000000E+00 -0.37278810453E+03  0.17659574977E+04  0.17261619023E+04 0.  0.
        1    1    3    3  502    0 -0.59419181392E+03  0.52812983159E+03 -0.53018248861E+03  0.95555141253E+03  0.50400001928E-02 0. -1.
       -1    1    3    3    0  502  0.59419181392E+03 -0.52812983159E+03  0.15739438408E+03  0.81040608519E+03  0.50400001928E-02 0.  1.
</event>
<event>
 5   0  0.1910750E-04  0.1678477E+04  0.7818609E-02  0.8773736E-01
        4   -1    0    0  501    0  0.00000000000E+00  0.00000000000E+00  0.73575261341E+03  0.73575370950E+03  0.12699999809E+01 0.  1.
       -4   -1    0    0    0  501  0.00000000000E+00  0.00000000000E+00 -0.95727770857E+03  0.95727855101E+03  0.12699999809E+01 0. -1.
    10030    2    1    2    0    0  0.00000000000E+00  0.00000000000E+00 -0.22152509516E+03  0.16930322605E+04  0.16784769487E+04 0.  0.
        1    1    3    3  502    0 -0.29925108888E+03 -0.37507470643E+03 -0.80527458387E+03  0.93738967621E+03  0.50400001928E-02 0. -1.
       -1    1    3    3    0  502  0.29925108888E+03  0.37507470643E+03  0.58374948872E+03  0.75564258430E+03  0.50400001928E-02 0.  1.
</event>
<event>
 5   0  0.5310003E-04  0.1706576E+04  0.7818609E-02  0.8757623E-01
        2   -1    0    0  501    0  0.00000000000E+00  0.00000000000E+00  0.17476617283E+04  0.17476617283E+04  0.25500000920E-02 0.  1.
       -2   -1    0    0    0  501  0.00000000000E+00  0.00000000000E+00 -0.41661395748E+03  0.41661395749E+03  0.25500000920E-02 0. -1.
    10030    2    1    2    0    0  0.00000000000E+00  0.00000000000E+00  0.13310477709E+04  0.21642756858E+04  0.17065758336E+04 0.  0.
        1    1    3    3  502    0  0.30275742671E+03  0.51288490602E+03 -0.10941374443E+03  0.60554467527E+03  0.50400001928E-02 0. -1.
       -1    1    3    3    0  502 -0.30275742671E+03 -0.51288490602E+03  0.14404615153E+04  0.15587310106E+04  0.50400001928E-02 0.  1.
</event>
<event>
 5   0  0.2595644E-04  0.1711420E+04  0.7818609E-02  0.8754878E-01
        1   -1    0    0  501    0  0.00000000000E+00  0.00000000000E+00  0.14249675826E+04  0.14249675826E+04  0.50400001928E-02 0. -1.
       -1   -1    0    0    0  501  0.00000000000E+00  0.00000000000E+00 -0.51386402937E+03  0.51386402940E+03  0.50400001928E-02 0.  1.
    10030    2    1    2    0    0  0.00000000000E+00  0.00000000000E+00  0.91110355324E+03  0.19388316120E+04  0.17114199762E+04 0.  0.
        2    1    3    3  502    0 -0.62998239691E+03  0.37804325432E+03 -0.41425898700E+02  0.73587405692E+03  0.25500000920E-02 0.  1.
       -2    1    3    3    0  502  0.62998239691E+03 -0.37804325432E+03  0.95252945194E+03  0.12029575551E+04  0.25500000920E-02 0. -1.
</event>
<event>
 5   0  0.2595644E-04  0.1702495E+04  0.7818609E-02  0.8759943E-01
        1   -1    0    0  501    0  0.00000000000E+00  0.00000000000E+00  0.12601515114E+04  0.12601515114E+04  0.50400001928E-02 0. -1.
       -1   -1    0    0    0  501  0.00000000000E+00  0.00000000000E+00 -0.57502767276E+03  0.57502767278E+03  0.50400001928E-02 0.  1.
    10030    2    1    2    0    0  0.00000000000E+00  0.00000000000E+00  0.68512383860E+03  0.18351791841E+04  0.17024946296E+04 0.  0.
        2    1    3    3  502    0  0.76217536346E+03  0.13011966159E+03 -0.41249045944E+02  0.77430219863E+03  0.25500000920E-02 0.  1.
       -2    1    3    3    0  502 -0.76217536346E+03 -0.13011966159E+03  0.72637288455E+03  0.10608769855E+04  0.25500000920E-02 0. -1.
</event>
<event>
 5   0  0.5021349E-04  0.1421950E+04  0.7818609E-02  0.8938081E-01
       -2   -1    0    0    0  501  0.00000000000E+00  0.00000000000E+00  0.72314353604E+03  0.72314353604E+03  0.25500000920E-02 0.  1.
        2   -1    0    0  501    0  0.00000000000E+00  0.00000000000E+00 -0.69901155842E+03  0.69901155842E+03  0.25500000920E-02 0. -1.
    10030    2    1    2    0    0  0.00000000000E+00  0.00000000000E+00  0.24131977619E+02  0.14221550945E+04  0.14219503368E+04 0.  0.
        2    1    3    3  502    0 -0.24832655461E+03 -0.17379253268E+03  0.65528826455E+03  0.72199212724E+03  0.25500000920E-02 0.  1.
       -2    1    3    3    0  502  0.24832655461E+03  0.17379253268E+03 -0.63115628693E+03  0.70016296722E+03  0.25500000920E-02 0. -1.
</event>
<event>
 5   0  0.1910750E-04  0.1695325E+04  0.7818609E-02  0.8764035E-01
        3   -1    0    0  501    0  0.00000000000E+00  0.00000000000E+00  0.54316348186E+03  0.54316349125E+03  0.10100000352E+00 0.  1.
       -3   -1    0    0    0  501  0.00000000000E+00  0.00000000000E+00 -0.13228652525E+04  0.13228652563E+04  0.10100000352E+00 0. -1.
    10030    2    1    2    0    0  0.00000000000E+00  0.00000000000E+00 -0.77970177061E+03  0.18660287476E+04  0.16953254660E+04 0.  0.
        5    1    3    3  502    0  0.51595996906E+03  0.15539695746E+03 -0.11100652104E+04  0.12339488504E+04  0.46999998093E+01 0. -1.
       -5    1    3    3    0  502 -0.51595996906E+03 -0.15539695746E+03  0.33036343980E+03  0.63207989718E+03  0.46999998093E+01 0.  1.
</event>
<event>
 5   0  0.2583422E-04  0.1808597E+04  0.7818609E-02  0.8701741E-01
        1   -1    0    0  501    0  0.00000000000E+00  0.00000000000E+00  0.15407653379E+04  0.15407653379E+04  0.50400001928E-02 0. -1.
       -1   -1    0    0    0  501  0.00000000000E+00  0.00000000000E+00 -0.53074619876E+03  0.53074619879E+03  0.50400001928E-02 0.  1.
    10030    2    1    2    0    0  0.00000000000E+00  0.00000000000E+00  0.10100191392E+04  0.20715115367E+04  0.18085965236E+04 0.  0.
        3    1    3    3  502    0  0.18150033162E+03 -0.49925483996E+03  0.13432116723E+04  0.14444429281E+04  0.10100000352E+00 0. -1.
       -3    1    3    3    0  502 -0.18150033162E+03  0.49925483996E+03 -0.33319253316E+03  0.62706860865E+03  0.10100000352E+00 0.  1.
</event>
<event>
 5   0  0.5342255E-04  0.1677251E+04  0.7818609E-02  0.8774446E-01
       -2   -1    0    0    0  501  0.00000000000E+00  0.00000000000E+00  0.22016064457E+03  0.22016064459E+03  0.25500000920E-02 0.  1.
        2   -1    0    0  501    0  0.00000000000E+00  0.00000000000E+00 -0.31944540333E+04  0.31944540333E+04  0.25500000920E-02 0. -1.
    10030    2    1    2    0    0  0.00000000000E+00  0.00000000000E+00 -0.29742933887E+04  0.34146146779E+04  0.16772513933E+04 0.  0.
        5    1    3    3  502    0  0.21327136813E+03 -0.66326860291E+02 -0.31327638247E+04  0.31407188986E+04  0.46999998093E+01 0. -1.
       -5    1    3    3    0  502 -0.21327136813E+03  0.66326860291E+02  0.15847043593E+03  0.27389577930E+03  0.46999998093E+01 0.  1.
</event>
<event>
 5   0  0.2583422E-04  0.1713378E+04  0.7818609E-02  0.8753771E-01
       -1   -1    0    0    0  501  0.00000000000E+00  0.00000000000E+00  0.10378746658E+04  0.10378746658E+04  0.50400001928E-02 0.  1.
        1   -1    0    0  501    0  0.00000000000E+00  0.00000000000E+00 -0.70713395721E+03  0.70713395723E+03  0.50400001928E-02 0. -1.
    10030    2    1    2    0    0  0.00000000000E+00  0.00000000000E+00  0.33074070860E+03  0.17450086231E+04  0.17133784399E+04 0.  0.
        3    1    3    3  502    0 -0.79956324772E+03  0.30750040868E+03  0.15757923643E+03  0.87102761977E+03  0.10100000352E+00 0. -1.
       -3    1    3    3    0  502  0.79956324772E+03 -0.30750040868E+03  0.17316147218E+03  0.87398100328E+03  0.10100000352E+00 0.  1.
</event>
<event>
 5   0  0.5021349E-04  0.1608733E+04  0.7818609E-02  0.8815201E-01
       -2   -1    0    0    0  501  0.00000000000E+00  0.00000000000E+00  0.57070291941E+03  0.57070291942E+03  0.25500000920E-02 0.  1.
        2   -1    0    0  501    0  0.00000000000E+00  0.00000000000E+00 -0.11336991754E+04  0.11336991755E+04  0.25500000920E-02 0. -1.
    10030    2    1    2    0    0  0.00000000000E+00  0.00000000000E+00 -0.56299625604E+03  0.17044020949E+04  0.16087329538E+04 0.  0.
        2    1    3    3  502    0  0.45182797154E+03  0.23885041294E+03  0.37657381386E+03  0.63482743554E+03  0.25500000920E-02 0.  1.
       -2    1    3    3    0  502 -0.45182797154E+03 -0.23885041294E+03 -0.93957006989E+03  0.10695746593E+04  0.25500000920E-02 0. -1.
</event>
<event>
 5   0  0.5021349E-04  0.1732370E+04  0.7818609E-02  0.8743115E-01
       -2   -1    0    0    0  501  0.00000000000E+00  0.00000000000E+00  0.89638527823E+03  0.89638527823E+03  0.25500000920E-02 0. -1.
        2   -1    0    0  501    0  0.00000000000E+00  0.00000000000E+00 -0.83700188473E+03  0.83700188473E+03  0.25500000920E-02 0.  1.
    10030    2    1    2    0    0  0.00000000000E+00  0.00000000000E+00  0.59383393501E+02  0.17333871630E+04  0.17323696688E+04 0.  0.
        2    1    3    3  502    0  0.46168274490E+03  0.72883596854E+03 -0.47316753754E+02  0.86405538085E+03  0.25500000920E-02 0. -1.
       -2    1    3    3    0  502 -0.46168274490E+03 -0.72883596854E+03  0.10670014725E+03  0.86933178212E+03  0.25500000920E-02 0.  1.
</event>
<event>
 5   0  0.2630135E-04  0.1802380E+04  0.7818609E-02  0.8705035E-01
       -1   -1    0    0    0  501  0.00000000000E+00  0.00000000000E+00  0.79082567770E+03  0.79082567772E+03  0.50400001928E-02 0.  1.
        1   -1    0    0  501    0  0.00000000000E+00  0.00000000000E+00 -0.10269567226E+04  0.10269567226E+04  0.50400001928E-02 0. -1.
    10030    2    1    2    0    0  0.00000000000E+00  0.00000000000E+00 -0.23613104488E+03  0.18177824003E+04  0.18023803662E+04 0.  0.
        1    1    3    3  502    0  0.21283025261E+03 -0.42347804831E+03 -0.89110971943E+03  0.10093101138E+04  0.50400001928E-02 0. -1.
       -1    1    3    3    0  502 -0.21283025261E+03  0.42347804831E+03  0.65497867456E+03  0.80847228646E+03  0.50400001928E-02 0.  1.
</event>
<event>
 5   0  0.5299877E-04  0.1494203E+04  0.7818609E-02  0.8888317E-01
        2   -1    0    0  501    0  0.00000000000E+00  0.00000000000E+00  0.81195040145E+03  0.81195040146E+03  0.25500000920E-02 0.  1.
       -2   -1    0    0    0  501  0.00000000000E+00  0.00000000000E+00 -0.68743235561E+03  0.68743235561E+03  0.25500000920E-02 0. -1.
    10030    2    1    2    0    0  0.00000000000E+00  0.00000000000E+00  0.12451804585E+03  0.14993827571E+04  0.14942034361E+04 0.  0.
        3    1    3    3  502    0 -0.16040980044E+03 -0.26782189198E+03  0.74336141342E+03  0.80625434638E+03  0.10100000352E+00 0.  1.
       -3    1    3    3    0  502  0.16040980044E+03  0.26782189198E+03 -0.61884336757E+03  0.69312841068E+03  0.10100000352E+00 0. -1.
</event>
<event>
 5   0  0.5021349E-04  0.1800017E+04  0.7818609E-02  0.8706291E-01
        2   -1    0    0  501    0  0.00000000000E+00  0.00000000000E+00  0.13151963254E+04  0.13151963254E+04  0.25500000920E-02 0.  1.
       -2   -1    0    0    0  501  0.00000000000E+00  0.00000000000E+00 -0.61588910526E+03  0.61588910526E+03  0.25500000920E-02 0. -1.
    10030    2    1    2    0    0  0.00000000000E+00  0.00000000000E+00  0.69930722017E+03  0.19310854307E+04  0.18000167645E+04 0.  0.
        2    1    3    3  502    0 -0.31779613364E+03 -0.74602101951E+03 -0.69257520618E+02  0.81384172188E+03  0.25500000920E-02 0. -1.
       -2    1    3    3    0  502  0.31779613364E+03  0.74602101951E+03  0.76856474079E+03  0.11172437088E+04  0.25500000920E-02 0.  1.
</event>
<event>
 5   0  0.2583422E-04  0.1700660E+04  0.7818609E-02  0.8760988E-01
       -1   -1    0    0    0  501  0.00000000000E+00  0.00000000000E+00  0.79090869194E+03  0.79090869195E+03  0.50400001928E-02 0.  1.
        1   -1    0    0  501    0  0.00000000000E+00  0.00000000000E+00 -0.91421533377E+03  0.91421533379E+03  0.50400001928E-02 0. -1.
    10030    2    1    2    0    0  0.00000000000E+00  0.00000000000E+00 -0.12330664184E+03  0.17051240257E+04  0.17006597000E+04 0.  0.
        3    1    3    3  502    0 -0.21771049183E+03  0.25646570805E+03 -0.84465683929E+03  0.90918518687E+03  0.10100000352E+00 0. -1.
       -3    1    3    3    0  502  0.21771049183E+03 -0.25646570805E+03  0.72135019745E+03  0.79593883887E+03  0.10100000352E+00 0.  1.
</event>
<event>
 5   0  0.2583422E-04  0.1690083E+04  0.7818609E-02  0.8767041E-01
       -1   -1    0    0    0  501  0.00000000000E+00  0.00000000000E+00  0.91102928596E+03  0.91102928598E+03  0.50400001928E-02 0.  1.
        1   -1    0    0  501    0  0.00000000000E+00  0.00000000000E+00 -0.78383328941E+03  0.78383328942E+03  0.50400001928E-02 0. -1.
    10030    2    1    2    0    0  0.00000000000E+00  0.00000000000E+00  0.12719599656E+03  0.16948625754E+04  0.16900829352E+04 0.  0.
        3    1    3    3  502    0  0.42337202476E+03 -0.19861268630E+03 -0.64224208263E+03  0.79445942213E+03  0.10100000352E+00 0. -1.
       -3    1    3    3    0  502 -0.42337202476E+03  0.19861268630E+03  0.76943807919E+03  0.90040315327E+03  0.10100000352E+00 0.  1.
</event>
<event>
 5   0  0.2561518E-04  0.1680746E+04  0.7818609E-02  0.8772423E-01
       -1   -1    0    0    0  501  0.00000000000E+00  0.00000000000E+00  0.56615904776E+03  0.56615904779E+03  0.50400001928E-02 0.  1.
        1   -1    0    0  501    0  0.00000000000E+00  0.00000000000E+00 -0.12473994317E+04  0.12473994317E+04  0.50400001928E-02 0. -1.
    10030    2    1    2    0    0  0.00000000000E+00  0.00000000000E+00 -0.68124038393E+03  0.18135584795E+04  0.16807456375E+04 0.  0.
        4    1    3    3  502    0  0.51472833155E+02  0.15307031004E+03 -0.12304978253E+04  0.12410505563E+04  0.12699999809E+01 0. -1.
       -4    1    3    3    0  502 -0.51472833155E+02 -0.15307031004E+03  0.54925744134E+03  0.57250792320E+03  0.12699999809E+01 0.  1.
</event>
<event>
 5   0  0.5299877E-04  0.1822445E+04  0.7818609E-02  0.8694454E-01
       -2   -1    0    0    0  501  0.00000000000E+00  0.00000000000E+00  0.13700445846E+04  0.13700445846E+04  0.25500000920E-02 0.  1.
        2   -1    0    0  501    0  0.00000000000E+00  0.00000000000E+00 -0.60605785682E+03  0.60605785682E+03  0.25500000920E-02 0. -1.
    10030    2    1    2    0    0  0.00000000000E+00  0.00000000000E+00  0.76398672777E+03  0.19761024414E+04  0.18224448246E+04 0.  0.
        3    1    3    3  502    0  0.44423811596E+02  0.84414431939E+03  0.13050577176E+02  0.84541317399E+03  0.10100000352E+00 0. -1.
       -3    1    3    3    0  502 -0.44423811596E+02 -0.84414431939E+03  0.75093615059E+03  0.11306892674E+04  0.10100000352E+00 0.  1.
</event>
<event>
 5   0  0.5021349E-04  0.1721766E+04  0.7818609E-02  0.8749047E-01
       -2   -1    0    0    0  501  0.00000000000E+00  0.00000000000E+00  0.35873855128E+03  0.35873855129E+03  0.25500000920E-02 0.  1.
        2   -1    0    0  501    0  0.00000000000E+00  0.00000000000E+00 -0.20659041829E+04  0.20659041829E+04  0.25500000920E-02 0. -1.
    10030    2    1    2    0    0  0.00000000000E+00  0.00000000000E+00 -0.17071656316E+04  0.24246427342E+04  0.17217659233E+04 0.  0.
        2    1    3    3  502    0  0.51153486539E+03 -0.69100637932E+03 -0.91595547314E+03  0.12562373038E+04  0.25500000920E-02 0. -1.
       -2    1    3    3    0  502 -0.51153486539E+03  0.69100637932E+03 -0.79121015845E+03  0.11684054303E+04  0.25500000920E-02 0.  1.
</event>
<event>
 5   0  0.5198430E-04  0.1694160E+04  0.7818609E-02  0.8764702E-01
       -2   -1    0    0    0  501  0.00000000000E+00  0.00000000000E+00  0.63631556221E+03  0.63631556221E+03  0.25500000920E-02 0. -1.
        2   -1    0    0  501    0  0.00000000000E+00  0.00000000000E+00 -0.11276556587E+04  0.11276556587E+04  0.25500000920E-02 0.  1.
    10030    2    1    2    0    0  0.00000000000E+00  0.00000000000E+00 -0.49134009647E+03  0.17639712209E+04  0.16941603754E+04 0.  0.
        4    1    3    3  502    0  0.47044360197E+03 -0.38530656251E+02  0.48669248593E+03  0.67799187522E+03  0.12699999809E+01 0. -1.
       -4    1    3    3    0  502 -0.47044360197E+03  0.38530656251E+02 -0.97803258240E+03  0.10859793457E+04  0.12699999809E+01 0.  1.
</event>
<event>
 5   0  0.2595644E-04  0.1758212E+04  0.7818609E-02  0.8728843E-01
        1   -1    0    0  501    0  0.00000000000E+00  0.00000000000E+00  0.55463999095E+03  0.55463999097E+03  0.50400001928E-02 0.  1.
       -1   -1    0    0    0  501  0.00000000000E+00  0.00000000000E+00 -0.13933854379E+04  0.13933854379E+04  0.50400001928E-02 0. -1.
    10030    2    1    2    0    0  0.00000000000E+00  0.00000000000E+00 -0.83874544694E+03  0.19480254289E+04  0.17582119175E+04 0.  0.
        2    1    3    3  502    0 -0.73248223398E+03 -0.54358691311E+02  0.11583212965E+03  0.74357391878E+03  0.25500000920E-02 0.  1.
       -2    1    3    3    0  502  0.73248223398E+03  0.54358691311E+02 -0.95457757659E+03  0.12044515101E+04  0.25500000920E-02 0. -1.
</event>
<event>
 5   0  0.1910750E-04  0.1713854E+04  0.7818609E-02  0.8753502E-01
        3   -1    0    0  501    0  0.00000000000E+00  0.00000000000E+00  0.11410135152E+04  0.11410135197E+04  0.10100000352E+00 0.  1.
       -3   -1    0    0    0  501  0.00000000000E+00  0.00000000000E+00 -0.64357170291E+03  0.64357171083E+03  0.10100000352E+00 0. -1.
    10030    2    1    2    0    0  0.00000000000E+00  0.00000000000E+00  0.49744181230E+03  0.17845852305E+04  0.17138541619E+04 0.  0.
        4    1    3    3  502    0  0.14026286730E+03  0.83613614764E+03  0.11897897668E+03  0.85612787545E+03  0.12699999809E+01 0.  1.
       -4    1    3    3    0  502 -0.14026286730E+03 -0.83613614764E+03  0.37846283562E+03  0.92845735506E+03  0.12699999809E+01 0. -1.
</event>
<event>
 5   0  0.5310003E-04  0.1711032E+04  0.7818609E-02  0.8755097E-01
        2   -1    0    0  501    0  0.00000000000E+00  0.00000000000E+00  0.23755884878E+04  0.23755884878E+04  0.25500000920E-02 0.  1.
       -2   -1    0    0    0  501  0.00000000000E+00  0.00000000000E+00 -0.30809518900E+03  0.30809518901E+03  0.25500000920E-02 0. -1.
    10030    2    1    2    0    0  0.00000000000E+00  0.00000000000E+00  0.20674932988E+04  0.26836836768E+04  0.17110317170E+04 0.  0.
        1    1    3    3  502    0 -0.47942772026E+02 -0.83372241355E+03  0.74235150466E+03  0.11173528220E+04  0.50400001928E-02 0. -1.
       -1    1    3    3    0  502  0.47942772026E+02  0.83372241355E+03  0.13251417941E+04  0.15663308548E+04  0.50400001928E-02 0.  1.
</event>
<event>
 5   0  0.5021349E-04  0.1743161E+04  0.7818609E-02  0.8737124E-01
        2   -1    0    0  501    0  0.00000000000E+00  0.00000000000E+00  0.85813175976E+03  0.85813175977E+03  0.25500000920E-02 0.  1.
       -2   -1    0    0    0  501  0.00000000000E+00  0.00000000000E+00 -0.88523987603E+03  0.88523987603E+03  0.25500000920E-02 0. -1.
    10030    2    1    2    0    0  0.00000000000E+00  0.00000000000E+00 -0.27108116265E+02  0.17433716358E+04  0.17431608677E+04 0.  0.
        2    1    3    3  502    0 -0.71959420616E+03 -0.14353375347E+03  0.45685873459E+03  0.86437125317E+03  0.25500000920E-02 0.  1.
       -2    1    3    3    0  502  0.71959420616E+03  0.14353375347E+03 -0.48396685086E+03  0.87900038263E+03  0.25500000920E-02 0. -1.
</event>
<event>
 5   0  0.2630135E-04  0.1773458E+04  0.7818609E-02  0.8720543E-01
       -1   -1    0    0    0  501  0.00000000000E+00  0.00000000000E+00  0.56928099160E+03  0.56928099162E+03  0.50400001928E-02 0. -1.
        1   -1    0    0  501    0  0.00000000000E+00  0.00000000000E+00 -0.13811952587E+04  0.13811952587E+04  0.50400001928E-02 0.  1.
    10030    2    1    2    0    0  0.00000000000E+00  0.00000000000E+00 -0.81191426707E+03  0.19504762503E+04  0.17734578726E+04 0.  0.
        1    1    3    3  502    0  0.19165197550E+03 -0.39711535269E+03 -0.12520698642E+04  0.13274449246E+04  0.50400001928E-02 0.  1.
       -1    1    3    3    0  502 -0.19165197550E+03  0.39711535269E+03  0.44015559714E+03  0.62303132567E+03  0.50400001928E-02 0. -1.
</event>
<event>
 5   0  0.2583422E-04  0.1385792E+04  0.7818609E-02  0.8964167E-01
       -1   -1    0    0    0  501  0.00000000000E+00  0.00000000000E+00  0.72456035879E+03  0.72456035881E+03  0.50400001928E-02 0.  1.
        1   -1    0    0  501    0  0.00000000000E+00  0.00000000000E+00 -0.66261572512E+03  0.66261572514E+03  0.50400001928E-02 0. -1.
    10030    2    1    2    0    0  0.00000000000E+00  0.00000000000E+00  0.61944633670E+02  0.13871760839E+04  0.13857923186E+04 0.  0.
        3    1    3    3  502    0 -0.55243740354E+03 -0.84941768127E+02 -0.37895203101E+03  0.67528278581E+03  0.10100000352E+00 0. -1.
       -3    1    3    3    0  502  0.55243740354E+03  0.84941768127E+02  0.44089666468E+03  0.71189329814E+03  0.10100000352E+00 0.  1.
</event>
<event>
 5   0  0.2561518E-04  0.1709143E+04  0.7818609E-02  0.8756167E-01
       -1   -1    0    0    0  501  0.00000000000E+00  0.00000000000E+00  0.14324758924E+04  0.14324758925E+04  0.50400001928E-02 0.  1.
        1   -1    0    0  501    0  0.00000000000E+00  0.00000000000E+00 -0.50981130067E+03  0.50981130069E+03  0.50400001928E-02 0. -1.
    10030    2    1    2    0    0  0.00000000000E+00  0.00000000000E+00  0.92266459178E+03  0.19422871931E+04  0.17091429407E+04 0.  0.
        4    1    3    3  502    0 -0.52020800292E+03 -0.22314632399E+03 -0.26621879670E+03  0.62552754442E+03  0.12699999809E+01 0. -1.
       -4    1    3    3    0  502  0.52020800292E+03  0.22314632399E+03  0.11888833885E+04  0.13167596487E+04  0.12699999809E+01 0.  1.
</event>
<event>
 5   0  0.1910750E-04  0.1712750E+04  0.7818609E-02  0.8754126E-01
       -3   -1    0    0    0  501  0.00000000000E+00  0.00000000000E+00  0.31277005833E+03  0.31277007463E+03  0.10100000352E+00 0.  1.
        3   -1    0    0  501    0  0.00000000000E+00  0.00000000000E+00 -0.23447831952E+04  0.23447831973E+04  0.10100000352E+00 0. -1.
    10030    2    1    2    0    0  0.00000000000E+00  0.00000000000E+00 -0.20320131368E+04  0.26575532720E+04  0.17127498373E+04 0.  0.
        5    1    3    3  502    0 -0.69416567192E+03  0.47028650303E+03 -0.12861886125E+04  0.15353626972E+04  0.46999998093E+01 0.  1.
       -5    1    3    3    0  502  0.69416567192E+03 -0.47028650303E+03 -0.74582452430E+03  0.11221905747E+04  0.46999998093E+01 0. -1.
</event>
<event>
 5   0  0.2630135E-04  0.1692937E+04  0.7818609E-02  0.8765403E-01
       -1   -1    0    0    0  501  0.00000000000E+00  0.00000000000E+00  0.42767194106E+03  0.42767194109E+03  0.50400001928E-02 0. -1.
        1   -1    0    0  501    0  0.00000000000E+00  0.00000000000E+00 -0.16753705659E+04  0.16753705659E+04  0.50400001928E-02 0.  1.
    10030    2    1    2    0    0  0.00000000000E+00  0.00000000000E+00 -0.12476986249E+04  0.21030425070E+04  0.16929370714E+04 0.  0.
        1    1    3    3  502    0 -0.17404296178E+03 -0.79412448802E+03 -0.91672506073E+03  0.12252793526E+04  0.50400001928E-02 0.  1.
       -1    1    3    3    0  502  0.17404296178E+03  0.79412448802E+03 -0.33097356414E+03  0.87776315439E+03  0.50400001928E-02 0. -1.
</event>
<event>
 5   0  0.5299877E-04  0.1743501E+04  0.7818609E-02  0.8736936E-01
        2   -1    0    0  501    0  0.00000000000E+00  0.00000000000E+00  0.12127645876E+04  0.12127645876E+04  0.25500000920E-02 0. -1.
       -2   -1    0    0    0  501  0.00000000000E+00  0.00000000000E+00 -0.62662491607E+03  0.62662491608E+03  0.25500000920E-02 0.  1.
    10030    2    1    2    0    0  0.00000000000E+00  0.00000000000E+00  0.58613967156E+03  0.18393895037E+04  0.17435005110E+04 0.  0.
        3    1    3    3  502    0  0.48880967880E+03 -0.67645272694E+03  0.27375128490E+02  0.83502850354E+03  0.10100000352E+00 0.  1.
       -3    1    3    3    0  502 -0.48880967880E+03  0.67645272694E+03  0.55876454307E+03  0.10043610002E+04  0.10100000352E+00 0. -1.
</event>
<event>
 5   0  0.2595644E-04  0.1706443E+04  0.7818609E-02  0.8757698E-01
       -1   -1    0    0    0  501  0.00000000000E+00  0.00000000000E+00  0.80767898342E+03  0.80767898343E+03  0.50400001928E-02 0. -1.
        1   -1    0    0  501    0  0.00000000000E+00  0.00000000000E+00 -0.90133154097E+03  0.90133154099E+03  0.50400001928E-02 0.  1.
    10030    2    1    2    0    0  0.00000000000E+00  0.00000000000E+00 -0.93652557559E+02  0.17090105244E+04  0.17064425484E+04 0.  0.
        2    1    3    3  502    0 -0.82032152581E+02 -0.81587408792E+02 -0.89343902718E+03  0.90089903686E+03  0.25500000920E-02 0.  1.
       -2    1    3    3    0  502  0.82032152581E+02  0.81587408792E+02  0.79978646962E+03  0.80811148756E+03  0.25500000920E-02 0. -1.
</event>
<event>
 5   0  0.5310003E-04  0.1688756E+04  0.7818609E-02  0.8767804E-01
       -2   -1    0    0    0  501  0.00000000000E+00  0.00000000000E+00  0.52161642199E+03  0.52161642199E+03  0.25500000920E-02 0.  1.
        2   -1    0    0  501    0  0.00000000000E+00  0.00000000000E+00 -0.13668547455E+04  0.13668547455E+04  0.25500000920E-02 0. -1.
    10030    2    1    2    0    0  0.00000000000E+00  0.00000000000E+00 -0.84523832356E+03  0.18884711675E+04  0.16887556149E+04 0.  0.
        1    1    3    3  502    0 -0.91825137431E+02 -0.36078885625E+03  0.42488281968E+03  0.56491226323E+03  0.50400001928E-02 0.  1.
       -1    1    3    3    0  502  0.91825137431E+02  0.36078885625E+03 -0.12701211432E+04  0.13235589043E+04  0.50400001928E-02 0. -1.
</event>
<event>
 5   0  0.2595644E-04  0.1753439E+04  0.7818609E-02  0.8731460E-01
       -1   -1    0    0    0  501  0.00000000000E+00  0.00000000000E+00  0.54559008399E+03  0.54559008401E+03  0.50400001928E-02 0. -1.
        1   -1    0    0  501    0  0.00000000000E+00  0.00000000000E+00 -0.14088175460E+04  0.14088175460E+04  0.50400001928E-02 0.  1.
    10030    2    1    2    0    0  0.00000000000E+00  0.00000000000E+00 -0.86322746198E+03  0.19544076300E+04  0.17534387737E+04 0.  0.
        2    1    3    3  502    0  0.22323149207E+03  0.67926818599E+02 -0.13735718368E+04  0.13932501364E+04  0.25500000920E-02 0.  1.
       -2    1    3    3    0  502 -0.22323149207E+03 -0.67926818599E+02  0.51034437480E+03  0.56115749361E+03  0.25500000920E-02 0. -1.
</event>
<event>
 5   0  0.2583422E-04  0.1431483E+04  0.7818609E-02  0.8931340E-01
        1   -1    0    0  501    0  0.00000000000E+00  0.00000000000E+00  0.14331034815E+04  0.14331034815E+04  0.50400001928E-02 0.  1.
       -1   -1    0    0    0  501  0.00000000000E+00  0.00000000000E+00 -0.35746594458E+03  0.35746594461E+03  0.50400001928E-02 0. -1.
    10030    2    1    2    0    0  0.00000000000E+00  0.00000000000E+00  0.10756375369E+04  0.17905694261E+04  0.14314827135E+04 0.  0.
        3    1    3    3  502    0 -0.58765419278E+03  0.18328696032E+03  0.81037512011E+02  0.62088537482E+03  0.10100000352E+00 0.  1.
       -3    1    3    3    0  502  0.58765419278E+03 -0.18328696032E+03  0.99460002492E+03  0.11696840513E+04  0.10100000352E+00 0. -1.
</event>
<event>
 5   0  0.5198430E-04  0.1725325E+04  0.7818609E-02  0.8747051E-01
        2   -1    0    0  501    0  0.00000000000E+00  0.00000000000E+00  0.91519678855E+03  0.91519678855E+03  0.25500000920E-02 0.  1.
       -2   -1    0    0    0  501  0.00000000000E+00  0.00000000000E+00 -0.81314339488E+03  0.81314339488E+03  0.25500000920E-02 0. -1.
    10030    2    1    2    0    0  0.00000000000E+00  0.00000000000E+00  0.10205339367E+03  0.17283401834E+04  0.17253245766E+04 0.  0.
        4    1    3    3  502    0  0.62770439838E+03  0.19637085458E+03  0.61022302539E+03  0.89718898673E+03  0.12699999809E+01 0.  1.
       -4    1    3    3    0  502 -0.62770439838E+03 -0.19637085458E+03 -0.50816963172E+03  0.83115119671E+03  0.12699999809E+01 0. -1.
</event>
<event>
 5   0  0.2561518E-04  0.1700667E+04  0.7818609E-02  0.8760984E-01
        1   -1    0    0  501    0  0.00000000000E+00  0.00000000000E+00  0.12098001888E+04  0.12098001888E+04  0.50400001928E-02 0.  1.
       -1   -1    0    0    0  501  0.00000000000E+00  0.00000000000E+00 -0.59767473924E+03  0.59767473926E+03  0.50400001928E-02 0. -1.
    10030    2    1    2    0    0  0.00000000000E+00  0.00000000000E+00  0.61212544953E+03  0.18074749280E+04  0.17006669426E+04 0.  0.
        4    1    3    3  502    0  0.50160579136E+03 -0.19256242582E+03 -0.39440203910E+03  0.66651574558E+03  0.12699999809E+01 0. -1.
       -4    1    3    3    0  502 -0.50160579136E+03  0.19256242582E+03  0.10065274886E+04  0.11409591825E+04  0.12699999809E+01 0.  1.
</event>
<event>
 5   0  0.5021349E-04  0.1712757E+04  0.7818609E-02  0.8754122E-01
        2   -1    0    0  501    0  0.00000000000E+00  0.00000000000E+00  0.10416520567E+04  0.10416520567E+04  0.25500000920E-02 0.  1.
       -2   -1    0    0    0  501  0.00000000000E+00  0.00000000000E+00 -0.70405829975E+03  0.70405829975E+03  0.25500000920E-02 0. -1.
    10030    2    1    2    0    0  0.00000000000E+00  0.00000000000E+00  0.33759375694E+03  0.17457103564E+04  0.17127565804E+04 0.  0.
        2    1    3    3  502    0  0.59350197151E+03  0.56249801447E+03 -0.90529495955E+02  0.82270541271E+03  0.25500000920E-02 0. -1.
       -2    1    3    3    0  502 -0.59350197151E+03 -0.56249801447E+03  0.42812325289E+03  0.92300494372E+03  0.25500000920E-02 0.  1.
</event>
<event>
 5   0  0.2583422E-04  0.1692447E+04  0.7818609E-02  0.8765684E-01
        1   -1    0    0  501    0  0.00000000000E+00  0.00000000000E+00  0.12519836359E+04  0.12519836359E+04  0.50400001928E-02 0.  1.
       -1   -1    0    0    0  501  0.00000000000E+00  0.00000000000E+00 -0.57196793013E+03  0.57196793015E+03  0.50400001928E-02 0. -1.
    10030    2    1    2    0    0  0.00000000000E+00  0.00000000000E+00  0.68001570575E+03  0.18239515660E+04  0.16924473272E+04 0.  0.
        3    1    3    3  502    0  0.21932938830E+03  0.32596320950E+03 -0.46771931045E+03  0.61083447683E+03  0.10100000352E+00 0. -1.
       -3    1    3    3    0  502 -0.21932938830E+03 -0.32596320950E+03  0.11477350162E+04  0.12131170892E+04  0.10100000352E+00 0.  1.
</event>
<event>
 5   0  0.5299877E-04  0.1806617E+04  0.7818609E-02  0.8702789E-01
       -2   -1    0    0    0  501  0.00000000000E+00  0.00000000000E+00  0.45190736561E+03  0.45190736562E+03  0.25500000920E-02 0. -1.
        2   -1    0    0  501    0  0.00000000000E+00  0.00000000000E+00 -0.18056044799E+04  0.18056044799E+04  0.25500000920E-02 0.  1.
    10030    2    1    2    0    0  0.00000000000E+00  0.00000000000E+00 -0.13536971143E+04  0.22575118455E+04  0.18066166875E+04 0.  0.
        3    1    3    3  502    0  0.57619333824E+03  0.45475040617E+03 -0.13347132073E+04  0.15232386717E+04  0.10100000352E+00 0.  1.
       -3    1    3    3    0  502 -0.57619333824E+03 -0.45475040617E+03 -0.18983907012E+02  0.73427317387E+03  0.10100000352E+00 0. -1.
</event>
<event>
 5   0  0.2595644E-04  0.1702800E+04  0.7818609E-02  0.8759769E-01
       -1   -1    0    0    0  501  0.00000000000E+00  0.00000000000E+00  0.89471542239E+03  0.89471542241E+03  0.50400001928E-02 0.  1.
        1   -1    0    0  501    0  0.00000000000E+00  0.00000000000E+00 -0.81018158688E+03  0.81018158690E+03  0.50400001928E-02 0. -1.
    10030    2    1    2    0    0  0.00000000000E+00  0.00000000000E+00  0.84533835509E+02  0.17048970093E+04  0.17028000009E+04 0.  0.
        2    1    3    3  502    0 -0.48191641839E+03  0.23793171036E+03 -0.61886970105E+03  0.81966739595E+03  0.25500000920E-02 0. -1.
       -2    1    3    3    0  502  0.48191641839E+03 -0.23793171036E+03  0.70340353656E+03  0.88522961335E+03  0.25500000920E-02 0.  1.
</event>
<event>
 5   0  0.5021349E-04  0.1711060E+04  0.7818609E-02  0.8755081E-01
        2   -1    0    0  501    0  0.00000000000E+00  0.00000000000E+00  0.75492117352E+03  0.75492117353E+03  0.25500000920E-02 0.  1.
       -2   -1    0    0    0  501  0.00000000000E+00  0.00000000000E+00 -0.96954753660E+03  0.96954753660E+03  0.25500000920E-02 0. -1.
    10030    2    1    2    0    0  0.00000000000E+00  0.00000000000E+00 -0.21462636308E+03  0.17244687101E+04  0.17110604479E+04 0.  0.
        2    1    3    3  502    0  0.14780029892E+03 -0.24110577974E+02  0.74160906646E+03  0.75657799055E+03  0.25500000920E-02 0.  1.
       -2    1    3    3    0  502 -0.14780029892E+03  0.24110577974E+02 -0.95623542954E+03  0.96789071958E+03  0.25500000920E-02 0. -1.
</event>
<event>
 5   0  0.5310003E-04  0.1702588E+04  0.7818609E-02  0.8759890E-01
       -2   -1    0    0    0  501  0.00000000000E+00  0.00000000000E+00  0.92656496699E+03  0.92656496699E+03  0.25500000920E-02 0.  1.
        2   -1    0    0  501    0  0.00000000000E+00  0.00000000000E+00 -0.78213797203E+03  0.78213797204E+03  0.25500000920E-02 0. -1.
    10030    2    1    2    0    0  0.00000000000E+00  0.00000000000E+00  0.14442699496E+03  0.17087029390E+04  0.17025881995E+04 0.  0.
        1    1    3    3  502    0  0.61406777729E+03 -0.16576053708E+03  0.64005991215E+03  0.90234831519E+03  0.50400001928E-02 0.  1.
       -1    1    3    3    0  502 -0.61406777729E+03  0.16576053708E+03 -0.49563291719E+03  0.80635462384E+03  0.50400001928E-02 0. -1.
</event>
<event>
 5   0  0.2583422E-04  0.1709950E+04  0.7818609E-02  0.8755710E-01
        1   -1    0    0  501    0  0.00000000000E+00  0.00000000000E+00  0.18084642666E+04  0.18084642666E+04  0.50400001928E-02 0.  1.
       -1   -1    0    0    0  501  0.00000000000E+00  0.00000000000E+00 -0.40420064894E+03  0.40420064898E+03  0.50400001928E-02 0. -1.
    10030    2    1    2    0    0  0.00000000000E+00  0.00000000000E+00  0.14042636177E+04  0.22126649156E+04  0.17099502100E+04 0.  0.
        3    1    3    3  502    0 -0.57186024901E+03 -0.63454661998E+03  0.74894618369E+03  0.11360431126E+04  0.10100000352E+00 0. -1.
       -3    1    3    3    0  502  0.57186024901E+03  0.63454661998E+03  0.65531743400E+03  0.10766218031E+04  0.10100000352E+00 0.  1.
</event>
<event>
 5   0  0.2561518E-04  0.1706305E+04  0.7818609E-02  0.8757777E-01
       -1   -1    0    0    0  501  0.00000000000E+00  0.00000000000E+00  0.45752325107E+03  0.45752325110E+03  0.50400001928E-02 0. -1.
        1   -1    0    0  501    0  0.00000000000E+00  0.00000000000E+00 -0.15908895586E+04  0.15908895586E+04  0.50400001928E-02 0.  1.
    10030    2    1    2    0    0  0.00000000000E+00  0.00000000000E+00 -0.11333663075E+04  0.20484128097E+04  0.17063047359E+04 0.  0.
        4    1    3    3  502    0  0.17955720538E+03  0.83357852215E+03 -0.60006920630E+03  0.10426785736E+04  0.12699999809E+01 0.  1.
       -4    1    3    3    0  502 -0.17955720538E+03 -0.83357852215E+03 -0.53329710121E+03  0.10057342361E+04  0.12699999809E+01 0. -1.
</event>
<event>
 5   0  0.5021349E-04  0.1617303E+04  0.7818609E-02  0.8809988E-01
        2   -1    0    0  501    0  0.00000000000E+00  0.00000000000E+00  0.35539244727E+03  0.35539244728E+03  0.25500000920E-02 0.  1.
       -2   -1    0    0    0  501  0.00000000000E+00  0.00000000000E+00 -0.18399856297E+04  0.18399856297E+04  0.25500000920E-02 0. -1.
    10030    2    1    2    0    0  0.00000000000E+00  0.00000000000E+00 -0.14845931824E+04  0.21953780770E+04  0.16173026877E+04 0.  0.
        2    1    3    3  502    0 -0.11409091903E+03  0.79734690582E+03 -0.64499448435E+03  0.10318898734E+04  0.25500000920E-02 0. -1.
       -2    1    3    3    0  502  0.11409091903E+03 -0.79734690582E+03 -0.83959869809E+03  0.11634882036E+04  0.25500000920E-02 0.  1.
</event>
<event>
 5   0  0.5198430E-04  0.1684017E+04  0.7818609E-02  0.8770533E-01
        2   -1    0    0  501    0  0.00000000000E+00  0.00000000000E+00  0.25105205204E+04  0.25105205204E+04  0.25500000920E-02 0. -1.
       -2   -1    0    0    0  501  0.00000000000E+00  0.00000000000E+00 -0.28240275527E+03  0.28240275528E+03  0.25500000920E-02 0.  1.
    10030    2    1    2    0    0  0.00000000000E+00  0.00000000000E+00  0.22281177651E+04  0.27929232757E+04  0.16840165227E+04 0.  0.
        4    1    3    3  502    0  0.45072223690E+03 -0.24036600599E+03  0.22241940803E+04  0.22820971214E+04  0.12699999809E+01 0. -1.
       -4    1    3    3    0  502 -0.45072223690E+03  0.24036600599E+03  0.39236847842E+01  0.51082615426E+03  0.12699999809E+01 0.  1.
</event>
<event>
 5   0  0.5299877E-04  0.1678558E+04  0.7818609E-02  0.8773689E-01
        2   -1    0    0  501    0  0.00000000000E+00  0.00000000000E+00  0.27296179394E+04  0.27296179394E+04  0.25500000920E-02 0.  1.
       -2   -1    0    0    0  501  0.00000000000E+00  0.00000000000E+00 -0.25805427444E+03  0.25805427445E+03  0.25500000920E-02 0. -1.
    10030    2    1    2    0    0  0.00000000000E+00  0.00000000000E+00  0.24715636649E+04  0.29876722138E+04  0.16785584016E+04 0.  0.
        3    1    3    3  502    0 -0.24921246122E+03  0.21358736690E+03 -0.13908647540E+03  0.35647085711E+03  0.10100000352E+00 0. -1.
       -3    1    3    3    0  502  0.24921246122E+03 -0.21358736690E+03  0.26106501403E+04  0.26312013567E+04  0.10100000352E+00 0.  1.
</event>
<event>
 5   0  0.5342255E-04  0.1697449E+04  0.7818609E-02  0.8762820E-01
       -2   -1    0    0    0  501  0.00000000000E+00  0.00000000000E+00  0.76691769668E+03  0.76691769669E+03  0.25500000920E-02 0. -1.
        2   -1    0    0  501    0  0.00000000000E+00  0.00000000000E+00 -0.93925793426E+03  0.93925793426E+03  0.25500000920E-02 0.  1.
    10030    2    1    2    0    0  0.00000000000E+00  0.00000000000E+00 -0.17234023758E+03  0.17061756310E+04  0.16974493000E+04 0.  0.
        5    1    3    3  502    0 -0.79563034843E+03  0.80094944685E+02  0.19966583716E+03  0.82421561987E+03  0.46999998093E+01 0. -1.
       -5    1    3    3    0  502  0.79563034843E+03 -0.80094944685E+02 -0.37200607473E+03  0.88196001108E+03  0.46999998093E+01 0.  1.
</event>
<event>
 5   0  0.2561518E-04  0.1707060E+04  0.7818609E-02  0.8757348E-01
       -1   -1    0    0    0  501  0.00000000000E+00  0.00000000000E+00  0.49722456133E+03  0.49722456136E+03  0.50400001928E-02 0.  1.
        1   -1    0    0  501    0  0.00000000000E+00  0.00000000000E+00 -0.14651599594E+04  0.14651599594E+04  0.50400001928E-02 0. -1.
    10030    2    1    2    0    0  0.00000000000E+00  0.00000000000E+00 -0.96793539810E+03  0.19623845208E+04  0.17070600671E+04 0.  0.
        4    1    3    3  502    0 -0.15028691983E+03 -0.74822292436E+03 -0.92335032397E+03  0.11979153294E+04  0.12699999809E+01 0. -1.
       -4    1    3    3    0  502  0.15028691983E+03  0.74822292436E+03 -0.44585074126E+02  0.76446919136E+03  0.12699999809E+01 0.  1.
</event>
<event>
 5   0  0.2583422E-04  0.1678875E+04  0.7818609E-02  0.8773506E-01
        1   -1    0    0  501    0  0.00000000000E+00  0.00000000000E+00  0.20837538649E+04  0.20837538649E+04  0.50400001928E-02 0. -1.
       -1   -1    0    0    0  501  0.00000000000E+00  0.00000000000E+00 -0.33816609423E+03  0.33816609427E+03  0.50400001928E-02 0.  1.
    10030    2    1    2    0    0  0.00000000000E+00  0.00000000000E+00  0.17455877707E+04  0.24219199592E+04  0.16788745110E+04 0.  0.
        3    1    3    3  502    0 -0.22122962934E+03 -0.56703819777E+03  0.38859662153E+02  0.60990568957E+03  0.10100000352E+00 0.  1.
       -3    1    3    3    0  502  0.22122962934E+03  0.56703819777E+03  0.17067281086E+04  0.18120142696E+04  0.10100000352E+00 0. -1.
</event>
<event>
 5   0  0.2630135E-04  0.1698886E+04  0.7818609E-02  0.8762000E-01
       -1   -1    0    0    0  501  0.00000000000E+00  0.00000000000E+00  0.94240878165E+03  0.94240878166E+03  0.50400001928E-02 0.  1.
        1   -1    0    0  501    0  0.00000000000E+00  0.00000000000E+00 -0.76564822544E+03  0.76564822546E+03  0.50400001928E-02 0. -1.
    10030    2    1    2    0    0  0.00000000000E+00  0.00000000000E+00  0.17676055620E+03  0.17080570071E+04  0.16988862367E+04 0.  0.
        1    1    3    3  502    0  0.60867290434E+03 -0.85982271232E+02  0.67778539475E+03  0.91502387773E+03  0.50400001928E-02 0.  1.
       -1    1    3    3    0  502 -0.60867290434E+03  0.85982271232E+02 -0.50102483855E+03  0.79303312939E+03  0.50400001928E-02 0. -1.
</event>
<event>
 5   0  0.5198430E-04  0.1686783E+04  0.7818609E-02  0.8768939E-01
        2   -1    0    0  501    0  0.00000000000E+00  0.00000000000E+00  0.44650554577E+03  0.44650554577E+03  0.25500000920E-02 0. -1.
       -2   -1    0    0    0  501  0.00000000000E+00  0.00000000000E+00 -0.15930573747E+04  0.15930573747E+04  0.25500000920E-02 0.  1.
    10030    2    1    2    0    0  0.00000000000E+00  0.00000000000E+00 -0.11465518289E+04  0.20395629205E+04  0.16867826802E+04 0.  0.
        4    1    3    3  502    0  0.62327035780E+02 -0.15169161440E+03  0.42703933298E+03  0.45744858736E+03  0.12699999809E+01 0. -1.
       -4    1    3    3    0  502 -0.62327035780E+02  0.15169161440E+03 -0.15735911619E+04  0.15821143331E+04  0.12699999809E+01 0.  1.
</event>
<event>
 5   0  0.5198430E-04  0.1674737E+04  0.7818609E-02  0.8775905E-01
        2   -1    0    0  501    0  0.00000000000E+00  0.00000000000E+00  0.12020124651E+04  0.12020124651E+04  0.25500000920E-02 0. -1.
       -2   -1    0    0    0  501  0.00000000000E+00  0.00000000000E+00 -0.58334338532E+03  0.58334338533E+03  0.25500000920E-02 0.  1.
    10030    2    1    2    0    0  0.00000000000E+00  0.00000000000E+00  0.61866907977E+03  0.17853558504E+04  0.16747370189E+04 0.  0.
        4    1    3    3  502    0  0.29356897111E+03  0.11029810448E+03  0.11370436948E+04  0.11794992113E+04  0.12699999809E+01 0. -1.
       -4    1    3    3    0  502 -0.29356897111E+03 -0.11029810448E+03 -0.51837461508E+03  0.60585663908E+03  0.12699999809E+01 0.  1.
</event>
<event>
 5   0  0.2785059E-04  0.1712106E+04  0.7818609E-02  0.8754490E-01
        1   -1    0    0  501    0  0.00000000000E+00  0.00000000000E+00  0.74492843853E+03  0.74492843855E+03  0.50400001928E-02 0. -1.
       -1   -1    0    0    0  501  0.00000000000E+00  0.00000000000E+00 -0.98375446145E+03  0.98375446147E+03  0.50400001928E-02 0.  1.
    10030    2    1    2    0    0  0.00000000000E+00  0.00000000000E+00 -0.23882602292E+03  0.17286829000E+04  0.17121059253E+04 0.  0.
        5    1    3    3  502    0  0.13809056845E+03 -0.53633508565E+03 -0.77848129207E+03  0.95539496612E+03  0.46999998093E+01 0.  1.
       -5    1    3    3    0  502 -0.13809056845E+03  0.53633508565E+03  0.53965526914E+03  0.77328793389E+03  0.46999998093E+01 0. -1.
</event>
<event>
 5   0  0.5021349E-04  0.1707521E+04  0.7818609E-02  0.8757087E-01
       -2   -1    0    0    0  501  0.00000000000E+00  0.00000000000E+00  0.35880549375E+03  0.35880549376E+03  0.25500000920E-02 0.  1.
        2   -1    0    0  501    0  0.00000000000E+00  0.00000000000E+00 -0.20314819290E+04  0.20314819290E+04  0.25500000920E-02 0. -1.
    10030    2    1    2    0    0  0.00000000000E+00  0.00000000000E+00 -0.16726764352E+04  0.23902874228E+04  0.17075208656E+04 0.  0.
        2    1    3    3  502    0 -0.65449908478E+03  0.49542808019E+03 -0.11648991547E+04  0.14250642355E+04  0.25500000920E-02 0.  1.
       -2    1    3    3    0  502  0.65449908478E+03 -0.49542808019E+03 -0.50777728055E+03  0.96522318728E+03  0.25500000920E-02 0. -1.
</event>
<event>
 5   0  0.2595644E-04  0.1665670E+04  0.7818609E-02  0.8781190E-01
        1   -1    0    0  501    0  0.00000000000E+00  0.00000000000E+00  0.10908599630E+04  0.10908599630E+04  0.50400001928E-02 0.  1.
       -1   -1    0    0    0  501  0.00000000000E+00  0.00000000000E+00 -0.63584154247E+03  0.63584154249E+03  0.50400001928E-02 0. -1.
    10030    2    1    2    0    0  0.00000000000E+00  0.00000000000E+00  0.45501842053E+03  0.17267015055E+04  0.16656699331E+04 0.  0.
        2    1    3    3  502    0 -0.52091546739E+03  0.30131108634E+03  0.82434143084E+03  0.10206273020E+04  0.25500000920E-02 0.  1.
       -2    1    3    3    0  502  0.52091546739E+03 -0.30131108634E+03 -0.36932301032E+03  0.70607420352E+03  0.25500000920E-02 0. -1.
</event>
<event>
 5   0  0.2583422E-04  0.1730356E+04  0.7818609E-02  0.8744238E-01
        1   -1    0    0  501    0  0.00000000000E+00  0.00000000000E+00  0.16485722928E+04  0.16485722928E+04  0.50400001928E-02 0.  1.
       -1   -1    0    0    0  501  0.00000000000E+00  0.00000000000E+00 -0.45404912304E+03  0.45404912307E+03  0.50400001928E-02 0. -1.
    10030    2    1    2    0    0  0.00000000000E+00  0.00000000000E+00  0.11945231698E+04  0.21026214159E+04  0.17303558060E+04 0.  0.
        3    1    3    3  502    0 -0.70982682187E+03  0.31942178732E+02 -0.25520581028E+01  0.71054974705E+03  0.10100000352E+00 0. -1.
       -3    1    3    3    0  502  0.70982682187E+03 -0.31942178732E+02  0.11970752279E+04  0.13920716689E+04  0.10100000352E+00 0.  1.
</event>
<event>
 5   0  0.5342255E-04  0.1717717E+04  0.7818609E-02  0.8751324E-01
        2   -1    0    0  501    0  0.00000000000E+00  0.00000000000E+00  0.21525444287E+04  0.21525444287E+04  0.25500000920E-02 0. -1.
       -2   -1    0    0    0  501  0.00000000000E+00  0.00000000000E+00 -0.34268180102E+03  0.34268180103E+03  0.25500000920E-02 0.  1.
    10030    2    1    2    0    0  0.00000000000E+00  0.00000000000E+00  0.18098626277E+04  0.24952262298E+04  0.17177168587E+04 0.  0.
        5    1    3    3  502    0 -0.58584450571E+03 -0.59873928200E+03  0.62964450927E+03  0.10479393163E+04  0.46999998093E+01 0.  1.
       -5    1    3    3    0  502  0.58584450571E+03  0.59873928200E+03  0.11802181184E+04  0.14472869134E+04  0.46999998093E+01 0. -1.
</event>
<event>
 5   0  0.5310003E-04  0.1683304E+04  0.7818609E-02  0.8770944E-01
       -2   -1    0    0    0  501  0.00000000000E+00  0.00000000000E+00  0.51591394625E+03  0.51591394626E+03  0.25500000920E-02 0. -1.
        2   -1    0    0  501    0  0.00000000000E+00  0.00000000000E+00 -0.13730553831E+04  0.13730553831E+04  0.25500000920E-02 0.  1.
    10030    2    1    2    0    0  0.00000000000E+00  0.00000000000E+00 -0.85714143682E+03  0.18889693293E+04  0.16833043945E+04 0.  0.
        1    1    3    3  502    0 -0.23642552848E+03  0.10365751610E+03  0.47038981030E+03  0.53657104359E+03  0.50400001928E-02 0. -1.
       -1    1    3    3    0  502  0.23642552848E+03 -0.10365751610E+03 -0.13275312471E+04  0.13523982857E+04  0.50400001928E-02 0.  1.
</event>
<event>
 5   0  0.2561518E-04  0.1690933E+04  0.7818609E-02  0.8766553E-01
        1   -1    0    0  501    0  0.00000000000E+00  0.00000000000E+00  0.94940681434E+03  0.94940681435E+03  0.50400001928E-02 0. -1.
       -1   -1    0    0    0  501  0.00000000000E+00  0.00000000000E+00 -0.75290536334E+03  0.75290536335E+03  0.50400001928E-02 0.  1.
    10030    2    1    2    0    0  0.00000000000E+00  0.00000000000E+00  0.19650145100E+03  0.17023121777E+04  0.16909328580E+04 0.  0.
        4    1    3    3  502    0 -0.18329095018E+03  0.34267258768E+03 -0.65766297737E+03  0.76389939094E+03  0.12699999809E+01 0.  1.
       -4    1    3    3    0  502  0.18329095018E+03 -0.34267258768E+03  0.85416442837E+03  0.93841278676E+03  0.12699999809E+01 0. -1.
</event>
<event>
 5   0  0.2561518E-04  0.1735961E+04  0.7818609E-02  0.8741116E-01
        1   -1    0    0  501    0  0.00000000000E+00  0.00000000000E+00  0.97836333008E+03  0.97836333009E+03  0.50400001928E-02 0.  1.
       -1   -1    0    0    0  501  0.00000000000E+00  0.00000000000E+00 -0.77005115162E+03  0.77005115164E+03  0.50400001928E-02 0. -1.
    10030    2    1    2    0    0  0.00000000000E+00  0.00000000000E+00  0.20831217846E+03  0.17484144817E+04  0.17359606091E+04 0.  0.
        4    1    3    3  502    0 -0.37190123153E+03 -0.55542196964E+03  0.66182874028E+03  0.94065029886E+03  0.12699999809E+01 0.  1.
       -4    1    3    3    0  502  0.37190123153E+03  0.55542196964E+03 -0.45351656183E+03  0.80776418287E+03  0.12699999809E+01 0. -1.
</event>
<event>
 5   0  0.2583422E-04  0.1816319E+04  0.7818609E-02  0.8697669E-01
       -1   -1    0    0    0  501  0.00000000000E+00  0.00000000000E+00  0.11395182623E+04  0.11395182623E+04  0.50400001928E-02 0. -1.
        1   -1    0    0  501    0  0.00000000000E+00  0.00000000000E+00 -0.72377416816E+03  0.72377416817E+03  0.50400001928E-02 0.  1.
    10030    2    1    2    0    0  0.00000000000E+00  0.00000000000E+00  0.41574409416E+03  0.18632924305E+04  0.18163192257E+04 0.  0.
        3    1    3    3  502    0 -0.35426213676E+03 -0.83596233901E+03  0.22887538457E+03  0.93633255078E+03  0.10100000352E+00 0. -1.
       -3    1    3    3    0  502  0.35426213676E+03  0.83596233901E+03  0.18686870958E+03  0.92695987972E+03  0.10100000352E+00 0.  1.
</event>
<event>
 5   0  0.5198430E-04  0.1302530E+04  0.7818609E-02  0.9027561E-01
        2   -1    0    0  501    0  0.00000000000E+00  0.00000000000E+00  0.25919220703E+04  0.25919220703E+04  0.25500000920E-02 0.  1.
       -2   -1    0    0    0  501  0.00000000000E+00  0.00000000000E+00 -0.16364145988E+03  0.16364145990E+03  0.25500000920E-02 0. -1.
    10030    2    1    2    0    0  0.00000000000E+00  0.00000000000E+00  0.24282806105E+04  0.27555635302E+04  0.13025297102E+04 0.  0.
        4    1    3    3  502    0 -0.88690472255E+02 -0.37415567207E+03  0.23261334177E+04  0.23577015835E+04  0.12699999809E+01 0.  1.
       -4    1    3    3    0  502  0.88690472255E+02  0.37415567207E+03  0.10214719276E+03  0.39786194679E+03  0.12699999809E+01 0. -1.
</event>
<event>
 5   0  0.2785059E-04  0.1780091E+04  0.7818609E-02  0.8716959E-01
       -1   -1    0    0    0  501  0.00000000000E+00  0.00000000000E+00  0.40656376278E+03  0.40656376281E+03  0.50400001928E-02 0.  1.
        1   -1    0    0  501    0  0.00000000000E+00  0.00000000000E+00 -0.19484784539E+04  0.19484784539E+04  0.50400001928E-02 0. -1.
    10030    2    1    2    0    0  0.00000000000E+00  0.00000000000E+00 -0.15419146912E+04  0.23550422167E+04  0.17800907078E+04 0.  0.
        5    1    3    3  502    0  0.20488770114E+03 -0.73477444744E+03 -0.13776404954E+04  0.15747342262E+04  0.46999998093E+01 0.  1.
       -5    1    3    3    0  502 -0.20488770114E+03  0.73477444744E+03 -0.16427419576E+03  0.78030799052E+03  0.46999998093E+01 0. -1.
</event>
<event>
 5   0  0.5299877E-04  0.1241378E+04  0.7818609E-02  0.9077390E-01
        2   -1    0    0  501    0  0.00000000000E+00  0.00000000000E+00  0.88696304778E+03  0.88696304778E+03  0.25500000920E-02 0. -1.
       -2   -1    0    0    0  501  0.00000000000E+00  0.00000000000E+00 -0.43435254346E+03  0.43435254346E+03  0.25500000920E-02 0.  1.
    10030    2    1    2    0    0  0.00000000000E+00  0.00000000000E+00  0.45261050432E+03  0.13213155912E+04  0.12413777117E+04 0.  0.
        3    1    3    3  502    0  0.11491018399E+03  0.16360515672E+03 -0.39914190328E+03  0.44641378433E+03  0.10100000352E+00 0.  1.
       -3    1    3    3    0  502 -0.11491018399E+03 -0.16360515672E+03  0.85175240760E+03  0.87490180691E+03  0.10100000352E+00 0. -1.
</event>
<event>
 5   0  0.5299877E-04  0.1701088E+04  0.7818609E-02  0.8760744E-01
       -2   -1    0    0    0  501  0.00000000000E+00  0.00000000000E+00  0.69389956678E+03  0.69389956679E+03  0.25500000920E-02 0. -1.
        2   -1    0    0  501    0  0.00000000000E+00  0.00000000000E+00 -0.10425496612E+04  0.10425496612E+04  0.25500000920E-02 0.  1.
    10030    2    1    2    0    0  0.00000000000E+00  0.00000000000E+00 -0.34865009442E+03  0.17364492280E+04  0.17010876030E+04 0.  0.
        3    1    3    3  502    0  0.28748507059E+03  0.47079701789E+02 -0.99003631923E+03  0.10320058564E+04  0.10100000352E+00 0.  1.
       -3    1    3    3    0  502 -0.28748507059E+03 -0.47079701789E+02  0.64138622482E+03  0.70444337155E+03  0.10100000352E+00 0. -1.
</event>
<event>
 5   0  0.1910750E-04  0.1691684E+04  0.7818609E-02  0.8766122E-01
        3   -1    0    0  501    0  0.00000000000E+00  0.00000000000E+00  0.93462323027E+03  0.93462323573E+03  0.10100000352E+00 0. -1.
       -3   -1    0    0    0  501  0.00000000000E+00  0.00000000000E+00 -0.76549409151E+03  0.76549409817E+03  0.10100000352E+00 0.  1.
    10030    2    1    2    0    0  0.00000000000E+00  0.00000000000E+00  0.16912913876E+03  0.17001173339E+04  0.16916838604E+04 0.  0.
        2    1    3    3  502    0  0.42274179651E+03  0.84045613298E+02 -0.64685088342E+03  0.77729682684E+03  0.25500000920E-02 0.  1.
       -2    1    3    3    0  502 -0.42274179651E+03 -0.84045613298E+02  0.81598002218E+03  0.92282050706E+03  0.25500000920E-02 0. -1.
</event>
<event>
 5   0  0.2785059E-04  0.1515127E+04  0.7818609E-02  0.8874455E-01
        1   -1    0    0  501    0  0.00000000000E+00  0.00000000000E+00  0.13190326712E+04  0.13190326712E+04  0.50400001928E-02 0. -1.
       -1   -1    0    0    0  501  0.00000000000E+00  0.00000000000E+00 -0.43509371099E+03  0.43509371102E+03  0.50400001928E-02 0.  1.
    10030    2    1    2    0    0  0.00000000000E+00  0.00000000000E+00  0.88393896016E+03  0.17541263822E+04  0.15151274796E+04 0.  0.
        5    1    3    3  502    0 -0.32129054538E+03  0.59610402600E+03  0.83511292564E+03  0.10751759451E+04  0.46999998093E+01 0. -1.
       -5    1    3    3    0  502  0.32129054538E+03 -0.59610402600E+03  0.48826034517E+02  0.67895043708E+03  0.46999998093E+01 0.  1.
</event>
<event>
 5   0  0.5299877E-04  0.1663229E+04  0.7818609E-02  0.8782619E-01
        2   -1    0    0  501    0  0.00000000000E+00  0.00000000000E+00  0.13189079207E+04  0.13189079207E+04  0.25500000920E-02 0. -1.
       -2   -1    0    0    0  501  0.00000000000E+00  0.00000000000E+00 -0.52436006234E+03  0.52436006235E+03  0.25500000920E-02 0.  1.
    10030    2    1    2    0    0  0.00000000000E+00  0.00000000000E+00  0.79454785831E+03  0.18432679830E+04  0.16632289554E+04 0.  0.
        3    1    3    3  502    0  0.57698186474E+02 -0.81299271104E+03  0.58037426143E+03  0.10005601044E+04  0.10100000352E+00 0. -1.
       -3    1    3    3    0  502 -0.57698186474E+02  0.81299271104E+03  0.21417359688E+03  0.84270787864E+03  0.10100000352E+00 0.  1.
</event>
<event>
 5   0  0.1910750E-04  0.1688970E+04  0.7818609E-02  0.8767680E-01
       -3   -1    0    0    0  501  0.00000000000E+00  0.00000000000E+00  0.11186631690E+04  0.11186631735E+04  0.10100000352E+00 0.  1.
        3   -1    0    0  501    0  0.00000000000E+00  0.00000000000E+00 -0.63750667302E+03  0.63750668102E+03  0.10100000352E+00 0. -1.
    10030    2    1    2    0    0  0.00000000000E+00  0.00000000000E+00  0.48115649595E+03  0.17561698546E+04  0.16889703918E+04 0.  0.
        1    1    3    3  502    0 -0.70909329722E+03  0.23338851220E+03 -0.16993594743E+03  0.76561199575E+03  0.50400001928E-02 0. -1.
       -1    1    3    3    0  502  0.70909329722E+03 -0.23338851220E+03  0.65109244338E+03  0.99055785881E+03  0.50400001928E-02 0.  1.
</event>
<event>
 5   0  0.5021349E-04  0.1529968E+04  0.7818609E-02  0.8864765E-01
        2   -1    0    0  501    0  0.00000000000E+00  0.00000000000E+00  0.13072242352E+04  0.13072242352E+04  0.25500000920E-02 0. -1.
       -2   -1    0    0    0  501  0.00000000000E+00  0.00000000000E+00 -0.44766656849E+03  0.44766656850E+03  0.25500000920E-02 0.  1.
    10030    2    1    2    0    0  0.00000000000E+00  0.00000000000E+00  0.85955766674E+03  0.17548908037E+04  0.15299680881E+04 0.  0.
        2    1    3    3  502    0 -0.63755562845E+03 -0.21066968714E+03  0.93687428096E+01  0.67152562854E+03  0.25500000920E-02 0.  1.
       -2    1    3    3    0  502  0.63755562845E+03  0.21066968714E+03  0.85018892393E+03  0.10833651752E+04  0.25500000920E-02 0. -1.
</event>
<event>
 5   0  0.5310003E-04  0.1793138E+04  0.7818609E-02  0.8709957E-01
       -2   -1    0    0    0  501  0.00000000000E+00  0.00000000000E+00  0.34141098010E+03  0.34141098011E+03  0.25500000920E-02 0.  1.
        2   -1    0    0  501    0  0.00000000000E+00  0.00000000000E+00 -0.23544517561E+04  0.23544517561E+04  0.25500000920E-02 0. -1.
    10030    2    1    2    0    0  0.00000000000E+00  0.00000000000E+00 -0.20130407760E+04  0.26958627362E+04  0.17931376764E+04 0.  0.
        1    1    3    3  502    0 -0.24115244760E+03  0.55762078268E+03 -0.15234186423E+02  0.60772322707E+03  0.50400001928E-02 0.  1.
       -1    1    3    3    0  502  0.24115244760E+03 -0.55762078268E+03 -0.19978065896E+04  0.20881395091E+04  0.50400001928E-02 0. -1.
</event>
<event>
 5   0  0.2630135E-04  0.1696406E+04  0.7818609E-02  0.8763417E-01
       -1   -1    0    0    0  501  0.00000000000E+00  0.00000000000E+00  0.40237517368E+03  0.40237517371E+03  0.50400001928E-02 0. -1.
        1   -1    0    0  501    0  0.00000000000E+00  0.00000000000E+00 -0.17880036272E+04  0.17880036272E+04  0.50400001928E-02 0.  1.
    10030    2    1    2    0    0  0.00000000000E+00  0.00000000000E+00 -0.13856284535E+04  0.21903788009E+04  0.16964059303E+04 0.  0.
        1    1    3    3  502    0 -0.14155880691E+03 -0.66362855536E+02 -0.17692385882E+04  0.17761329079E+04  0.50400001928E-02 0.  1.
       -1    1    3    3    0  502  0.14155880691E+03  0.66362855536E+02  0.38361013471E+03  0.41424589302E+03  0.50400001928E-02 0. -1.
</event>
<event>
 5   0  0.5198430E-04  0.1692518E+04  0.7818609E-02  0.8765643E-01
        2   -1    0    0  501    0  0.00000000000E+00  0.00000000000E+00  0.94876369597E+03  0.94876369598E+03  0.25500000920E-02 0.  1.
       -2   -1    0    0    0  501  0.00000000000E+00  0.00000000000E+00 -0.75482892897E+03  0.75482892897E+03  0.25500000920E-02 0. -1.
    10030    2    1    2    0    0  0.00000000000E+00  0.00000000000E+00  0.19393476701E+03  0.17035926249E+04  0.16925179875E+04 0.  0.
        4    1    3    3  502    0 -0.74788678041E+03 -0.33149419616E+03  0.31501735699E+03  0.87661883764E+03  0.12699999809E+01 0.  1.
       -4    1    3    3    0  502  0.74788678041E+03  0.33149419616E+03 -0.12108258998E+03  0.82697378731E+03  0.12699999809E+01 0. -1.
</event>
<event>
 5   0  0.5198430E-04  0.1672291E+04  0.7818609E-02  0.8777328E-01
       -2   -1    0    0    0  501  0.00000000000E+00  0.00000000000E+00  0.36794001559E+03  0.36794001560E+03  0.25500000920E-02 0.  1.
        2   -1    0    0  501    0  0.00000000000E+00  0.00000000000E+00 -0.19001446285E+04  0.19001446285E+04  0.25500000920E-02 0. -1.
    10030    2    1    2    0    0  0.00000000000E+00  0.00000000000E+00 -0.15322046129E+04  0.22680846441E+04  0.16722909367E+04 0.  0.
        4    1    3    3  502    0 -0.49580739100E+03  0.11249517833E+03 -0.16664245996E+04  0.17422550597E+04  0.12699999809E+01 0. -1.
       -4    1    3    3    0  502  0.49580739100E+03 -0.11249517833E+03  0.13421998665E+03  0.52582958440E+03  0.12699999809E+01 0.  1.
</event>
<event>
 5   0  0.5342255E-04  0.1702569E+04  0.7818609E-02  0.8759901E-01
        2   -1    0    0  501    0  0.00000000000E+00  0.00000000000E+00  0.70665310421E+03  0.70665310422E+03  0.25500000920E-02 0.  1.
       -2   -1    0    0    0  501  0.00000000000E+00  0.00000000000E+00 -0.10255177358E+04  0.10255177358E+04  0.25500000920E-02 0. -1.
    10030    2    1    2    0    0  0.00000000000E+00  0.00000000000E+00 -0.31886463159E+03  0.17321708400E+04  0.17025689900E+04 0.  0.
        5    1    3    3  502    0  0.35783924084E+03  0.20888853633E+02 -0.94498253367E+03  0.10106925079E+04  0.46999998093E+01 0. -1.
       -5    1    3    3    0  502 -0.35783924084E+03 -0.20888853633E+02  0.62611790208E+03  0.72147833217E+03  0.46999998093E+01 0.  1.
</event>
<event>
 5   0  0.2561518E-04  0.1718550E+04  0.7818609E-02  0.8750855E-01
        1   -1    0    0  501    0  0.00000000000E+00  0.00000000000E+00  0.89319387120E+03  0.89319387121E+03  0.50400001928E-02 0. -1.
       -1   -1    0    0    0  501  0.00000000000E+00  0.00000000000E+00 -0.82664412322E+03  0.82664412323E+03  0.50400001928E-02 0.  1.
    10030    2    1    2    0    0  0.00000000000E+00  0.00000000000E+00  0.66549747982E+02  0.17198379944E+04  0.17185499289E+04 0.  0.
        4    1    3    3  502    0 -0.54607618914E+03  0.19304947720E+03  0.66848247998E+03  0.88449858334E+03  0.12699999809E+01 0. -1.
       -4    1    3    3    0  502  0.54607618914E+03 -0.19304947720E+03 -0.60193273200E+03  0.83533941111E+03  0.12699999809E+01 0.  1.
</event>
<event>
 5   0  0.2595644E-04  0.1715817E+04  0.7818609E-02  0.8752395E-01
        1   -1    0    0  501    0  0.00000000000E+00  0.00000000000E+00  0.93596598321E+03  0.93596598323E+03  0.50400001928E-02 0. -1.
       -1   -1    0    0    0  501  0.00000000000E+00  0.00000000000E+00 -0.78636064341E+03  0.78636064342E+03  0.50400001928E-02 0.  1.
    10030    2    1    2    0    0  0.00000000000E+00  0.00000000000E+00  0.14960533981E+03  0.17223266266E+04  0.17158167883E+04 0.  0.
        2    1    3    3  502    0  0.54793613166E+03 -0.41553414081E+03  0.58968558580E+03  0.90588725384E+03  0.25500000920E-02 0. -1.
       -2    1    3    3    0  502 -0.54793613166E+03  0.41553414081E+03 -0.44008024600E+03  0.81643937281E+03  0.25500000920E-02 0.  1.
</event>
<event>
 5   0  0.5299877E-04  0.1716000E+04  0.7818609E-02  0.8752291E-01
       -2   -1    0    0    0  501  0.00000000000E+00  0.00000000000E+00  0.11479214351E+04  0.11479214351E+04  0.25500000920E-02 0. -1.
        2   -1    0    0  501    0  0.00000000000E+00  0.00000000000E+00 -0.64130175383E+03  0.64130175384E+03  0.25500000920E-02 0.  1.
    10030    2    1    2    0    0  0.00000000000E+00  0.00000000000E+00  0.50661968130E+03  0.17892231890E+04  0.17160000345E+04 0.  0.
        3    1    3    3  502    0 -0.39645077265E+03  0.64126866314E+03  0.68037909084E+03  0.10155365237E+04  0.10100000352E+00 0.  1.
       -3    1    3    3    0  502  0.39645077265E+03 -0.64126866314E+03 -0.17375940954E+03  0.77368666530E+03  0.10100000352E+00 0. -1.
</event>
<event>
 5   0  0.5198430E-04  0.1736417E+04  0.7818609E-02  0.8740863E-01
       -2   -1    0    0    0  501  0.00000000000E+00  0.00000000000E+00  0.12580305618E+04  0.12580305618E+04  0.25500000920E-02 0.  1.
        2   -1    0    0  501    0  0.00000000000E+00  0.00000000000E+00 -0.59917947268E+03  0.59917947269E+03  0.25500000920E-02 0. -1.
    10030    2    1    2    0    0  0.00000000000E+00  0.00000000000E+00  0.65885108910E+03  0.18572100345E+04  0.17364171027E+04 0.  0.
        4    1    3    3  502    0 -0.67499898847E+03 -0.38919146231E+03  0.73907131465E+03  0.10739281400E+04  0.12699999809E+01 0.  1.
       -4    1    3    3    0  502  0.67499898847E+03  0.38919146231E+03 -0.80220225547E+02  0.78328189451E+03  0.12699999809E+01 0. -1.
</event>
<event>
 5   0  0.5198430E-04  0.1678573E+04  0.7818609E-02  0.8773680E-01
       -2   -1    0    0    0  501  0.00000000000E+00  0.00000000000E+00  0.53562300155E+03  0.53562300156E+03  0.25500000920E-02 0. -1.
        2   -1    0    0  501    0  0.00000000000E+00  0.00000000000E+00 -0.13151081698E+04  0.13151081698E+04  0.25500000920E-02 0.  1.
    10030    2    1    2    0    0  0.00000000000E+00  0.00000000000E+00 -0.77948516825E+03  0.18507311714E+04  0.16785734244E+04 0.  0.
        4    1    3    3  502    0 -0.68286040540E+03  0.36432935703E+03 -0.74763622571E+03  0.10761021107E+04  0.12699999809E+01 0. -1.
       -4    1    3    3    0  502  0.68286040540E+03 -0.36432935703E+03 -0.31848942535E+02  0.77462906071E+03  0.12699999809E+01 0.  1.
</event>
<event>
 5   0  0.2583422E-04  0.1725047E+04  0.7818609E-02  0.8747207E-01
        1   -1    0    0  501    0  0.00000000000E+00  0.00000000000E+00  0.31772597695E+04  0.31772597695E+04  0.50400001928E-02 0. -1.
       -1   -1    0    0    0  501  0.00000000000E+00  0.00000000000E+00 -0.23414716356E+03  0.23414716362E+03  0.50400001928E-02 0.  1.
    10030    2    1    2    0    0  0.00000000000E+00  0.00000000000E+00  0.29431126059E+04  0.34114069331E+04  0.17250465072E+04 0.  0.
        3    1    3    3  502    0 -0.20393900666E+03  0.73853474380E+03  0.68817324387E+03  0.10298578106E+04  0.10100000352E+00 0.  1.
       -3    1    3    3    0  502  0.20393900666E+03 -0.73853474380E+03  0.22549393620E+04  0.23815491225E+04  0.10100000352E+00 0. -1.
</event>
<event>
 5   0  0.2630135E-04  0.1683875E+04  0.7818609E-02  0.8770615E-01
        1   -1    0    0  501    0  0.00000000000E+00  0.00000000000E+00  0.20839534076E+04  0.20839534076E+04  0.50400001928E-02 0.  1.
       -1   -1    0    0    0  501  0.00000000000E+00  0.00000000000E+00 -0.34015082495E+03  0.34015082499E+03  0.50400001928E-02 0. -1.
    10030    2    1    2    0    0  0.00000000000E+00  0.00000000000E+00  0.17438025826E+04  0.24241042326E+04  0.16838746637E+04 0.  0.
        1    1    3    3  502    0  0.42765298987E+03  0.61013628848E+03  0.14362995525E+04  0.16180574077E+04  0.50400001928E-02 0.  1.
       -1    1    3    3    0  502 -0.42765298987E+03 -0.61013628848E+03  0.30750303017E+03  0.80604682485E+03  0.50400001928E-02 0. -1.
</event>
<event>
 5   0  0.2595644E-04  0.1701460E+04  0.7818609E-02  0.8760532E-01
        1   -1    0    0  501    0  0.00000000000E+00  0.00000000000E+00  0.19819001552E+04  0.19819001552E+04  0.50400001928E-02 0.  1.
       -1   -1    0    0    0  501  0.00000000000E+00  0.00000000000E+00 -0.36517555102E+03  0.36517555106E+03  0.50400001928E-02 0. -1.
    10030    2    1    2    0    0  0.00000000000E+00  0.00000000000E+00  0.16167246042E+04  0.23470757063E+04  0.17014599393E+04 0.  0.
        2    1    3    3  502    0  0.72905586708E+03  0.25393247175E+03  0.13013820060E+04  0.15131421887E+04  0.25500000920E-02 0.  1.
       -2    1    3    3    0  502 -0.72905586708E+03 -0.25393247175E+03  0.31534259815E+03  0.83393351758E+03  0.25500000920E-02 0. -1.
</event>
<event>
 5   0  0.5310003E-04  0.1706399E+04  0.7818609E-02  0.8757723E-01
       -2   -1    0    0    0  501  0.00000000000E+00  0.00000000000E+00  0.37860621422E+03  0.37860621422E+03  0.25500000920E-02 0. -1.
        2   -1    0    0  501    0  0.00000000000E+00  0.00000000000E+00 -0.19227091882E+04  0.19227091882E+04  0.25500000920E-02 0.  1.
    10030    2    1    2    0    0  0.00000000000E+00  0.00000000000E+00 -0.15441029739E+04  0.23013154024E+04  0.17063993047E+04 0.  0.
        1    1    3    3  502    0  0.36918594103E+02 -0.66055544350E+02 -0.19181745060E+04  0.19196665734E+04  0.50400001928E-02 0.  1.
       -1    1    3    3    0  502 -0.36918594103E+02  0.66055544350E+02  0.37407153207E+03  0.38164882898E+03  0.50400001928E-02 0. -1.
</event>
<event>
 5   0  0.5198430E-04  0.1704811E+04  0.7818609E-02  0.8758625E-01
       -2   -1    0    0    0  501  0.00000000000E+00  0.00000000000E+00  0.30346442647E+03  0.30346442648E+03  0.25500000920E-02 0.  1.
        2   -1    0    0  501    0  0.00000000000E+00  0.00000000000E+00 -0.23943348014E+04  0.23943348014E+04  0.25500000920E-02 0. -1.
    10030    2    1    2    0    0  0.00000000000E+00  0.00000000000E+00 -0.20908703750E+04  0.26977992279E+04  0.17048113530E+04 0.  0.
        4    1    3    3  502    0 -0.28936091628E+02  0.83140455864E+03 -0.75140800742E+03  0.11210202692E+04  0.12699999809E+01 0.  1.
       -4    1    3    3    0  502  0.28936091628E+02 -0.83140455864E+03 -0.13394623675E+04  0.15767789587E+04  0.12699999809E+01 0. -1.
</event>
<event>
 5   0  0.2785059E-04  0.1692990E+04  0.7818609E-02  0.8765372E-01
       -1   -1    0    0    0  501  0.00000000000E+00  0.00000000000E+00  0.91954616501E+03  0.91954616503E+03  0.50400001928E-02 0.  1.
        1   -1    0    0  501    0  0.00000000000E+00  0.00000000000E+00 -0.77924762021E+03  0.77924762022E+03  0.50400001928E-02 0. -1.
    10030    2    1    2    0    0  0.00000000000E+00  0.00000000000E+00  0.14029854481E+03  0.16987937853E+04  0.16929904439E+04 0.  0.
        5    1    3    3  502    0  0.82019345898E+02  0.51475074396E+03  0.73939621856E+03  0.90466809357E+03  0.46999998093E+01 0.  1.
       -5    1    3    3    0  502 -0.82019345898E+02 -0.51475074396E+03 -0.59909767375E+03  0.79412569169E+03  0.46999998093E+01 0. -1.
</event>
<event>
 5   0  0.5310003E-04  0.1737869E+04  0.7818609E-02  0.8740056E-01
       -2   -1    0    0    0  501  0.00000000000E+00  0.00000000000E+00  0.74785794855E+03  0.74785794855E+03  0.25500000920E-02 0.  1.
        2   -1    0    0  501    0  0.00000000000E+00  0.00000000000E+00 -0.10096125974E+04  0.10096125974E+04  0.25500000920E-02 0. -1.
    10030    2    1    2    0    0  0.00000000000E+00  0.00000000000E+00 -0.26175464881E+03  0.17574705459E+04  0.17378685864E+04 0.  0.
        1    1    3    3  502    0  0.32623501813E+03 -0.47875144003E+03 -0.78580430596E+03  0.97627897431E+03  0.50400001928E-02 0. -1.
       -1    1    3    3    0  502 -0.32623501813E+03  0.47875144003E+03  0.52404965715E+03  0.78119157162E+03  0.50400001928E-02 0.  1.
</event>
<event>
 5   0  0.2583422E-04  0.1686954E+04  0.7818609E-02  0.8768840E-01
        1   -1    0    0  501    0  0.00000000000E+00  0.00000000000E+00  0.17694940064E+04  0.17694940064E+04  0.50400001928E-02 0.  1.
       -1   -1    0    0    0  501  0.00000000000E+00  0.00000000000E+00 -0.40206592774E+03  0.40206592777E+03  0.50400001928E-02 0. -1.
    10030    2    1    2    0    0  0.00000000000E+00  0.00000000000E+00  0.13674280787E+04  0.21715599342E+04  0.16869537627E+04 0.  0.
        3    1    3    3  502    0 -0.34297245030E+03  0.12084278557E+03 -0.29598002109E+03  0.46886806627E+03  0.10100000352E+00 0. -1.
       -3    1    3    3    0  502  0.34297245030E+03 -0.12084278557E+03  0.16634080998E+04  0.17026918679E+04  0.10100000352E+00 0.  1.
</event>
<event>
 5   0  0.2785059E-04  0.1700711E+04  0.7818609E-02  0.8760959E-01
       -1   -1    0    0    0  501  0.00000000000E+00  0.00000000000E+00  0.14429674593E+04  0.14429674593E+04  0.50400001928E-02 0. -1.
        1   -1    0    0  501    0  0.00000000000E+00  0.00000000000E+00 -0.50112291520E+03  0.50112291523E+03  0.50400001928E-02 0.  1.
    10030    2    1    2    0    0  0.00000000000E+00  0.00000000000E+00  0.94184454407E+03  0.19440903745E+04  0.17007105101E+04 0.  0.
        5    1    3    3  502    0  0.31253244066E+03 -0.51347077253E+03 -0.21660867387E+03  0.63896022435E+03  0.46999998093E+01 0.  1.
       -5    1    3    3    0  502 -0.31253244066E+03  0.51347077253E+03  0.11584532179E+04  0.13051301502E+04  0.46999998093E+01 0. -1.
</event>
<event>
 5   0  0.2785059E-04  0.1220513E+04  0.7818609E-02  0.9095088E-01
       -1   -1    0    0    0  501  0.00000000000E+00  0.00000000000E+00  0.37214559842E+03  0.37214559845E+03  0.50400001928E-02 0.  1.
        1   -1    0    0  501    0  0.00000000000E+00  0.00000000000E+00 -0.10007191121E+04  0.10007191121E+04  0.50400001928E-02 0. -1.
    10030    2    1    2    0    0  0.00000000000E+00  0.00000000000E+00 -0.62857351366E+03  0.13728647105E+04  0.12205133557E+04 0.  0.
        5    1    3    3  502    0  0.20543917755E+03 -0.47456118285E+03 -0.67873295475E+03  0.85329601300E+03  0.46999998093E+01 0. -1.
       -5    1    3    3    0  502 -0.20543917755E+03  0.47456118285E+03  0.50159441087E+02  0.51956869754E+03  0.46999998093E+01 0.  1.
</event>
<event>
 5   0  0.1910750E-04  0.1281810E+04  0.7818609E-02  0.9044115E-01
        4   -1    0    0  501    0  0.00000000000E+00  0.00000000000E+00  0.30644790912E+03  0.30645054071E+03  0.12699999809E+01 0. -1.
       -4   -1    0    0    0  501  0.00000000000E+00  0.00000000000E+00 -0.13403801314E+04  0.13403807331E+04  0.12699999809E+01 0.  1.
    10030    2    1    2    0    0  0.00000000000E+00  0.00000000000E+00 -0.10339322223E+04  0.16468312738E+04  0.12818102059E+04 0.  0.
        2    1    3    3  502    0  0.42126721585E+03 -0.47610314543E+03 -0.41244015355E+03  0.75779096887E+03  0.25500000920E-02 0. -1.
       -2    1    3    3    0  502 -0.42126721585E+03  0.47610314543E+03 -0.62149206874E+03  0.88904030491E+03  0.25500000920E-02 0.  1.
</event>
<event>
 5   0  0.5342255E-04  0.1922159E+04  0.7818609E-02  0.8643905E-01
       -2   -1    0    0    0  501  0.00000000000E+00  0.00000000000E+00  0.13512873220E+04  0.13512873220E+04  0.25500000920E-02 0.  1.
        2   -1    0    0  501    0  0.00000000000E+00  0.00000000000E+00 -0.68355079784E+03  0.68355079785E+03  0.25500000920E-02 0. -1.
    10030    2    1    2    0    0  0.00000000000E+00  0.00000000000E+00  0.66773652418E+03  0.20348381199E+04  0.19221587105E+04 0.  0.
        5    1    3    3  502    0  0.41091404040E+03 -0.49302142822E+03  0.10911569460E+04  0.12659249773E+04  0.46999998093E+01 0.  1.
       -5    1    3    3    0  502 -0.41091404040E+03  0.49302142822E+03 -0.42342042181E+03  0.76891314261E+03  0.46999998093E+01 0. -1.
</event>
<event>
 5   0  0.5021349E-04  0.1712414E+04  0.7818609E-02  0.8754316E-01
       -2   -1    0    0    0  501  0.00000000000E+00  0.00000000000E+00  0.81806475045E+03  0.81806475045E+03  0.25500000920E-02 0.  1.
        2   -1    0    0  501    0  0.00000000000E+00  0.00000000000E+00 -0.89612753343E+03  0.89612753344E+03  0.25500000920E-02 0. -1.
    10030    2    1    2    0    0  0.00000000000E+00  0.00000000000E+00 -0.78062782984E+02  0.17141922839E+04  0.17124139068E+04 0.  0.
        2    1    3    3  502    0 -0.33458122220E+03  0.68212574516E+03 -0.43422007550E+03  0.87509268105E+03  0.25500000920E-02 0. -1.
       -2    1    3    3    0  502  0.33458122220E+03 -0.68212574516E+03  0.35615729252E+03  0.83909960284E+03  0.25500000920E-02 0.  1.
</event>
<event>
 5   0  0.2630135E-04  0.1689545E+04  0.7818609E-02  0.8767350E-01
       -1   -1    0    0    0  501  0.00000000000E+00  0.00000000000E+00  0.29613438245E+03  0.29613438249E+03  0.50400001928E-02 0. -1.
        1   -1    0    0  501    0  0.00000000000E+00  0.00000000000E+00 -0.24098550189E+04  0.24098550189E+04  0.50400001928E-02 0.  1.
    10030    2    1    2    0    0  0.00000000000E+00  0.00000000000E+00 -0.21137206364E+04  0.27059894014E+04  0.16895454156E+04 0.  0.
        1    1    3    3  502    0  0.56599816271E+02  0.47049658752E+03  0.63201229889E+02  0.47808469287E+03  0.50400001928E-02 0. -1.
       -1    1    3    3    0  502 -0.56599816271E+02 -0.47049658752E+03 -0.21769218663E+04  0.22279047085E+04  0.50400001928E-02 0.  1.
</event>
<event>
 5   0  0.5342255E-04  0.1706457E+04  0.7818609E-02  0.8757690E-01
       -2   -1    0    0    0  501  0.00000000000E+00  0.00000000000E+00  0.82847646838E+03  0.82847646838E+03  0.25500000920E-02 0. -1.
        2   -1    0    0  501    0  0.00000000000E+00  0.00000000000E+00 -0.87871987145E+03  0.87871987146E+03  0.25500000920E-02 0.  1.
    10030    2    1    2    0    0  0.00000000000E+00  0.00000000000E+00 -0.50243403073E+02  0.17071963398E+04  0.17064568390E+04 0.  0.
        5    1    3    3  502    0 -0.36958922094E+03  0.66343001427E+03 -0.41418748024E+03  0.86504851590E+03  0.46999998093E+01 0.  1.
       -5    1    3    3    0  502  0.36958922094E+03 -0.66343001427E+03  0.36394407716E+03  0.84214782394E+03  0.46999998093E+01 0. -1.
</event>
<event>
 5   0  0.2785059E-04  0.1671430E+04  0.7818609E-02  0.8777829E-01
        1   -1    0    0  501    0  0.00000000000E+00  0.00000000000E+00  0.10224037966E+04  0.10224037966E+04  0.50400001928E-02 0. -1.
       -1   -1    0    0    0  501  0.00000000000E+00  0.00000000000E+00 -0.68311545418E+03  0.68311545420E+03  0.50400001928E-02 0.  1.
    10030    2    1    2    0    0  0.00000000000E+00  0.00000000000E+00  0.33928834238E+03  0.17055192508E+04  0.16714303262E+04 0.  0.
        5    1    3    3  502    0 -0.34526395267E+03  0.53489475798E+03 -0.38276396304E+03  0.74286603135E+03  0.46999998093E+01 0.  1.
       -5    1    3    3    0  502  0.34526395267E+03 -0.53489475798E+03  0.72205230542E+03  0.96265321943E+03  0.46999998093E+01 0. -1.
</event>
<event>
 5   0  0.5299877E-04  0.1653929E+04  0.7818609E-02  0.8788085E-01
       -2   -1    0    0    0  501  0.00000000000E+00  0.00000000000E+00  0.35502363797E+03  0.35502363798E+03  0.25500000920E-02 0.  1.
        2   -1    0    0  501    0  0.00000000000E+00  0.00000000000E+00 -0.19262675756E+04  0.19262675756E+04  0.25500000920E-02 0. -1.
    10030    2    1    2    0    0  0.00000000000E+00  0.00000000000E+00 -0.15712439376E+04  0.22812912136E+04  0.16539292880E+04 0.  0.
        3    1    3    3  502    0  0.48721076665E+03  0.49187684242E+03 -0.16179076916E+03  0.71098060623E+03  0.10100000352E+00 0.  1.
       -3    1    3    3    0  502 -0.48721076665E+03 -0.49187684242E+03 -0.14094531685E+04  0.15703106074E+04  0.10100000352E+00 0. -1.
</event>
<event>
 5   0  0.5342255E-04  0.1694661E+04  0.7818609E-02  0.8764415E-01
        2   -1    0    0  501    0  0.00000000000E+00  0.00000000000E+00  0.54991904938E+03  0.54991904938E+03  0.25500000920E-02 0.  1.
       -2   -1    0    0    0  501  0.00000000000E+00  0.00000000000E+00 -0.13055898111E+04  0.13055898111E+04  0.25500000920E-02 0. -1.
    10030    2    1    2    0    0  0.00000000000E+00  0.00000000000E+00 -0.75567076173E+03  0.18555088605E+04  0.16946606832E+04 0.  0.
        5    1    3    3  502    0  0.55235964578E+03  0.18124892503E+03  0.29711026625E+03  0.65287743982E+03  0.46999998093E+01 0.  1.
       -5    1    3    3    0  502 -0.55235964578E+03 -0.18124892503E+03 -0.10527810280E+04  0.12026314207E+04  0.46999998093E+01 0. -1.
</event>
<event>
 5   0  0.2561518E-04  0.1696781E+04  0.7818609E-02  0.8763202E-01
        1   -1    0    0  501    0  0.00000000000E+00  0.00000000000E+00  0.45038328654E+03  0.45038328657E+03  0.50400001928E-02 0. -1.
       -1   -1    0    0    0  501  0.00000000000E+00  0.00000000000E+00 -0.15981200816E+04  0.15981200816E+04  0.50400001928E-02 0.  1.
    10030    2    1    2    0    0  0.00000000000E+00  0.00000000000E+00 -0.11477367951E+04  0.20485033682E+04  0.16967811582E+04 0.  0.
        4    1    3    3  502    0 -0.30462278305E+03 -0.12713485324E+03 -0.15174136377E+04  0.15529018229E+04  0.12699999809E+01 0.  1.
       -4    1    3    3    0  502  0.30462278305E+03  0.12713485324E+03  0.36967684259E+03  0.49560154531E+03  0.12699999809E+01 0. -1.
</event>
<event>
 5   0  0.5299877E-04  0.1696408E+04  0.7818609E-02  0.8763415E-01
        2   -1    0    0  501    0  0.00000000000E+00  0.00000000000E+00  0.16969028780E+04  0.16969028780E+04  0.25500000920E-02 0.  1.
       -2   -1    0    0    0  501  0.00000000000E+00  0.00000000000E+00 -0.42397855670E+03  0.42397855671E+03  0.25500000920E-02 0. -1.
    10030    2    1    2    0    0  0.00000000000E+00  0.00000000000E+00  0.12729243213E+04  0.21208814347E+04  0.16964084804E+04 0.  0.
        3    1    3    3  502    0 -0.82286559405E+03  0.13714175213E+03  0.44466551915E+03  0.94532696998E+03  0.10100000352E+00 0. -1.
       -3    1    3    3    0  502  0.82286559405E+03 -0.13714175213E+03  0.82825880215E+03  0.11755544647E+04  0.10100000352E+00 0.  1.
</event>
<event>
 5   0  0.5021349E-04  0.1665836E+04  0.7818609E-02  0.8781093E-01
       -2   -1    0    0    0  501  0.00000000000E+00  0.00000000000E+00  0.42458165428E+03  0.42458165429E+03  0.25500000920E-02 0. -1.
        2   -1    0    0  501    0  0.00000000000E+00  0.00000000000E+00 -0.16339669414E+04  0.16339669414E+04  0.25500000920E-02 0.  1.
    10030    2    1    2    0    0  0.00000000000E+00  0.00000000000E+00 -0.12093852871E+04  0.20585485957E+04  0.16658359908E+04 0.  0.
        2    1    3    3  502    0 -0.65041067683E+03  0.51590379496E+03 -0.52123077672E+03  0.98024093813E+03  0.25500000920E-02 0.  1.
       -2    1    3    3    0  502  0.65041067683E+03 -0.51590379496E+03 -0.68815451043E+03  0.10783076576E+04  0.25500000920E-02 0. -1.
</event>
<event>
 5   0  0.5198430E-04  0.1652261E+04  0.7818609E-02  0.8789070E-01
        2   -1    0    0  501    0  0.00000000000E+00  0.00000000000E+00  0.11467105677E+04  0.11467105677E+04  0.25500000920E-02 0.  1.
       -2   -1    0    0    0  501  0.00000000000E+00  0.00000000000E+00 -0.59517333320E+03  0.59517333321E+03  0.25500000920E-02 0. -1.
    10030    2    1    2    0    0  0.00000000000E+00  0.00000000000E+00  0.55153723451E+03  0.17418839009E+04  0.16522609368E+04 0.  0.
        4    1    3    3  502    0  0.57170621345E+03 -0.21193094961E+02 -0.35253946241E+03  0.67199912741E+03  0.12699999809E+01 0. -1.
       -4    1    3    3    0  502 -0.57170621345E+03  0.21193094961E+02  0.90407669693E+03  0.10698847735E+04  0.12699999809E+01 0.  1.
</event>
<event>
 5   0  0.5299877E-04  0.1774216E+04  0.7818609E-02  0.8720132E-01
       -2   -1    0    0    0  501  0.00000000000E+00  0.00000000000E+00  0.12535556917E+04  0.12535556917E+04  0.25500000920E-02 0.  1.
        2   -1    0    0  501    0  0.00000000000E+00  0.00000000000E+00 -0.62778288641E+03  0.62778288642E+03  0.25500000920E-02 0. -1.
    10030    2    1    2    0    0  0.00000000000E+00  0.00000000000E+00  0.62577280524E+03  0.18813385781E+04  0.17742162330E+04 0.  0.
        3    1    3    3  502    0  0.62238038020E+03  0.22817364568E+03  0.93800578843E+03  0.11485971529E+04  0.10100000352E+00 0.  1.
       -3    1    3    3    0  502 -0.62238038020E+03 -0.22817364568E+03 -0.31223298319E+03  0.73274142521E+03  0.10100000352E+00 0. -1.
</event>
<event>
 5   0  0.5310003E-04  0.1663781E+04  0.7818609E-02  0.8782295E-01
        2   -1    0    0  501    0  0.00000000000E+00  0.00000000000E+00  0.94887441680E+03  0.94887441681E+03  0.25500000920E-02 0. -1.
       -2   -1    0    0    0  501  0.00000000000E+00  0.00000000000E+00 -0.72932947748E+03  0.72932947749E+03  0.25500000920E-02 0.  1.
    10030    2    1    2    0    0  0.00000000000E+00  0.00000000000E+00  0.21954493932E+03  0.16782038943E+04  0.16637813349E+04 0.  0.
        1    1    3    3  502    0  0.32379511577E+03 -0.72545076623E+03 -0.13918685271E+03  0.80653274652E+03  0.50400001928E-02 0.  1.
       -1    1    3    3    0  502 -0.32379511577E+03  0.72545076623E+03  0.35873179204E+03  0.87167114777E+03  0.50400001928E-02 0. -1.
</event>
<event>
 5   0  0.5310003E-04  0.1662192E+04  0.7818609E-02  0.8783226E-01
       -2   -1    0    0    0  501  0.00000000000E+00  0.00000000000E+00  0.92260431744E+03  0.92260431744E+03  0.25500000920E-02 0.  1.
        2   -1    0    0  501    0  0.00000000000E+00  0.00000000000E+00 -0.74866396515E+03  0.74866396516E+03  0.25500000920E-02 0. -1.
    10030    2    1    2    0    0  0.00000000000E+00  0.00000000000E+00  0.17394035228E+03  0.16712682826E+04  0.16621920546E+04 0.  0.
        1    1    3    3  502    0 -0.23651812034E+02 -0.75142333204E+03  0.44319867106E+03  0.87270928390E+03  0.50400001928E-02 0.  1.
       -1    1    3    3    0  502  0.23651812034E+02  0.75142333204E+03 -0.26925831878E+03  0.79855899870E+03  0.50400001928E-02 0. -1.
</event>
<event>
 5   0  0.2630135E-04  0.1706577E+04  0.7818609E-02  0.8757622E-01
        1   -1    0    0  501    0  0.00000000000E+00  0.00000000000E+00  0.51511203870E+03  0.51511203873E+03  0.50400001928E-02 0.  1.
       -1   -1    0    0    0  501  0.00000000000E+00  0.00000000000E+00 -0.14134821339E+04  0.14134821339E+04  0.50400001928E-02 0. -1.
    10030    2    1    2    0    0  0.00000000000E+00  0.00000000000E+00 -0.89837009518E+03  0.19285941726E+04  0.17065774681E+04 0.  0.
        1    1    3    3  502    0 -0.78357769932E+03  0.26689668434E+03 -0.21518772086E+03  0.85529737882E+03  0.50400001928E-02 0.  1.
       -1    1    3    3    0  502  0.78357769932E+03 -0.26689668434E+03 -0.68318237432E+03  0.10732967938E+04  0.50400001928E-02 0. -1.
</event>
<event>
 5   0  0.2595644E-04  0.1569073E+04  0.7818609E-02  0.8839776E-01
        1   -1    0    0  501    0  0.00000000000E+00  0.00000000000E+00  0.11444427037E+04  0.11444427037E+04  0.50400001928E-02 0. -1.
       -1   -1    0    0    0  501  0.00000000000E+00  0.00000000000E+00 -0.53781416855E+03  0.53781416858E+03  0.50400001928E-02 0.  1.
    10030    2    1    2    0    0  0.00000000000E+00  0.00000000000E+00  0.60662853512E+03  0.16822568723E+04  0.15690729762E+04 0.  0.
        2    1    3    3  502    0  0.77011692116E+03 -0.74718033794E+02  0.16420657683E+03  0.79096564825E+03  0.25500000920E-02 0. -1.
       -2    1    3    3    0  502 -0.77011692116E+03  0.74718033794E+02  0.44242195829E+03  0.89129122402E+03  0.25500000920E-02 0.  1.
</event>
<event>
 5   0  0.5310003E-04  0.1721181E+04  0.7818609E-02  0.8749375E-01
       -2   -1    0    0    0  501  0.00000000000E+00  0.00000000000E+00  0.38516950111E+03  0.38516950112E+03  0.25500000920E-02 0. -1.
        2   -1    0    0  501    0  0.00000000000E+00  0.00000000000E+00 -0.19228324586E+04  0.19228324586E+04  0.25500000920E-02 0.  1.
    10030    2    1    2    0    0  0.00000000000E+00  0.00000000000E+00 -0.15376629574E+04  0.23080019597E+04  0.17211814765E+04 0.  0.
        1    1    3    3  502    0 -0.37492681511E+03  0.15018364198E+03 -0.17878502541E+04  0.18329031000E+04  0.50400001928E-02 0.  1.
       -1    1    3    3    0  502  0.37492681511E+03 -0.15018364198E+03  0.25018729664E+03  0.47509885965E+03  0.50400001928E-02 0. -1.
</event>
<event>
 5   0  0.2583422E-04  0.1727056E+04  0.7818609E-02  0.8746082E-01
        1   -1    0    0  501    0  0.00000000000E+00  0.00000000000E+00  0.47006508871E+03  0.47006508873E+03  0.50400001928E-02 0.  1.
       -1   -1    0    0    0  501  0.00000000000E+00  0.00000000000E+00 -0.15863348258E+04  0.15863348258E+04  0.50400001928E-02 0. -1.
    10030    2    1    2    0    0  0.00000000000E+00  0.00000000000E+00 -0.11162697371E+04  0.20563999145E+04  0.17270560161E+04 0.  0.
        3    1    3    3  502    0  0.85182744652E+03 -0.79188400083E+02 -0.41826064381E+03  0.95227242831E+03  0.10100000352E+00 0. -1.
       -3    1    3    3    0  502 -0.85182744652E+03  0.79188400083E+02 -0.69800909329E+03  0.11041274862E+04  0.10100000352E+00 0.  1.
</event>
<event>
 5   0  0.5342255E-04  0.1860731E+04  0.7818609E-02  0.8674654E-01
        2   -1    0    0  501    0  0.00000000000E+00  0.00000000000E+00  0.22417685285E+04  0.22417685285E+04  0.25500000920E-02 0.  1.
       -2   -1    0    0    0  501  0.00000000000E+00  0.00000000000E+00 -0.38611478236E+03  0.38611478236E+03  0.25500000920E-02 0. -1.
    10030    2    1    2    0    0  0.00000000000E+00  0.00000000000E+00  0.18556537462E+04  0.26278833109E+04  0.18607310042E+04 0.  0.
        5    1    3    3  502    0 -0.13826867162E+03 -0.69060282699E+03  0.17863145103E+04  0.19201541891E+04  0.46999998093E+01 0.  1.
       -5    1    3    3    0  502  0.13826867162E+03  0.69060282699E+03  0.69339235866E+02  0.70772912179E+03  0.46999998093E+01 0. -1.
</event>
<event>
 5   0  0.2583422E-04  0.1727274E+04  0.7818609E-02  0.8745960E-01
        1   -1    0    0  501    0  0.00000000000E+00  0.00000000000E+00  0.12633922922E+04  0.12633922922E+04  0.50400001928E-02 0. -1.
       -1   -1    0    0    0  501  0.00000000000E+00  0.00000000000E+00 -0.59037027564E+03  0.59037027567E+03  0.50400001928E-02 0.  1.
    10030    2    1    2    0    0  0.00000000000E+00  0.00000000000E+00  0.67302201652E+03  0.18537625678E+04  0.17272744493E+04 0.  0.
        3    1    3    3  502    0 -0.66009632295E+03  0.80074474555E+02  0.92798646079E+03  0.11416207596E+04  0.10100000352E+00 0. -1.
       -3    1    3    3    0  502  0.66009632295E+03 -0.80074474555E+02 -0.25496444428E+03  0.71214180828E+03  0.10100000352E+00 0.  1.
</event>
<event>
 5   0  0.5021349E-04  0.1700330E+04  0.7818609E-02  0.8761176E-01
       -2   -1    0    0    0  501  0.00000000000E+00  0.00000000000E+00  0.67280919197E+03  0.67280919198E+03  0.25500000920E-02 0. -1.
        2   -1    0    0  501    0  0.00000000000E+00  0.00000000000E+00 -0.10742722508E+04  0.10742722508E+04  0.25500000920E-02 0.  1.
    10030    2    1    2    0    0  0.00000000000E+00  0.00000000000E+00 -0.40146305882E+03  0.17470814428E+04  0.17003296681E+04 0.  0.
        2    1    3    3  502    0  0.71207894448E+03  0.39748301987E+02 -0.67621219968E+03  0.98280175503E+03  0.25500000920E-02 0.  1.
       -2    1    3    3    0  502 -0.71207894448E+03 -0.39748301987E+02  0.27474914086E+03  0.76427968774E+03  0.25500000920E-02 0. -1.
</event>
<event>
 5   0  0.2561518E-04  0.1700798E+04  0.7818609E-02  0.8760910E-01
        1   -1    0    0  501    0  0.00000000000E+00  0.00000000000E+00  0.48374847755E+03  0.48374847757E+03  0.50400001928E-02 0.  1.
       -1   -1    0    0    0  501  0.00000000000E+00  0.00000000000E+00 -0.14949465518E+04  0.14949465518E+04  0.50400001928E-02 0. -1.
    10030    2    1    2    0    0  0.00000000000E+00  0.00000000000E+00 -0.10111980742E+04  0.19786950294E+04  0.17007975993E+04 0.  0.
        4    1    3    3  502    0  0.70818709319E+03 -0.30033462560E+03 -0.83804447126E+02  0.77379237819E+03  0.12699999809E+01 0.  1.
       -4    1    3    3    0  502 -0.70818709319E+03  0.30033462560E+03 -0.92739362711E+03  0.12049026512E+04  0.12699999809E+01 0. -1.
</event>
<event>
 5   0  0.2785059E-04  0.1689410E+04  0.7818609E-02  0.8767427E-01
       -1   -1    0    0    0  501  0.00000000000E+00  0.00000000000E+00  0.71832671647E+03  0.71832671649E+03  0.50400001928E-02 0.  1.
        1   -1    0    0  501    0  0.00000000000E+00  0.00000000000E+00 -0.99331800946E+03  0.99331800948E+03  0.50400001928E-02 0. -1.
    10030    2    1    2    0    0  0.00000000000E+00  0.00000000000E+00 -0.27499129300E+03  0.17116447260E+04  0.16894103873E+04 0.  0.
        5    1    3    3  502    0  0.53874781710E+03  0.65034058385E+03 -0.11957991320E+03  0.85294403748E+03  0.46999998093E+01 0. -1.
       -5    1    3    3    0  502 -0.53874781710E+03 -0.65034058385E+03 -0.15541137980E+03  0.85870068848E+03  0.46999998093E+01 0.  1.
</event>
<event>
 5   0  0.2630135E-04  0.1515988E+04  0.7818609E-02  0.8873890E-01
        1   -1    0    0  501    0  0.00000000000E+00  0.00000000000E+00  0.85916736930E+03  0.85916736932E+03  0.50400001928E-02 0.  1.
       -1   -1    0    0    0  501  0.00000000000E+00  0.00000000000E+00 -0.66873487948E+03  0.66873487950E+03  0.50400001928E-02 0. -1.
    10030    2    1    2    0    0  0.00000000000E+00  0.00000000000E+00  0.19043248982E+03  0.15279022488E+04  0.15159883736E+04 0.  0.
        1    1    3    3  502    0 -0.18106746053E+03  0.12034193593E+03 -0.63663610319E+03  0.67273556076E+03  0.50400001928E-02 0. -1.
       -1    1    3    3    0  502  0.18106746053E+03 -0.12034193593E+03  0.82706859301E+03  0.85516668806E+03  0.50400001928E-02 0.  1.
</event>
<event>
 5   0  0.2595644E-04  0.1703100E+04  0.7818609E-02  0.8759598E-01
        1   -1    0    0  501    0  0.00000000000E+00  0.00000000000E+00  0.10622015614E+04  0.10622015614E+04  0.50400001928E-02 0.  1.
       -1   -1    0    0    0  501  0.00000000000E+00  0.00000000000E+00 -0.68267441259E+03  0.68267441260E+03  0.50400001928E-02 0. -1.
    10030    2    1    2    0    0  0.00000000000E+00  0.00000000000E+00  0.37952714883E+03  0.17448759740E+04  0.17031004985E+04 0.  0.
        2    1    3    3  502    0 -0.66756372795E+03  0.49562890781E+03  0.37825599177E+03  0.91343688367E+03  0.25500000920E-02 0.  1.
       -2    1    3    3    0  502  0.66756372795E+03 -0.49562890781E+03  0.12711570586E+01  0.83143909036E+03  0.25500000920E-02 0. -1.
</event>
<event>
 5   0  0.5299877E-04  0.1685783E+04  0.7818609E-02  0.8769514E-01
        2   -1    0    0  501    0  0.00000000000E+00  0.00000000000E+00  0.13839089701E+04  0.13839089701E+04  0.25500000920E-02 0. -1.
       -2   -1    0    0    0  501  0.00000000000E+00  0.00000000000E+00 -0.51337651171E+03  0.51337651172E+03  0.25500000920E-02 0.  1.
    10030    2    1    2    0    0  0.00000000000E+00  0.00000000000E+00  0.87053245838E+03  0.18972854818E+04  0.16857833308E+04 0.  0.
        3    1    3    3  502    0  0.72635757194E+03 -0.20241933028E+03  0.11312742615E+02  0.75411994798E+03  0.10100000352E+00 0.  1.
       -3    1    3    3    0  502 -0.72635757194E+03  0.20241933028E+03  0.85921971577E+03  0.11431655338E+04  0.10100000352E+00 0. -1.
</event>
<event>
 5   0  0.5310003E-04  0.1500694E+04  0.7818609E-02  0.8883992E-01
       -2   -1    0    0    0  501  0.00000000000E+00  0.00000000000E+00  0.37085974776E+03  0.37085974777E+03  0.25500000920E-02 0. -1.
        2   -1    0    0  501    0  0.00000000000E+00  0.00000000000E+00 -0.15181496907E+04  0.15181496907E+04  0.25500000920E-02 0.  1.
    10030    2    1    2    0    0  0.00000000000E+00  0.00000000000E+00 -0.11472899430E+04  0.18890094385E+04  0.15006939880E+04 0.  0.
        1    1    3    3  502    0  0.70015882035E+03 -0.12552289537E+03 -0.87428047860E+03  0.11270957041E+04  0.50400001928E-02 0.  1.
       -1    1    3    3    0  502 -0.70015882035E+03  0.12552289537E+03 -0.27300946438E+03  0.76191373438E+03  0.50400001928E-02 0. -1.
</event>
<event>
 5   0  0.2595644E-04  0.1627948E+04  0.7818609E-02  0.8803560E-01
       -1   -1    0    0    0  501  0.00000000000E+00  0.00000000000E+00  0.31582820288E+03  0.31582820292E+03  0.50400001928E-02 0.  1.
        1   -1    0    0  501    0  0.00000000000E+00  0.00000000000E+00 -0.20978292010E+04  0.20978292010E+04  0.50400001928E-02 0. -1.
    10030    2    1    2    0    0  0.00000000000E+00  0.00000000000E+00 -0.17820009982E+04  0.24136574040E+04  0.16279479433E+04 0.  0.
        2    1    3    3  502    0  0.62950105590E+02  0.79101193826E+02  0.30648452497E+03  0.32272663155E+03  0.25500000920E-02 0.  1.
       -2    1    3    3    0  502 -0.62950105590E+02 -0.79101193826E+02 -0.20884855231E+04  0.20909307724E+04  0.25500000920E-02 0. -1.
</event>
<event>
 5   0  0.2561518E-04  0.1678530E+04  0.7818609E-02  0.8773705E-01
        1   -1    0    0  501    0  0.00000000000E+00  0.00000000000E+00  0.17361389348E+04  0.17361389348E+04  0.50400001928E-02 0.  1.
       -1   -1    0    0    0  501  0.00000000000E+00  0.00000000000E+00 -0.40570823074E+03  0.40570823077E+03  0.50400001928E-02 0. -1.
    10030    2    1    2    0    0  0.00000000000E+00  0.00000000000E+00  0.13304307041E+04  0.21418471656E+04  0.16785301375E+04 0.  0.
        4    1    3    3  502    0  0.75065531897E+03 -0.33245588351E+03  0.44290139465E+03  0.93283094967E+03  0.12699999809E+01 0. -1.
       -4    1    3    3    0  502 -0.75065531897E+03  0.33245588351E+03  0.88752930940E+03  0.12090162159E+04  0.12699999809E+01 0.  1.
</event>
<event>
 5   0  0.2583422E-04  0.1684545E+04  0.7818609E-02  0.8770229E-01
        1   -1    0    0  501    0  0.00000000000E+00  0.00000000000E+00  0.15033171414E+04  0.15033171414E+04  0.50400001928E-02 0.  1.
       -1   -1    0    0    0  501  0.00000000000E+00  0.00000000000E+00 -0.47190478256E+03  0.47190478258E+03  0.50400001928E-02 0. -1.
    10030    2    1    2    0    0  0.00000000000E+00  0.00000000000E+00  0.10314123588E+04  0.19752219240E+04  0.16845445067E+04 0.  0.
        3    1    3    3  502    0  0.69566236313E+03  0.11626159159E+03  0.10555399036E+04  0.12694988694E+04  0.10100000352E+00 0.  1.
       -3    1    3    3    0  502 -0.69566236313E+03 -0.11626159159E+03 -0.24127544754E+02  0.70572305458E+03  0.10100000352E+00 0. -1.
</event>
<event>
 5   0  0.2561518E-04  0.1694342E+04  0.7818609E-02  0.8764598E-01
        1   -1    0    0  501    0  0.00000000000E+00  0.00000000000E+00  0.92820407260E+03  0.92820407262E+03  0.50400001928E-02 0.  1.
       -1   -1    0    0    0  501  0.00000000000E+00  0.00000000000E+00 -0.77321209865E+03  0.77321209867E+03  0.50400001928E-02 0. -1.
    10030    2    1    2    0    0  0.00000000000E+00  0.00000000000E+00  0.15499197395E+03  0.17014161713E+04  0.16943419005E+04 0.  0.
        4    1    3    3  502    0 -0.74413070881E+03  0.34735132674E+03 -0.13149203522E+03  0.83167014146E+03  0.12699999809E+01 0. -1.
       -4    1    3    3    0  502  0.74413070881E+03 -0.34735132674E+03  0.28648400918E+03  0.86974602982E+03  0.12699999809E+01 0.  1.
</event>
<event>
 5   0  0.5021349E-04  0.1687147E+04  0.7818609E-02  0.8768729E-01
        2   -1    0    0  501    0  0.00000000000E+00  0.00000000000E+00  0.16847363911E+04  0.16847363911E+04  0.25500000920E-02 0.  1.
       -2   -1    0    0    0  501  0.00000000000E+00  0.00000000000E+00 -0.42239032973E+03  0.42239032974E+03  0.25500000920E-02 0. -1.
    10030    2    1    2    0    0  0.00000000000E+00  0.00000000000E+00  0.12623460613E+04  0.21071267208E+04  0.16871471302E+04 0.  0.
        2    1    3    3  502    0  0.57473253555E+03 -0.28554743833E+03  0.13149676000E+04  0.14632137971E+04  0.25500000920E-02 0.  1.
       -2    1    3    3    0  502 -0.57473253555E+03  0.28554743833E+03 -0.52621538682E+02  0.64391292369E+03  0.25500000920E-02 0. -1.
</event>
<event>
 5   0  0.5310003E-04  0.1702222E+04  0.7818609E-02  0.8760098E-01
       -2   -1    0    0    0  501  0.00000000000E+00  0.00000000000E+00  0.13677612843E+04  0.13677612843E+04  0.25500000920E-02 0.  1.
        2   -1    0    0  501    0  0.00000000000E+00  0.00000000000E+00 -0.52961741195E+03  0.52961741196E+03  0.25500000920E-02 0. -1.
    10030    2    1    2    0    0  0.00000000000E+00  0.00000000000E+00  0.83814387233E+03  0.18973786962E+04  0.17022223022E+04 0.  0.
        1    1    3    3  502    0  0.65271585977E+03  0.41296414723E+03  0.81756882676E+03  0.11247204840E+04  0.50400001928E-02 0.  1.
       -1    1    3    3    0  502 -0.65271585977E+03 -0.41296414723E+03  0.20575045567E+02  0.77265821229E+03  0.50400001928E-02 0. -1.
</event>
<event>
 5   0  0.2630135E-04  0.1730088E+04  0.7818609E-02  0.8744388E-01
        1   -1    0    0  501    0  0.00000000000E+00  0.00000000000E+00  0.11362567792E+04  0.11362567792E+04  0.50400001928E-02 0. -1.
       -1   -1    0    0    0  501  0.00000000000E+00  0.00000000000E+00 -0.65856696757E+03  0.65856696759E+03  0.50400001928E-02 0.  1.
    10030    2    1    2    0    0  0.00000000000E+00  0.00000000000E+00  0.47768981163E+03  0.17948237468E+04  0.17300880688E+04 0.  0.
        1    1    3    3  502    0  0.11727587879E+03 -0.58867439582E+03  0.88505696478E+03  0.10694003025E+04  0.50400001928E-02 0. -1.
       -1    1    3    3    0  502 -0.11727587879E+03  0.58867439582E+03 -0.40736715316E+03  0.72542344430E+03  0.50400001928E-02 0.  1.
</event>
<event>
 5   0  0.5021349E-04  0.1656041E+04  0.7818609E-02  0.8786841E-01
        2   -1    0    0  501    0  0.00000000000E+00  0.00000000000E+00  0.13402019836E+04  0.13402019836E+04  0.25500000920E-02 0. -1.
       -2   -1    0    0    0  501  0.00000000000E+00  0.00000000000E+00 -0.51157790764E+03  0.51157790765E+03  0.25500000920E-02 0.  1.
    10030    2    1    2    0    0  0.00000000000E+00  0.00000000000E+00  0.82862407596E+03  0.18517798913E+04  0.16560407321E+04 0.  0.
        2    1    3    3  502    0  0.12539703233E+03  0.81706683312E+03  0.36074233245E+03  0.90191887436E+03  0.25500000920E-02 0.  1.
       -2    1    3    3    0  502 -0.12539703233E+03 -0.81706683312E+03  0.46788174351E+03  0.94986101689E+03  0.25500000920E-02 0. -1.
</event>
<event>
 5   0  0.2583422E-04  0.1594571E+04  0.7818609E-02  0.8823890E-01
        1   -1    0    0  501    0  0.00000000000E+00  0.00000000000E+00  0.32177812974E+03  0.32177812977E+03  0.50400001928E-02 0. -1.
       -1   -1    0    0    0  501  0.00000000000E+00  0.00000000000E+00 -0.19754737790E+04  0.19754737790E+04  0.50400001928E-02 0.  1.
    10030    2    1    2    0    0  0.00000000000E+00  0.00000000000E+00 -0.16536956493E+04  0.22972519088E+04  0.15945711123E+04 0.  0.
        3    1    3    3  502    0  0.28512957899E+03  0.27430774326E+02 -0.18987813130E+04  0.19202660776E+04  0.10100000352E+00 0.  1.
       -3    1    3    3    0  502 -0.28512957899E+03 -0.27430774326E+02  0.24508566366E+03  0.37698583120E+03  0.10100000352E+00 0. -1.
</event>
<event>
 5   0  0.5310003E-04  0.1658720E+04  0.7818609E-02  0.8785264E-01
       -2   -1    0    0    0  501  0.00000000000E+00  0.00000000000E+00  0.58528373087E+03  0.58528373087E+03  0.25500000920E-02 0.  1.
        2   -1    0    0  501    0  0.00000000000E+00  0.00000000000E+00 -0.11752218731E+04  0.11752218731E+04  0.25500000920E-02 0. -1.
    10030    2    1    2    0    0  0.00000000000E+00  0.00000000000E+00 -0.58993814227E+03  0.17605056040E+04  0.16587202808E+04 0.  0.
        1    1    3    3  502    0 -0.65122528573E+02  0.81198872467E+03 -0.12961551184E+03  0.82484350859E+03  0.50400001928E-02 0. -1.
       -1    1    3    3    0  502  0.65122528573E+02 -0.81198872467E+03 -0.46032263043E+03  0.93566209543E+03  0.50400001928E-02 0.  1.
</event>
<event>
 5   0  0.2583422E-04  0.1698912E+04  0.7818609E-02  0.8761985E-01
        1   -1    0    0  501    0  0.00000000000E+00  0.00000000000E+00  0.44701919775E+03  0.44701919777E+03  0.50400001928E-02 0. -1.
       -1   -1    0    0    0  501  0.00000000000E+00  0.00000000000E+00 -0.16141942648E+04  0.16141942649E+04  0.50400001928E-02 0.  1.
    10030    2    1    2    0    0  0.00000000000E+00  0.00000000000E+00 -0.11671750671E+04  0.20612134626E+04  0.16989123878E+04 0.  0.
        3    1    3    3  502    0 -0.73093405743E+03 -0.16815774165E+03 -0.10674224892E+04  0.13045813133E+04  0.10100000352E+00 0. -1.
       -3    1    3    3    0  502  0.73093405743E+03  0.16815774165E+03 -0.99752577908E+02  0.75663214932E+03  0.10100000352E+00 0.  1.
</event>
<event>
 5   0  0.5342255E-04  0.1719679E+04  0.7818609E-02  0.8750219E-01
       -2   -1    0    0    0  501  0.00000000000E+00  0.00000000000E+00  0.48428234607E+03  0.48428234608E+03  0.25500000920E-02 0.  1.
        2   -1    0    0  501    0  0.00000000000E+00  0.00000000000E+00 -0.15266386963E+04  0.15266386963E+04  0.25500000920E-02 0. -1.
    10030    2    1    2    0    0  0.00000000000E+00  0.00000000000E+00 -0.10423563503E+04  0.20109210424E+04  0.17196792369E+04 0.  0.
        5    1    3    3  502    0 -0.53823119009E+03  0.11090926368E+03  0.25211019925E+03  0.60462825051E+03  0.46999998093E+01 0.  1.
       -5    1    3    3    0  502  0.53823119009E+03 -0.11090926368E+03 -0.12944665495E+04  0.14062927919E+04  0.46999998093E+01 0. -1.
</event>
<event>
 5   0  0.5310003E-04  0.1383081E+04  0.7818609E-02  0.8966157E-01
       -2   -1    0    0    0  501  0.00000000000E+00  0.00000000000E+00  0.41815958951E+03  0.41815958952E+03  0.25500000920E-02 0.  1.
        2   -1    0    0  501    0  0.00000000000E+00  0.00000000000E+00 -0.11436499126E+04  0.11436499126E+04  0.25500000920E-02 0. -1.
    10030    2    1    2    0    0  0.00000000000E+00  0.00000000000E+00 -0.72549032311E+03  0.15618095021E+04  0.13830808769E+04 0.  0.
        1    1    3    3  502    0 -0.15030261297E+02  0.18288641866E+03  0.39016498393E+03  0.43116361813E+03  0.50400001928E-02 0.  1.
       -1    1    3    3    0  502  0.15030261297E+02 -0.18288641866E+03 -0.11156553070E+04  0.11306458840E+04  0.50400001928E-02 0. -1.
</event>
<event>
 5   0  0.2595644E-04  0.1740401E+04  0.7818609E-02  0.8738652E-01
        1   -1    0    0  501    0  0.00000000000E+00  0.00000000000E+00  0.10304925736E+04  0.10304925736E+04  0.50400001928E-02 0.  1.
       -1   -1    0    0    0  501  0.00000000000E+00  0.00000000000E+00 -0.73484164175E+03  0.73484164177E+03  0.50400001928E-02 0. -1.
    10030    2    1    2    0    0  0.00000000000E+00  0.00000000000E+00  0.29565093185E+03  0.17653342154E+04  0.17404009361E+04 0.  0.
        2    1    3    3  502    0  0.35874741933E+03  0.67297636605E+03  0.57293820930E+03  0.95386324586E+03  0.25500000920E-02 0.  1.
       -2    1    3    3    0  502 -0.35874741933E+03 -0.67297636605E+03 -0.27728727745E+03  0.81147096952E+03  0.25500000920E-02 0. -1.
</event>
<event>
 5   0  0.5021349E-04  0.1712098E+04  0.7818609E-02  0.8754494E-01
        2   -1    0    0  501    0  0.00000000000E+00  0.00000000000E+00  0.22961556703E+04  0.22961556703E+04  0.25500000920E-02 0. -1.
       -2   -1    0    0    0  501  0.00000000000E+00  0.00000000000E+00 -0.31915087842E+03  0.31915087843E+03  0.25500000920E-02 0.  1.
    10030    2    1    2    0    0  0.00000000000E+00  0.00000000000E+00  0.19770047918E+04  0.26153065487E+04  0.17120982439E+04 0.  0.
        2    1    3    3  502    0  0.65145043659E+03  0.34239395134E+03  0.32056384224E+03  0.80273436840E+03  0.25500000920E-02 0.  1.
       -2    1    3    3    0  502 -0.65145043659E+03 -0.34239395134E+03  0.16564409496E+04  0.18125721803E+04  0.25500000920E-02 0. -1.
</event>
<event>
 5   0  0.5310003E-04  0.1708302E+04  0.7818609E-02  0.8756643E-01
       -2   -1    0    0    0  501  0.00000000000E+00  0.00000000000E+00  0.77132285913E+03  0.77132285913E+03  0.25500000920E-02 0. -1.
        2   -1    0    0  501    0  0.00000000000E+00  0.00000000000E+00 -0.94587398950E+03  0.94587398950E+03  0.25500000920E-02 0.  1.
    10030    2    1    2    0    0  0.00000000000E+00  0.00000000000E+00 -0.17455113037E+03  0.17171968486E+04  0.17083023502E+04 0.  0.
        1    1    3    3  502    0  0.14532352131E+03 -0.50113548132E+03  0.59249874130E+03  0.78950012980E+03  0.50400001928E-02 0. -1.
       -1    1    3    3    0  502 -0.14532352131E+03  0.50113548132E+03 -0.76704987167E+03  0.92769671883E+03  0.50400001928E-02 0.  1.
</event>
<event>
 5   0  0.2595644E-04  0.1690809E+04  0.7818609E-02  0.8766623E-01
       -1   -1    0    0    0  501  0.00000000000E+00  0.00000000000E+00  0.56256741417E+03  0.56256741419E+03  0.50400001928E-02 0. -1.
        1   -1    0    0  501    0  0.00000000000E+00  0.00000000000E+00 -0.12704417691E+04  0.12704417691E+04  0.50400001928E-02 0.  1.
    10030    2    1    2    0    0  0.00000000000E+00  0.00000000000E+00 -0.70787435497E+03  0.18330091833E+04  0.16908094404E+04 0.  0.
        2    1    3    3  502    0 -0.12290307228E+03  0.31667910603E+02  0.55218052538E+03  0.56657863916E+03  0.25500000920E-02 0. -1.
       -2    1    3    3    0  502  0.12290307228E+03 -0.31667910603E+02 -0.12600548803E+04  0.12664305442E+04  0.25500000920E-02 0.  1.
</event>
<event>
 5   0  0.2561518E-04  0.1412043E+04  0.7818609E-02  0.8945147E-01
        1   -1    0    0  501    0  0.00000000000E+00  0.00000000000E+00  0.11922044970E+04  0.11922044970E+04  0.50400001928E-02 0.  1.
       -1   -1    0    0    0  501  0.00000000000E+00  0.00000000000E+00 -0.41810460743E+03  0.41810460746E+03  0.50400001928E-02 0. -1.
    10030    2    1    2    0    0  0.00000000000E+00  0.00000000000E+00  0.77409988955E+03  0.16103091045E+04  0.14120427660E+04 0.  0.
        4    1    3    3  502    0  0.31197803259E+03  0.54233212292E+03  0.13994058709E+02  0.62582095758E+03  0.12699999809E+01 0. -1.
       -4    1    3    3    0  502 -0.31197803259E+03 -0.54233212292E+03  0.76010583084E+03  0.98448814688E+03  0.12699999809E+01 0.  1.
</event>
<event>
 5   0  0.5342255E-04  0.1675699E+04  0.7818609E-02  0.8775347E-01
        2   -1    0    0  501    0  0.00000000000E+00  0.00000000000E+00  0.86303118875E+03  0.86303118875E+03  0.25500000920E-02 0. -1.
       -2   -1    0    0    0  501  0.00000000000E+00  0.00000000000E+00 -0.81340232391E+03  0.81340232392E+03  0.25500000920E-02 0.  1.
    10030    2    1    2    0    0  0.00000000000E+00  0.00000000000E+00  0.49628864834E+02  0.16764335127E+04  0.16756987492E+04 0.  0.
        5    1    3    3  502    0  0.13209661728E+03 -0.14545708720E+03  0.83964206825E+03  0.86233878104E+03  0.46999998093E+01 0. -1.
       -5    1    3    3    0  502 -0.13209661728E+03  0.14545708720E+03 -0.79001320341E+03  0.81409473163E+03  0.46999998093E+01 0.  1.
</event>
<event>
 5   0  0.2583422E-04  0.1702053E+04  0.7818609E-02  0.8760194E-01
        1   -1    0    0  501    0  0.00000000000E+00  0.00000000000E+00  0.37868872267E+03  0.37868872270E+03  0.50400001928E-02 0. -1.
       -1   -1    0    0    0  501  0.00000000000E+00  0.00000000000E+00 -0.19125102538E+04  0.19125102538E+04  0.50400001928E-02 0.  1.
    10030    2    1    2    0    0  0.00000000000E+00  0.00000000000E+00 -0.15338215311E+04  0.22911989765E+04  0.17020529547E+04 0.  0.
        3    1    3    3  502    0  0.55280968642E+03 -0.53035236432E+02  0.10115002177E+03  0.56448438668E+03  0.10100000352E+00 0. -1.
       -3    1    3    3    0  502 -0.55280968642E+03  0.53035236432E+02 -0.16349715529E+04  0.17267145898E+04  0.10100000352E+00 0.  1.
</event>
<event>
 5   0  0.2583422E-04  0.1939986E+04  0.7818609E-02  0.8635205E-01
       -1   -1    0    0    0  501  0.00000000000E+00  0.00000000000E+00  0.78491201307E+03  0.78491201309E+03  0.50400001928E-02 0.  1.
        1   -1    0    0  501    0  0.00000000000E+00  0.00000000000E+00 -0.11987154314E+04  0.11987154314E+04  0.50400001928E-02 0. -1.
    10030    2    1    2    0    0  0.00000000000E+00  0.00000000000E+00 -0.41380341830E+03  0.19836274445E+04  0.19399857137E+04 0.  0.
        3    1    3    3  502    0 -0.30901349318E+02 -0.56943141732E+01  0.78439149140E+03  0.78502059883E+03  0.10100000352E+00 0.  1.
       -3    1    3    3    0  502  0.30901349318E+02  0.56943141732E+01 -0.11981949097E+04  0.11986068456E+04  0.10100000352E+00 0. -1.
</event>
<event>
 5   0  0.5299877E-04  0.1717079E+04  0.7818609E-02  0.8751683E-01
       -2   -1    0    0    0  501  0.00000000000E+00  0.00000000000E+00  0.59055482096E+03  0.59055482097E+03  0.25500000920E-02 0.  1.
        2   -1    0    0  501    0  0.00000000000E+00  0.00000000000E+00 -0.12481320023E+04  0.12481320023E+04  0.25500000920E-02 0. -1.
    10030    2    1    2    0    0  0.00000000000E+00  0.00000000000E+00 -0.65757718137E+03  0.18386868233E+04  0.17170793472E+04 0.  0.
        3    1    3    3  502    0  0.65013794146E+03 -0.27409375602E+03 -0.85259872216E+03  0.11066757977E+04  0.10100000352E+00 0. -1.
       -3    1    3    3    0  502 -0.65013794146E+03  0.27409375602E+03  0.19502154078E+03  0.73201102559E+03  0.10100000352E+00 0.  1.
</event>
<event>
 5   0  0.5342255E-04  0.1704587E+04  0.7818609E-02  0.8758753E-01
        2   -1    0    0  501    0  0.00000000000E+00  0.00000000000E+00  0.92608243926E+03  0.92608243926E+03  0.25500000920E-02 0. -1.
       -2   -1    0    0    0  501  0.00000000000E+00  0.00000000000E+00 -0.78438383789E+03  0.78438383790E+03  0.25500000920E-02 0.  1.
    10030    2    1    2    0    0  0.00000000000E+00  0.00000000000E+00  0.14169860137E+03  0.17104662772E+04  0.17045868683E+04 0.  0.
        5    1    3    3  502    0 -0.43684163914E+03 -0.66606040435E+03  0.37506975002E+03  0.88043539644E+03  0.46999998093E+01 0. -1.
       -5    1    3    3    0  502  0.43684163914E+03  0.66606040435E+03 -0.23337114865E+03  0.83003088072E+03  0.46999998093E+01 0.  1.
</event>
<event>
 5   0  0.2785059E-04  0.1701498E+04  0.7818609E-02  0.8760511E-01
        1   -1    0    0  501    0  0.00000000000E+00  0.00000000000E+00  0.10265687586E+04  0.10265687586E+04  0.50400001928E-02 0. -1.
       -1   -1    0    0    0  501  0.00000000000E+00  0.00000000000E+00 -0.70504164043E+03  0.70504164045E+03  0.50400001928E-02 0.  1.
    10030    2    1    2    0    0  0.00000000000E+00  0.00000000000E+00  0.32152711812E+03  0.17316103990E+04  0.17014978361E+04 0.  0.
        5    1    3    3  502    0  0.57905495177E+03 -0.39511622690E+03 -0.32977322714E+03  0.77472184768E+03  0.46999998093E+01 0.  1.
       -5    1    3    3    0  502 -0.57905495177E+03  0.39511622690E+03  0.65130034527E+03  0.95688855133E+03  0.46999998093E+01 0. -1.
</event>
<event>
 5   0  0.2595644E-04  0.1706307E+04  0.7818609E-02  0.8757775E-01
        1   -1    0    0  501    0  0.00000000000E+00  0.00000000000E+00  0.92580553108E+03  0.92580553110E+03  0.50400001928E-02 0.  1.
       -1   -1    0    0    0  501  0.00000000000E+00  0.00000000000E+00 -0.78620270173E+03  0.78620270175E+03  0.50400001928E-02 0. -1.
    10030    2    1    2    0    0  0.00000000000E+00  0.00000000000E+00  0.13960282935E+03  0.17120082328E+04  0.17063069007E+04 0.  0.
        2    1    3    3  502    0  0.32449168403E+03  0.16779289755E+03 -0.70376206168E+03  0.79292518496E+03  0.25500000920E-02 0. -1.
       -2    1    3    3    0  502 -0.32449168403E+03 -0.16779289755E+03  0.84336489104E+03  0.91908304789E+03  0.25500000920E-02 0.  1.
</event>
<event>
 5   0  0.5198430E-04  0.1665770E+04  0.7818609E-02  0.8781131E-01
       -2   -1    0    0    0  501  0.00000000000E+00  0.00000000000E+00  0.85832454878E+03  0.85832454879E+03  0.25500000920E-02 0. -1.
        2   -1    0    0  501    0  0.00000000000E+00  0.00000000000E+00 -0.80819968689E+03  0.80819968689E+03  0.25500000920E-02 0.  1.
    10030    2    1    2    0    0  0.00000000000E+00  0.00000000000E+00  0.50124861897E+02  0.16665242357E+04  0.16657702502E+04 0.  0.
        4    1    3    3  502    0 -0.23283509993E+02 -0.24827639801E+03  0.82009988016E+03  0.85717484679E+03  0.12699999809E+01 0. -1.
       -4    1    3    3    0  502  0.23283509993E+02  0.24827639801E+03 -0.76997501826E+03  0.80934938888E+03  0.12699999809E+01 0.  1.
</event>
<event>
 5   0  0.5342255E-04  0.1726276E+04  0.7818609E-02  0.8746519E-01
        2   -1    0    0  501    0  0.00000000000E+00  0.00000000000E+00  0.90672730733E+03  0.90672730734E+03  0.25500000920E-02 0.  1.
       -2   -1    0    0    0  501  0.00000000000E+00  0.00000000000E+00 -0.82164384514E+03  0.82164384515E+03  0.25500000920E-02 0. -1.
    10030    2    1    2    0    0  0.00000000000E+00  0.00000000000E+00  0.85083462192E+02  0.17283711525E+04  0.17262756574E+04 0.  0.
        5    1    3    3  502    0  0.42321612323E+03  0.15365523349E+03  0.77982070767E+03  0.90048000747E+03  0.46999998093E+01 0.  1.
       -5    1    3    3    0  502 -0.42321612323E+03 -0.15365523349E+03 -0.69473724548E+03  0.82789114501E+03  0.46999998093E+01 0. -1.
</event>
<event>
 5   0  0.2630135E-04  0.1689849E+04  0.7818609E-02  0.8767175E-01
        1   -1    0    0  501    0  0.00000000000E+00  0.00000000000E+00  0.17748161675E+04  0.17748161675E+04  0.50400001928E-02 0. -1.
       -1   -1    0    0    0  501  0.00000000000E+00  0.00000000000E+00 -0.40223745465E+03  0.40223745468E+03  0.50400001928E-02 0.  1.
    10030    2    1    2    0    0  0.00000000000E+00  0.00000000000E+00  0.13725787129E+04  0.21770536222E+04  0.16898491504E+04 0.  0.
        1    1    3    3  502    0  0.28768360340E+03 -0.33860994029E+03 -0.23957532656E+03  0.50479192193E+03  0.50400001928E-02 0.  1.
       -1    1    3    3    0  502 -0.28768360340E+03  0.33860994029E+03  0.16121540395E+04  0.16722617003E+04  0.50400001928E-02 0. -1.
</event>
<event>
 5   0  0.5021349E-04  0.1706181E+04  0.7818609E-02  0.8757847E-01
        2   -1    0    0  501    0  0.00000000000E+00  0.00000000000E+00  0.19041443325E+04  0.19041443325E+04  0.25500000920E-02 0. -1.
       -2   -1    0    0    0  501  0.00000000000E+00  0.00000000000E+00 -0.38219952049E+03  0.38219952050E+03  0.25500000920E-02 0.  1.
    10030    2    1    2    0    0  0.00000000000E+00  0.00000000000E+00  0.15219448120E+04  0.22863438530E+04  0.17061805893E+04 0.  0.
        2    1    3    3  502    0  0.31595456695E+03 -0.37810846565E+03 -0.17222575656E+03  0.52197223240E+03  0.25500000920E-02 0.  1.
       -2    1    3    3    0  502 -0.31595456695E+03  0.37810846565E+03  0.16941705686E+04  0.17643716206E+04  0.25500000920E-02 0. -1.
</event>
<event>
 5   0  0.2595644E-04  0.1667830E+04  0.7818609E-02  0.8779928E-01
        1   -1    0    0  501    0  0.00000000000E+00  0.00000000000E+00  0.13644121368E+04  0.13644121368E+04  0.50400001928E-02 0.  1.
       -1   -1    0    0    0  501  0.00000000000E+00  0.00000000000E+00 -0.50968028763E+03  0.50968028765E+03  0.50400001928E-02 0. -1.
    10030    2    1    2    0    0  0.00000000000E+00  0.00000000000E+00  0.85473184921E+03  0.18740924245E+04  0.16678296920E+04 0.  0.
        2    1    3    3  502    0 -0.15551632561E+03  0.14648895514E+03 -0.47840631867E+03  0.52394364893E+03  0.25500000920E-02 0. -1.
       -2    1    3    3    0  502  0.15551632561E+03 -0.14648895514E+03  0.13331381679E+04  0.13501487756E+04  0.25500000920E-02 0.  1.
</event>
<event>
 5   0  0.5310003E-04  0.1700354E+04  0.7818609E-02  0.8761162E-01
       -2   -1    0    0    0  501  0.00000000000E+00  0.00000000000E+00  0.50436429314E+03  0.50436429314E+03  0.25500000920E-02 0.  1.
        2   -1    0    0  501    0  0.00000000000E+00  0.00000000000E+00 -0.14330931784E+04  0.14330931784E+04  0.25500000920E-02 0. -1.
    10030    2    1    2    0    0  0.00000000000E+00  0.00000000000E+00 -0.92872888526E+03  0.19374574715E+04  0.17003541136E+04 0.  0.
        1    1    3    3  502    0  0.19010910578E+02  0.71280505831E+02 -0.14294392693E+04  0.14313416608E+04  0.50400001928E-02 0. -1.
       -1    1    3    3    0  502 -0.19010910578E+02 -0.71280505831E+02  0.50071038402E+03  0.50611581078E+03  0.50400001928E-02 0.  1.
</event>
<event>
 5   0  0.2583422E-04  0.1627715E+04  0.7818609E-02  0.8803700E-01
        1   -1    0    0  501    0  0.00000000000E+00  0.00000000000E+00  0.80332262077E+03  0.80332262079E+03  0.50400001928E-02 0. -1.
       -1   -1    0    0    0  501  0.00000000000E+00  0.00000000000E+00 -0.82453026069E+03  0.82453026070E+03  0.50400001928E-02 0.  1.
    10030    2    1    2    0    0  0.00000000000E+00  0.00000000000E+00 -0.21207639918E+02  0.16278528815E+04  0.16277147292E+04 0.  0.
        3    1    3    3  502    0 -0.27428315801E+03  0.76189519311E+03  0.70939985974E+02  0.81286408942E+03  0.10100000352E+00 0. -1.
       -3    1    3    3    0  502  0.27428315801E+03 -0.76189519311E+03 -0.92147625892E+02  0.81498879208E+03  0.10100000352E+00 0.  1.
</event>
<event>
 5   0  0.2583422E-04  0.1707707E+04  0.7818609E-02  0.8756981E-01
       -1   -1    0    0    0  501  0.00000000000E+00  0.00000000000E+00  0.77404092760E+03  0.77404092762E+03  0.50400001928E-02 0. -1.
        1   -1    0    0  501    0  0.00000000000E+00  0.00000000000E+00 -0.94189582139E+03  0.94189582141E+03  0.50400001928E-02 0.  1.
    10030    2    1    2    0    0  0.00000000000E+00  0.00000000000E+00 -0.16785489379E+03  0.17159367490E+04  0.17077071357E+04 0.  0.
        3    1    3    3  502    0 -0.34155839547E+03  0.31819800121E+02 -0.86961070329E+03  0.93482480854E+03  0.10100000352E+00 0.  1.
       -3    1    3    3    0  502  0.34155839547E+03 -0.31819800121E+02  0.70175580950E+03  0.78111194048E+03  0.10100000352E+00 0. -1.
</event>
<event>
 5   0  0.5198430E-04  0.1734398E+04  0.7818609E-02  0.8741986E-01
        2   -1    0    0  501    0  0.00000000000E+00  0.00000000000E+00  0.78653729848E+03  0.78653729848E+03  0.25500000920E-02 0. -1.
       -2   -1    0    0    0  501  0.00000000000E+00  0.00000000000E+00 -0.95613254793E+03  0.95613254793E+03  0.25500000920E-02 0.  1.
    10030    2    1    2    0    0  0.00000000000E+00  0.00000000000E+00 -0.16959524945E+03  0.17426698464E+04  0.17343977759E+04 0.  0.
        4    1    3    3  502    0 -0.72218592366E+03 -0.29852302187E+03  0.29297936976E+03  0.83456996526E+03  0.12699999809E+01 0. -1.
       -4    1    3    3    0  502  0.72218592366E+03  0.29852302187E+03 -0.46257461921E+03  0.90809988115E+03  0.12699999809E+01 0.  1.
</event>
<event>
 5   0  0.5310003E-04  0.1660688E+04  0.7818609E-02  0.8784108E-01
        2   -1    0    0  501    0  0.00000000000E+00  0.00000000000E+00  0.69893870085E+03  0.69893870085E+03  0.25500000920E-02 0.  1.
       -2   -1    0    0    0  501  0.00000000000E+00  0.00000000000E+00 -0.98645498031E+03  0.98645498031E+03  0.25500000920E-02 0. -1.
    10030    2    1    2    0    0  0.00000000000E+00  0.00000000000E+00 -0.28751627946E+03  0.16853936812E+04  0.16606884866E+04 0.  0.
        1    1    3    3  502    0  0.89605201359E+02 -0.61831296155E+03  0.41130744197E+03  0.74800656573E+03  0.50400001928E-02 0.  1.
       -1    1    3    3    0  502 -0.89605201359E+02  0.61831296155E+03 -0.69882372142E+03  0.93738711543E+03  0.50400001928E-02 0. -1.
</event>
<event>
 5   0  0.1910750E-04  0.1701146E+04  0.7818609E-02  0.8760711E-01
        4   -1    0    0  501    0  0.00000000000E+00  0.00000000000E+00  0.58711517194E+03  0.58711654552E+03  0.12699999809E+01 0. -1.
       -4   -1    0    0    0  501  0.00000000000E+00  0.00000000000E+00 -0.12322492129E+04  0.12322498674E+04  0.12699999809E+01 0.  1.
    10030    2    1    2    0    0  0.00000000000E+00  0.00000000000E+00 -0.64513404097E+03  0.18193664129E+04  0.17011455592E+04 0.  0.
        1    1    3    3  502    0  0.23692422644E+03 -0.31300215534E+03 -0.11295720140E+04  0.11958412826E+04  0.50400001928E-02 0.  1.
       -1    1    3    3    0  502 -0.23692422644E+03  0.31300215534E+03  0.48443797305E+03  0.62352513027E+03  0.50400001928E-02 0. -1.
</event>
<event>
 5   0  0.2561518E-04  0.1720155E+04  0.7818609E-02  0.8749952E-01
        1   -1    0    0  501    0  0.00000000000E+00  0.00000000000E+00  0.99785151591E+03  0.99785151592E+03  0.50400001928E-02 0.  1.
       -1   -1    0    0    0  501  0.00000000000E+00  0.00000000000E+00 -0.74132571107E+03  0.74132571109E+03  0.50400001928E-02 0. -1.
    10030    2    1    2    0    0  0.00000000000E+00  0.00000000000E+00  0.25652580484E+03  0.17391772270E+04  0.17201546263E+04 0.  0.
        4    1    3    3  502    0  0.58918463228E+03 -0.26242818222E+03  0.70352266244E+03  0.95443849001E+03  0.12699999809E+01 0.  1.
       -4    1    3    3    0  502 -0.58918463228E+03  0.26242818222E+03 -0.44699685760E+03  0.78473873700E+03  0.12699999809E+01 0. -1.
</event>
<event>
 5   0  0.2785059E-04  0.1678320E+04  0.7818609E-02  0.8773827E-01
        1   -1    0    0  501    0  0.00000000000E+00  0.00000000000E+00  0.69248752425E+03  0.69248752426E+03  0.50400001928E-02 0. -1.
       -1   -1    0    0    0  501  0.00000000000E+00  0.00000000000E+00 -0.10168979759E+04  0.10168979759E+04  0.50400001928E-02 0.  1.
    10030    2    1    2    0    0  0.00000000000E+00  0.00000000000E+00 -0.32441045164E+03  0.17093855002E+04  0.16783195903E+04 0.  0.
        5    1    3    3  502    0 -0.38087968594E+03  0.54773593072E+03 -0.68062896864E+03  0.95308020015E+03  0.46999998093E+01 0.  1.
       -5    1    3    3    0  502  0.38087968594E+03 -0.54773593072E+03  0.35621851701E+03  0.75630530001E+03  0.46999998093E+01 0. -1.
</event>
<event>
 5   0  0.5021349E-04  0.1668440E+04  0.7818609E-02  0.8779572E-01
       -2   -1    0    0    0  501  0.00000000000E+00  0.00000000000E+00  0.83699499224E+03  0.83699499224E+03  0.25500000920E-02 0.  1.
        2   -1    0    0  501    0  0.00000000000E+00  0.00000000000E+00 -0.83145399627E+03  0.83145399628E+03  0.25500000920E-02 0. -1.
    10030    2    1    2    0    0  0.00000000000E+00  0.00000000000E+00  0.55409959617E+01  0.16684489885E+04  0.16684397875E+04 0.  0.
        2    1    3    3  502    0 -0.82369228208E+03  0.74874577508E+02  0.11161802401E+03  0.83458598191E+03  0.25500000920E-02 0. -1.
       -2    1    3    3    0  502  0.82369228208E+03 -0.74874577508E+02 -0.10607702805E+03  0.83386300661E+03  0.25500000920E-02 0.  1.
</event>
<event>
 5   0  0.2561518E-04  0.1684539E+04  0.7818609E-02  0.8770232E-01
       -1   -1    0    0    0  501  0.00000000000E+00  0.00000000000E+00  0.78441586141E+03  0.78441586143E+03  0.50400001928E-02 0.  1.
        1   -1    0    0  501    0  0.00000000000E+00  0.00000000000E+00 -0.90439033588E+03  0.90439033589E+03  0.50400001928E-02 0. -1.
    10030    2    1    2    0    0  0.00000000000E+00  0.00000000000E+00 -0.11997447446E+03  0.16888061973E+04  0.16845392538E+04 0.  0.
        4    1    3    3  502    0  0.41784958361E+03  0.24796470062E+03  0.62974653962E+03  0.79540372412E+03  0.12699999809E+01 0.  1.
       -4    1    3    3    0  502 -0.41784958361E+03 -0.24796470062E+03 -0.74972101408E+03  0.89340247321E+03  0.12699999809E+01 0. -1.
</event>
<event>
 5   0  0.5342255E-04  0.1696295E+04  0.7818609E-02  0.8763480E-01
        2   -1    0    0  501    0  0.00000000000E+00  0.00000000000E+00  0.93546351478E+03  0.93546351478E+03  0.25500000920E-02 0. -1.
       -2   -1    0    0    0  501  0.00000000000E+00  0.00000000000E+00 -0.76898137712E+03  0.76898137713E+03  0.25500000920E-02 0.  1.
    10030    2    1    2    0    0  0.00000000000E+00  0.00000000000E+00  0.16648213765E+03  0.17044448919E+04  0.16962948115E+04 0.  0.
        5    1    3    3  502    0  0.10961889027E+03 -0.82753533947E+03 -0.67482616561E+02  0.83750046729E+03  0.46999998093E+01 0. -1.
       -5    1    3    3    0  502 -0.10961889027E+03  0.82753533947E+03  0.23396475421E+03  0.86694442462E+03  0.46999998093E+01 0.  1.
</event>
<event>
 5   0  0.2785059E-04  0.1669642E+04  0.7818609E-02  0.8778870E-01
        1   -1    0    0  501    0  0.00000000000E+00  0.00000000000E+00  0.64729983616E+03  0.64729983618E+03  0.50400001928E-02 0. -1.
       -1   -1    0    0    0  501  0.00000000000E+00  0.00000000000E+00 -0.10766670059E+04  0.10766670059E+04  0.50400001928E-02 0.  1.
    10030    2    1    2    0    0  0.00000000000E+00  0.00000000000E+00 -0.42936716973E+03  0.17239668421E+04  0.16696423288E+04 0.  0.
        5    1    3    3  502    0 -0.34033595061E+02 -0.49055900412E+03  0.48187533965E+03  0.68850007631E+03  0.46999998093E+01 0. -1.
       -5    1    3    3    0  502  0.34033595061E+02  0.49055900412E+03 -0.91124250938E+03  0.10354667658E+04  0.46999998093E+01 0.  1.
</event>
<event>
 5   0  0.2630135E-04  0.1740052E+04  0.7818609E-02  0.8738845E-01
       -1   -1    0    0    0  501  0.00000000000E+00  0.00000000000E+00  0.11994084105E+04  0.11994084105E+04  0.50400001928E-02 0. -1.
        1   -1    0    0  501    0  0.00000000000E+00  0.00000000000E+00 -0.63109864403E+03  0.63109864406E+03  0.50400001928E-02 0.  1.
    10030    2    1    2    0    0  0.00000000000E+00  0.00000000000E+00  0.56830976643E+03  0.18305070545E+04  0.17400517481E+04 0.  0.
        1    1    3    3  502    0  0.48198635629E+03  0.64340488722E+03  0.63411057578E+03  0.10239027878E+04  0.50400001928E-02 0. -1.
       -1    1    3    3    0  502 -0.48198635629E+03 -0.64340488722E+03 -0.65800809348E+02  0.80660426672E+03  0.50400001928E-02 0.  1.
</event>
<event>
 5   0  0.5021349E-04  0.1743016E+04  0.7818609E-02  0.8737204E-01
        2   -1    0    0  501    0  0.00000000000E+00  0.00000000000E+00  0.85750612349E+03  0.85750612350E+03  0.25500000920E-02 0.  1.
       -2   -1    0    0    0  501  0.00000000000E+00  0.00000000000E+00 -0.88573825018E+03  0.88573825018E+03  0.25500000920E-02 0. -1.
    10030    2    1    2    0    0  0.00000000000E+00  0.00000000000E+00 -0.28232126684E+02  0.17432443737E+04  0.17430157467E+04 0.  0.
        2    1    3    3  502    0  0.62350467571E+03  0.56928236043E+03 -0.23021265018E+03  0.87512190627E+03  0.25500000920E-02 0. -1.
       -2    1    3    3    0  502 -0.62350467571E+03 -0.56928236043E+03  0.20198052349E+03  0.86812246740E+03  0.25500000920E-02 0.  1.
</event>
<event>
 5   0  0.2785059E-04  0.1696945E+04  0.7818609E-02  0.8763109E-01
       -1   -1    0    0    0  501  0.00000000000E+00  0.00000000000E+00  0.80738587476E+03  0.80738587478E+03  0.50400001928E-02 0.  1.
        1   -1    0    0  501    0  0.00000000000E+00  0.00000000000E+00 -0.89165000973E+03  0.89165000974E+03  0.50400001928E-02 0. -1.
    10030    2    1    2    0    0  0.00000000000E+00  0.00000000000E+00 -0.84264134965E+02  0.16990358845E+04  0.16969450470E+04 0.  0.
        5    1    3    3  502    0  0.10627015799E+03 -0.18436827559E+03  0.78021939052E+03  0.80873320376E+03  0.46999998093E+01 0.  1.
       -5    1    3    3    0  502 -0.10627015799E+03  0.18436827559E+03 -0.86448352549E+03  0.89030268076E+03  0.46999998093E+01 0. -1.
</event>
<event>
 5   0  0.5310003E-04  0.1683140E+04  0.7818609E-02  0.8771039E-01
        2   -1    0    0  501    0  0.00000000000E+00  0.00000000000E+00  0.95721804608E+03  0.95721804609E+03  0.25500000920E-02 0. -1.
       -2   -1    0    0    0  501  0.00000000000E+00  0.00000000000E+00 -0.73989384639E+03  0.73989384640E+03  0.25500000920E-02 0.  1.
    10030    2    1    2    0    0  0.00000000000E+00  0.00000000000E+00  0.21732419969E+03  0.16971118925E+04  0.16831396163E+04 0.  0.
        1    1    3    3  502    0 -0.26459746385E+03 -0.24577329319E+03  0.87511928875E+03  0.94670486377E+03  0.50400001928E-02 0. -1.
       -1    1    3    3    0  502  0.26459746385E+03  0.24577329319E+03 -0.65779508906E+03  0.75040702871E+03  0.50400001928E-02 0.  1.
</event>
<event>
 5   0  0.2630135E-04  0.1694519E+04  0.7818609E-02  0.8764497E-01
        1   -1    0    0  501    0  0.00000000000E+00  0.00000000000E+00  0.13614832666E+04  0.13614832667E+04  0.50400001928E-02 0.  1.
       -1   -1    0    0    0  501  0.00000000000E+00  0.00000000000E+00 -0.52725483974E+03  0.52725483977E+03  0.50400001928E-02 0. -1.
    10030    2    1    2    0    0  0.00000000000E+00  0.00000000000E+00  0.83422842690E+03  0.18887381064E+04  0.16945189779E+04 0.  0.
        1    1    3    3  502    0 -0.93667124958E+02  0.95951001486E+02 -0.51535292189E+03  0.53251174551E+03  0.50400001928E-02 0. -1.
       -1    1    3    3    0  502  0.93667124958E+02 -0.95951001486E+02  0.13495813488E+04  0.13562263609E+04  0.50400001928E-02 0.  1.
</event>
<event>
 5   0  0.2595644E-04  0.1713535E+04  0.7818609E-02  0.8753682E-01
       -1   -1    0    0    0  501  0.00000000000E+00  0.00000000000E+00  0.99596827736E+03  0.99596827737E+03  0.50400001928E-02 0.  1.
        1   -1    0    0  501    0  0.00000000000E+00  0.00000000000E+00 -0.73702190957E+03  0.73702190959E+03  0.50400001928E-02 0. -1.
    10030    2    1    2    0    0  0.00000000000E+00  0.00000000000E+00  0.25894636779E+03  0.17329901870E+04  0.17135348747E+04 0.  0.
        2    1    3    3  502    0 -0.32950878979E+01  0.10063092175E+03  0.98996420715E+03  0.99507113890E+03  0.25500000920E-02 0.  1.
       -2    1    3    3    0  502  0.32950878979E+01 -0.10063092175E+03 -0.73101783936E+03  0.73791904806E+03  0.25500000920E-02 0. -1.
</event>
<event>
 5   0  0.5198430E-04  0.1616904E+04  0.7818609E-02  0.8810230E-01
       -2   -1    0    0    0  501  0.00000000000E+00  0.00000000000E+00  0.30459060322E+03  0.30459060323E+03  0.25500000920E-02 0. -1.
        2   -1    0    0  501    0  0.00000000000E+00  0.00000000000E+00 -0.21458122438E+04  0.21458122438E+04  0.25500000920E-02 0.  1.
    10030    2    1    2    0    0  0.00000000000E+00  0.00000000000E+00 -0.18412216406E+04  0.24504028471E+04  0.16169035169E+04 0.  0.
        4    1    3    3  502    0 -0.76153026234E+02 -0.47406995989E+03  0.65100529744E+02  0.48454236363E+03  0.12699999809E+01 0. -1.
       -4    1    3    3    0  502  0.76153026234E+02  0.47406995989E+03 -0.19063221704E+04  0.19658604834E+04  0.12699999809E+01 0.  1.
</event>
<event>
 5   0  0.5021349E-04  0.1887620E+04  0.7818609E-02  0.8661043E-01
        2   -1    0    0  501    0  0.00000000000E+00  0.00000000000E+00  0.14655595543E+04  0.14655595543E+04  0.25500000920E-02 0.  1.
       -2   -1    0    0    0  501  0.00000000000E+00  0.00000000000E+00 -0.60780685509E+03  0.60780685510E+03  0.25500000920E-02 0. -1.
    10030    2    1    2    0    0  0.00000000000E+00  0.00000000000E+00  0.85775269919E+03  0.20733664094E+04  0.18876198173E+04 0.  0.
        2    1    3    3  502    0  0.88208793042E+03 -0.22383992399E+03  0.15406991696E+03  0.92299564890E+03  0.25500000920E-02 0. -1.
       -2    1    3    3    0  502 -0.88208793042E+03  0.22383992399E+03  0.70368278223E+03  0.11503707605E+04  0.25500000920E-02 0.  1.
</event>
<event>
 5   0  0.5198430E-04  0.1699171E+04  0.7818609E-02  0.8761837E-01
       -2   -1    0    0    0  501  0.00000000000E+00  0.00000000000E+00  0.85277217827E+03  0.85277217827E+03  0.25500000920E-02 0. -1.
        2   -1    0    0  501    0  0.00000000000E+00  0.00000000000E+00 -0.84641054553E+03  0.84641054554E+03  0.25500000920E-02 0.  1.
    10030    2    1    2    0    0  0.00000000000E+00  0.00000000000E+00  0.63616327368E+01  0.16991827238E+04  0.16991708150E+04 0.  0.
        4    1    3    3  502    0  0.28271120738E+03  0.58776620786E+03  0.54761002623E+03  0.85162967046E+03  0.12699999809E+01 0. -1.
       -4    1    3    3    0  502 -0.28271120738E+03 -0.58776620786E+03 -0.54124839349E+03  0.84755305335E+03  0.12699999809E+01 0.  1.
</event>
<event>
 5   0  0.2595644E-04  0.1685902E+04  0.7818609E-02  0.8769446E-01
        1   -1    0    0  501    0  0.00000000000E+00  0.00000000000E+00  0.20406116298E+04  0.20406116298E+04  0.50400001928E-02 0. -1.
       -1   -1    0    0    0  501  0.00000000000E+00  0.00000000000E+00 -0.34821250472E+03  0.34821250476E+03  0.50400001928E-02 0.  1.
    10030    2    1    2    0    0  0.00000000000E+00  0.00000000000E+00  0.16923991251E+04  0.23888241346E+04  0.16859021168E+04 0.  0.
        2    1    3    3  502    0 -0.36975703375E+03 -0.55775752020E+03  0.15725153345E+04  0.17089816245E+04  0.25500000920E-02 0. -1.
       -2    1    3    3    0  502  0.36975703375E+03  0.55775752020E+03  0.11988379057E+03  0.67984251014E+03  0.25500000920E-02 0.  1.
</event>
<event>
 5   0  0.5310003E-04  0.1675928E+04  0.7818609E-02  0.8775214E-01
        2   -1    0    0  501    0  0.00000000000E+00  0.00000000000E+00  0.13058971806E+04  0.13058971806E+04  0.25500000920E-02 0.  1.
       -2   -1    0    0    0  501  0.00000000000E+00  0.00000000000E+00 -0.53770240559E+03  0.53770240559E+03  0.25500000920E-02 0. -1.
    10030    2    1    2    0    0  0.00000000000E+00  0.00000000000E+00  0.76819477499E+03  0.18435995862E+04  0.16759284656E+04 0.  0.
        1    1    3    3  502    0  0.48935968936E+03 -0.17020404127E+03 -0.34038316199E+03  0.61992178396E+03  0.50400001928E-02 0. -1.
       -1    1    3    3    0  502 -0.48935968936E+03  0.17020404127E+03  0.11085779370E+04  0.12236778022E+04  0.50400001928E-02 0.  1.
</event>
<event>
 5   0  0.2561518E-04  0.1722915E+04  0.7818609E-02  0.8748402E-01
        1   -1    0    0  501    0  0.00000000000E+00  0.00000000000E+00  0.16649439043E+04  0.16649439043E+04  0.50400001928E-02 0. -1.
       -1   -1    0    0    0  501  0.00000000000E+00  0.00000000000E+00 -0.44572628258E+03  0.44572628261E+03  0.50400001928E-02 0.  1.
    10030    2    1    2    0    0  0.00000000000E+00  0.00000000000E+00  0.12192176217E+04  0.21106701869E+04  0.17229152704E+04 0.  0.
        4    1    3    3  502    0 -0.83873659671E+03  0.16667443871E+03  0.48201334561E+03  0.98163023865E+03  0.12699999809E+01 0.  1.
       -4    1    3    3    0  502  0.83873659671E+03 -0.16667443871E+03  0.73720427611E+03  0.11290399483E+04  0.12699999809E+01 0. -1.
</event>
<event>
 5   0  0.2595644E-04  0.1710194E+04  0.7818609E-02  0.8755572E-01
       -1   -1    0    0    0  501  0.00000000000E+00  0.00000000000E+00  0.62326072316E+03  0.62326072318E+03  0.50400001928E-02 0.  1.
        1   -1    0    0  501    0  0.00000000000E+00  0.00000000000E+00 -0.11731700898E+04  0.11731700898E+04  0.50400001928E-02 0. -1.
    10030    2    1    2    0    0  0.00000000000E+00  0.00000000000E+00 -0.54990936668E+03  0.17964308130E+04  0.17101939523E+04 0.  0.
        2    1    3    3  502    0  0.43961409500E+03 -0.46975155099E+03  0.31670961894E+03  0.71709975241E+03  0.25500000920E-02 0.  1.
       -2    1    3    3    0  502 -0.43961409500E+03  0.46975155099E+03 -0.86661898562E+03  0.10793310606E+04  0.25500000920E-02 0. -1.
</event>
<event>
 5   0  0.2630135E-04  0.1701913E+04  0.7818609E-02  0.8760274E-01
        1   -1    0    0  501    0  0.00000000000E+00  0.00000000000E+00  0.80618512016E+03  0.80618512018E+03  0.50400001928E-02 0. -1.
       -1   -1    0    0    0  501  0.00000000000E+00  0.00000000000E+00 -0.89821445210E+03  0.89821445212E+03  0.50400001928E-02 0.  1.
    10030    2    1    2    0    0  0.00000000000E+00  0.00000000000E+00 -0.92029331941E+02  0.17043995723E+04  0.17019131894E+04 0.  0.
        1    1    3    3  502    0  0.63302924681E+03 -0.23797531289E+03 -0.56326594137E+03  0.88012885284E+03  0.50400001928E-02 0.  1.
       -1    1    3    3    0  502 -0.63302924681E+03  0.23797531289E+03  0.47123660943E+03  0.82427071946E+03  0.50400001928E-02 0. -1.
</event>
<event>
 5   0  0.5310003E-04  0.1625673E+04  0.7818609E-02  0.8804930E-01
        2   -1    0    0  501    0  0.00000000000E+00  0.00000000000E+00  0.21164651746E+04  0.21164651746E+04  0.25500000920E-02 0. -1.
       -2   -1    0    0    0  501  0.00000000000E+00  0.00000000000E+00 -0.31217291797E+03  0.31217291798E+03  0.25500000920E-02 0.  1.
    10030    2    1    2    0    0  0.00000000000E+00  0.00000000000E+00  0.18042922567E+04  0.24286380926E+04  0.16256729183E+04 0.  0.
        1    1    3    3  502    0  0.37853529489E+03  0.58079426528E+03  0.26816396923E+03  0.74331881617E+03  0.50400001928E-02 0.  1.
       -1    1    3    3    0  502 -0.37853529489E+03 -0.58079426528E+03  0.15361282874E+04  0.16853192764E+04  0.50400001928E-02 0. -1.
</event>
<event>
 5   0  0.2583422E-04  0.1666948E+04  0.7818609E-02  0.8780443E-01
       -1   -1    0    0    0  501  0.00000000000E+00  0.00000000000E+00  0.75276605013E+03  0.75276605015E+03  0.50400001928E-02 0.  1.
        1   -1    0    0  501    0  0.00000000000E+00  0.00000000000E+00 -0.92283550669E+03  0.92283550671E+03  0.50400001928E-02 0. -1.
    10030    2    1    2    0    0  0.00000000000E+00  0.00000000000E+00 -0.17006945656E+03  0.16756015569E+04  0.16669483967E+04 0.  0.
        3    1    3    3  502    0 -0.78099001075E+01 -0.72522363525E+03 -0.49785985525E+03  0.87970151832E+03  0.10100000352E+00 0. -1.
       -3    1    3    3    0  502  0.78099001075E+01  0.72522363525E+03  0.32779039869E+03  0.79590003853E+03  0.10100000352E+00 0.  1.
</event>
<event>
 5   0  0.2785059E-04  0.1720163E+04  0.7818609E-02  0.8749948E-01
       -1   -1    0    0    0  501  0.00000000000E+00  0.00000000000E+00  0.43902061055E+03  0.43902061058E+03  0.50400001928E-02 0. -1.
        1   -1    0    0  501    0  0.00000000000E+00  0.00000000000E+00 -0.16849775840E+04  0.16849775840E+04  0.50400001928E-02 0.  1.
    10030    2    1    2    0    0  0.00000000000E+00  0.00000000000E+00 -0.12459569734E+04  0.21239981946E+04  0.17201626524E+04 0.  0.
        5    1    3    3  502    0 -0.44917593809E+03  0.40372545981E+03 -0.13790793279E+04  0.15055348395E+04  0.46999998093E+01 0.  1.
       -5    1    3    3    0  502  0.44917593809E+03 -0.40372545981E+03  0.13312235451E+03  0.61846335504E+03  0.46999998093E+01 0. -1.
</event>
<event>
 5   0  0.2583422E-04  0.1688332E+04  0.7818609E-02  0.8768047E-01
        1   -1    0    0  501    0  0.00000000000E+00  0.00000000000E+00  0.86422766522E+03  0.86422766523E+03  0.50400001928E-02 0.  1.
       -1   -1    0    0    0  501  0.00000000000E+00  0.00000000000E+00 -0.82457006411E+03  0.82457006413E+03  0.50400001928E-02 0. -1.
    10030    2    1    2    0    0  0.00000000000E+00  0.00000000000E+00  0.39657601108E+02  0.16887977294E+04  0.16883320305E+04 0.  0.
        3    1    3    3  502    0  0.31776490260E+03 -0.16969585509E+03 -0.74382466503E+03  0.82646618749E+03  0.10100000352E+00 0. -1.
       -3    1    3    3    0  502 -0.31776490260E+03  0.16969585509E+03  0.78348226613E+03  0.86233154187E+03  0.10100000352E+00 0.  1.
</event>
<event>
 5   0  0.5021349E-04  0.1653962E+04  0.7818609E-02  0.8788066E-01
        2   -1    0    0  501    0  0.00000000000E+00  0.00000000000E+00  0.87282041588E+03  0.87282041588E+03  0.25500000920E-02 0. -1.
       -2   -1    0    0    0  501  0.00000000000E+00  0.00000000000E+00 -0.78354888721E+03  0.78354888721E+03  0.25500000920E-02 0.  1.
    10030    2    1    2    0    0  0.00000000000E+00  0.00000000000E+00  0.89271528665E+02  0.16563693031E+04  0.16539618685E+04 0.  0.
        2    1    3    3  502    0 -0.39119726836E+03  0.13903462249E+03 -0.67161959950E+03  0.78958141788E+03  0.25500000920E-02 0.  1.
       -2    1    3    3    0  502  0.39119726836E+03 -0.13903462249E+03  0.76089112817E+03  0.86678788521E+03  0.25500000920E-02 0. -1.
</event>
<event>
 5   0  0.5021349E-04  0.1702556E+04  0.7818609E-02  0.8759908E-01
       -2   -1    0    0    0  501  0.00000000000E+00  0.00000000000E+00  0.13659773740E+04  0.13659773740E+04  0.25500000920E-02 0. -1.
        2   -1    0    0  501    0  0.00000000000E+00  0.00000000000E+00 -0.53051700404E+03  0.53051700405E+03  0.25500000920E-02 0.  1.
    10030    2    1    2    0    0  0.00000000000E+00  0.00000000000E+00  0.83546036999E+03  0.18964943781E+04  0.17025559892E+04 0.  0.
        2    1    3    3  502    0 -0.42659268816E+03 -0.48243916044E+03 -0.20241407138E+03  0.67505579134E+03  0.25500000920E-02 0.  1.
       -2    1    3    3    0  502  0.42659268816E+03  0.48243916044E+03  0.10378744414E+04  0.12214385867E+04  0.25500000920E-02 0. -1.
</event>
<event>
 5   0  0.5198430E-04  0.1574462E+04  0.7818609E-02  0.8836392E-01
       -2   -1    0    0    0  501  0.00000000000E+00  0.00000000000E+00  0.63636306912E+03  0.63636306912E+03  0.25500000920E-02 0.  1.
        2   -1    0    0  501    0  0.00000000000E+00  0.00000000000E+00 -0.97386661292E+03  0.97386661292E+03  0.25500000920E-02 0. -1.
    10030    2    1    2    0    0  0.00000000000E+00  0.00000000000E+00 -0.33750354380E+03  0.16102296820E+04  0.15744621262E+04 0.  0.
        4    1    3    3  502    0 -0.46404127492E+03 -0.55714859623E+03 -0.48228139233E+03  0.87083053311E+03  0.12699999809E+01 0.  1.
       -4    1    3    3    0  502  0.46404127492E+03  0.55714859623E+03  0.14477784853E+03  0.73939914893E+03  0.12699999809E+01 0. -1.
</event>
<event>
 5   0  0.1910750E-04  0.1693490E+04  0.7818609E-02  0.8765086E-01
        3   -1    0    0  501    0  0.00000000000E+00  0.00000000000E+00  0.97780094236E+03  0.97780094757E+03  0.10100000352E+00 0.  1.
       -3   -1    0    0    0  501  0.00000000000E+00  0.00000000000E+00 -0.73325484075E+03  0.73325484771E+03  0.10100000352E+00 0. -1.
    10030    2    1    2    0    0  0.00000000000E+00  0.00000000000E+00  0.24454610160E+03  0.17110557953E+04  0.16934902240E+04 0.  0.
        2    1    3    3  502    0  0.16049456477E+03 -0.15840667877E+03 -0.70235803832E+03  0.73767065496E+03  0.25500000920E-02 0. -1.
       -2    1    3    3    0  502 -0.16049456477E+03  0.15840667877E+03  0.94690413992E+03  0.97338514032E+03  0.25500000920E-02 0.  1.
</event>
<event>
 5   0  0.2583422E-04  0.1689676E+04  0.7818609E-02  0.8767275E-01
        1   -1    0    0  501    0  0.00000000000E+00  0.00000000000E+00  0.11305596465E+04  0.11305596466E+04  0.50400001928E-02 0. -1.
       -1   -1    0    0    0  501  0.00000000000E+00  0.00000000000E+00 -0.63132534034E+03  0.63132534036E+03  0.50400001928E-02 0.  1.
    10030    2    1    2    0    0  0.00000000000E+00  0.00000000000E+00  0.49923430621E+03  0.17618849869E+04  0.16896756537E+04 0.  0.
        3    1    3    3  502    0 -0.33755877377E+03  0.50431075609E+03  0.86250773545E+03  0.10546064993E+04  0.10100000352E+00 0. -1.
       -3    1    3    3    0  502  0.33755877377E+03 -0.50431075609E+03 -0.36327342924E+03  0.70727848762E+03  0.10100000352E+00 0.  1.
</event>
<event>
 5   0  0.2561518E-04  0.1691851E+04  0.7818609E-02  0.8766026E-01
       -1   -1    0    0    0  501  0.00000000000E+00  0.00000000000E+00  0.54662591352E+03  0.54662591354E+03  0.50400001928E-02 0.  1.
        1   -1    0    0  501    0  0.00000000000E+00  0.00000000000E+00 -0.13091028651E+04  0.13091028652E+04  0.50400001928E-02 0. -1.
    10030    2    1    2    0    0  0.00000000000E+00  0.00000000000E+00 -0.76247695163E+03  0.18557287787E+04  0.16918505248E+04 0.  0.
        4    1    3    3  502    0 -0.55877674478E+03 -0.25085421008E+02  0.31483966866E+03  0.64186163518E+03  0.12699999809E+01 0.  1.
       -4    1    3    3    0  502  0.55877674478E+03  0.25085421008E+02 -0.10773166203E+04  0.12138671435E+04  0.12699999809E+01 0. -1.
</event>
<event>
 5   0  0.5342255E-04  0.1753469E+04  0.7818609E-02  0.8731443E-01
       -2   -1    0    0    0  501  0.00000000000E+00  0.00000000000E+00  0.55986116035E+03  0.55986116036E+03  0.25500000920E-02 0. -1.
        2   -1    0    0  501    0  0.00000000000E+00  0.00000000000E+00 -0.13729535307E+04  0.13729535307E+04  0.25500000920E-02 0.  1.
    10030    2    1    2    0    0  0.00000000000E+00  0.00000000000E+00 -0.81309237033E+03  0.19328146910E+04  0.17534689696E+04 0.  0.
        5    1    3    3  502    0  0.78759010096E+02  0.39835381791E+03  0.44994246405E+03  0.60610152356E+03  0.46999998093E+01 0. -1.
       -5    1    3    3    0  502 -0.78759010096E+02 -0.39835381791E+03 -0.12630348344E+04  0.13267131675E+04  0.46999998093E+01 0.  1.
</event>
<event>
 5   0  0.2583422E-04  0.1728680E+04  0.7818609E-02  0.8745174E-01
       -1   -1    0    0    0  501  0.00000000000E+00  0.00000000000E+00  0.94219925571E+03  0.94219925572E+03  0.50400001928E-02 0. -1.
        1   -1    0    0  501    0  0.00000000000E+00  0.00000000000E+00 -0.79291460208E+03  0.79291460209E+03  0.50400001928E-02 0.  1.
    10030    2    1    2    0    0  0.00000000000E+00  0.00000000000E+00  0.14928465363E+03  0.17351138578E+04  0.17286798986E+04 0.  0.
        3    1    3    3  502    0  0.19579236972E+03 -0.55097500037E+03 -0.56426070609E+03  0.81258738466E+03  0.10100000352E+00 0.  1.
       -3    1    3    3    0  502 -0.19579236972E+03  0.55097500037E+03  0.71354535972E+03  0.92252647315E+03  0.10100000352E+00 0. -1.
</event>
<event>
 5   0  0.2595644E-04  0.1696232E+04  0.7818609E-02  0.8763516E-01
        1   -1    0    0  501    0  0.00000000000E+00  0.00000000000E+00  0.78353213634E+03  0.78353213635E+03  0.50400001928E-02 0. -1.
       -1   -1    0    0    0  501  0.00000000000E+00  0.00000000000E+00 -0.91802313564E+03  0.91802313566E+03  0.50400001928E-02 0.  1.
    10030    2    1    2    0    0  0.00000000000E+00  0.00000000000E+00 -0.13449099931E+03  0.17015552720E+04  0.16962318576E+04 0.  0.
        2    1    3    3  502    0 -0.32177009843E+03  0.68845729030E+03  0.31048797352E+03  0.82092156661E+03  0.25500000920E-02 0. -1.
       -2    1    3    3    0  502  0.32177009843E+03 -0.68845729030E+03 -0.44497897283E+03  0.88063370540E+03  0.25500000920E-02 0.  1.
</event>
<event>
 5   0  0.5299877E-04  0.1701636E+04  0.7818609E-02  0.8760432E-01
       -2   -1    0    0    0  501  0.00000000000E+00  0.00000000000E+00  0.58342123127E+03  0.58342123127E+03  0.25500000920E-02 0.  1.
        2   -1    0    0  501    0  0.00000000000E+00  0.00000000000E+00 -0.12407697802E+04  0.12407697802E+04  0.25500000920E-02 0. -1.
    10030    2    1    2    0    0  0.00000000000E+00  0.00000000000E+00 -0.65734854894E+03  0.18241910115E+04  0.17016361925E+04 0.  0.
        3    1    3    3  502    0 -0.58350289390E+03 -0.59361021159E+03 -0.13979538237E+03  0.84403286051E+03  0.10100000352E+00 0.  1.
       -3    1    3    3    0  502  0.58350289390E+03  0.59361021159E+03 -0.51755316657E+03  0.98015815097E+03  0.10100000352E+00 0. -1.
</event>
<event>
 5   0  0.2583422E-04  0.1690993E+04  0.7818609E-02  0.8766518E-01
       -1   -1    0    0    0  501  0.00000000000E+00  0.00000000000E+00  0.48718114980E+03  0.48718114983E+03  0.50400001928E-02 0.  1.
        1   -1    0    0  501    0  0.00000000000E+00  0.00000000000E+00 -0.14673474976E+04  0.14673474976E+04  0.50400001928E-02 0. -1.
    10030    2    1    2    0    0  0.00000000000E+00  0.00000000000E+00 -0.98016634782E+03  0.19545286475E+04  0.16909926565E+04 0.  0.
        3    1    3    3  502    0  0.76249039710E+03  0.18669042244E+02 -0.91180717854E+03  0.11887524889E+04  0.10100000352E+00 0. -1.
       -3    1    3    3    0  502 -0.76249039710E+03 -0.18669042244E+02 -0.68359169286E+02  0.76577615857E+03  0.10100000352E+00 0.  1.
</event>
<event>
 5   0  0.2583422E-04  0.1703774E+04  0.7818609E-02  0.8759215E-01
        1   -1    0    0  501    0  0.00000000000E+00  0.00000000000E+00  0.76660782587E+03  0.76660782589E+03  0.50400001928E-02 0. -1.
       -1   -1    0    0    0  501  0.00000000000E+00  0.00000000000E+00 -0.94665307972E+03  0.94665307974E+03  0.50400001928E-02 0.  1.
    10030    2    1    2    0    0  0.00000000000E+00  0.00000000000E+00 -0.18004525385E+03  0.17132609056E+04  0.17037742331E+04 0.  0.
        3    1    3    3  502    0  0.15014224734E+03 -0.46932574132E+02  0.75187643367E+03  0.76815593642E+03  0.10100000352E+00 0. -1.
       -3    1    3    3    0  502 -0.15014224734E+03  0.46932574132E+02 -0.93192168752E+03  0.94510496921E+03  0.10100000352E+00 0.  1.
</event>
<event>
 5   0  0.2583422E-04  0.1721295E+04  0.7818609E-02  0.8749312E-01
        1   -1    0    0  501    0  0.00000000000E+00  0.00000000000E+00  0.22640155076E+04  0.22640155076E+04  0.50400001928E-02 0. -1.
       -1   -1    0    0    0  501  0.00000000000E+00  0.00000000000E+00 -0.32716815977E+03  0.32716815981E+03  0.50400001928E-02 0.  1.
    10030    2    1    2    0    0  0.00000000000E+00  0.00000000000E+00  0.19368473478E+04  0.25911836674E+04  0.17212946144E+04 0.  0.
        3    1    3    3  502    0 -0.70207848641E+03 -0.49455207251E+03  0.88303031295E+03  0.12317623542E+04  0.10100000352E+00 0. -1.
       -3    1    3    3    0  502  0.70207848641E+03  0.49455207251E+03  0.10538170348E+04  0.13594213131E+04  0.10100000352E+00 0.  1.
</event>
<event>
 5   0  0.1910750E-04  0.1706921E+04  0.7818609E-02  0.8757427E-01
       -4   -1    0    0    0  501  0.00000000000E+00  0.00000000000E+00  0.88742345727E+03  0.88742436603E+03  0.12699999809E+01 0.  1.
        4   -1    0    0  501    0  0.00000000000E+00  0.00000000000E+00 -0.82079550513E+03  0.82079648765E+03  0.12699999809E+01 0. -1.
    10030    2    1    2    0    0  0.00000000000E+00  0.00000000000E+00  0.66627952142E+02  0.17082208537E+04  0.17069209709E+04 0.  0.
        3    1    3    3  502    0  0.40804507026E+03 -0.44340199284E+02 -0.71553920939E+03  0.82490193539E+03  0.10100000352E+00 0. -1.
       -3    1    3    3    0  502 -0.40804507026E+03  0.44340199284E+02  0.78216716153E+03  0.88331891829E+03  0.10100000352E+00 0.  1.
</event>
<event>
 5   0  0.2561518E-04  0.1703953E+04  0.7818609E-02  0.8759113E-01
        1   -1    0    0  501    0  0.00000000000E+00  0.00000000000E+00  0.54146898047E+03  0.54146898050E+03  0.50400001928E-02 0.  1.
       -1   -1    0    0    0  501  0.00000000000E+00  0.00000000000E+00 -0.13405450974E+04  0.13405450974E+04  0.50400001928E-02 0. -1.
    10030    2    1    2    0    0  0.00000000000E+00  0.00000000000E+00 -0.79907611693E+03  0.18820140779E+04  0.17039525665E+04 0.  0.
        4    1    3    3  502    0 -0.70907707892E+03  0.35430607699E+03 -0.54589577993E+02  0.79454687399E+03  0.12699999809E+01 0.  1.
       -4    1    3    3    0  502  0.70907707892E+03 -0.35430607699E+03 -0.74448653894E+03  0.10874672039E+04  0.12699999809E+01 0. -1.
</event>
<event>
 5   0  0.2561518E-04  0.1514920E+04  0.7818609E-02  0.8874591E-01
        1   -1    0    0  501    0  0.00000000000E+00  0.00000000000E+00  0.13693717587E+04  0.13693717587E+04  0.50400001928E-02 0. -1.
       -1   -1    0    0    0  501  0.00000000000E+00  0.00000000000E+00 -0.41898472921E+03  0.41898472924E+03  0.50400001928E-02 0.  1.
    10030    2    1    2    0    0  0.00000000000E+00  0.00000000000E+00  0.95038702945E+03  0.17883564879E+04  0.15149202692E+04 0.  0.
        4    1    3    3  502    0 -0.19409125114E+02 -0.61696145543E+03  0.99343786310E+03  0.11695890528E+04  0.12699999809E+01 0. -1.
       -4    1    3    3    0  502  0.19409125114E+02  0.61696145543E+03 -0.43050833645E+02  0.61876743515E+03  0.12699999809E+01 0.  1.
</event>
<event>
 5   0  0.5299877E-04  0.1628555E+04  0.7818609E-02  0.8803195E-01
       -2   -1    0    0    0  501  0.00000000000E+00  0.00000000000E+00  0.83418410308E+03  0.83418410308E+03  0.25500000920E-02 0. -1.
        2   -1    0    0  501    0  0.00000000000E+00  0.00000000000E+00 -0.79484588489E+03  0.79484588490E+03  0.25500000920E-02 0.  1.
    10030    2    1    2    0    0  0.00000000000E+00  0.00000000000E+00  0.39338218186E+02  0.16290299880E+04  0.16285549442E+04 0.  0.
        3    1    3    3  502    0  0.35815501171E+03 -0.61611349984E+03 -0.37437083382E+03  0.80499962020E+03  0.10100000352E+00 0.  1.
       -3    1    3    3    0  502 -0.35815501171E+03  0.61611349984E+03  0.41370905201E+03  0.82403036778E+03  0.10100000352E+00 0. -1.
</event>
<event>
 5   0  0.5198430E-04  0.1702753E+04  0.7818609E-02  0.8759796E-01
       -2   -1    0    0    0  501  0.00000000000E+00  0.00000000000E+00  0.53085751081E+03  0.53085751081E+03  0.25500000920E-02 0. -1.
        2   -1    0    0  501    0  0.00000000000E+00  0.00000000000E+00 -0.13654171161E+04  0.13654171161E+04  0.25500000920E-02 0.  1.
    10030    2    1    2    0    0  0.00000000000E+00  0.00000000000E+00 -0.83455960533E+03  0.18962746270E+04  0.17027529844E+04 0.  0.
        4    1    3    3  502    0 -0.66520573947E+03  0.52778911133E+03 -0.34880787896E+03  0.91800248975E+03  0.12699999809E+01 0.  1.
       -4    1    3    3    0  502  0.66520573947E+03 -0.52778911133E+03 -0.48575172637E+03  0.97827213721E+03  0.12699999809E+01 0. -1.
</event>
<event>
 5   0  0.5198430E-04  0.1710691E+04  0.7818609E-02  0.8755290E-01
        2   -1    0    0  501    0  0.00000000000E+00  0.00000000000E+00  0.13938558318E+04  0.13938558318E+04  0.25500000920E-02 0. -1.
       -2   -1    0    0    0  501  0.00000000000E+00  0.00000000000E+00 -0.52488644276E+03  0.52488644277E+03  0.25500000920E-02 0.  1.
    10030    2    1    2    0    0  0.00000000000E+00  0.00000000000E+00  0.86896938906E+03  0.19187422746E+04  0.17106911227E+04 0.  0.
        4    1    3    3  502    0 -0.80212284192E+02 -0.32023354558E+03 -0.45055015368E+03  0.55855222507E+03  0.12699999809E+01 0.  1.
       -4    1    3    3    0  502  0.80212284192E+02  0.32023354558E+03  0.13195195427E+04  0.13601900495E+04  0.12699999809E+01 0. -1.
</event>
<event>
 5   0  0.2785059E-04  0.1734704E+04  0.7818609E-02  0.8741815E-01
        1   -1    0    0  501    0  0.00000000000E+00  0.00000000000E+00  0.15686024023E+04  0.15686024023E+04  0.50400001928E-02 0.  1.
       -1   -1    0    0    0  501  0.00000000000E+00  0.00000000000E+00 -0.47959860757E+03  0.47959860760E+03  0.50400001928E-02 0. -1.
    10030    2    1    2    0    0  0.00000000000E+00  0.00000000000E+00  0.10890037948E+04  0.20482010099E+04  0.17347040416E+04 0.  0.
        5    1    3    3  502    0  0.32716759675E+03 -0.54057847812E+03 -0.15702281151E+03  0.65110827111E+03  0.46999998093E+01 0. -1.
       -5    1    3    3    0  502 -0.32716759675E+03  0.54057847812E+03  0.12460266063E+04  0.13970927388E+04  0.46999998093E+01 0.  1.
</event>
<event>
 5   0  0.2583422E-04  0.1701376E+04  0.7818609E-02  0.8760580E-01
        1   -1    0    0  501    0  0.00000000000E+00  0.00000000000E+00  0.62854513657E+03  0.62854513659E+03  0.50400001928E-02 0.  1.
       -1   -1    0    0    0  501  0.00000000000E+00  0.00000000000E+00 -0.11513420154E+04  0.11513420154E+04  0.50400001928E-02 0. -1.
    10030    2    1    2    0    0  0.00000000000E+00  0.00000000000E+00 -0.52279687886E+03  0.17798871520E+04  0.17013764126E+04 0.  0.
        3    1    3    3  502    0 -0.36270287818E+03 -0.58437610282E+03  0.26232416093E+03  0.73611329495E+03  0.10100000352E+00 0.  1.
       -3    1    3    3    0  502  0.36270287818E+03  0.58437610282E+03 -0.78512103979E+03  0.10437738571E+04  0.10100000352E+00 0. -1.
</event>
<event>
 5   0  0.5198430E-04  0.1798204E+04  0.7818609E-02  0.8707255E-01
       -2   -1    0    0    0  501  0.00000000000E+00  0.00000000000E+00  0.67722801662E+03  0.67722801663E+03  0.25500000920E-02 0.  1.
        2   -1    0    0  501    0  0.00000000000E+00  0.00000000000E+00 -0.11936663185E+04  0.11936663185E+04  0.25500000920E-02 0. -1.
    10030    2    1    2    0    0  0.00000000000E+00  0.00000000000E+00 -0.51643830184E+03  0.18708943351E+04  0.17982038520E+04 0.  0.
        4    1    3    3  502    0  0.89404618225E+02 -0.81238963384E+03  0.13164500789E+03  0.82782976749E+03  0.12699999809E+01 0.  1.
       -4    1    3    3    0  502 -0.89404618225E+02  0.81238963384E+03 -0.64808330973E+03  0.10430645676E+04  0.12699999809E+01 0. -1.
</event>
<event>
 5   0  0.5342255E-04  0.1737498E+04  0.7818609E-02  0.8740262E-01
        2   -1    0    0  501    0  0.00000000000E+00  0.00000000000E+00  0.15709024786E+04  0.15709024786E+04  0.25500000920E-02 0.  1.
       -2   -1    0    0    0  501  0.00000000000E+00  0.00000000000E+00 -0.48044034189E+03  0.48044034189E+03  0.25500000920E-02 0. -1.
    10030    2    1    2    0    0  0.00000000000E+00  0.00000000000E+00  0.10904621367E+04  0.20513428204E+04  0.17374981138E+04 0.  0.
        5    1    3    3  502    0  0.69728026490E+03  0.43435752409E+03  0.21163959568E+03  0.84833933954E+03  0.46999998093E+01 0. -1.
       -5    1    3    3    0  502 -0.69728026490E+03 -0.43435752409E+03  0.87882254098E+03  0.12030034809E+04  0.46999998093E+01 0.  1.
</event>
<event>
 5   0  0.2785059E-04  0.1612709E+04  0.7818609E-02  0.8812778E-01
        1   -1    0    0  501    0  0.00000000000E+00  0.00000000000E+00  0.23230188445E+04  0.23230188445E+04  0.50400001928E-02 0.  1.
       -1   -1    0    0    0  501  0.00000000000E+00  0.00000000000E+00 -0.27989779292E+03  0.27989779297E+03  0.50400001928E-02 0. -1.
    10030    2    1    2    0    0  0.00000000000E+00  0.00000000000E+00  0.20431210516E+04  0.26029166375E+04  0.16127093322E+04 0.  0.
        5    1    3    3  502    0 -0.22157873768E+03 -0.44293003821E+03 -0.54594899813E+01  0.49531409406E+03  0.46999998093E+01 0. -1.
       -5    1    3    3    0  502  0.22157873768E+03  0.44293003821E+03  0.20485805416E+04  0.21076025434E+04  0.46999998093E+01 0.  1.
</event>
<event>
 5   0  0.2583422E-04  0.1693888E+04  0.7818609E-02  0.8764858E-01
       -1   -1    0    0    0  501  0.00000000000E+00  0.00000000000E+00  0.63167928184E+03  0.63167928186E+03  0.50400001928E-02 0. -1.
        1   -1    0    0  501    0  0.00000000000E+00  0.00000000000E+00 -0.11355671264E+04  0.11355671264E+04  0.50400001928E-02 0.  1.
    10030    2    1    2    0    0  0.00000000000E+00  0.00000000000E+00 -0.50388784459E+03  0.17672464083E+04  0.16938881037E+04 0.  0.
        3    1    3    3  502    0 -0.25086774296E+03 -0.31933111575E+03  0.52348512785E+03  0.66252824485E+03  0.10100000352E+00 0. -1.
       -3    1    3    3    0  502  0.25086774296E+03  0.31933111575E+03 -0.10273729724E+04  0.11047181634E+04  0.10100000352E+00 0.  1.
</event>
<event>
 5   0  0.5021349E-04  0.1466128E+04  0.7818609E-02  0.8907295E-01
       -2   -1    0    0    0  501  0.00000000000E+00  0.00000000000E+00  0.10702231669E+04  0.10702231669E+04  0.25500000920E-02 0. -1.
        2   -1    0    0  501    0  0.00000000000E+00  0.00000000000E+00 -0.50212238281E+03  0.50212238282E+03  0.25500000920E-02 0.  1.
    10030    2    1    2    0    0  0.00000000000E+00  0.00000000000E+00  0.56810078406E+03  0.15723455497E+04  0.14661282436E+04 0.  0.
        2    1    3    3  502    0  0.16212629112E+03  0.58224088460E+03 -0.16084553175E+03  0.62542838684E+03  0.25500000920E-02 0.  1.
       -2    1    3    3    0  502 -0.16212629112E+03 -0.58224088460E+03  0.72894631581E+03  0.94691716285E+03  0.25500000920E-02 0. -1.
</event>
<event>
 5   0  0.5342255E-04  0.1700238E+04  0.7818609E-02  0.8761228E-01
        2   -1    0    0  501    0  0.00000000000E+00  0.00000000000E+00  0.82558973989E+03  0.82558973990E+03  0.25500000920E-02 0.  1.
       -2   -1    0    0    0  501  0.00000000000E+00  0.00000000000E+00 -0.87537743090E+03  0.87537743090E+03  0.25500000920E-02 0. -1.
    10030    2    1    2    0    0  0.00000000000E+00  0.00000000000E+00 -0.49787691004E+02  0.17009671708E+04  0.17002383662E+04 0.  0.
        5    1    3    3  502    0  0.44126664620E+03  0.67086431764E+02  0.69892419318E+03  0.82929726889E+03  0.46999998093E+01 0.  1.
       -5    1    3    3    0  502 -0.44126664620E+03 -0.67086431764E+02 -0.74871188419E+03  0.87166990191E+03  0.46999998093E+01 0. -1.
</event>
<event>
 5   0  0.5310003E-04  0.1679959E+04  0.7818609E-02  0.8772878E-01
       -2   -1    0    0    0  501  0.00000000000E+00  0.00000000000E+00  0.11852369489E+04  0.11852369489E+04  0.25500000920E-02 0. -1.
        2   -1    0    0  501    0  0.00000000000E+00  0.00000000000E+00 -0.59529481201E+03  0.59529481202E+03  0.25500000920E-02 0.  1.
    10030    2    1    2    0    0  0.00000000000E+00  0.00000000000E+00  0.58994213684E+03  0.17805317609E+04  0.16799588169E+04 0.  0.
        1    1    3    3  502    0  0.38668582365E+03  0.21262186668E+03  0.10524837214E+04  0.11412519302E+04  0.50400001928E-02 0. -1.
       -1    1    3    3    0  502 -0.38668582365E+03 -0.21262186668E+03 -0.46254158456E+03  0.63927983065E+03  0.50400001928E-02 0.  1.
</event>
<event>
 5   0  0.5198430E-04  0.1695105E+04  0.7818609E-02  0.8764161E-01
       -2   -1    0    0    0  501  0.00000000000E+00  0.00000000000E+00  0.52662266453E+03  0.52662266453E+03  0.25500000920E-02 0.  1.
        2   -1    0    0  501    0  0.00000000000E+00  0.00000000000E+00 -0.13640601216E+04  0.13640601216E+04  0.25500000920E-02 0. -1.
    10030    2    1    2    0    0  0.00000000000E+00  0.00000000000E+00 -0.83743745710E+03  0.18906827862E+04  0.16951046880E+04 0.  0.
        4    1    3    3  502    0  0.51683900746E+03  0.63353929335E+03 -0.16969005470E+03  0.83503947417E+03  0.12699999809E+01 0. -1.
       -4    1    3    3    0  502 -0.51683900746E+03 -0.63353929335E+03 -0.66774740240E+03  0.10556433120E+04  0.12699999809E+01 0.  1.
</event>
<event>
 5   0  0.5342255E-04  0.1704213E+04  0.7818609E-02  0.8758965E-01
       -2   -1    0    0    0  501  0.00000000000E+00  0.00000000000E+00  0.60154091910E+03  0.60154091910E+03  0.25500000920E-02 0.  1.
        2   -1    0    0  501    0  0.00000000000E+00  0.00000000000E+00 -0.12070430479E+04  0.12070430479E+04  0.25500000920E-02 0. -1.
    10030    2    1    2    0    0  0.00000000000E+00  0.00000000000E+00 -0.60550212885E+03  0.18085839671E+04  0.17042133487E+04 0.  0.
        5    1    3    3  502    0 -0.48401525083E+03  0.43499687375E+03 -0.88650270464E+03  0.10997282294E+04  0.46999998093E+01 0. -1.
       -5    1    3    3    0  502  0.48401525083E+03 -0.43499687375E+03  0.28100057579E+03  0.70885573765E+03  0.46999998093E+01 0.  1.
</event>
<event>
 5   0  0.5299877E-04  0.1709410E+04  0.7818609E-02  0.8756016E-01
        2   -1    0    0  501    0  0.00000000000E+00  0.00000000000E+00  0.76089732738E+03  0.76089732739E+03  0.25500000920E-02 0.  1.
       -2   -1    0    0    0  501  0.00000000000E+00  0.00000000000E+00 -0.96007787195E+03  0.96007787195E+03  0.25500000920E-02 0. -1.
    10030    2    1    2    0    0  0.00000000000E+00  0.00000000000E+00 -0.19918054457E+03  0.17209751993E+04  0.17094100583E+04 0.  0.
        3    1    3    3  502    0  0.83982632089E+03 -0.13792327871E+03 -0.20384008328E+02  0.85132050255E+03  0.10100000352E+00 0.  1.
       -3    1    3    3    0  502 -0.83982632089E+03  0.13792327871E+03 -0.17879653624E+03  0.86965469679E+03  0.10100000352E+00 0. -1.
</event>
<event>
 5   0  0.2595644E-04  0.1697979E+04  0.7818609E-02  0.8762518E-01
        1   -1    0    0  501    0  0.00000000000E+00  0.00000000000E+00  0.11845207691E+04  0.11845207691E+04  0.50400001928E-02 0.  1.
       -1   -1    0    0    0  501  0.00000000000E+00  0.00000000000E+00 -0.60850203417E+03  0.60850203419E+03  0.50400001928E-02 0. -1.
    10030    2    1    2    0    0  0.00000000000E+00  0.00000000000E+00  0.57601873497E+03  0.17930228033E+04  0.16979791489E+04 0.  0.
        2    1    3    3  502    0  0.68758686937E+03 -0.44492674143E+03  0.52424527464E+03  0.97240352537E+03  0.25500000920E-02 0.  1.
       -2    1    3    3    0  502 -0.68758686937E+03  0.44492674143E+03  0.51773460333E+02  0.82061927797E+03  0.25500000920E-02 0. -1.
</event>
<event>
 5   0  0.5342255E-04  0.1698442E+04  0.7818609E-02  0.8762253E-01
       -2   -1    0    0    0  501  0.00000000000E+00  0.00000000000E+00  0.65194370913E+03  0.65194370914E+03  0.25500000920E-02 0.  1.
        2   -1    0    0  501    0  0.00000000000E+00  0.00000000000E+00 -0.11061945653E+04  0.11061945653E+04  0.25500000920E-02 0. -1.
    10030    2    1    2    0    0  0.00000000000E+00  0.00000000000E+00 -0.45425085613E+03  0.17581382744E+04  0.16984423310E+04 0.  0.
        5    1    3    3  502    0 -0.70062257377E+03  0.47906059238E+03 -0.25609949708E+03  0.88655517846E+03  0.46999998093E+01 0. -1.
       -5    1    3    3    0  502  0.70062257377E+03 -0.47906059238E+03 -0.19815135904E+03  0.87158309594E+03  0.46999998093E+01 0.  1.
</event>
<event>
 5   0  0.2785059E-04  0.1666176E+04  0.7818609E-02  0.8780894E-01
       -1   -1    0    0    0  501  0.00000000000E+00  0.00000000000E+00  0.48420544048E+03  0.48420544051E+03  0.50400001928E-02 0.  1.
        1   -1    0    0  501    0  0.00000000000E+00  0.00000000000E+00 -0.14333488605E+04  0.14333488605E+04  0.50400001928E-02 0. -1.
    10030    2    1    2    0    0  0.00000000000E+00  0.00000000000E+00 -0.94914342004E+03  0.19175543010E+04  0.16661756407E+04 0.  0.
        5    1    3    3  502    0 -0.24414160231E+03  0.72818923270E+03 -0.84598162687E+03  0.11426161576E+04  0.46999998093E+01 0. -1.
       -5    1    3    3    0  502  0.24414160231E+03 -0.72818923270E+03 -0.10316179317E+03  0.77493814344E+03  0.46999998093E+01 0.  1.
</event>
<event>
 5   0  0.2785059E-04  0.1769337E+04  0.7818609E-02  0.8722778E-01
       -1   -1    0    0    0  501  0.00000000000E+00  0.00000000000E+00  0.64393023462E+03  0.64393023464E+03  0.50400001928E-02 0.  1.
        1   -1    0    0  501    0  0.00000000000E+00  0.00000000000E+00 -0.12154080795E+04  0.12154080795E+04  0.50400001928E-02 0. -1.
    10030    2    1    2    0    0  0.00000000000E+00  0.00000000000E+00 -0.57147784484E+03  0.18593383141E+04  0.17693366099E+04 0.  0.
        5    1    3    3  502    0 -0.50428031720E+03 -0.37742057472E+03  0.36704435470E+03  0.72903263086E+03  0.46999998093E+01 0.  1.
       -5    1    3    3    0  502  0.50428031720E+03  0.37742057472E+03 -0.93852219954E+03  0.11303056832E+04  0.46999998093E+01 0. -1.
</event>
<event>
 5   0  0.2785059E-04  0.1702716E+04  0.7818609E-02  0.8759817E-01
       -1   -1    0    0    0  501  0.00000000000E+00  0.00000000000E+00  0.54747808259E+03  0.54747808262E+03  0.50400001928E-02 0.  1.
        1   -1    0    0  501    0  0.00000000000E+00  0.00000000000E+00 -0.13239074527E+04  0.13239074527E+04  0.50400001928E-02 0. -1.
    10030    2    1    2    0    0  0.00000000000E+00  0.00000000000E+00 -0.77642937013E+03  0.18713855353E+04  0.17027158468E+04 0.  0.
        5    1    3    3  502    0  0.36760012871E+02  0.18966981577E+02 -0.13227880892E+04  0.13234430339E+04  0.46999998093E+01 0. -1.
       -5    1    3    3    0  502 -0.36760012871E+02 -0.18966981577E+02  0.54635871912E+03  0.54794250144E+03  0.46999998093E+01 0.  1.
</event>
<event>
 5   0  0.2561518E-04  0.1750126E+04  0.7818609E-02  0.8733281E-01
       -1   -1    0    0    0  501  0.00000000000E+00  0.00000000000E+00  0.50369030562E+03  0.50369030565E+03  0.50400001928E-02 0. -1.
        1   -1    0    0  501    0  0.00000000000E+00  0.00000000000E+00 -0.15202503992E+04  0.15202503992E+04  0.50400001928E-02 0.  1.
    10030    2    1    2    0    0  0.00000000000E+00  0.00000000000E+00 -0.10165600936E+04  0.20239407049E+04  0.17501261534E+04 0.  0.
        4    1    3    3  502    0 -0.85505161094E+02  0.24917288351E+03  0.45674304058E+03  0.52727040166E+03  0.12699999809E+01 0. -1.
       -4    1    3    3    0  502  0.85505161094E+02 -0.24917288351E+03 -0.14733031342E+04  0.14966703032E+04  0.12699999809E+01 0.  1.
</event>
<event>
 5   0  0.5299877E-04  0.1823254E+04  0.7818609E-02  0.8694030E-01
        2   -1    0    0  501    0  0.00000000000E+00  0.00000000000E+00  0.76251449969E+03  0.76251449969E+03  0.25500000920E-02 0.  1.
       -2   -1    0    0    0  501  0.00000000000E+00  0.00000000000E+00 -0.10898995440E+04  0.10898995440E+04  0.25500000920E-02 0. -1.
    10030    2    1    2    0    0  0.00000000000E+00  0.00000000000E+00 -0.32738504434E+03  0.18524140437E+04  0.18232544590E+04 0.  0.
        3    1    3    3  502    0 -0.70198653022E+03 -0.51924185163E+02  0.42486748368E+03  0.82218829869E+03  0.10100000352E+00 0.  1.
       -3    1    3    3    0  502  0.70198653022E+03  0.51924185163E+02 -0.75225252802E+03  0.10302257450E+04  0.10100000352E+00 0. -1.
</event>
<event>
 5   0  0.1910750E-04  0.1799836E+04  0.7818609E-02  0.8706387E-01
       -4   -1    0    0    0  501  0.00000000000E+00  0.00000000000E+00  0.20061186721E+04  0.20061190741E+04  0.12699999809E+01 0.  1.
        4   -1    0    0  501    0  0.00000000000E+00  0.00000000000E+00 -0.40368964881E+03  0.40369164650E+03  0.12699999809E+01 0. -1.
    10030    2    1    2    0    0  0.00000000000E+00  0.00000000000E+00  0.16024290233E+04  0.24098107206E+04  0.17998358076E+04 0.  0.
        4    1    3    3  502    0  0.98127636390E+02 -0.80409471954E+03  0.27638173760E+03  0.85591227868E+03  0.12699999809E+01 0. -1.
       -4    1    3    3    0  502 -0.98127636390E+02  0.80409471954E+03  0.13260472857E+04  0.15538984420E+04  0.12699999809E+01 0.  1.
</event>
<event>
 5   0  0.2561518E-04  0.1819236E+04  0.7818609E-02  0.8696137E-01
       -1   -1    0    0    0  501  0.00000000000E+00  0.00000000000E+00  0.80291789468E+03  0.80291789469E+03  0.50400001928E-02 0.  1.
        1   -1    0    0  501    0  0.00000000000E+00  0.00000000000E+00 -0.10304971539E+04  0.10304971539E+04  0.50400001928E-02 0. -1.
    10030    2    1    2    0    0  0.00000000000E+00  0.00000000000E+00 -0.22757925922E+03  0.18334150486E+04  0.18192356695E+04 0.  0.
        4    1    3    3  502    0 -0.23926182634E+03  0.71293548841E+03 -0.62952010626E+03  0.98072443085E+03  0.12699999809E+01 0.  1.
       -4    1    3    3    0  502  0.23926182634E+03 -0.71293548841E+03  0.40194084705E+03  0.85269061775E+03  0.12699999809E+01 0. -1.
</event>
<event>
 5   0  0.5021349E-04  0.1587296E+04  0.7818609E-02  0.8828390E-01
       -2   -1    0    0    0  501  0.00000000000E+00  0.00000000000E+00  0.61321069155E+03  0.61321069156E+03  0.25500000920E-02 0. -1.
        2   -1    0    0  501    0  0.00000000000E+00  0.00000000000E+00 -0.10271795870E+04  0.10271795870E+04  0.25500000920E-02 0.  1.
    10030    2    1    2    0    0  0.00000000000E+00  0.00000000000E+00 -0.41396889549E+03  0.16403902786E+04  0.15872964498E+04 0.  0.
        2    1    3    3  502    0  0.16071378031E+03 -0.61193715785E+03 -0.70215816710E+03  0.94515718056E+03  0.25500000920E-02 0.  1.
       -2    1    3    3    0  502 -0.16071378031E+03  0.61193715785E+03  0.28818927161E+03  0.69523309804E+03  0.25500000920E-02 0. -1.
</event>
<event>
 5   0  0.5021349E-04  0.1505443E+04  0.7818609E-02  0.8880841E-01
        2   -1    0    0  501    0  0.00000000000E+00  0.00000000000E+00  0.79898397499E+03  0.79898397500E+03  0.25500000920E-02 0.  1.
       -2   -1    0    0    0  501  0.00000000000E+00  0.00000000000E+00 -0.70913796418E+03  0.70913796419E+03  0.25500000920E-02 0. -1.
    10030    2    1    2    0    0  0.00000000000E+00  0.00000000000E+00  0.89846010811E+02  0.15081219392E+04  0.15054432828E+04 0.  0.
        2    1    3    3  502    0 -0.64874524497E+03  0.21365846478E+03 -0.27197755325E+03  0.73518169314E+03  0.25500000920E-02 0. -1.
       -2    1    3    3    0  502  0.64874524497E+03 -0.21365846478E+03  0.36182356406E+03  0.77294024605E+03  0.25500000920E-02 0.  1.
</event>
<event>
 5   0  0.2561518E-04  0.1712164E+04  0.7818609E-02  0.8754457E-01
       -1   -1    0    0    0  501  0.00000000000E+00  0.00000000000E+00  0.49079224039E+03  0.49079224042E+03  0.50400001928E-02 0. -1.
        1   -1    0    0  501    0  0.00000000000E+00  0.00000000000E+00 -0.14932510371E+04  0.14932510371E+04  0.50400001928E-02 0.  1.
    10030    2    1    2    0    0  0.00000000000E+00  0.00000000000E+00 -0.10024587967E+04  0.19840432775E+04  0.17121635693E+04 0.  0.
        4    1    3    3  502    0  0.16308906351E+03  0.55372399088E+03 -0.12338085414E+04  0.13621649792E+04  0.12699999809E+01 0.  1.
       -4    1    3    3    0  502 -0.16308906351E+03 -0.55372399088E+03  0.23134974470E+03  0.62187829837E+03  0.12699999809E+01 0. -1.
</event>
<event>
 5   0  0.5342255E-04  0.1695804E+04  0.7818609E-02  0.8763761E-01
        2   -1    0    0  501    0  0.00000000000E+00  0.00000000000E+00  0.14010805609E+04  0.14010805609E+04  0.25500000920E-02 0.  1.
       -2   -1    0    0    0  501  0.00000000000E+00  0.00000000000E+00 -0.51313120084E+03  0.51313120084E+03  0.25500000920E-02 0. -1.
    10030    2    1    2    0    0  0.00000000000E+00  0.00000000000E+00  0.88794936010E+03  0.19142117618E+04  0.16958044117E+04 0.  0.
        5    1    3    3  502    0  0.25561369127E+03 -0.63713700760E+03  0.10056941463E+04  0.12176718489E+04  0.46999998093E+01 0.  1.
       -5    1    3    3    0  502 -0.25561369127E+03  0.63713700760E+03 -0.11774478620E+03  0.69653991292E+03  0.46999998093E+01 0. -1.
</event>
<event>
 5   0  0.2583422E-04  0.1714771E+04  0.7818609E-02  0.8752984E-01
       -1   -1    0    0    0  501  0.00000000000E+00  0.00000000000E+00  0.67027260182E+03  0.67027260184E+03  0.50400001928E-02 0. -1.
        1   -1    0    0  501    0  0.00000000000E+00  0.00000000000E+00 -0.10967330841E+04  0.10967330841E+04  0.50400001928E-02 0.  1.
    10030    2    1    2    0    0  0.00000000000E+00  0.00000000000E+00 -0.42646048227E+03  0.17670056859E+04  0.17147712825E+04 0.  0.
        3    1    3    3  502    0 -0.49808743807E+03  0.61659088747E+02 -0.92954340495E+03  0.10563824549E+04  0.10100000352E+00 0. -1.
       -3    1    3    3    0  502  0.49808743807E+03 -0.61659088747E+02  0.50308292268E+03  0.71062323103E+03  0.10100000352E+00 0.  1.
</event>
<event>
 5   0  0.5198430E-04  0.1711860E+04  0.7818609E-02  0.8754629E-01
        2   -1    0    0  501    0  0.00000000000E+00  0.00000000000E+00  0.95055916714E+03  0.95055916715E+03  0.25500000920E-02 0.  1.
       -2   -1    0    0    0  501  0.00000000000E+00  0.00000000000E+00 -0.77072155336E+03  0.77072155336E+03  0.25500000920E-02 0. -1.
    10030    2    1    2    0    0  0.00000000000E+00  0.00000000000E+00  0.17983761379E+03  0.17212807205E+04  0.17118603189E+04 0.  0.
        4    1    3    3  502    0  0.14407930895E+03 -0.77020141264E+03 -0.25642664875E+03  0.82445454841E+03  0.12699999809E+01 0. -1.
       -4    1    3    3    0  502 -0.14407930895E+03  0.77020141264E+03  0.43626426253E+03  0.89682617210E+03  0.12699999809E+01 0.  1.
</event>
<event>
 5   0  0.1910750E-04  0.1690979E+04  0.7818609E-02  0.8766526E-01
       -3   -1    0    0    0  501  0.00000000000E+00  0.00000000000E+00  0.76574895718E+03  0.76574896384E+03  0.10100000352E+00 0.  1.
        3   -1    0    0  501    0  0.00000000000E+00  0.00000000000E+00 -0.93353343921E+03  0.93353344468E+03  0.10100000352E+00 0. -1.
    10030    2    1    2    0    0  0.00000000000E+00  0.00000000000E+00 -0.16778448204E+03  0.16992824085E+04  0.16909787318E+04 0.  0.
        3    1    3    3  502    0 -0.39842544447E+03  0.49377851458E+03  0.47768304339E+03  0.79419214073E+03  0.10100000352E+00 0.  1.
       -3    1    3    3    0  502  0.39842544447E+03 -0.49377851458E+03 -0.64546752543E+03  0.90509026778E+03  0.10100000352E+00 0. -1.
</event>
<event>
 5   0  0.1910750E-04  0.1699327E+04  0.7818609E-02  0.8761748E-01
       -4   -1    0    0    0  501  0.00000000000E+00  0.00000000000E+00  0.70235156147E+03  0.70235270969E+03  0.12699999809E+01 0. -1.
        4   -1    0    0  501    0  0.00000000000E+00  0.00000000000E+00 -0.10278709986E+04  0.10278717832E+04  0.12699999809E+01 0.  1.
    10030    2    1    2    0    0  0.00000000000E+00  0.00000000000E+00 -0.32551943716E+03  0.17302244929E+04  0.16993274822E+04 0.  0.
        4    1    3    3  502    0 -0.12652484902E+03  0.18841100024E+03 -0.99643846818E+03  0.10219581577E+04  0.12699999809E+01 0.  1.
       -4    1    3    3    0  502  0.12652484902E+03 -0.18841100024E+03  0.67091903102E+03  0.70826633515E+03  0.12699999809E+01 0. -1.
</event>
<event>
 5   0  0.2630135E-04  0.1684493E+04  0.7818609E-02  0.8770258E-01
       -1   -1    0    0    0  501  0.00000000000E+00  0.00000000000E+00  0.59627895037E+03  0.59627895039E+03  0.50400001928E-02 0.  1.
        1   -1    0    0  501    0  0.00000000000E+00  0.00000000000E+00 -0.11896766748E+04  0.11896766748E+04  0.50400001928E-02 0. -1.
    10030    2    1    2    0    0  0.00000000000E+00  0.00000000000E+00 -0.59339772443E+03  0.17859556252E+04  0.16844929907E+04 0.  0.
        1    1    3    3  502    0 -0.46676243662E+03 -0.63173414394E+01 -0.10399761809E+04  0.11399375149E+04  0.50400001928E-02 0. -1.
       -1    1    3    3    0  502  0.46676243662E+03  0.63173414394E+01  0.44657845645E+03  0.64601811030E+03  0.50400001928E-02 0.  1.
</event>
<event>
 5   0  0.2630135E-04  0.1693998E+04  0.7818609E-02  0.8764795E-01
        1   -1    0    0  501    0  0.00000000000E+00  0.00000000000E+00  0.64698046949E+03  0.64698046951E+03  0.50400001928E-02 0. -1.
       -1   -1    0    0    0  501  0.00000000000E+00  0.00000000000E+00 -0.11088552624E+04  0.11088552624E+04  0.50400001928E-02 0.  1.
    10030    2    1    2    0    0  0.00000000000E+00  0.00000000000E+00 -0.46187479295E+03  0.17558357320E+04  0.16939984632E+04 0.  0.
        1    1    3    3  502    0 -0.60070804604E+03 -0.33515253769E+03 -0.74317405819E+03  0.10126623627E+04  0.50400001928E-02 0.  1.
       -1    1    3    3    0  502  0.60070804604E+03  0.33515253769E+03  0.28129926524E+03  0.74317336923E+03  0.50400001928E-02 0. -1.
</event>
<event>
 5   0  0.2583422E-04  0.1681010E+04  0.7818609E-02  0.8772270E-01
       -1   -1    0    0    0  501  0.00000000000E+00  0.00000000000E+00  0.18022690185E+04  0.18022690185E+04  0.50400001928E-02 0.  1.
        1   -1    0    0  501    0  0.00000000000E+00  0.00000000000E+00 -0.39197713425E+03  0.39197713428E+03  0.50400001928E-02 0. -1.
    10030    2    1    2    0    0  0.00000000000E+00  0.00000000000E+00  0.14102918842E+04  0.21942461528E+04  0.16810095122E+04 0.  0.
        3    1    3    3  502    0 -0.50585843481E+02  0.48372101583E+03  0.15999324268E+04  0.16722226913E+04  0.10100000352E+00 0.  1.
       -3    1    3    3    0  502  0.50585843481E+02 -0.48372101583E+03 -0.18964054259E+03  0.52202346146E+03  0.10100000352E+00 0. -1.
</event>
<event>
 5   0  0.5198430E-04  0.1591929E+04  0.7818609E-02  0.8825522E-01
       -2   -1    0    0    0  501  0.00000000000E+00  0.00000000000E+00  0.24174492022E+03  0.24174492024E+03  0.25500000920E-02 0.  1.
        2   -1    0    0  501    0  0.00000000000E+00  0.00000000000E+00 -0.26207752360E+04  0.26207752360E+04  0.25500000920E-02 0. -1.
    10030    2    1    2    0    0  0.00000000000E+00  0.00000000000E+00 -0.23790303158E+04  0.28625201563E+04  0.15919285165E+04 0.  0.
        4    1    3    3  502    0  0.12131517881E+03 -0.75535541130E+03 -0.79442059402E+03  0.11028983920E+04  0.12699999809E+01 0.  1.
       -4    1    3    3    0  502 -0.12131517881E+03  0.75535541130E+03 -0.15846097218E+04  0.17596217643E+04  0.12699999809E+01 0. -1.
</event>
<event>
 5   0  0.5310003E-04  0.1667950E+04  0.7818609E-02  0.8779858E-01
        2   -1    0    0  501    0  0.00000000000E+00  0.00000000000E+00  0.15480767274E+04  0.15480767274E+04  0.25500000920E-02 0. -1.
       -2   -1    0    0    0  501  0.00000000000E+00  0.00000000000E+00 -0.44927619595E+03  0.44927619596E+03  0.25500000920E-02 0.  1.
    10030    2    1    2    0    0  0.00000000000E+00  0.00000000000E+00  0.10988005315E+04  0.19973529234E+04  0.16679496673E+04 0.  0.
        1    1    3    3  502    0 -0.22491767512E+03 -0.14700550260E+03 -0.39602197033E+03  0.47857285692E+03  0.50400001928E-02 0.  1.
       -1    1    3    3    0  502  0.22491767512E+03  0.14700550260E+03  0.14948225018E+04  0.15187800665E+04  0.50400001928E-02 0. -1.
</event>
<event>
 5   0  0.1910750E-04  0.1731317E+04  0.7818609E-02  0.8743702E-01
       -4   -1    0    0    0  501  0.00000000000E+00  0.00000000000E+00  0.79164129165E+03  0.79164231036E+03  0.12699999809E+01 0. -1.
        4   -1    0    0  501    0  0.00000000000E+00  0.00000000000E+00 -0.94659424113E+03  0.94659509308E+03  0.12699999809E+01 0.  1.
    10030    2    1    2    0    0  0.00000000000E+00  0.00000000000E+00 -0.15495294947E+03  0.17382374034E+04  0.17313170865E+04 0.  0.
        4    1    3    3  502    0 -0.21573722699E+03 -0.47069949262E+03 -0.77398029663E+03  0.93120764383E+03  0.12699999809E+01 0.  1.
       -4    1    3    3    0  502  0.21573722699E+03  0.47069949262E+03  0.61902734716E+03  0.80702975961E+03  0.12699999809E+01 0. -1.
</event>
<event>
 5   0  0.2595644E-04  0.1692318E+04  0.7818609E-02  0.8765758E-01
       -1   -1    0    0    0  501  0.00000000000E+00  0.00000000000E+00  0.46248278019E+03  0.46248278022E+03  0.50400001928E-02 0. -1.
        1   -1    0    0  501    0  0.00000000000E+00  0.00000000000E+00 -0.15481332022E+04  0.15481332023E+04  0.50400001928E-02 0.  1.
    10030    2    1    2    0    0  0.00000000000E+00  0.00000000000E+00 -0.10856504221E+04  0.20106159825E+04  0.16923178750E+04 0.  0.
        2    1    3    3  502    0 -0.72471866067E+03  0.34615999961E+03 -0.85926861018E+03  0.11761744883E+04  0.25500000920E-02 0. -1.
       -2    1    3    3    0  502  0.72471866067E+03 -0.34615999961E+03 -0.22638181187E+03  0.83444149418E+03  0.25500000920E-02 0.  1.
</event>
<event>
 5   0  0.2785059E-04  0.1719282E+04  0.7818609E-02  0.8750443E-01
       -1   -1    0    0    0  501  0.00000000000E+00  0.00000000000E+00  0.11427419008E+04  0.11427419008E+04  0.50400001928E-02 0.  1.
        1   -1    0    0  501    0  0.00000000000E+00  0.00000000000E+00 -0.64667479827E+03  0.64667479828E+03  0.50400001928E-02 0. -1.
    10030    2    1    2    0    0  0.00000000000E+00  0.00000000000E+00  0.49606710255E+03  0.17894166991E+04  0.17192816968E+04 0.  0.
        5    1    3    3  502    0  0.75476712555E+03 -0.39591556656E+03  0.36457333934E+03  0.92701583558E+03  0.46999998093E+01 0. -1.
       -5    1    3    3    0  502 -0.75476712555E+03  0.39591556656E+03  0.13149376321E+03  0.86240086353E+03  0.46999998093E+01 0.  1.
</event>
<event>
 5   0  0.5198430E-04  0.1747301E+04  0.7818609E-02  0.8734837E-01
       -2   -1    0    0    0  501  0.00000000000E+00  0.00000000000E+00  0.94530252752E+03  0.94530252752E+03  0.25500000920E-02 0. -1.
        2   -1    0    0  501    0  0.00000000000E+00  0.00000000000E+00 -0.80742937477E+03  0.80742937478E+03  0.25500000920E-02 0.  1.
    10030    2    1    2    0    0  0.00000000000E+00  0.00000000000E+00  0.13787315275E+03  0.17527319023E+04  0.17473008084E+04 0.  0.
        4    1    3    3  502    0 -0.65424902309E+03 -0.56447425242E+03 -0.60267702597E+02  0.86620250215E+03  0.12699999809E+01 0. -1.
       -4    1    3    3    0  502  0.65424902309E+03  0.56447425242E+03  0.19814085534E+03  0.88652940014E+03  0.12699999809E+01 0.  1.
</event>
<event>
 5   0  0.2583422E-04  0.1722073E+04  0.7818609E-02  0.8748875E-01
        1   -1    0    0  501    0  0.00000000000E+00  0.00000000000E+00  0.94282296573E+03  0.94282296574E+03  0.50400001928E-02 0.  1.
       -1   -1    0    0    0  501  0.00000000000E+00  0.00000000000E+00 -0.78634443752E+03  0.78634443753E+03  0.50400001928E-02 0. -1.
    10030    2    1    2    0    0  0.00000000000E+00  0.00000000000E+00  0.15647852821E+03  0.17291674033E+04  0.17220726985E+04 0.  0.
        3    1    3    3  502    0  0.58984292131E+03 -0.35683790621E+03  0.59624797401E+03  0.91146015812E+03  0.10100000352E+00 0.  1.
       -3    1    3    3    0  502 -0.58984292131E+03  0.35683790621E+03 -0.43976944580E+03  0.81770724516E+03  0.10100000352E+00 0. -1.
</event>
<event>
 5   0  0.5198430E-04  0.1692561E+04  0.7818609E-02  0.8765619E-01
       -2   -1    0    0    0  501  0.00000000000E+00  0.00000000000E+00  0.93683915612E+03  0.93683915612E+03  0.25500000920E-02 0.  1.
        2   -1    0    0  501    0  0.00000000000E+00  0.00000000000E+00 -0.76447517737E+03  0.76447517737E+03  0.25500000920E-02 0. -1.
    10030    2    1    2    0    0  0.00000000000E+00  0.00000000000E+00  0.17236397875E+03  0.17013143335E+04  0.16925605219E+04 0.  0.
        4    1    3    3  502    0 -0.12309172210E+03 -0.60115956222E+01  0.92777023100E+03  0.93592036294E+03  0.12699999809E+01 0.  1.
       -4    1    3    3    0  502  0.12309172210E+03  0.60115956222E+01 -0.75540625225E+03  0.76539397056E+03  0.12699999809E+01 0. -1.
</event>
<event>
 5   0  0.2630135E-04  0.1694701E+04  0.7818609E-02  0.8764392E-01
       -1   -1    0    0    0  501  0.00000000000E+00  0.00000000000E+00  0.51062684733E+03  0.51062684735E+03  0.50400001928E-02 0. -1.
        1   -1    0    0  501    0  0.00000000000E+00  0.00000000000E+00 -0.14061208725E+04  0.14061208725E+04  0.50400001928E-02 0.  1.
    10030    2    1    2    0    0  0.00000000000E+00  0.00000000000E+00 -0.89549402516E+03  0.19167477199E+04  0.16947012340E+04 0.  0.
        1    1    3    3  502    0 -0.25357165743E+03  0.50768479554E+03  0.26395437647E+03  0.62587087323E+03  0.50400001928E-02 0. -1.
       -1    1    3    3    0  502  0.25357165743E+03 -0.50768479554E+03 -0.11594484016E+04  0.12908768466E+04  0.50400001928E-02 0.  1.
</event>
<event>
 5   0  0.2630135E-04  0.1665795E+04  0.7818609E-02  0.8781117E-01
       -1   -1    0    0    0  501  0.00000000000E+00  0.00000000000E+00  0.39613994520E+03  0.39613994523E+03  0.50400001928E-02 0.  1.
        1   -1    0    0  501    0  0.00000000000E+00  0.00000000000E+00 -0.17511942159E+04  0.17511942159E+04  0.50400001928E-02 0. -1.
    10030    2    1    2    0    0  0.00000000000E+00  0.00000000000E+00 -0.13550542707E+04  0.21473341611E+04  0.16657946821E+04 0.  0.
        1    1    3    3  502    0 -0.21460437162E+03  0.67801875598E+03 -0.11866667621E+03  0.72100364066E+03  0.50400001928E-02 0. -1.
       -1    1    3    3    0  502  0.21460437162E+03 -0.67801875598E+03 -0.12363875944E+04  0.14263305204E+04  0.50400001928E-02 0.  1.
</event>
<event>
 5   0  0.5198430E-04  0.1712639E+04  0.7818609E-02  0.8754189E-01
        2   -1    0    0  501    0  0.00000000000E+00  0.00000000000E+00  0.26350486369E+03  0.26350486371E+03  0.25500000920E-02 0. -1.
       -2   -1    0    0    0  501  0.00000000000E+00  0.00000000000E+00 -0.27828068146E+04  0.27828068146E+04  0.25500000920E-02 0.  1.
    10030    2    1    2    0    0  0.00000000000E+00  0.00000000000E+00 -0.25193019509E+04  0.30463116783E+04  0.17126390517E+04 0.  0.
        4    1    3    3  502    0 -0.45223097169E+03  0.61771725525E+03 -0.19420739391E+04  0.20875201213E+04  0.12699999809E+01 0. -1.
       -4    1    3    3    0  502  0.45223097169E+03 -0.61771725525E+03 -0.57722801181E+03  0.95879155697E+03  0.12699999809E+01 0.  1.
</event>
<event>
 5   0  0.5310003E-04  0.1570208E+04  0.7818609E-02  0.8839062E-01
        2   -1    0    0  501    0  0.00000000000E+00  0.00000000000E+00  0.93118622659E+03  0.93118622659E+03  0.25500000920E-02 0.  1.
       -2   -1    0    0    0  501  0.00000000000E+00  0.00000000000E+00 -0.66193896100E+03  0.66193896100E+03  0.25500000920E-02 0. -1.
    10030    2    1    2    0    0  0.00000000000E+00  0.00000000000E+00  0.26924726559E+03  0.15931251876E+04  0.15702081943E+04 0.  0.
        1    1    3    3  502    0 -0.51725239588E+03 -0.13976150996E+03  0.71685005150E+03  0.89496218751E+03  0.50400001928E-02 0.  1.
       -1    1    3    3    0  502  0.51725239588E+03  0.13976150996E+03 -0.44760278591E+03  0.69816300009E+03  0.50400001928E-02 0. -1.
</event>
<event>
 5   0  0.5021349E-04  0.1624172E+04  0.7818609E-02  0.8805834E-01
       -2   -1    0    0    0  501  0.00000000000E+00  0.00000000000E+00  0.12513563049E+04  0.12513563049E+04  0.25500000920E-02 0. -1.
        2   -1    0    0  501    0  0.00000000000E+00  0.00000000000E+00 -0.52701536331E+03  0.52701536332E+03  0.25500000920E-02 0.  1.
    10030    2    1    2    0    0  0.00000000000E+00  0.00000000000E+00  0.72434094163E+03  0.17783716683E+04  0.16241724018E+04 0.  0.
        2    1    3    3  502    0  0.65258924943E+03  0.38401845001E+03  0.40807666117E+02  0.75829292759E+03  0.25500000920E-02 0.  1.
       -2    1    3    3    0  502 -0.65258924943E+03 -0.38401845001E+03  0.68353327551E+03  0.10200787407E+04  0.25500000920E-02 0. -1.
</event>
<event>
 5   0  0.5198430E-04  0.1731319E+04  0.7818609E-02  0.8743701E-01
        2   -1    0    0  501    0  0.00000000000E+00  0.00000000000E+00  0.13779465886E+04  0.13779465886E+04  0.25500000920E-02 0. -1.
       -2   -1    0    0    0  501  0.00000000000E+00  0.00000000000E+00 -0.54382859200E+03  0.54382859200E+03  0.25500000920E-02 0.  1.
    10030    2    1    2    0    0  0.00000000000E+00  0.00000000000E+00  0.83411799656E+03  0.19217751806E+04  0.17313194426E+04 0.  0.
        4    1    3    3  502    0 -0.74911652735E+03 -0.42888440252E+03  0.48940328375E+03  0.99228755375E+03  0.12699999809E+01 0.  1.
       -4    1    3    3    0  502  0.74911652735E+03  0.42888440252E+03  0.34471471281E+03  0.92948762681E+03  0.12699999809E+01 0. -1.
</event>
<event>
 5   0  0.2630135E-04  0.1697998E+04  0.7818609E-02  0.8762507E-01
       -1   -1    0    0    0  501  0.00000000000E+00  0.00000000000E+00  0.14532177834E+04  0.14532177834E+04  0.50400001928E-02 0.  1.
        1   -1    0    0  501    0  0.00000000000E+00  0.00000000000E+00 -0.49600200904E+03  0.49600200906E+03  0.50400001928E-02 0. -1.
    10030    2    1    2    0    0  0.00000000000E+00  0.00000000000E+00  0.95721577437E+03  0.19492197925E+04  0.16979975738E+04 0.  0.
        1    1    3    3  502    0 -0.13853784991E+03 -0.49430970027E+03  0.12548680730E+04  0.13558129282E+04  0.50400001928E-02 0.  1.
       -1    1    3    3    0  502  0.13853784991E+03  0.49430970027E+03 -0.29765229864E+03  0.59340686426E+03  0.50400001928E-02 0. -1.
</event>
<event>
 5   0  0.2583422E-04  0.1706635E+04  0.7818609E-02  0.8757589E-01
        1   -1    0    0  501    0  0.00000000000E+00  0.00000000000E+00  0.14852741468E+04  0.14852741468E+04  0.50400001928E-02 0.  1.
       -1   -1    0    0    0  501  0.00000000000E+00  0.00000000000E+00 -0.49024647264E+03  0.49024647267E+03  0.50400001928E-02 0. -1.
    10030    2    1    2    0    0  0.00000000000E+00  0.00000000000E+00  0.99502767412E+03  0.19755206194E+04  0.17066345964E+04 0.  0.
        3    1    3    3  502    0  0.58186194969E+03  0.33601038371E+03  0.11063958138E+04  0.12944411973E+04  0.10100000352E+00 0.  1.
       -3    1    3    3    0  502 -0.58186194969E+03 -0.33601038371E+03 -0.11136813966E+03  0.68107942209E+03  0.10100000352E+00 0. -1.
</event>
<event>
 5   0  0.5021349E-04  0.1662677E+04  0.7818609E-02  0.8782942E-01
        2   -1    0    0  501    0  0.00000000000E+00  0.00000000000E+00  0.16742405875E+04  0.16742405875E+04  0.25500000920E-02 0.  1.
       -2   -1    0    0    0  501  0.00000000000E+00  0.00000000000E+00 -0.41279826403E+03  0.41279826404E+03  0.25500000920E-02 0. -1.
    10030    2    1    2    0    0  0.00000000000E+00  0.00000000000E+00  0.12614423235E+04  0.20870388516E+04  0.16626768876E+04 0.  0.
        2    1    3    3  502    0  0.62671705920E+03 -0.33414879475E+02  0.13150597459E+04  0.14571454840E+04  0.25500000920E-02 0.  1.
       -2    1    3    3    0  502 -0.62671705920E+03  0.33414879475E+02 -0.53617422365E+02  0.62989336753E+03  0.25500000920E-02 0. -1.
</event>
<event>
 5   0  0.2595644E-04  0.1694814E+04  0.7818609E-02  0.8764328E-01
       -1   -1    0    0    0  501  0.00000000000E+00  0.00000000000E+00  0.66395329971E+03  0.66395329973E+03  0.50400001928E-02 0. -1.
        1   -1    0    0  501    0  0.00000000000E+00  0.00000000000E+00 -0.10815493721E+04  0.10815493721E+04  0.50400001928E-02 0.  1.
    10030    2    1    2    0    0  0.00000000000E+00  0.00000000000E+00 -0.41759607236E+03  0.17455026718E+04  0.16948135879E+04 0.  0.
        2    1    3    3  502    0  0.67433048071E+03 -0.13303034778E+03  0.30168713638E+03  0.75062227446E+03  0.25500000920E-02 0. -1.
       -2    1    3    3    0  502 -0.67433048071E+03  0.13303034778E+03 -0.71928320874E+03  0.99488039735E+03  0.25500000920E-02 0.  1.
</event>
<event>
 5   0  0.2561518E-04  0.1676987E+04  0.7818609E-02  0.8774600E-01
       -1   -1    0    0    0  501  0.00000000000E+00  0.00000000000E+00  0.76717053024E+03  0.76717053026E+03  0.50400001928E-02 0. -1.
        1   -1    0    0  501    0  0.00000000000E+00  0.00000000000E+00 -0.91644706265E+03  0.91644706266E+03  0.50400001928E-02 0.  1.
    10030    2    1    2    0    0  0.00000000000E+00  0.00000000000E+00 -0.14927653241E+03  0.16836175929E+04  0.16769867966E+04 0.  0.
        4    1    3    3  502    0 -0.80058226151E+03  0.98746831529E+02 -0.30442461082E+03  0.86218260870E+03  0.12699999809E+01 0.  1.
       -4    1    3    3    0  502  0.80058226151E+03 -0.98746831529E+02  0.15514807841E+03  0.82143498423E+03  0.12699999809E+01 0. -1.
</event>
<event>
 5   0  0.2561518E-04  0.1791595E+04  0.7818609E-02  0.8710782E-01
        1   -1    0    0  501    0  0.00000000000E+00  0.00000000000E+00  0.18633902627E+04  0.18633902627E+04  0.50400001928E-02 0. -1.
       -1   -1    0    0    0  501  0.00000000000E+00  0.00000000000E+00 -0.43064135907E+03  0.43064135910E+03  0.50400001928E-02 0.  1.
    10030    2    1    2    0    0  0.00000000000E+00  0.00000000000E+00  0.14327489036E+04  0.22940316218E+04  0.17915947257E+04 0.  0.
        4    1    3    3  502    0 -0.79217443262E+03 -0.23280880488E+03  0.11612444360E+04  0.14248615808E+04  0.12699999809E+01 0. -1.
       -4    1    3    3    0  502  0.79217443262E+03  0.23280880488E+03  0.27150446757E+03  0.86917004098E+03  0.12699999809E+01 0.  1.
</event>
<event>
 5   0  0.5021349E-04  0.1677160E+04  0.7818609E-02  0.8774499E-01
       -2   -1    0    0    0  501  0.00000000000E+00  0.00000000000E+00  0.65382246370E+03  0.65382246371E+03  0.25500000920E-02 0. -1.
        2   -1    0    0  501    0  0.00000000000E+00  0.00000000000E+00 -0.10755464694E+04  0.10755464694E+04  0.25500000920E-02 0.  1.
    10030    2    1    2    0    0  0.00000000000E+00  0.00000000000E+00 -0.42172400565E+03  0.17293689331E+04  0.16771600310E+04 0.  0.
        2    1    3    3  502    0 -0.37379715611E+03 -0.73505468790E+03 -0.53849968121E+02  0.82639550288E+03  0.25500000920E-02 0.  1.
       -2    1    3    3    0  502  0.37379715611E+03  0.73505468790E+03 -0.36787403753E+03  0.90297343018E+03  0.25500000920E-02 0. -1.
</event>
<event>
 5   0  0.2630135E-04  0.1647205E+04  0.7818609E-02  0.8792061E-01
        1   -1    0    0  501    0  0.00000000000E+00  0.00000000000E+00  0.60463138471E+03  0.60463138473E+03  0.50400001928E-02 0.  1.
       -1   -1    0    0    0  501  0.00000000000E+00  0.00000000000E+00 -0.11218758533E+04  0.11218758533E+04  0.50400001928E-02 0. -1.
    10030    2    1    2    0    0  0.00000000000E+00  0.00000000000E+00 -0.51724446858E+03  0.17265072380E+04  0.16472053311E+04 0.  0.
        1    1    3    3  502    0 -0.42778887634E+03 -0.58186427051E+03  0.15635780518E+03  0.73892970930E+03  0.50400001928E-02 0.  1.
       -1    1    3    3    0  502  0.42778887634E+03  0.58186427051E+03 -0.67360227376E+03  0.98757752873E+03  0.50400001928E-02 0. -1.
</event>
<event>
 5   0  0.5021349E-04  0.1709321E+04  0.7818609E-02  0.8756066E-01
        2   -1    0    0  501    0  0.00000000000E+00  0.00000000000E+00  0.15330142235E+04  0.15330142235E+04  0.25500000920E-02 0.  1.
       -2   -1    0    0    0  501  0.00000000000E+00  0.00000000000E+00 -0.47647625027E+03  0.47647625027E+03  0.25500000920E-02 0. -1.
    10030    2    1    2    0    0  0.00000000000E+00  0.00000000000E+00  0.10565379732E+04  0.20094904738E+04  0.17093213493E+04 0.  0.
        2    1    3    3  502    0 -0.97464749417E+02 -0.25425126066E+03  0.14806572360E+04  0.15054862774E+04  0.25500000920E-02 0.  1.
       -2    1    3    3    0  502  0.97464749417E+02  0.25425126066E+03 -0.42411926275E+03  0.50400419638E+03  0.25500000920E-02 0. -1.
</event>
<event>
 5   0  0.5021349E-04  0.1694257E+04  0.7818609E-02  0.8764646E-01
       -2   -1    0    0    0  501  0.00000000000E+00  0.00000000000E+00  0.29635676725E+03  0.29635676726E+03  0.25500000920E-02 0. -1.
        2   -1    0    0  501    0  0.00000000000E+00  0.00000000000E+00 -0.24214963926E+04  0.24214963926E+04  0.25500000920E-02 0.  1.
    10030    2    1    2    0    0  0.00000000000E+00  0.00000000000E+00 -0.21251396254E+04  0.27178531599E+04  0.16942571739E+04 0.  0.
        2    1    3    3  502    0 -0.18324525288E+03  0.24298740539E+03 -0.23307718618E+04  0.23505572049E+04  0.25500000920E-02 0.  1.
       -2    1    3    3    0  502  0.18324525288E+03 -0.24298740539E+03  0.20563223641E+03  0.36729595497E+03  0.25500000920E-02 0. -1.
</event>
<event>
 5   0  0.5021349E-04  0.1697674E+04  0.7818609E-02  0.8762692E-01
        2   -1    0    0  501    0  0.00000000000E+00  0.00000000000E+00  0.13244128642E+04  0.13244128642E+04  0.25500000920E-02 0. -1.
       -2   -1    0    0    0  501  0.00000000000E+00  0.00000000000E+00 -0.54403287019E+03  0.54403287020E+03  0.25500000920E-02 0.  1.
    10030    2    1    2    0    0  0.00000000000E+00  0.00000000000E+00  0.78037999402E+03  0.18684457344E+04  0.16976738578E+04 0.  0.
        2    1    3    3  502    0 -0.10799778041E+03  0.80010246967E+03  0.67865558049E+03  0.10547041668E+04  0.25500000920E-02 0. -1.
       -2    1    3    3    0  502  0.10799778041E+03 -0.80010246967E+03  0.10172441353E+03  0.81374156761E+03  0.25500000920E-02 0.  1.
</event>
<event>
 5   0  0.5310003E-04  0.1677808E+04  0.7818609E-02  0.8774123E-01
        2   -1    0    0  501    0  0.00000000000E+00  0.00000000000E+00  0.10789435086E+04  0.10789435086E+04  0.25500000920E-02 0. -1.
       -2   -1    0    0    0  501  0.00000000000E+00  0.00000000000E+00 -0.65226768340E+03  0.65226768341E+03  0.25500000920E-02 0.  1.
    10030    2    1    2    0    0  0.00000000000E+00  0.00000000000E+00  0.42667582518E+03  0.17312111920E+04  0.16778080735E+04 0.  0.
        1    1    3    3  502    0  0.48648918904E+03 -0.12186918157E+03  0.90722756465E+03  0.10366222468E+04  0.50400001928E-02 0. -1.
       -1    1    3    3    0  502 -0.48648918904E+03  0.12186918157E+03 -0.48055173946E+03  0.69458894520E+03  0.50400001928E-02 0.  1.
</event>
<event>
 5   0  0.2595644E-04  0.1675126E+04  0.7818609E-02  0.8775680E-01
       -1   -1    0    0    0  501  0.00000000000E+00  0.00000000000E+00  0.49600237259E+03  0.49600237261E+03  0.50400001928E-02 0.  1.
        1   -1    0    0  501    0  0.00000000000E+00  0.00000000000E+00 -0.14143307605E+04  0.14143307605E+04  0.50400001928E-02 0. -1.
    10030    2    1    2    0    0  0.00000000000E+00  0.00000000000E+00 -0.91832838787E+03  0.19103331331E+04  0.16751255629E+04 0.  0.
        2    1    3    3  502    0 -0.18225312152E+03  0.79036497247E+03 -0.22098889381E+03  0.84067180350E+03  0.25500000920E-02 0. -1.
       -2    1    3    3    0  502  0.18225312152E+03 -0.79036497247E+03 -0.69733949406E+03  0.10696613296E+04  0.25500000920E-02 0.  1.
</event>
<event>
 5   0  0.5198430E-04  0.1695026E+04  0.7818609E-02  0.8764207E-01
       -2   -1    0    0    0  501  0.00000000000E+00  0.00000000000E+00  0.66557607663E+03  0.66557607663E+03  0.25500000920E-02 0.  1.
        2   -1    0    0  501    0  0.00000000000E+00  0.00000000000E+00 -0.10791822807E+04  0.10791822807E+04  0.25500000920E-02 0. -1.
    10030    2    1    2    0    0  0.00000000000E+00  0.00000000000E+00 -0.41360620407E+03  0.17447583573E+04  0.16950255554E+04 0.  0.
        4    1    3    3  502    0  0.53289270822E+03 -0.65779072130E+03 -0.16546224780E+03  0.86257906295E+03  0.12699999809E+01 0.  1.
       -4    1    3    3    0  502 -0.53289270822E+03  0.65779072130E+03 -0.24814395627E+03  0.88217929438E+03  0.12699999809E+01 0. -1.
</event>
<event>
 5   0  0.5342255E-04  0.1709147E+04  0.7818609E-02  0.8756165E-01
        2   -1    0    0  501    0  0.00000000000E+00  0.00000000000E+00  0.17380273384E+04  0.17380273384E+04  0.25500000920E-02 0. -1.
       -2   -1    0    0    0  501  0.00000000000E+00  0.00000000000E+00 -0.42018646768E+03  0.42018646769E+03  0.25500000920E-02 0.  1.
    10030    2    1    2    0    0  0.00000000000E+00  0.00000000000E+00  0.13178408707E+04  0.21582138061E+04  0.17091466503E+04 0.  0.
        5    1    3    3  502    0  0.49638662446E+03 -0.50530031801E+03  0.55247970533E+02  0.71049456055E+03  0.46999998093E+01 0.  1.
       -5    1    3    3    0  502 -0.49638662446E+03  0.50530031801E+03  0.12625929002E+04  0.14477192456E+04  0.46999998093E+01 0. -1.
</event>
<event>
 5   0  0.2583422E-04  0.1701151E+04  0.7818609E-02  0.8760708E-01
        1   -1    0    0  501    0  0.00000000000E+00  0.00000000000E+00  0.70274387198E+03  0.70274387200E+03  0.50400001928E-02 0. -1.
       -1   -1    0    0    0  501  0.00000000000E+00  0.00000000000E+00 -0.10295051193E+04  0.10295051193E+04  0.50400001928E-02 0.  1.
    10030    2    1    2    0    0  0.00000000000E+00  0.00000000000E+00 -0.32676124734E+03  0.17322489913E+04  0.17011506856E+04 0.  0.
        3    1    3    3  502    0  0.35195048724E+03  0.64064860797E+03  0.27951721227E+03  0.78257885642E+03  0.10100000352E+00 0. -1.
       -3    1    3    3    0  502 -0.35195048724E+03 -0.64064860797E+03 -0.60627845961E+03  0.94967013491E+03  0.10100000352E+00 0.  1.
</event>
<event>
 5   0  0.5342255E-04  0.1742030E+04  0.7818609E-02  0.8737750E-01
        2   -1    0    0  501    0  0.00000000000E+00  0.00000000000E+00  0.10136011283E+04  0.10136011283E+04  0.25500000920E-02 0. -1.
       -2   -1    0    0    0  501  0.00000000000E+00  0.00000000000E+00 -0.74848699781E+03  0.74848699781E+03  0.25500000920E-02 0.  1.
    10030    2    1    2    0    0  0.00000000000E+00  0.00000000000E+00  0.26511413048E+03  0.17620881261E+04  0.17420301553E+04 0.  0.
        5    1    3    3  502    0  0.84016271416E+03  0.17985684960E+03  0.27711267339E+03  0.90279310828E+03  0.46999998093E+01 0. -1.
       -5    1    3    3    0  502 -0.84016271416E+03 -0.17985684960E+03 -0.11998542917E+02  0.85929501781E+03  0.46999998093E+01 0.  1.
</event>
<event>
 5   0  0.2785059E-04  0.1722383E+04  0.7818609E-02  0.8748701E-01
       -1   -1    0    0    0  501  0.00000000000E+00  0.00000000000E+00  0.60302975638E+03  0.60302975640E+03  0.50400001928E-02 0. -1.
        1   -1    0    0  501    0  0.00000000000E+00  0.00000000000E+00 -0.12298738084E+04  0.12298738084E+04  0.50400001928E-02 0.  1.
    10030    2    1    2    0    0  0.00000000000E+00  0.00000000000E+00 -0.62684405198E+03  0.18329035648E+04  0.17223826556E+04 0.  0.
        5    1    3    3  502    0  0.65059145767E+03 -0.54909270277E+03 -0.45158511243E+03  0.96370288201E+03  0.46999998093E+01 0. -1.
       -5    1    3    3    0  502 -0.65059145767E+03  0.54909270277E+03 -0.17525893955E+03  0.86920068276E+03  0.46999998093E+01 0.  1.
</event>
<event>
 5   0  0.5342255E-04  0.1491983E+04  0.7818609E-02  0.8889802E-01
       -2   -1    0    0    0  501  0.00000000000E+00  0.00000000000E+00  0.99793662110E+03  0.99793662110E+03  0.25500000920E-02 0.  1.
        2   -1    0    0  501    0  0.00000000000E+00  0.00000000000E+00 -0.55765392979E+03  0.55765392980E+03  0.25500000920E-02 0. -1.
    10030    2    1    2    0    0  0.00000000000E+00  0.00000000000E+00  0.44028269130E+03  0.15555905509E+04  0.14919829469E+04 0.  0.
        5    1    3    3  502    0 -0.71665908806E+02  0.65881480058E+03  0.57724615985E+03  0.87886754577E+03  0.46999998093E+01 0.  1.
       -5    1    3    3    0  502  0.71665908806E+02 -0.65881480058E+03 -0.13696346855E+03  0.67672300513E+03  0.46999998093E+01 0. -1.
</event>
<event>
 5   0  0.5021349E-04  0.1729046E+04  0.7818609E-02  0.8744970E-01
        2   -1    0    0  501    0  0.00000000000E+00  0.00000000000E+00  0.76298116857E+03  0.76298116857E+03  0.25500000920E-02 0. -1.
       -2   -1    0    0    0  501  0.00000000000E+00  0.00000000000E+00 -0.97957865158E+03  0.97957865158E+03  0.25500000920E-02 0.  1.
    10030    2    1    2    0    0  0.00000000000E+00  0.00000000000E+00 -0.21659748301E+03  0.17425598202E+04  0.17290460541E+04 0.  0.
        2    1    3    3  502    0  0.29693406756E+03 -0.41562076341E+02 -0.92550172574E+03  0.97285697357E+03  0.25500000920E-02 0.  1.
       -2    1    3    3    0  502 -0.29693406756E+03  0.41562076341E+02  0.70890424273E+03  0.76970284658E+03  0.25500000920E-02 0. -1.
</event>
<event>
 5   0  0.2630135E-04  0.1730242E+04  0.7818609E-02  0.8744302E-01
        1   -1    0    0  501    0  0.00000000000E+00  0.00000000000E+00  0.12831843044E+04  0.12831843044E+04  0.50400001928E-02 0.  1.
       -1   -1    0    0    0  501  0.00000000000E+00  0.00000000000E+00 -0.58326355729E+03  0.58326355731E+03  0.50400001928E-02 0. -1.
    10030    2    1    2    0    0  0.00000000000E+00  0.00000000000E+00  0.69992074715E+03  0.18664478618E+04  0.17302423438E+04 0.  0.
        1    1    3    3  502    0  0.73384081691E+03  0.84767814770E+01  0.84410436886E+03  0.11185286701E+04  0.50400001928E-02 0.  1.
       -1    1    3    3    0  502 -0.73384081691E+03 -0.84767814770E+01 -0.14418362171E+03  0.74791919161E+03  0.50400001928E-02 0. -1.
</event>
<event>
 5   0  0.2630135E-04  0.1748859E+04  0.7818609E-02  0.8733979E-01
       -1   -1    0    0    0  501  0.00000000000E+00  0.00000000000E+00  0.28428115312E+03  0.28428115317E+03  0.50400001928E-02 0.  1.
        1   -1    0    0  501    0  0.00000000000E+00  0.00000000000E+00 -0.26896846258E+04  0.26896846258E+04  0.50400001928E-02 0. -1.
    10030    2    1    2    0    0  0.00000000000E+00  0.00000000000E+00 -0.24054034727E+04  0.29739657790E+04  0.17488586530E+04 0.  0.
        1    1    3    3  502    0  0.78720391663E+02  0.75897987359E+03 -0.47648036195E+03  0.89960040236E+03  0.50400001928E-02 0.  1.
       -1    1    3    3    0  502 -0.78720391663E+02 -0.75897987359E+03 -0.19289231107E+04  0.20743653766E+04  0.50400001928E-02 0. -1.
</event>
<event>
 5   0  0.5198430E-04  0.1692216E+04  0.7818609E-02  0.8765816E-01
       -2   -1    0    0    0  501  0.00000000000E+00  0.00000000000E+00  0.47176055523E+03  0.47176055524E+03  0.25500000920E-02 0. -1.
        2   -1    0    0  501    0  0.00000000000E+00  0.00000000000E+00 -0.15175047176E+04  0.15175047176E+04  0.25500000920E-02 0.  1.
    10030    2    1    2    0    0  0.00000000000E+00  0.00000000000E+00 -0.10457441623E+04  0.19892652728E+04  0.16922161424E+04 0.  0.
        4    1    3    3  502    0 -0.33226338793E+03 -0.28110491715E+03 -0.13758290352E+04  0.14430267081E+04  0.12699999809E+01 0.  1.
       -4    1    3    3    0  502  0.33226338793E+03  0.28110491715E+03  0.33008487283E+03  0.54623856470E+03  0.12699999809E+01 0. -1.
</event>
<event>
 5   0  0.5198430E-04  0.1658238E+04  0.7818609E-02  0.8785548E-01
        2   -1    0    0  501    0  0.00000000000E+00  0.00000000000E+00  0.73412501790E+03  0.73412501790E+03  0.25500000920E-02 0. -1.
       -2   -1    0    0    0  501  0.00000000000E+00  0.00000000000E+00 -0.93640519827E+03  0.93640519827E+03  0.25500000920E-02 0.  1.
    10030    2    1    2    0    0  0.00000000000E+00  0.00000000000E+00 -0.20228018037E+03  0.16705302162E+04  0.16582382012E+04 0.  0.
        4    1    3    3  502    0  0.50444702710E+03  0.20812526610E+02  0.56141043734E+03  0.75503857946E+03  0.12699999809E+01 0. -1.
       -4    1    3    3    0  502 -0.50444702710E+03 -0.20812526610E+02 -0.76369061772E+03  0.91549163672E+03  0.12699999809E+01 0.  1.
</event>
<event>
 5   0  0.5310003E-04  0.1691484E+04  0.7818609E-02  0.8766237E-01
        2   -1    0    0  501    0  0.00000000000E+00  0.00000000000E+00  0.13187500919E+04  0.13187500919E+04  0.25500000920E-02 0. -1.
       -2   -1    0    0    0  501  0.00000000000E+00  0.00000000000E+00 -0.54239176376E+03  0.54239176376E+03  0.25500000920E-02 0.  1.
    10030    2    1    2    0    0  0.00000000000E+00  0.00000000000E+00  0.77635832814E+03  0.18611418557E+04  0.16914835953E+04 0.  0.
        1    1    3    3  502    0 -0.61414462293E+03  0.14544428805E+03 -0.23127348128E+03  0.67217191400E+03  0.50400001928E-02 0.  1.
       -1    1    3    3    0  502  0.61414462293E+03 -0.14544428805E+03  0.10076318094E+04  0.11889699417E+04  0.50400001928E-02 0. -1.
</event>
<event>
 5   0  0.5342255E-04  0.1693930E+04  0.7818609E-02  0.8764834E-01
        2   -1    0    0  501    0  0.00000000000E+00  0.00000000000E+00  0.22530114429E+04  0.22530114429E+04  0.25500000920E-02 0. -1.
       -2   -1    0    0    0  501  0.00000000000E+00  0.00000000000E+00 -0.31839611304E+03  0.31839611305E+03  0.25500000920E-02 0.  1.
    10030    2    1    2    0    0  0.00000000000E+00  0.00000000000E+00  0.19346153298E+04  0.25714075559E+04  0.16939304426E+04 0.  0.
        5    1    3    3  502    0 -0.19392597114E+03  0.34462525745E+03 -0.16963620307E+03  0.43031660641E+03  0.46999998093E+01 0.  1.
       -5    1    3    3    0  502  0.19392597114E+03 -0.34462525745E+03  0.21042515329E+04  0.21410909495E+04  0.46999998093E+01 0. -1.
</event>
<event>
 5   0  0.2583422E-04  0.1675881E+04  0.7818609E-02  0.8775241E-01
        1   -1    0    0  501    0  0.00000000000E+00  0.00000000000E+00  0.10298893540E+04  0.10298893540E+04  0.50400001928E-02 0. -1.
       -1   -1    0    0    0  501  0.00000000000E+00  0.00000000000E+00 -0.68176652448E+03  0.68176652450E+03  0.50400001928E-02 0.  1.
    10030    2    1    2    0    0  0.00000000000E+00  0.00000000000E+00  0.34812282947E+03  0.17116558785E+04  0.16758807660E+04 0.  0.
        3    1    3    3  502    0 -0.74304881125E+03  0.12438382298E+02 -0.22133028038E+03  0.77541173094E+03  0.10100000352E+00 0. -1.
       -3    1    3    3    0  502  0.74304881125E+03 -0.12438382298E+02  0.56945310986E+03  0.93624414753E+03  0.10100000352E+00 0.  1.
</event>
<event>
 5   0  0.2630135E-04  0.1253091E+04  0.7818609E-02  0.9067614E-01
        1   -1    0    0  501    0  0.00000000000E+00  0.00000000000E+00  0.10143562562E+04  0.10143562562E+04  0.50400001928E-02 0. -1.
       -1   -1    0    0    0  501  0.00000000000E+00  0.00000000000E+00 -0.38700355727E+03  0.38700355730E+03  0.50400001928E-02 0.  1.
    10030    2    1    2    0    0  0.00000000000E+00  0.00000000000E+00  0.62735269888E+03  0.14013598135E+04  0.12530913446E+04 0.  0.
        1    1    3    3  502    0 -0.31098841210E+03 -0.39769444769E+03 -0.10128719917E+03  0.51491141269E+03  0.50400001928E-02 0.  1.
       -1    1    3    3    0  502  0.31098841210E+03  0.39769444769E+03  0.72863989805E+03  0.88644840078E+03  0.50400001928E-02 0. -1.
</event>
<event>
 5   0  0.5021349E-04  0.1668047E+04  0.7818609E-02  0.8779801E-01
       -2   -1    0    0    0  501  0.00000000000E+00  0.00000000000E+00  0.29594746122E+03  0.29594746123E+03  0.25500000920E-02 0. -1.
        2   -1    0    0  501    0  0.00000000000E+00  0.00000000000E+00 -0.23504014998E+04  0.23504014998E+04  0.25500000920E-02 0.  1.
    10030    2    1    2    0    0  0.00000000000E+00  0.00000000000E+00 -0.20544540386E+04  0.26463489611E+04  0.16680471897E+04 0.  0.
        2    1    3    3  502    0 -0.56827803282E+03 -0.60708694660E+03 -0.11288231015E+04  0.14020471026E+04  0.25500000920E-02 0. -1.
       -2    1    3    3    0  502  0.56827803282E+03  0.60708694660E+03 -0.92563093714E+03  0.12443018585E+04  0.25500000920E-02 0.  1.
</event>
<event>
 5   0  0.2785059E-04  0.1706000E+04  0.7818609E-02  0.8757950E-01
        1   -1    0    0  501    0  0.00000000000E+00  0.00000000000E+00  0.14130502284E+04  0.14130502284E+04  0.50400001928E-02 0. -1.
       -1   -1    0    0    0  501  0.00000000000E+00  0.00000000000E+00 -0.51492064996E+03  0.51492064999E+03  0.50400001928E-02 0.  1.
    10030    2    1    2    0    0  0.00000000000E+00  0.00000000000E+00  0.89812957841E+03  0.19279708784E+04  0.17059996976E+04 0.  0.
        5    1    3    3  502    0 -0.15245528634E+03 -0.21827535368E+03 -0.46674440114E+03  0.53736316430E+03  0.46999998093E+01 0.  1.
       -5    1    3    3    0  502  0.15245528634E+03  0.21827535368E+03  0.13648739795E+04  0.13906077141E+04  0.46999998093E+01 0. -1.
</event>
<event>
 5   0  0.2630135E-04  0.1719340E+04  0.7818609E-02  0.8750410E-01
        1   -1    0    0  501    0  0.00000000000E+00  0.00000000000E+00  0.87308539973E+03  0.87308539974E+03  0.50400001928E-02 0. -1.
       -1   -1    0    0    0  501  0.00000000000E+00  0.00000000000E+00 -0.84646098702E+03  0.84646098704E+03  0.50400001928E-02 0.  1.
    10030    2    1    2    0    0  0.00000000000E+00  0.00000000000E+00  0.26624412708E+02  0.17195463868E+04  0.17193402563E+04 0.  0.
        1    1    3    3  502    0 -0.36773475016E+03 -0.77114657994E+03  0.10891045909E+03  0.86125337872E+03  0.50400001928E-02 0.  1.
       -1    1    3    3    0  502  0.36773475016E+03  0.77114657994E+03 -0.82286046380E+02  0.85829300806E+03  0.50400001928E-02 0. -1.
</event>
<event>
 5   0  0.2595644E-04  0.1698725E+04  0.7818609E-02  0.8762092E-01
       -1   -1    0    0    0  501  0.00000000000E+00  0.00000000000E+00  0.11796371073E+04  0.11796371073E+04  0.50400001928E-02 0.  1.
        1   -1    0    0  501    0  0.00000000000E+00  0.00000000000E+00 -0.61155795850E+03  0.61155795852E+03  0.50400001928E-02 0. -1.
    10030    2    1    2    0    0  0.00000000000E+00  0.00000000000E+00  0.56807914876E+03  0.17911950658E+04  0.16987247701E+04 0.  0.
        2    1    3    3  502    0 -0.22396112622E+03  0.80368904246E+03  0.11618291422E+03  0.84236164003E+03  0.25500000920E-02 0. -1.
       -2    1    3    3    0  502  0.22396112622E+03 -0.80368904246E+03  0.45189623454E+03  0.94883342576E+03  0.25500000920E-02 0.  1.
</event>
<event>
 5   0  0.5021349E-04  0.1701401E+04  0.7818609E-02  0.8760566E-01
        2   -1    0    0  501    0  0.00000000000E+00  0.00000000000E+00  0.15938274921E+04  0.15938274921E+04  0.25500000920E-02 0. -1.
       -2   -1    0    0    0  501  0.00000000000E+00  0.00000000000E+00 -0.45405879441E+03  0.45405879442E+03  0.25500000920E-02 0.  1.
    10030    2    1    2    0    0  0.00000000000E+00  0.00000000000E+00  0.11397686977E+04  0.20478862865E+04  0.17014010575E+04 0.  0.
        2    1    3    3  502    0 -0.65907072394E+03  0.50618530594E+03  0.35092112004E+03  0.90207727807E+03  0.25500000920E-02 0.  1.
       -2    1    3    3    0  502  0.65907072394E+03 -0.50618530594E+03  0.78884757765E+03  0.11458090085E+04  0.25500000920E-02 0. -1.
</event>
<event>
 5   0  0.5299877E-04  0.1697853E+04  0.7818609E-02  0.8762590E-01
        2   -1    0    0  501    0  0.00000000000E+00  0.00000000000E+00  0.73527276543E+03  0.73527276544E+03  0.25500000920E-02 0.  1.
       -2   -1    0    0    0  501  0.00000000000E+00  0.00000000000E+00 -0.98014824054E+03  0.98014824054E+03  0.25500000920E-02 0. -1.
    10030    2    1    2    0    0  0.00000000000E+00  0.00000000000E+00 -0.24487547511E+03  0.17154210060E+04  0.16978531236E+04 0.  0.
        3    1    3    3  502    0  0.52155680798E+03  0.60175691786E+03  0.17478880871E+03  0.81528156486E+03  0.10100000352E+00 0. -1.
       -3    1    3    3    0  502 -0.52155680798E+03 -0.60175691786E+03 -0.41966428381E+03  0.90013944112E+03  0.10100000352E+00 0.  1.
</event>
<event>
 5   0  0.2785059E-04  0.1672466E+04  0.7818609E-02  0.8777226E-01
       -1   -1    0    0    0  501  0.00000000000E+00  0.00000000000E+00  0.11569874895E+04  0.11569874896E+04  0.50400001928E-02 0. -1.
        1   -1    0    0  501    0  0.00000000000E+00  0.00000000000E+00 -0.60440214947E+03  0.60440214949E+03  0.50400001928E-02 0.  1.
    10030    2    1    2    0    0  0.00000000000E+00  0.00000000000E+00  0.55258534007E+03  0.17613896390E+04  0.16724661140E+04 0.  0.
        5    1    3    3  502    0  0.25858271437E+03  0.80640762949E+02 -0.55690699775E+03  0.61930238734E+03  0.46999998093E+01 0.  1.
       -5    1    3    3    0  502 -0.25858271437E+03 -0.80640762949E+02  0.11094923378E+04  0.11420872517E+04  0.46999998093E+01 0. -1.
</event>
<event>
 5   0  0.2630135E-04  0.1701357E+04  0.7818609E-02  0.8760591E-01
        1   -1    0    0  501    0  0.00000000000E+00  0.00000000000E+00  0.10654884490E+04  0.10654884490E+04  0.50400001928E-02 0.  1.
       -1   -1    0    0    0  501  0.00000000000E+00  0.00000000000E+00 -0.67917589950E+03  0.67917589952E+03  0.50400001928E-02 0. -1.
    10030    2    1    2    0    0  0.00000000000E+00  0.00000000000E+00  0.38631254949E+03  0.17446643485E+04  0.17013571945E+04 0.  0.
        1    1    3    3  502    0  0.24722040748E+03 -0.29946489359E+03  0.96929520506E+03  0.10441888464E+04  0.50400001928E-02 0.  1.
       -1    1    3    3    0  502 -0.24722040748E+03  0.29946489359E+03 -0.58298265556E+03  0.70047550213E+03  0.50400001928E-02 0. -1.
</event>
<event>
 5   0  0.2583422E-04  0.1737297E+04  0.7818609E-02  0.8740374E-01
        1   -1    0    0  501    0  0.00000000000E+00  0.00000000000E+00  0.20978785515E+04  0.20978785515E+04  0.50400001928E-02 0. -1.
       -1   -1    0    0    0  501  0.00000000000E+00  0.00000000000E+00 -0.35967286112E+03  0.35967286115E+03  0.50400001928E-02 0.  1.
    10030    2    1    2    0    0  0.00000000000E+00  0.00000000000E+00  0.17382056904E+04  0.24575514126E+04  0.17372967288E+04 0.  0.
        3    1    3    3  502    0 -0.50210049749E+03  0.20262951290E+03 -0.91759064003E+02  0.54916606332E+03  0.10100000352E+00 0.  1.
       -3    1    3    3    0  502  0.50210049749E+03 -0.20262951290E+03  0.18299647544E+04  0.19083853493E+04  0.10100000352E+00 0. -1.
</event>
<event>
 5   0  0.5342255E-04  0.1681104E+04  0.7818609E-02  0.8772216E-01
        2   -1    0    0  501    0  0.00000000000E+00  0.00000000000E+00  0.11466108717E+04  0.11466108717E+04  0.25500000920E-02 0. -1.
       -2   -1    0    0    0  501  0.00000000000E+00  0.00000000000E+00 -0.61618755826E+03  0.61618755827E+03  0.25500000920E-02 0.  1.
    10030    2    1    2    0    0  0.00000000000E+00  0.00000000000E+00  0.53042331342E+03  0.17627984300E+04  0.16811036295E+04 0.  0.
        5    1    3    3  502    0 -0.32866670149E+03  0.10468896484E+03 -0.53853810681E+03  0.63955215777E+03  0.46999998093E+01 0.  1.
       -5    1    3    3    0  502  0.32866670149E+03 -0.10468896484E+03  0.10689614202E+04  0.11232462722E+04  0.46999998093E+01 0. -1.
</event>
<event>
 5   0  0.1910750E-04  0.1646900E+04  0.7818609E-02  0.8792242E-01
       -3   -1    0    0    0  501  0.00000000000E+00  0.00000000000E+00  0.10318888823E+04  0.10318888872E+04  0.10100000352E+00 0.  1.
        3   -1    0    0  501    0  0.00000000000E+00  0.00000000000E+00 -0.65711525439E+03  0.65711526215E+03  0.10100000352E+00 0. -1.
    10030    2    1    2    0    0  0.00000000000E+00  0.00000000000E+00  0.37477362786E+03  0.16890041493E+04  0.16469000408E+04 0.  0.
        2    1    3    3  502    0  0.48907398644E+03 -0.89894071944E+02  0.86051708210E+03  0.99386314801E+03  0.25500000920E-02 0.  1.
       -2    1    3    3    0  502 -0.48907398644E+03  0.89894071944E+02 -0.48574345424E+03  0.69514100133E+03  0.25500000920E-02 0. -1.
</event>
<event>
 5   0  0.5021349E-04  0.1730489E+04  0.7818609E-02  0.8744164E-01
       -2   -1    0    0    0  501  0.00000000000E+00  0.00000000000E+00  0.53508011995E+03  0.53508011996E+03  0.25500000920E-02 0.  1.
        2   -1    0    0  501    0  0.00000000000E+00  0.00000000000E+00 -0.13991328007E+04  0.13991328007E+04  0.25500000920E-02 0. -1.
    10030    2    1    2    0    0  0.00000000000E+00  0.00000000000E+00 -0.86405268076E+03  0.19342129207E+04  0.17304891180E+04 0.  0.
        2    1    3    3  502    0  0.56833228154E+03  0.54272909303E+01 -0.11612234630E+04  0.12928538079E+04  0.25500000920E-02 0. -1.
       -2    1    3    3    0  502 -0.56833228154E+03 -0.54272909303E+01  0.29717078220E+03  0.64135911276E+03  0.25500000920E-02 0.  1.
</event>
<event>
 5   0  0.5021349E-04  0.1698706E+04  0.7818609E-02  0.8762103E-01
        2   -1    0    0  501    0  0.00000000000E+00  0.00000000000E+00  0.54967172832E+03  0.54967172833E+03  0.25500000920E-02 0. -1.
       -2   -1    0    0    0  501  0.00000000000E+00  0.00000000000E+00 -0.13124210948E+04  0.13124210948E+04  0.25500000920E-02 0.  1.
    10030    2    1    2    0    0  0.00000000000E+00  0.00000000000E+00 -0.76274936649E+03  0.18620928231E+04  0.16987062977E+04 0.  0.
        2    1    3    3  502    0  0.59162457087E+03 -0.38645878088E+03 -0.89789759629E+03  0.11426242233E+04  0.25500000920E-02 0.  1.
       -2    1    3    3    0  502 -0.59162457087E+03  0.38645878088E+03  0.13514822980E+03  0.71946859987E+03  0.25500000920E-02 0. -1.
</event>
<event>
 5   0  0.5342255E-04  0.1730564E+04  0.7818609E-02  0.8744122E-01
        2   -1    0    0  501    0  0.00000000000E+00  0.00000000000E+00  0.10776763165E+04  0.10776763165E+04  0.25500000920E-02 0.  1.
       -2   -1    0    0    0  501  0.00000000000E+00  0.00000000000E+00 -0.69474786627E+03  0.69474786627E+03  0.25500000920E-02 0. -1.
    10030    2    1    2    0    0  0.00000000000E+00  0.00000000000E+00  0.38292845025E+03  0.17724241828E+04  0.17305644414E+04 0.  0.
        5    1    3    3  502    0 -0.61763470882E+02 -0.74326504368E+03  0.64074757133E+03  0.98327879651E+03  0.46999998093E+01 0.  1.
       -5    1    3    3    0  502  0.61763470882E+02  0.74326504368E+03 -0.25781912109E+03  0.78914538628E+03  0.46999998093E+01 0. -1.
</event>
<event>
 5   0  0.5310003E-04  0.1673037E+04  0.7818609E-02  0.8776893E-01
        2   -1    0    0  501    0  0.00000000000E+00  0.00000000000E+00  0.84556768214E+03  0.84556768215E+03  0.25500000920E-02 0.  1.
       -2   -1    0    0    0  501  0.00000000000E+00  0.00000000000E+00 -0.82756653188E+03  0.82756653188E+03  0.25500000920E-02 0. -1.
    10030    2    1    2    0    0  0.00000000000E+00  0.00000000000E+00  0.18001150267E+02  0.16731342140E+04  0.16730373746E+04 0.  0.
        1    1    3    3  502    0 -0.77501694833E+01  0.81792976636E+03  0.18420873636E+03  0.83845216107E+03  0.50400001928E-02 0.  1.
       -1    1    3    3    0  502  0.77501694833E+01 -0.81792976636E+03 -0.16620758609E+03  0.83468205296E+03  0.50400001928E-02 0. -1.
</event>
<event>
 5   0  0.5021349E-04  0.2180730E+04  0.7818609E-02  0.8526492E-01
       -2   -1    0    0    0  501  0.00000000000E+00  0.00000000000E+00  0.74551963383E+03  0.74551963383E+03  0.25500000920E-02 0. -1.
        2   -1    0    0  501    0  0.00000000000E+00  0.00000000000E+00 -0.15947210023E+04  0.15947210023E+04  0.25500000920E-02 0.  1.
    10030    2    1    2    0    0  0.00000000000E+00  0.00000000000E+00 -0.84920136842E+03  0.23402406361E+04  0.21807299857E+04 0.  0.
        2    1    3    3  502    0 -0.98679916563E+03  0.32794853901E+03 -0.77657439022E+03  0.12978407534E+04  0.25500000920E-02 0.  1.
       -2    1    3    3    0  502  0.98679916563E+03 -0.32794853901E+03 -0.72626978196E+02  0.10423998827E+04  0.25500000920E-02 0. -1.
</event>
<event>
 5   0  0.5310003E-04  0.1709976E+04  0.7818609E-02  0.8755695E-01
       -2   -1    0    0    0  501  0.00000000000E+00  0.00000000000E+00  0.41983317618E+03  0.41983317619E+03  0.25500000920E-02 0.  1.
        2   -1    0    0  501    0  0.00000000000E+00  0.00000000000E+00 -0.17411787194E+04  0.17411787194E+04  0.25500000920E-02 0. -1.
    10030    2    1    2    0    0  0.00000000000E+00  0.00000000000E+00 -0.13213455432E+04  0.21610118956E+04  0.17099761309E+04 0.  0.
        1    1    3    3  502    0 -0.72951926769E+03  0.43792100412E+03 -0.76664419350E+03  0.11453019197E+04  0.50400001928E-02 0.  1.
       -1    1    3    3    0  502  0.72951926769E+03 -0.43792100412E+03 -0.55470134973E+03  0.10157099759E+04  0.50400001928E-02 0. -1.
</event>
<event>
 5   0  0.2561518E-04  0.1652640E+04  0.7818609E-02  0.8788846E-01
        1   -1    0    0  501    0  0.00000000000E+00  0.00000000000E+00  0.12998750133E+04  0.12998750133E+04  0.50400001928E-02 0. -1.
       -1   -1    0    0    0  501  0.00000000000E+00  0.00000000000E+00 -0.52528505174E+03  0.52528505177E+03  0.50400001928E-02 0.  1.
    10030    2    1    2    0    0  0.00000000000E+00  0.00000000000E+00  0.77458996160E+03  0.18251600651E+04  0.16526402073E+04 0.  0.
        4    1    3    3  502    0  0.54416045355E+03  0.30847526955E+03 -0.20901011725E+03  0.65951075287E+03  0.12699999809E+01 0.  1.
       -4    1    3    3    0  502 -0.54416045355E+03 -0.30847526955E+03  0.98360007884E+03  0.11656493122E+04  0.12699999809E+01 0. -1.
</event>
<event>
 5   0  0.2561518E-04  0.1703643E+04  0.7818609E-02  0.8759289E-01
       -1   -1    0    0    0  501  0.00000000000E+00  0.00000000000E+00  0.76650638456E+03  0.76650638458E+03  0.50400001928E-02 0. -1.
        1   -1    0    0  501    0  0.00000000000E+00  0.00000000000E+00 -0.94663277458E+03  0.94663277460E+03  0.50400001928E-02 0.  1.
    10030    2    1    2    0    0  0.00000000000E+00  0.00000000000E+00 -0.18012639002E+03  0.17131391592E+04  0.17036432321E+04 0.  0.
        4    1    3    3  502    0  0.58830296955E+03 -0.30799573301E+03  0.44642409279E+03  0.80016113318E+03  0.12699999809E+01 0. -1.
       -4    1    3    3    0  502 -0.58830296955E+03  0.30799573301E+03 -0.62655048281E+03  0.91297802599E+03  0.12699999809E+01 0.  1.
</event>
<event>
 5   0  0.2561518E-04  0.1665664E+04  0.7818609E-02  0.8781193E-01
       -1   -1    0    0    0  501  0.00000000000E+00  0.00000000000E+00  0.64851343584E+03  0.64851343586E+03  0.50400001928E-02 0. -1.
        1   -1    0    0  501    0  0.00000000000E+00  0.00000000000E+00 -0.10695373626E+04  0.10695373626E+04  0.50400001928E-02 0.  1.
    10030    2    1    2    0    0  0.00000000000E+00  0.00000000000E+00 -0.42102392672E+03  0.17180507984E+04  0.16656642516E+04 0.  0.
        4    1    3    3  502    0  0.44837980720E+03  0.10863576689E+03 -0.92568873664E+03  0.10342859524E+04  0.12699999809E+01 0.  1.
       -4    1    3    3    0  502 -0.44837980720E+03 -0.10863576689E+03  0.50466480993E+03  0.68376484600E+03  0.12699999809E+01 0. -1.
</event>
<event>
 5   0  0.5198430E-04  0.1705197E+04  0.7818609E-02  0.8758406E-01
       -2   -1    0    0    0  501  0.00000000000E+00  0.00000000000E+00  0.63453838360E+03  0.63453838360E+03  0.25500000920E-02 0.  1.
        2   -1    0    0  501    0  0.00000000000E+00  0.00000000000E+00 -0.11455951592E+04  0.11455951592E+04  0.25500000920E-02 0. -1.
    10030    2    1    2    0    0  0.00000000000E+00  0.00000000000E+00 -0.51105677555E+03  0.17801335428E+04  0.17051968808E+04 0.  0.
        4    1    3    3  502    0  0.42039216757E+03 -0.10573083922E+03 -0.10219681678E+04  0.11101032087E+04  0.12699999809E+01 0. -1.
       -4    1    3    3    0  502 -0.42039216757E+03  0.10573083922E+03  0.51091139229E+03  0.67003033408E+03  0.12699999809E+01 0.  1.
</event>
<event>
 5   0  0.2785059E-04  0.1707415E+04  0.7818609E-02  0.8757146E-01
        1   -1    0    0  501    0  0.00000000000E+00  0.00000000000E+00  0.48623033500E+03  0.48623033503E+03  0.50400001928E-02 0. -1.
       -1   -1    0    0    0  501  0.00000000000E+00  0.00000000000E+00 -0.14989123793E+04  0.14989123794E+04  0.50400001928E-02 0.  1.
    10030    2    1    2    0    0  0.00000000000E+00  0.00000000000E+00 -0.10126820443E+04  0.19851427144E+04  0.17074152024E+04 0.  0.
        5    1    3    3  502    0  0.68696623238E+03 -0.49316864594E+03 -0.64221142048E+03  0.10618830050E+04  0.46999998093E+01 0.  1.
       -5    1    3    3    0  502 -0.68696623238E+03  0.49316864594E+03 -0.37047062386E+03  0.92325970935E+03  0.46999998093E+01 0. -1.
</event>
<event>
 5   0  0.2595644E-04  0.1691749E+04  0.7818609E-02  0.8766084E-01
        1   -1    0    0  501    0  0.00000000000E+00  0.00000000000E+00  0.15806899635E+04  0.15806899635E+04  0.50400001928E-02 0. -1.
       -1   -1    0    0    0  501  0.00000000000E+00  0.00000000000E+00 -0.45265263552E+03  0.45265263555E+03  0.50400001928E-02 0.  1.
    10030    2    1    2    0    0  0.00000000000E+00  0.00000000000E+00  0.11280373280E+04  0.20333425991E+04  0.16917487733E+04 0.  0.
        2    1    3    3  502    0 -0.76496723816E+03  0.23904810976E+03  0.23886806989E+03  0.83628752775E+03  0.25500000920E-02 0.  1.
       -2    1    3    3    0  502  0.76496723816E+03 -0.23904810976E+03  0.88916925812E+03  0.11970550713E+04  0.25500000920E-02 0. -1.
</event>
<event>
 5   0  0.2561518E-04  0.1688275E+04  0.7818609E-02  0.8768080E-01
        1   -1    0    0  501    0  0.00000000000E+00  0.00000000000E+00  0.10294943450E+04  0.10294943450E+04  0.50400001928E-02 0. -1.
       -1   -1    0    0    0  501  0.00000000000E+00  0.00000000000E+00 -0.69215360722E+03  0.69215360724E+03  0.50400001928E-02 0.  1.
    10030    2    1    2    0    0  0.00000000000E+00  0.00000000000E+00  0.33734073782E+03  0.17216479523E+04  0.16882751252E+04 0.  0.
        4    1    3    3  502    0  0.24233055338E+03 -0.72742597449E+03  0.52877097153E+03  0.93138230534E+03  0.12699999809E+01 0. -1.
       -4    1    3    3    0  502 -0.24233055338E+03  0.72742597449E+03 -0.19143023371E+03  0.79026564695E+03  0.12699999809E+01 0.  1.
</event>
<event>
 5   0  0.2561518E-04  0.1701060E+04  0.7818609E-02  0.8760760E-01
        1   -1    0    0  501    0  0.00000000000E+00  0.00000000000E+00  0.13099658642E+04  0.13099658642E+04  0.50400001928E-02 0. -1.
       -1   -1    0    0    0  501  0.00000000000E+00  0.00000000000E+00 -0.55222915813E+03  0.55222915816E+03  0.50400001928E-02 0.  1.
    10030    2    1    2    0    0  0.00000000000E+00  0.00000000000E+00  0.75773670608E+03  0.18621950224E+04  0.17010600770E+04 0.  0.
        4    1    3    3  502    0 -0.18002724339E+03 -0.62891212749E+03  0.97391972391E+03  0.11732269661E+04  0.12699999809E+01 0. -1.
       -4    1    3    3    0  502  0.18002724339E+03  0.62891212749E+03 -0.21618301783E+03  0.68896805628E+03  0.12699999809E+01 0.  1.
</event>
<event>
 5   0  0.5299877E-04  0.1693999E+04  0.7818609E-02  0.8764794E-01
       -2   -1    0    0    0  501  0.00000000000E+00  0.00000000000E+00  0.64619161921E+03  0.64619161922E+03  0.25500000920E-02 0. -1.
        2   -1    0    0  501    0  0.00000000000E+00  0.00000000000E+00 -0.11102098592E+04  0.11102098592E+04  0.25500000920E-02 0.  1.
    10030    2    1    2    0    0  0.00000000000E+00  0.00000000000E+00 -0.46401824003E+03  0.17564014785E+04  0.16939991814E+04 0.  0.
        3    1    3    3  502    0  0.35211116100E+03  0.70666843867E+03  0.85956505713E+02  0.79419839019E+03  0.10100000352E+00 0. -1.
       -3    1    3    3    0  502 -0.35211116100E+03 -0.70666843867E+03 -0.54997474574E+03  0.96220308827E+03  0.10100000352E+00 0.  1.
</event>
<event>
 5   0  0.2595644E-04  0.1708821E+04  0.7818609E-02  0.8756349E-01
        1   -1    0    0  501    0  0.00000000000E+00  0.00000000000E+00  0.13184260874E+04  0.13184260874E+04  0.50400001928E-02 0.  1.
       -1   -1    0    0    0  501  0.00000000000E+00  0.00000000000E+00 -0.55370366951E+03  0.55370366953E+03  0.50400001928E-02 0. -1.
    10030    2    1    2    0    0  0.00000000000E+00  0.00000000000E+00  0.76472241791E+03  0.18721297570E+04  0.17088210703E+04 0.  0.
        2    1    3    3  502    0 -0.60973532329E+03  0.10791048830E+03 -0.26262559789E+03  0.67260244025E+03  0.25500000920E-02 0. -1.
       -2    1    3    3    0  502  0.60973532329E+03 -0.10791048830E+03  0.10273480158E+04  0.11995273167E+04  0.25500000920E-02 0.  1.
</event>
<event>
 5   0  0.5299877E-04  0.1676275E+04  0.7818609E-02  0.8775012E-01
        2   -1    0    0  501    0  0.00000000000E+00  0.00000000000E+00  0.47972596985E+03  0.47972596985E+03  0.25500000920E-02 0.  1.
       -2   -1    0    0    0  501  0.00000000000E+00  0.00000000000E+00 -0.14643252568E+04  0.14643252568E+04  0.25500000920E-02 0. -1.
    10030    2    1    2    0    0  0.00000000000E+00  0.00000000000E+00 -0.98459928699E+03  0.19440512267E+04  0.16762754595E+04 0.  0.
        3    1    3    3  502    0  0.11748539156E+03 -0.39515836495E+03 -0.13386127199E+04  0.14006559088E+04  0.10100000352E+00 0. -1.
       -3    1    3    3    0  502 -0.11748539156E+03  0.39515836495E+03  0.35401343295E+03  0.54339531791E+03  0.10100000352E+00 0.  1.
</event>
<event>
 5   0  0.2785059E-04  0.1696111E+04  0.7818609E-02  0.8763586E-01
        1   -1    0    0  501    0  0.00000000000E+00  0.00000000000E+00  0.56880036322E+03  0.56880036325E+03  0.50400001928E-02 0.  1.
       -1   -1    0    0    0  501  0.00000000000E+00  0.00000000000E+00 -0.12644118023E+04  0.12644118023E+04  0.50400001928E-02 0. -1.
    10030    2    1    2    0    0  0.00000000000E+00  0.00000000000E+00 -0.69561143908E+03  0.18332121656E+04  0.16961107186E+04 0.  0.
        5    1    3    3  502    0  0.22617037055E+03 -0.23055261614E+03  0.49971352492E+03  0.59501532948E+03  0.46999998093E+01 0.  1.
       -5    1    3    3    0  502 -0.22617037055E+03  0.23055261614E+03 -0.11953249640E+04  0.12381968361E+04  0.46999998093E+01 0. -1.
</event>
<event>
 5   0  0.5299877E-04  0.1686181E+04  0.7818609E-02  0.8769285E-01
       -2   -1    0    0    0  501  0.00000000000E+00  0.00000000000E+00  0.66286391691E+03  0.66286391692E+03  0.25500000920E-02 0.  1.
        2   -1    0    0  501    0  0.00000000000E+00  0.00000000000E+00 -0.10723189424E+04  0.10723189424E+04  0.25500000920E-02 0. -1.
    10030    2    1    2    0    0  0.00000000000E+00  0.00000000000E+00 -0.40945502545E+03  0.17351828593E+04  0.16861809325E+04 0.  0.
        3    1    3    3  502    0 -0.63602688134E+03  0.53428898352E+03 -0.56290651072E+02  0.83256444753E+03  0.10100000352E+00 0.  1.
       -3    1    3    3    0  502  0.63602688134E+03 -0.53428898352E+03 -0.35316437438E+03  0.90261841175E+03  0.10100000352E+00 0. -1.
</event>
<event>
 5   0  0.2583422E-04  0.1670044E+04  0.7818609E-02  0.8778636E-01
       -1   -1    0    0    0  501  0.00000000000E+00  0.00000000000E+00  0.31777838769E+03  0.31777838773E+03  0.50400001928E-02 0.  1.
        1   -1    0    0  501    0  0.00000000000E+00  0.00000000000E+00 -0.21941765944E+04  0.21941765944E+04  0.50400001928E-02 0. -1.
    10030    2    1    2    0    0  0.00000000000E+00  0.00000000000E+00 -0.18763982068E+04  0.25119549822E+04  0.16700441917E+04 0.  0.
        3    1    3    3  502    0 -0.52901697230E+02 -0.78542212987E+03 -0.51926487924E+03  0.94303899001E+03  0.10100000352E+00 0. -1.
       -3    1    3    3    0  502  0.52901697230E+02  0.78542212987E+03 -0.13571333275E+04  0.15689159922E+04  0.10100000352E+00 0.  1.
</event>
<event>
 5   0  0.2785059E-04  0.1720965E+04  0.7818609E-02  0.8749497E-01
       -1   -1    0    0    0  501  0.00000000000E+00  0.00000000000E+00  0.50856801807E+03  0.50856801809E+03  0.50400001928E-02 0. -1.
        1   -1    0    0  501    0  0.00000000000E+00  0.00000000000E+00 -0.14559109781E+04  0.14559109781E+04  0.50400001928E-02 0.  1.
    10030    2    1    2    0    0  0.00000000000E+00  0.00000000000E+00 -0.94734296007E+03  0.19644789962E+04  0.17209645675E+04 0.  0.
        5    1    3    3  502    0 -0.99069549381E+01 -0.85949485799E+03 -0.42832491737E+03  0.96037174235E+03  0.46999998093E+01 0. -1.
       -5    1    3    3    0  502  0.99069549381E+01  0.85949485799E+03 -0.51901804270E+03  0.10041072539E+04  0.46999998093E+01 0.  1.
</event>
<event>
 5   0  0.5342255E-04  0.1722011E+04  0.7818609E-02  0.8748910E-01
       -2   -1    0    0    0  501  0.00000000000E+00  0.00000000000E+00  0.46197030749E+03  0.46197030750E+03  0.25500000920E-02 0. -1.
        2   -1    0    0  501    0  0.00000000000E+00  0.00000000000E+00 -0.16047136256E+04  0.16047136256E+04  0.25500000920E-02 0.  1.
    10030    2    1    2    0    0  0.00000000000E+00  0.00000000000E+00 -0.11427433181E+04  0.20666839331E+04  0.17220105076E+04 0.  0.
        5    1    3    3  502    0  0.81430275853E+01  0.18057433999E+03  0.43892619206E+03  0.47471222149E+03  0.46999998093E+01 0. -1.
       -5    1    3    3    0  502 -0.81430275853E+01 -0.18057433999E+03 -0.15816695101E+04  0.15919717116E+04  0.46999998093E+01 0.  1.
</event>
<event>
 5   0  0.2630135E-04  0.1644885E+04  0.7818609E-02  0.8793438E-01
        1   -1    0    0  501    0  0.00000000000E+00  0.00000000000E+00  0.92257643904E+03  0.92257643905E+03  0.50400001928E-02 0. -1.
       -1   -1    0    0    0  501  0.00000000000E+00  0.00000000000E+00 -0.73317715327E+03  0.73317715329E+03  0.50400001928E-02 0.  1.
    10030    2    1    2    0    0  0.00000000000E+00  0.00000000000E+00  0.18939928577E+03  0.16557535923E+04  0.16448853665E+04 0.  0.
        1    1    3    3  502    0  0.67010347948E+02 -0.35774880355E+03 -0.64769446971E+03  0.74295539522E+03  0.50400001928E-02 0.  1.
       -1    1    3    3    0  502 -0.67010347948E+02  0.35774880355E+03  0.83709375548E+03  0.91279819712E+03  0.50400001928E-02 0. -1.
</event>
<event>
 5   0  0.2595644E-04  0.1702708E+04  0.7818609E-02  0.8759822E-01
        1   -1    0    0  501    0  0.00000000000E+00  0.00000000000E+00  0.12550330750E+04  0.12550330751E+04  0.50400001928E-02 0.  1.
       -1   -1    0    0    0  501  0.00000000000E+00  0.00000000000E+00 -0.57751725407E+03  0.57751725409E+03  0.50400001928E-02 0. -1.
    10030    2    1    2    0    0  0.00000000000E+00  0.00000000000E+00  0.67751582098E+03  0.18325503292E+04  0.17027075560E+04 0.  0.
        2    1    3    3  502    0 -0.18660181763E+03 -0.28457421705E+03  0.11786523067E+04  0.12267941895E+04  0.25500000920E-02 0.  1.
       -2    1    3    3    0  502  0.18660181763E+03  0.28457421705E+03 -0.50113648573E+03  0.60575613962E+03  0.25500000920E-02 0. -1.
</event>
<event>
 5   0  0.5021349E-04  0.1726636E+04  0.7818609E-02  0.8746317E-01
       -2   -1    0    0    0  501  0.00000000000E+00  0.00000000000E+00  0.61478748098E+03  0.61478748098E+03  0.25500000920E-02 0.  1.
        2   -1    0    0  501    0  0.00000000000E+00  0.00000000000E+00 -0.12123173630E+04  0.12123173630E+04  0.25500000920E-02 0. -1.
    10030    2    1    2    0    0  0.00000000000E+00  0.00000000000E+00 -0.59752988202E+03  0.18271048440E+04  0.17266355003E+04 0.  0.
        2    1    3    3  502    0  0.53392262165E+03  0.20484324103E+03 -0.98314622997E+03  0.11373700492E+04  0.25500000920E-02 0. -1.
       -2    1    3    3    0  502 -0.53392262165E+03 -0.20484324103E+03  0.38561634795E+03  0.68973479478E+03  0.25500000920E-02 0.  1.
</event>
<event>
 5   0  0.5021349E-04  0.1712726E+04  0.7818609E-02  0.8754140E-01
        2   -1    0    0  501    0  0.00000000000E+00  0.00000000000E+00  0.81942570564E+03  0.81942570564E+03  0.25500000920E-02 0. -1.
       -2   -1    0    0    0  501  0.00000000000E+00  0.00000000000E+00 -0.89496497771E+03  0.89496497771E+03  0.25500000920E-02 0.  1.
    10030    2    1    2    0    0  0.00000000000E+00  0.00000000000E+00 -0.75539272070E+02  0.17143906833E+04  0.17127256738E+04 0.  0.
        2    1    3    3  502    0 -0.44747501062E+03 -0.56085877007E+03 -0.50572905037E+03  0.87781451201E+03  0.25500000920E-02 0.  1.
       -2    1    3    3    0  502  0.44747501062E+03  0.56085877007E+03  0.43018977830E+03  0.83657617134E+03  0.25500000920E-02 0. -1.
</event>
<event>
 5   0  0.5198430E-04  0.1676249E+04  0.7818609E-02  0.8775028E-01
        2   -1    0    0  501    0  0.00000000000E+00  0.00000000000E+00  0.59272870616E+03  0.59272870616E+03  0.25500000920E-02 0.  1.
       -2   -1    0    0    0  501  0.00000000000E+00  0.00000000000E+00 -0.11851163444E+04  0.11851163444E+04  0.25500000920E-02 0. -1.
    10030    2    1    2    0    0  0.00000000000E+00  0.00000000000E+00 -0.59238763826E+03  0.17778450506E+04  0.16762487613E+04 0.  0.
        4    1    3    3  502    0 -0.21904564503E+03 -0.62664621384E+03 -0.83885319682E+03  0.10697395808E+04  0.12699999809E+01 0. -1.
       -4    1    3    3    0  502  0.21904564503E+03  0.62664621384E+03  0.24646555856E+03  0.70810546982E+03  0.12699999809E+01 0.  1.
</event>
<event>
 5   0  0.5310003E-04  0.1682721E+04  0.7818609E-02  0.8771281E-01
        2   -1    0    0  501    0  0.00000000000E+00  0.00000000000E+00  0.13840401040E+04  0.13840401040E+04  0.25500000920E-02 0. -1.
       -2   -1    0    0    0  501  0.00000000000E+00  0.00000000000E+00 -0.51146432345E+03  0.51146432345E+03  0.25500000920E-02 0.  1.
    10030    2    1    2    0    0  0.00000000000E+00  0.00000000000E+00  0.87257578058E+03  0.18955044275E+04  0.16827205774E+04 0.  0.
        1    1    3    3  502    0  0.56542580156E+03 -0.54165660800E+03  0.78309786434E+03  0.11074025841E+04  0.50400001928E-02 0. -1.
       -1    1    3    3    0  502 -0.56542580156E+03  0.54165660800E+03  0.89477916239E+02  0.78810184341E+03  0.50400001928E-02 0.  1.
</event>
<event>
 5   0  0.1910750E-04  0.1657112E+04  0.7818609E-02  0.8786210E-01
        4   -1    0    0  501    0  0.00000000000E+00  0.00000000000E+00  0.37172748775E+03  0.37172965721E+03  0.12699999809E+01 0. -1.
       -4   -1    0    0    0  501  0.00000000000E+00  0.00000000000E+00 -0.18467883921E+04  0.18467888288E+04  0.12699999809E+01 0.  1.
    10030    2    1    2    0    0  0.00000000000E+00  0.00000000000E+00 -0.14750609044E+04  0.22185184860E+04  0.16571118252E+04 0.  0.
        1    1    3    3  502    0 -0.60822947906E+03 -0.41950238799E+03 -0.23556675895E+03  0.77551083208E+03  0.50400001928E-02 0. -1.
       -1    1    3    3    0  502  0.60822947906E+03  0.41950238799E+03 -0.12394941454E+04  0.14430076539E+04  0.50400001928E-02 0.  1.
</event>
<event>
 5   0  0.5021349E-04  0.1765390E+04  0.7818609E-02  0.8724924E-01
       -2   -1    0    0    0  501  0.00000000000E+00  0.00000000000E+00  0.12710833424E+04  0.12710833424E+04  0.25500000920E-02 0.  1.
        2   -1    0    0  501    0  0.00000000000E+00  0.00000000000E+00 -0.61298172056E+03  0.61298172057E+03  0.25500000920E-02 0. -1.
    10030    2    1    2    0    0  0.00000000000E+00  0.00000000000E+00  0.65810162185E+03  0.18840650630E+04  0.17653904432E+04 0.  0.
        2    1    3    3  502    0 -0.18773432408E+03  0.52121928957E+03 -0.40433953790E+03  0.68586017976E+03  0.25500000920E-02 0. -1.
       -2    1    3    3    0  502  0.18773432408E+03 -0.52121928957E+03  0.10624411598E+04  0.11982048832E+04  0.25500000920E-02 0.  1.
</event>
<event>
 5   0  0.5310003E-04  0.1703304E+04  0.7818609E-02  0.8759482E-01
       -2   -1    0    0    0  501  0.00000000000E+00  0.00000000000E+00  0.11394909400E+04  0.11394909400E+04  0.25500000920E-02 0. -1.
        2   -1    0    0  501    0  0.00000000000E+00  0.00000000000E+00 -0.63652200719E+03  0.63652200719E+03  0.25500000920E-02 0.  1.
    10030    2    1    2    0    0  0.00000000000E+00  0.00000000000E+00  0.50296893284E+03  0.17760129472E+04  0.17033039192E+04 0.  0.
        1    1    3    3  502    0 -0.65300630009E+02 -0.45714835218E+02 -0.63262380288E+03  0.63762598319E+03  0.50400001928E-02 0.  1.
       -1    1    3    3    0  502  0.65300630009E+02  0.45714835218E+02  0.11355927357E+04  0.11383869640E+04  0.50400001928E-02 0. -1.
</event>
<event>
 5   0  0.1910750E-04  0.1717041E+04  0.7818609E-02  0.8751705E-01
       -3   -1    0    0    0  501  0.00000000000E+00  0.00000000000E+00  0.86510756635E+03  0.86510757225E+03  0.10100000352E+00 0. -1.
        3   -1    0    0  501    0  0.00000000000E+00  0.00000000000E+00 -0.85198339587E+03  0.85198340186E+03  0.10100000352E+00 0.  1.
    10030    2    1    2    0    0  0.00000000000E+00  0.00000000000E+00  0.13124170477E+02  0.17170909741E+04  0.17170408177E+04 0.  0.
        1    1    3    3  502    0 -0.28629913230E+03  0.16235282127E+03 -0.78638708898E+03  0.85248477140E+03  0.50400001928E-02 0.  1.
       -1    1    3    3    0  502  0.28629913230E+03 -0.16235282127E+03  0.79951125946E+03  0.86460620270E+03  0.50400001928E-02 0. -1.
</event>
<event>
 5   0  0.1910750E-04  0.1675627E+04  0.7818609E-02  0.8775389E-01
       -3   -1    0    0    0  501  0.00000000000E+00  0.00000000000E+00  0.91064834456E+03  0.91064835016E+03  0.10100000352E+00 0. -1.
        3   -1    0    0  501    0  0.00000000000E+00  0.00000000000E+00 -0.77080381913E+03  0.77080382574E+03  0.10100000352E+00 0.  1.
    10030    2    1    2    0    0  0.00000000000E+00  0.00000000000E+00  0.13984452544E+03  0.16814521759E+04  0.16756267271E+04 0.  0.
        4    1    3    3  502    0  0.33468628690E+03 -0.72405920769E+03 -0.18719689522E+03  0.81934177079E+03  0.12699999809E+01 0. -1.
       -4    1    3    3    0  502 -0.33468628690E+03  0.72405920769E+03  0.32704142065E+03  0.86211040511E+03  0.12699999809E+01 0.  1.
</event>
<event>
 5   0  0.2583422E-04  0.1706628E+04  0.7818609E-02  0.8757593E-01
       -1   -1    0    0    0  501  0.00000000000E+00  0.00000000000E+00  0.99771770475E+03  0.99771770476E+03  0.50400001928E-02 0. -1.
        1   -1    0    0  501    0  0.00000000000E+00  0.00000000000E+00 -0.72981020491E+03  0.72981020493E+03  0.50400001928E-02 0.  1.
    10030    2    1    2    0    0  0.00000000000E+00  0.00000000000E+00  0.26790749984E+03  0.17275279097E+04  0.17066277422E+04 0.  0.
        3    1    3    3  502    0 -0.53310786560E+02  0.61187372181E+02 -0.72589503220E+03  0.73041737552E+03  0.10100000352E+00 0.  1.
       -3    1    3    3    0  502  0.53310786560E+02 -0.61187372181E+02  0.99380253204E+03  0.99711053418E+03  0.10100000352E+00 0. -1.
</event>
<event>
 5   0  0.5342255E-04  0.1677082E+04  0.7818609E-02  0.8774544E-01
       -2   -1    0    0    0  501  0.00000000000E+00  0.00000000000E+00  0.57640890346E+03  0.57640890347E+03  0.25500000920E-02 0. -1.
        2   -1    0    0  501    0  0.00000000000E+00  0.00000000000E+00 -0.12198820967E+04  0.12198820967E+04  0.25500000920E-02 0.  1.
    10030    2    1    2    0    0  0.00000000000E+00  0.00000000000E+00 -0.64347319323E+03  0.17962910002E+04  0.16770818724E+04 0.  0.
        5    1    3    3  502    0  0.42549663616E+03 -0.21299890017E+03 -0.10612582217E+04  0.11630593373E+04  0.46999998093E+01 0.  1.
       -5    1    3    3    0  502 -0.42549663616E+03  0.21299890017E+03  0.41778502848E+03  0.63323166289E+03  0.46999998093E+01 0. -1.
</event>
<event>
 5   0  0.2561518E-04  0.1706473E+04  0.7818609E-02  0.8757681E-01
       -1   -1    0    0    0  501  0.00000000000E+00  0.00000000000E+00  0.47796053000E+03  0.47796053003E+03  0.50400001928E-02 0.  1.
        1   -1    0    0  501    0  0.00000000000E+00  0.00000000000E+00 -0.15231637738E+04  0.15231637738E+04  0.50400001928E-02 0. -1.
    10030    2    1    2    0    0  0.00000000000E+00  0.00000000000E+00 -0.10452032438E+04  0.20011243038E+04  0.17064725777E+04 0.  0.
        4    1    3    3  502    0  0.76778449680E+03  0.15840951109E+03 -0.12766525470E+03  0.79428372568E+03  0.12699999809E+01 0.  1.
       -4    1    3    3    0  502 -0.76778449680E+03 -0.15840951109E+03 -0.91753798907E+03  0.12068405781E+04  0.12699999809E+01 0. -1.
</event>
<event>
 5   0  0.5310003E-04  0.1688608E+04  0.7818609E-02  0.8767888E-01
       -2   -1    0    0    0  501  0.00000000000E+00  0.00000000000E+00  0.55471621281E+03  0.55471621281E+03  0.25500000920E-02 0. -1.
        2   -1    0    0  501    0  0.00000000000E+00  0.00000000000E+00 -0.12850708258E+04  0.12850708258E+04  0.25500000920E-02 0.  1.
    10030    2    1    2    0    0  0.00000000000E+00  0.00000000000E+00 -0.73035461304E+03  0.18397870387E+04  0.16886084469E+04 0.  0.
        1    1    3    3  502    0  0.58706673085E+03 -0.35423071407E+03 -0.90195437304E+03  0.11329820989E+04  0.50400001928E-02 0.  1.
       -1    1    3    3    0  502 -0.58706673085E+03  0.35423071407E+03  0.17159976001E+03  0.70680493980E+03  0.50400001928E-02 0. -1.
</event>
<event>
 5   0  0.1910750E-04  0.1704019E+04  0.7818609E-02  0.8759076E-01
       -3   -1    0    0    0  501  0.00000000000E+00  0.00000000000E+00  0.27784790897E+03  0.27784792732E+03  0.10100000352E+00 0. -1.
        3   -1    0    0  501    0  0.00000000000E+00  0.00000000000E+00 -0.26126518388E+04  0.26126518407E+04  0.10100000352E+00 0.  1.
    10030    2    1    2    0    0  0.00000000000E+00  0.00000000000E+00 -0.23348039298E+04  0.28904997680E+04  0.17040186379E+04 0.  0.
        5    1    3    3  502    0 -0.11786309255E+03  0.10364099409E+03  0.25309256017E+03  0.29784408380E+03  0.46999998093E+01 0. -1.
       -5    1    3    3    0  502  0.11786309255E+03 -0.10364099409E+03 -0.25878964900E+04  0.25926556842E+04  0.46999998093E+01 0.  1.
</event>
<event>
 5   0  0.5021349E-04  0.1699471E+04  0.7818609E-02  0.8761666E-01
       -2   -1    0    0    0  501  0.00000000000E+00  0.00000000000E+00  0.43740467716E+03  0.43740467717E+03  0.25500000920E-02 0. -1.
        2   -1    0    0  501    0  0.00000000000E+00  0.00000000000E+00 -0.16507597795E+04  0.16507597795E+04  0.25500000920E-02 0.  1.
    10030    2    1    2    0    0  0.00000000000E+00  0.00000000000E+00 -0.12133551023E+04  0.20881644567E+04  0.16994705628E+04 0.  0.
        2    1    3    3  502    0 -0.45349999508E+03 -0.11872360854E+03  0.26414447009E+03  0.53807977275E+03  0.25500000920E-02 0. -1.
       -2    1    3    3    0  502  0.45349999508E+03  0.11872360854E+03 -0.14774995724E+04  0.15500846839E+04  0.25500000920E-02 0.  1.
</event>
<event>
 5   0  0.2785059E-04  0.1696968E+04  0.7818609E-02  0.8763095E-01
        1   -1    0    0  501    0  0.00000000000E+00  0.00000000000E+00  0.97473116415E+03  0.97473116417E+03  0.50400001928E-02 0.  1.
       -1   -1    0    0    0  501  0.00000000000E+00  0.00000000000E+00 -0.73858854839E+03  0.73858854841E+03  0.50400001928E-02 0. -1.
    10030    2    1    2    0    0  0.00000000000E+00  0.00000000000E+00  0.23614261576E+03  0.17133197126E+04  0.16969682090E+04 0.  0.
        5    1    3    3  502    0  0.25999688617E+02  0.61301846058E+02 -0.73593327770E+03  0.73895451779E+03  0.46999998093E+01 0. -1.
       -5    1    3    3    0  502 -0.25999688617E+02 -0.61301846058E+02  0.97207589347E+03  0.97436519478E+03  0.46999998093E+01 0.  1.
</event>
<event>
 5   0  0.5021349E-04  0.1718534E+04  0.7818609E-02  0.8750864E-01
       -2   -1    0    0    0  501  0.00000000000E+00  0.00000000000E+00  0.77547814591E+03  0.77547814591E+03  0.25500000920E-02 0.  1.
        2   -1    0    0  501    0  0.00000000000E+00  0.00000000000E+00 -0.95210860737E+03  0.95210860737E+03  0.25500000920E-02 0. -1.
    10030    2    1    2    0    0  0.00000000000E+00  0.00000000000E+00 -0.17663046146E+03  0.17275867533E+04  0.17185335813E+04 0.  0.
        2    1    3    3  502    0  0.33576561729E+03 -0.26395930878E+03 -0.83784773713E+03  0.94042644426E+03  0.25500000920E-02 0. -1.
       -2    1    3    3    0  502 -0.33576561729E+03  0.26395930878E+03  0.66121727567E+03  0.78716030902E+03  0.25500000920E-02 0.  1.
</event>
<event>
 5   0  0.5342255E-04  0.1675825E+04  0.7818609E-02  0.8775273E-01
       -2   -1    0    0    0  501  0.00000000000E+00  0.00000000000E+00  0.12280637830E+04  0.12280637830E+04  0.25500000920E-02 0. -1.
        2   -1    0    0  501    0  0.00000000000E+00  0.00000000000E+00 -0.57171113775E+03  0.57171113776E+03  0.25500000920E-02 0.  1.
    10030    2    1    2    0    0  0.00000000000E+00  0.00000000000E+00  0.65635264527E+03  0.17997749208E+04  0.16758254594E+04 0.  0.
        5    1    3    3  502    0 -0.23166929687E+03 -0.62733916947E+03  0.87034222972E+03  0.10976077548E+04  0.46999998093E+01 0. -1.
       -5    1    3    3    0  502  0.23166929687E+03  0.62733916947E+03 -0.21398958445E+03  0.70216716593E+03  0.46999998093E+01 0.  1.
</event>
<event>
 5   0  0.2561518E-04  0.1575763E+04  0.7818609E-02  0.8835578E-01
        1   -1    0    0  501    0  0.00000000000E+00  0.00000000000E+00  0.12354924020E+04  0.12354924020E+04  0.50400001928E-02 0. -1.
       -1   -1    0    0    0  501  0.00000000000E+00  0.00000000000E+00 -0.50243704596E+03  0.50243704599E+03  0.50400001928E-02 0.  1.
    10030    2    1    2    0    0  0.00000000000E+00  0.00000000000E+00  0.73305535602E+03  0.17379294480E+04  0.15757628664E+04 0.  0.
        4    1    3    3  502    0  0.72034946290E+03 -0.14608186886E+02  0.71814561999E+03  0.10172765073E+04  0.12699999809E+01 0. -1.
       -4    1    3    3    0  502 -0.72034946290E+03  0.14608186886E+02  0.14909736024E+02  0.72065294071E+03  0.12699999809E+01 0.  1.
</event>
<event>
 5   0  0.5310003E-04  0.1722782E+04  0.7818609E-02  0.8748476E-01
        2   -1    0    0  501    0  0.00000000000E+00  0.00000000000E+00  0.11150593991E+04  0.11150593991E+04  0.25500000920E-02 0. -1.
       -2   -1    0    0    0  501  0.00000000000E+00  0.00000000000E+00 -0.66543065294E+03  0.66543065294E+03  0.25500000920E-02 0.  1.
    10030    2    1    2    0    0  0.00000000000E+00  0.00000000000E+00  0.44962874612E+03  0.17804900520E+04  0.17227822892E+04 0.  0.
        1    1    3    3  502    0 -0.60924699152E+03  0.38581145073E+02 -0.40326292532E+03  0.73163610380E+03  0.50400001928E-02 0.  1.
       -1    1    3    3    0  502  0.60924699152E+03 -0.38581145073E+02  0.85289167143E+03  0.10488539482E+04  0.50400001928E-02 0. -1.
</event>
<event>
 5   0  0.2785059E-04  0.1659149E+04  0.7818609E-02  0.8785013E-01
        1   -1    0    0  501    0  0.00000000000E+00  0.00000000000E+00  0.81512542384E+03  0.81512542386E+03  0.50400001928E-02 0.  1.
       -1   -1    0    0    0  501  0.00000000000E+00  0.00000000000E+00 -0.84427920650E+03  0.84427920652E+03  0.50400001928E-02 0. -1.
    10030    2    1    2    0    0  0.00000000000E+00  0.00000000000E+00 -0.29153782661E+02  0.16594046304E+04  0.16591485118E+04 0.  0.
        5    1    3    3  502    0 -0.11444872341E+03 -0.89206347671E+02 -0.83147410086E+03  0.84405423591E+03  0.46999998093E+01 0. -1.
       -5    1    3    3    0  502  0.11444872341E+03  0.89206347671E+02  0.80232031820E+03  0.81535039446E+03  0.46999998093E+01 0.  1.
</event>
<event>
 5   0  0.2583422E-04  0.1579327E+04  0.7818609E-02  0.8833350E-01
       -1   -1    0    0    0  501  0.00000000000E+00  0.00000000000E+00  0.89726938991E+03  0.89726938992E+03  0.50400001928E-02 0.  1.
        1   -1    0    0  501    0  0.00000000000E+00  0.00000000000E+00 -0.69496251674E+03  0.69496251676E+03  0.50400001928E-02 0. -1.
    10030    2    1    2    0    0  0.00000000000E+00  0.00000000000E+00  0.20230687317E+03  0.15922319067E+04  0.15793271902E+04 0.  0.
        3    1    3    3  502    0 -0.11802997088E+03 -0.20017441568E+03 -0.65971030951E+03  0.69944161543E+03  0.10100000352E+00 0. -1.
       -3    1    3    3    0  502  0.11802997088E+03  0.20017441568E+03  0.86201718268E+03  0.89279029125E+03  0.10100000352E+00 0.  1.
</event>
<event>
 5   0  0.2583422E-04  0.1806890E+04  0.7818609E-02  0.8702644E-01
       -1   -1    0    0    0  501  0.00000000000E+00  0.00000000000E+00  0.10574398772E+04  0.10574398773E+04  0.50400001928E-02 0.  1.
        1   -1    0    0  501    0  0.00000000000E+00  0.00000000000E+00 -0.77187639972E+03  0.77187639974E+03  0.50400001928E-02 0. -1.
    10030    2    1    2    0    0  0.00000000000E+00  0.00000000000E+00  0.28556347752E+03  0.18293162770E+04  0.18068900192E+04 0.  0.
        3    1    3    3  502    0  0.87046302426E+03 -0.76260013247E+02 -0.89613371274E+02  0.87838034629E+03  0.10100000352E+00 0.  1.
       -3    1    3    3    0  502 -0.87046302426E+03  0.76260013247E+02  0.37517684879E+03  0.95093593070E+03  0.10100000352E+00 0. -1.
</event>
<event>
 5   0  0.2561518E-04  0.1685399E+04  0.7818609E-02  0.8769736E-01
        1   -1    0    0  501    0  0.00000000000E+00  0.00000000000E+00  0.21615282448E+04  0.21615282448E+04  0.50400001928E-02 0.  1.
       -1   -1    0    0    0  501  0.00000000000E+00  0.00000000000E+00 -0.32853709377E+03  0.32853709380E+03  0.50400001928E-02 0. -1.
    10030    2    1    2    0    0  0.00000000000E+00  0.00000000000E+00  0.18329911511E+04  0.24900653386E+04  0.16853987157E+04 0.  0.
        4    1    3    3  502    0  0.81228280199E+03  0.19934105153E+03  0.10686095092E+04  0.13570070381E+04  0.12699999809E+01 0.  1.
       -4    1    3    3    0  502 -0.81228280199E+03 -0.19934105153E+03  0.76438164184E+03  0.11330583006E+04  0.12699999809E+01 0. -1.
</event>
<event>
 5   0  0.5299877E-04  0.1707758E+04  0.7818609E-02  0.8756952E-01
        2   -1    0    0  501    0  0.00000000000E+00  0.00000000000E+00  0.11882446954E+04  0.11882446954E+04  0.25500000920E-02 0.  1.
       -2   -1    0    0    0  501  0.00000000000E+00  0.00000000000E+00 -0.61360211791E+03  0.61360211791E+03  0.25500000920E-02 0. -1.
    10030    2    1    2    0    0  0.00000000000E+00  0.00000000000E+00  0.57464257753E+03  0.18018468134E+04  0.17077581348E+04 0.  0.
        3    1    3    3  502    0 -0.10144827003E+03 -0.19670241357E+03  0.11574553062E+04  0.11784253846E+04  0.10100000352E+00 0.  1.
       -3    1    3    3    0  502  0.10144827003E+03  0.19670241357E+03 -0.58281272865E+03  0.62342142878E+03  0.10100000352E+00 0. -1.
</event>
<event>
 5   0  0.1910750E-04  0.1702402E+04  0.7818609E-02  0.8759996E-01
        3   -1    0    0  501    0  0.00000000000E+00  0.00000000000E+00  0.15576148395E+04  0.15576148428E+04  0.10100000352E+00 0. -1.
       -3   -1    0    0    0  501  0.00000000000E+00  0.00000000000E+00 -0.46516177840E+03  0.46516178936E+03  0.10100000352E+00 0.  1.
    10030    2    1    2    0    0  0.00000000000E+00  0.00000000000E+00  0.10924530611E+04  0.20227766322E+04  0.17024017190E+04 0.  0.
        2    1    3    3  502    0  0.80815877370E+03 -0.22639261796E+03  0.71496909329E+03  0.11025221201E+04  0.25500000920E-02 0.  1.
       -2    1    3    3    0  502 -0.80815877370E+03  0.22639261796E+03  0.37748396783E+03  0.92025451205E+03  0.25500000920E-02 0. -1.
</event>
<event>
 5   0  0.5299877E-04  0.1707550E+04  0.7818609E-02  0.8757070E-01
       -2   -1    0    0    0  501  0.00000000000E+00  0.00000000000E+00  0.57974043987E+03  0.57974043987E+03  0.25500000920E-02 0.  1.
        2   -1    0    0  501    0  0.00000000000E+00  0.00000000000E+00 -0.12573417416E+04  0.12573417416E+04  0.25500000920E-02 0. -1.
    10030    2    1    2    0    0  0.00000000000E+00  0.00000000000E+00 -0.67760130169E+03  0.18370821814E+04  0.17075501215E+04 0.  0.
        3    1    3    3  502    0 -0.43018605724E+03  0.30933834985E+03 -0.10590487634E+04  0.11842020739E+04  0.10100000352E+00 0. -1.
       -3    1    3    3    0  502  0.43018605724E+03 -0.30933834985E+03  0.38144746169E+03  0.65288010749E+03  0.10100000352E+00 0.  1.
</event>
<event>
 5   0  0.5342255E-04  0.1657551E+04  0.7818609E-02  0.8785952E-01
       -2   -1    0    0    0  501  0.00000000000E+00  0.00000000000E+00  0.93171817708E+03  0.93171817709E+03  0.25500000920E-02 0. -1.
        2   -1    0    0  501    0  0.00000000000E+00  0.00000000000E+00 -0.73720633758E+03  0.73720633758E+03  0.25500000920E-02 0.  1.
    10030    2    1    2    0    0  0.00000000000E+00  0.00000000000E+00  0.19451183951E+03  0.16689245147E+04  0.16575506568E+04 0.  0.
        5    1    3    3  502    0  0.31114968290E+03  0.76477759961E+03  0.16949468192E+03  0.84288162824E+03  0.46999998093E+01 0.  1.
       -5    1    3    3    0  502 -0.31114968290E+03 -0.76477759961E+03  0.25017157587E+02  0.82604288642E+03  0.46999998093E+01 0. -1.
</event>
<event>
 5   0  0.2595644E-04  0.1730853E+04  0.7818609E-02  0.8743961E-01
       -1   -1    0    0    0  501  0.00000000000E+00  0.00000000000E+00  0.13460392057E+04  0.13460392057E+04  0.50400001928E-02 0. -1.
        1   -1    0    0  501    0  0.00000000000E+00  0.00000000000E+00 -0.55642000217E+03  0.55642000219E+03  0.50400001928E-02 0.  1.
    10030    2    1    2    0    0  0.00000000000E+00  0.00000000000E+00  0.78961920349E+03  0.19024592079E+04  0.17308531281E+04 0.  0.
        2    1    3    3  502    0 -0.29514885529E+03  0.35007338535E+03 -0.41236950099E+03  0.61620842842E+03  0.25500000920E-02 0.  1.
       -2    1    3    3    0  502  0.29514885529E+03 -0.35007338535E+03  0.12019887045E+04  0.12862507794E+04  0.25500000920E-02 0. -1.
</event>
<event>
 5   0  0.2561518E-04  0.1705646E+04  0.7818609E-02  0.8758151E-01
       -1   -1    0    0    0  501  0.00000000000E+00  0.00000000000E+00  0.38112691425E+03  0.38112691428E+03  0.50400001928E-02 0.  1.
        1   -1    0    0  501    0  0.00000000000E+00  0.00000000000E+00 -0.19083076958E+04  0.19083076958E+04  0.50400001928E-02 0. -1.
    10030    2    1    2    0    0  0.00000000000E+00  0.00000000000E+00 -0.15271807815E+04  0.22894346101E+04  0.17056464154E+04 0.  0.
        4    1    3    3  502    0  0.14402051721E+03  0.17493686615E+03 -0.18671608231E+04  0.18808604331E+04  0.12699999809E+01 0. -1.
       -4    1    3    3    0  502 -0.14402051721E+03 -0.17493686615E+03  0.33998004158E+03  0.40857417697E+03  0.12699999809E+01 0.  1.
</event>
<event>
 5   0  0.5021349E-04  0.1574511E+04  0.7818609E-02  0.8836362E-01
        2   -1    0    0  501    0  0.00000000000E+00  0.00000000000E+00  0.50628995010E+03  0.50628995010E+03  0.25500000920E-02 0. -1.
       -2   -1    0    0    0  501  0.00000000000E+00  0.00000000000E+00 -0.12241422184E+04  0.12241422184E+04  0.25500000920E-02 0.  1.
    10030    2    1    2    0    0  0.00000000000E+00  0.00000000000E+00 -0.71785226826E+03  0.17304321685E+04  0.15745105940E+04 0.  0.
        2    1    3    3  502    0 -0.47876261107E+03 -0.49170109292E+03 -0.78285396060E+03  0.10410782517E+04  0.25500000920E-02 0.  1.
       -2    1    3    3    0  502  0.47876261107E+03  0.49170109292E+03  0.65001692345E+02  0.68935391676E+03  0.25500000920E-02 0. -1.
</event>
<event>
 5   0  0.5299877E-04  0.1707634E+04  0.7818609E-02  0.8757022E-01
        2   -1    0    0  501    0  0.00000000000E+00  0.00000000000E+00  0.10910417705E+04  0.10910417705E+04  0.25500000920E-02 0. -1.
       -2   -1    0    0    0  501  0.00000000000E+00  0.00000000000E+00 -0.66817220684E+03  0.66817220685E+03  0.25500000920E-02 0.  1.
    10030    2    1    2    0    0  0.00000000000E+00  0.00000000000E+00  0.42286956367E+03  0.17592139774E+04  0.17076343725E+04 0.  0.
        3    1    3    3  502    0 -0.81120264872E+03  0.24035123748E+03  0.32973053696E+03  0.90804223021E+03  0.10100000352E+00 0. -1.
       -3    1    3    3    0  502  0.81120264872E+03 -0.24035123748E+03  0.93139026708E+02  0.85117174715E+03  0.10100000352E+00 0.  1.
</event>
<event>
 5   0  0.2630135E-04  0.1712107E+04  0.7818609E-02  0.8754489E-01
       -1   -1    0    0    0  501  0.00000000000E+00  0.00000000000E+00  0.76867311249E+03  0.76867311250E+03  0.50400001928E-02 0.  1.
        1   -1    0    0  501    0  0.00000000000E+00  0.00000000000E+00 -0.95336705800E+03  0.95336705802E+03  0.50400001928E-02 0. -1.
    10030    2    1    2    0    0  0.00000000000E+00  0.00000000000E+00 -0.18469394551E+03  0.17220401705E+04  0.17121070339E+04 0.  0.
        1    1    3    3  502    0 -0.86339348849E+01 -0.50136052442E+03  0.60550163468E+03  0.78617374028E+03  0.50400001928E-02 0.  1.
       -1    1    3    3    0  502  0.86339348849E+01  0.50136052442E+03 -0.79019558019E+03  0.93586643024E+03  0.50400001928E-02 0. -1.
</event>
<event>
 5   0  0.5342255E-04  0.1669937E+04  0.7818609E-02  0.8778698E-01
       -2   -1    0    0    0  501  0.00000000000E+00  0.00000000000E+00  0.70914430570E+03  0.70914430570E+03  0.25500000920E-02 0. -1.
        2   -1    0    0  501    0  0.00000000000E+00  0.00000000000E+00 -0.98311823762E+03  0.98311823762E+03  0.25500000920E-02 0.  1.
    10030    2    1    2    0    0  0.00000000000E+00  0.00000000000E+00 -0.27397393192E+03  0.16922625433E+04  0.16699373641E+04 0.  0.
        5    1    3    3  502    0  0.74097254638E+03  0.16066681325E+03  0.21739737357E+03  0.78875715363E+03  0.46999998093E+01 0. -1.
       -5    1    3    3    0  502 -0.74097254638E+03 -0.16066681325E+03 -0.49137130549E+03  0.90350538970E+03  0.46999998093E+01 0.  1.
</event>
<event>
 5   0  0.2561518E-04  0.1724190E+04  0.7818609E-02  0.8747687E-01
        1   -1    0    0  501    0  0.00000000000E+00  0.00000000000E+00  0.55668658008E+03  0.55668658010E+03  0.50400001928E-02 0. -1.
       -1   -1    0    0    0  501  0.00000000000E+00  0.00000000000E+00 -0.13350563453E+04  0.13350563453E+04  0.50400001928E-02 0.  1.
    10030    2    1    2    0    0  0.00000000000E+00  0.00000000000E+00 -0.77836976522E+03  0.18917429254E+04  0.17241901880E+04 0.  0.
        4    1    3    3  502    0 -0.71140114183E+03  0.48672308397E+03 -0.37308239821E+03  0.93924599217E+03  0.12699999809E+01 0. -1.
       -4    1    3    3    0  502  0.71140114183E+03 -0.48672308397E+03 -0.40528736701E+03  0.95249693323E+03  0.12699999809E+01 0.  1.
</event>
<event>
 5   0  0.2785059E-04  0.1699673E+04  0.7818609E-02  0.8761551E-01
        1   -1    0    0  501    0  0.00000000000E+00  0.00000000000E+00  0.15575582837E+04  0.15575582837E+04  0.50400001928E-02 0. -1.
       -1   -1    0    0    0  501  0.00000000000E+00  0.00000000000E+00 -0.46368842440E+03  0.46368842442E+03  0.50400001928E-02 0.  1.
    10030    2    1    2    0    0  0.00000000000E+00  0.00000000000E+00  0.10938698593E+04  0.20212467082E+04  0.16996726114E+04 0.  0.
        5    1    3    3  502    0 -0.33954443307E+01 -0.78373131349E+03  0.93766076010E+03  0.12220785948E+04  0.46999998093E+01 0. -1.
       -5    1    3    3    0  502  0.33954443307E+01  0.78373131349E+03  0.15620909924E+03  0.79916811339E+03  0.46999998093E+01 0.  1.
</event>
<event>
 5   0  0.5021349E-04  0.1724238E+04  0.7818609E-02  0.8747660E-01
       -2   -1    0    0    0  501  0.00000000000E+00  0.00000000000E+00  0.49414910302E+03  0.49414910303E+03  0.25500000920E-02 0. -1.
        2   -1    0    0  501    0  0.00000000000E+00  0.00000000000E+00 -0.15040983393E+04  0.15040983393E+04  0.25500000920E-02 0.  1.
    10030    2    1    2    0    0  0.00000000000E+00  0.00000000000E+00 -0.10099492363E+04  0.19982474424E+04  0.17242376231E+04 0.  0.
        2    1    3    3  502    0 -0.50433063101E+03  0.54486831594E+02 -0.13128405477E+04  0.14074333035E+04  0.25500000920E-02 0.  1.
       -2    1    3    3    0  502  0.50433063101E+03 -0.54486831594E+02  0.30289131135E+03  0.59081413887E+03  0.25500000920E-02 0. -1.
</event>
<event>
 5   0  0.2630135E-04  0.1695149E+04  0.7818609E-02  0.8764136E-01
        1   -1    0    0  501    0  0.00000000000E+00  0.00000000000E+00  0.14171581177E+04  0.14171581177E+04  0.50400001928E-02 0.  1.
       -1   -1    0    0    0  501  0.00000000000E+00  0.00000000000E+00 -0.50691772314E+03  0.50691772317E+03  0.50400001928E-02 0. -1.
    10030    2    1    2    0    0  0.00000000000E+00  0.00000000000E+00  0.91024039458E+03  0.19240758409E+04  0.16951490393E+04 0.  0.
        1    1    3    3  502    0  0.17331415147E+02 -0.41798127726E+02  0.14157861878E+04  0.14165090861E+04  0.50400001928E-02 0.  1.
       -1    1    3    3    0  502 -0.17331415147E+02  0.41798127726E+02 -0.50554579325E+03  0.50756675476E+03  0.50400001928E-02 0. -1.
</event>
<event>
 5   0  0.2595644E-04  0.1699592E+04  0.7818609E-02  0.8761597E-01
       -1   -1    0    0    0  501  0.00000000000E+00  0.00000000000E+00  0.62568857378E+03  0.62568857380E+03  0.50400001928E-02 0. -1.
        1   -1    0    0  501    0  0.00000000000E+00  0.00000000000E+00 -0.11541742126E+04  0.11541742126E+04  0.50400001928E-02 0.  1.
    10030    2    1    2    0    0  0.00000000000E+00  0.00000000000E+00 -0.52848563879E+03  0.17798627864E+04  0.16995924417E+04 0.  0.
        2    1    3    3  502    0  0.78632746831E+03 -0.29341141681E+03 -0.40377395407E+03  0.93136166602E+03  0.25500000920E-02 0.  1.
       -2    1    3    3    0  502 -0.78632746831E+03  0.29341141681E+03 -0.12471168472E+03  0.84850112036E+03  0.25500000920E-02 0. -1.
</event>
<event>
 5   0  0.5342255E-04  0.1700954E+04  0.7818609E-02  0.8760820E-01
       -2   -1    0    0    0  501  0.00000000000E+00  0.00000000000E+00  0.51287630657E+03  0.51287630658E+03  0.25500000920E-02 0. -1.
        2   -1    0    0  501    0  0.00000000000E+00  0.00000000000E+00 -0.14103039362E+04  0.14103039362E+04  0.25500000920E-02 0.  1.
    10030    2    1    2    0    0  0.00000000000E+00  0.00000000000E+00 -0.89742762967E+03  0.19231802428E+04  0.17009544074E+04 0.  0.
        5    1    3    3  502    0  0.17970419857E+03  0.83052745676E+03 -0.48820448601E+03  0.98001794146E+03  0.46999998093E+01 0.  1.
       -5    1    3    3    0  502 -0.17970419857E+03 -0.83052745676E+03 -0.40922314366E+03  0.94316230137E+03  0.46999998093E+01 0. -1.
</event>
<event>
 5   0  0.5198430E-04  0.1676533E+04  0.7818609E-02  0.8774863E-01
       -2   -1    0    0    0  501  0.00000000000E+00  0.00000000000E+00  0.39897344715E+03  0.39897344716E+03  0.25500000920E-02 0. -1.
        2   -1    0    0  501    0  0.00000000000E+00  0.00000000000E+00 -0.17612468251E+04  0.17612468251E+04  0.25500000920E-02 0.  1.
    10030    2    1    2    0    0  0.00000000000E+00  0.00000000000E+00 -0.13622733779E+04  0.21602202722E+04  0.16765329905E+04 0.  0.
        4    1    3    3  502    0 -0.53552799433E+03 -0.63625505778E+03 -0.54551663163E+03  0.99458571252E+03  0.12699999809E+01 0. -1.
       -4    1    3    3    0  502  0.53552799433E+03  0.63625505778E+03 -0.81675674628E+03  0.11656345597E+04  0.12699999809E+01 0.  1.
</event>
<event>
 5   0  0.2595644E-04  0.1755588E+04  0.7818609E-02  0.8730280E-01
       -1   -1    0    0    0  501  0.00000000000E+00  0.00000000000E+00  0.12167502909E+04  0.12167502909E+04  0.50400001928E-02 0. -1.
        1   -1    0    0  501    0  0.00000000000E+00  0.00000000000E+00 -0.63326238821E+03  0.63326238823E+03  0.50400001928E-02 0.  1.
    10030    2    1    2    0    0  0.00000000000E+00  0.00000000000E+00  0.58348790271E+03  0.18500126792E+04  0.17555878732E+04 0.  0.
        2    1    3    3  502    0  0.42123299132E+03  0.51606802977E+03  0.89411729640E+03  0.11149929076E+04  0.25500000920E-02 0. -1.
       -2    1    3    3    0  502 -0.42123299132E+03 -0.51606802977E+03 -0.31062939369E+03  0.73501977154E+03  0.25500000920E-02 0.  1.
</event>
<event>
 5   0  0.2583422E-04  0.1810023E+04  0.7818609E-02  0.8700987E-01
        1   -1    0    0  501    0  0.00000000000E+00  0.00000000000E+00  0.15893055421E+04  0.15893055421E+04  0.50400001928E-02 0. -1.
       -1   -1    0    0    0  501  0.00000000000E+00  0.00000000000E+00 -0.51534830381E+03  0.51534830383E+03  0.50400001928E-02 0.  1.
    10030    2    1    2    0    0  0.00000000000E+00  0.00000000000E+00  0.10739572383E+04  0.21046538459E+04  0.18100231108E+04 0.  0.
        3    1    3    3  502    0  0.76093838592E+03  0.34707527344E+03  0.13492419318E+03  0.84716764616E+03  0.10100000352E+00 0.  1.
       -3    1    3    3    0  502 -0.76093838592E+03 -0.34707527344E+03  0.93903304509E+03  0.12574861998E+04  0.10100000352E+00 0. -1.
</event>
<event>
 5   0  0.2595644E-04  0.1708129E+04  0.7818609E-02  0.8756742E-01
       -1   -1    0    0    0  501  0.00000000000E+00  0.00000000000E+00  0.59747281476E+03  0.59747281479E+03  0.50400001928E-02 0. -1.
        1   -1    0    0  501    0  0.00000000000E+00  0.00000000000E+00 -0.12208517921E+04  0.12208517921E+04  0.50400001928E-02 0.  1.
    10030    2    1    2    0    0  0.00000000000E+00  0.00000000000E+00 -0.62337897734E+03  0.18183246069E+04  0.17081285159E+04 0.  0.
        2    1    3    3  502    0  0.38215763683E+03 -0.96976919114E+02  0.49479873958E+03  0.63267272340E+03  0.25500000920E-02 0. -1.
       -2    1    3    3    0  502 -0.38215763683E+03  0.96976919114E+02 -0.11181777169E+04  0.11856518835E+04  0.25500000920E-02 0.  1.
</event>
<event>
 5   0  0.5299877E-04  0.1670946E+04  0.7818609E-02  0.8778110E-01
       -2   -1    0    0    0  501  0.00000000000E+00  0.00000000000E+00  0.30496174495E+03  0.30496174496E+03  0.25500000920E-02 0.  1.
        2   -1    0    0  501    0  0.00000000000E+00  0.00000000000E+00 -0.22888625827E+04  0.22888625827E+04  0.25500000920E-02 0. -1.
    10030    2    1    2    0    0  0.00000000000E+00  0.00000000000E+00 -0.19839008377E+04  0.25938243277E+04  0.16709464709E+04 0.  0.
        3    1    3    3  502    0 -0.55485063309E+03 -0.61217694338E+03 -0.79934101513E+03  0.11495937994E+04  0.10100000352E+00 0. -1.
       -3    1    3    3    0  502  0.55485063309E+03  0.61217694338E+03 -0.11845598226E+04  0.14442305282E+04  0.10100000352E+00 0.  1.
</event>
<event>
 5   0  0.2785059E-04  0.1687175E+04  0.7818609E-02  0.8768713E-01
        1   -1    0    0  501    0  0.00000000000E+00  0.00000000000E+00  0.58364055452E+03  0.58364055454E+03  0.50400001928E-02 0.  1.
       -1   -1    0    0    0  501  0.00000000000E+00  0.00000000000E+00 -0.12193111978E+04  0.12193111978E+04  0.50400001928E-02 0. -1.
    10030    2    1    2    0    0  0.00000000000E+00  0.00000000000E+00 -0.63567064332E+03  0.18029517524E+04  0.16871745181E+04 0.  0.
        5    1    3    3  502    0 -0.68945853134E+03 -0.48606694196E+03 -0.31975740447E+03  0.90215354913E+03  0.46999998093E+01 0.  1.
       -5    1    3    3    0  502  0.68945853134E+03  0.48606694196E+03 -0.31591323885E+03  0.90079820325E+03  0.46999998093E+01 0. -1.
</event>
<event>
 5   0  0.2561518E-04  0.1696037E+04  0.7818609E-02  0.8763628E-01
       -1   -1    0    0    0  501  0.00000000000E+00  0.00000000000E+00  0.11788841003E+04  0.11788841004E+04  0.50400001928E-02 0.  1.
        1   -1    0    0  501    0  0.00000000000E+00  0.00000000000E+00 -0.61001369902E+03  0.61001369904E+03  0.50400001928E-02 0. -1.
    10030    2    1    2    0    0  0.00000000000E+00  0.00000000000E+00  0.56887040133E+03  0.17888977994E+04  0.16960370878E+04 0.  0.
        4    1    3    3  502    0 -0.81451956530E+03  0.23599025594E+03  0.28502694078E+03  0.89463707335E+03  0.12699999809E+01 0. -1.
       -4    1    3    3    0  502  0.81451956530E+03 -0.23599025594E+03  0.28384346055E+03  0.89426072604E+03  0.12699999809E+01 0.  1.
</event>
<event>
 5   0  0.2583422E-04  0.1692360E+04  0.7818609E-02  0.8765734E-01
       -1   -1    0    0    0  501  0.00000000000E+00  0.00000000000E+00  0.69190040721E+03  0.69190040723E+03  0.50400001928E-02 0. -1.
        1   -1    0    0  501    0  0.00000000000E+00  0.00000000000E+00 -0.10348604847E+04  0.10348604847E+04  0.50400001928E-02 0.  1.
    10030    2    1    2    0    0  0.00000000000E+00  0.00000000000E+00 -0.34296007749E+03  0.17267608919E+04  0.16923597617E+04 0.  0.
        3    1    3    3  502    0  0.50931221808E+03 -0.67567267150E+03 -0.18104536057E+03  0.86528025939E+03  0.10100000352E+00 0. -1.
       -3    1    3    3    0  502 -0.50931221808E+03  0.67567267150E+03 -0.16191471692E+03  0.86148063255E+03  0.10100000352E+00 0.  1.
</event>
<event>
 5   0  0.5310003E-04  0.1700378E+04  0.7818609E-02  0.8761149E-01
       -2   -1    0    0    0  501  0.00000000000E+00  0.00000000000E+00  0.10475804377E+04  0.10475804377E+04  0.25500000920E-02 0. -1.
        2   -1    0    0  501    0  0.00000000000E+00  0.00000000000E+00 -0.68999160885E+03  0.68999160885E+03  0.25500000920E-02 0.  1.
    10030    2    1    2    0    0  0.00000000000E+00  0.00000000000E+00  0.35758882887E+03  0.17375720466E+04  0.17003784421E+04 0.  0.
        1    1    3    3  502    0  0.22172093299E+03  0.10688246512E+03  0.10103746795E+04  0.10399235676E+04  0.50400001928E-02 0. -1.
       -1    1    3    3    0  502 -0.22172093299E+03 -0.10688246512E+03 -0.65278585060E+03  0.69764847899E+03  0.50400001928E-02 0.  1.
</event>
<event>
 5   0  0.2630135E-04  0.1684154E+04  0.7818609E-02  0.8770454E-01
       -1   -1    0    0    0  501  0.00000000000E+00  0.00000000000E+00  0.59073319976E+03  0.59073319978E+03  0.50400001928E-02 0.  1.
        1   -1    0    0  501    0  0.00000000000E+00  0.00000000000E+00 -0.12003619675E+04  0.12003619675E+04  0.50400001928E-02 0. -1.
    10030    2    1    2    0    0  0.00000000000E+00  0.00000000000E+00 -0.60962876775E+03  0.17910951673E+04  0.16841539905E+04 0.  0.
        1    1    3    3  502    0  0.20198621267E+03 -0.69209195405E+03 -0.76753272710E+03  0.10530414000E+04  0.50400001928E-02 0. -1.
       -1    1    3    3    0  502 -0.20198621267E+03  0.69209195405E+03  0.15790395936E+03  0.73805376727E+03  0.50400001928E-02 0.  1.
</event>
<event>
 5   0  0.5299877E-04  0.1705596E+04  0.7818609E-02  0.8758179E-01
       -2   -1    0    0    0  501  0.00000000000E+00  0.00000000000E+00  0.37952315538E+03  0.37952315539E+03  0.25500000920E-02 0. -1.
        2   -1    0    0  501    0  0.00000000000E+00  0.00000000000E+00 -0.19162588414E+04  0.19162588414E+04  0.25500000920E-02 0.  1.
    10030    2    1    2    0    0  0.00000000000E+00  0.00000000000E+00 -0.15367356861E+04  0.22957819968E+04  0.17055962031E+04 0.  0.
        3    1    3    3  502    0  0.96198286489E+02 -0.84007103220E+03 -0.91759592256E+03  0.12477803239E+04  0.10100000352E+00 0.  1.
       -3    1    3    3    0  502 -0.96198286489E+02  0.84007103220E+03 -0.61913976349E+03  0.10480016729E+04  0.10100000352E+00 0. -1.
</event>
<event>
 5   0  0.5299877E-04  0.1840412E+04  0.7818609E-02  0.8685099E-01
        2   -1    0    0  501    0  0.00000000000E+00  0.00000000000E+00  0.23291533267E+04  0.23291533267E+04  0.25500000920E-02 0. -1.
       -2   -1    0    0    0  501  0.00000000000E+00  0.00000000000E+00 -0.36355652874E+03  0.36355652875E+03  0.25500000920E-02 0.  1.
    10030    2    1    2    0    0  0.00000000000E+00  0.00000000000E+00  0.19655967980E+04  0.26927098555E+04  0.18404118000E+04 0.  0.
        3    1    3    3  502    0  0.14132551641E+02 -0.79932765003E+03  0.16495210191E+04  0.18330422864E+04  0.10100000352E+00 0.  1.
       -3    1    3    3    0  502 -0.14132551641E+02  0.79932765003E+03  0.31607577890E+03  0.85966756908E+03  0.10100000352E+00 0. -1.
</event>
<event>
 5   0  0.5198430E-04  0.1692846E+04  0.7818609E-02  0.8765455E-01
        2   -1    0    0  501    0  0.00000000000E+00  0.00000000000E+00  0.18581447275E+04  0.18581447275E+04  0.25500000920E-02 0. -1.
       -2   -1    0    0    0  501  0.00000000000E+00  0.00000000000E+00 -0.38556300393E+03  0.38556300394E+03  0.25500000920E-02 0.  1.
    10030    2    1    2    0    0  0.00000000000E+00  0.00000000000E+00  0.14725817236E+04  0.22437077314E+04  0.16928459621E+04 0.  0.
        4    1    3    3  502    0  0.60924552204E+03  0.18874408930E+03  0.14738000277E+04  0.16058930761E+04  0.12699999809E+01 0. -1.
       -4    1    3    3    0  502 -0.60924552204E+03 -0.18874408930E+03 -0.12183041380E+01  0.63781465532E+03  0.12699999809E+01 0.  1.
</event>
<event>
 5   0  0.2583422E-04  0.1652852E+04  0.7818609E-02  0.8788721E-01
        1   -1    0    0  501    0  0.00000000000E+00  0.00000000000E+00  0.95395731712E+03  0.95395731713E+03  0.50400001928E-02 0. -1.
       -1   -1    0    0    0  501  0.00000000000E+00  0.00000000000E+00 -0.71594398762E+03  0.71594398764E+03  0.50400001928E-02 0.  1.
    10030    2    1    2    0    0  0.00000000000E+00  0.00000000000E+00  0.23801332950E+03  0.16699013048E+04  0.16528520874E+04 0.  0.
        3    1    3    3  502    0 -0.28551022481E+03  0.35141871069E+03  0.81749086406E+03  0.93450656590E+03  0.10100000352E+00 0. -1.
       -3    1    3    3    0  502  0.28551022481E+03 -0.35141871069E+03 -0.57947753456E+03  0.73539473887E+03  0.10100000352E+00 0.  1.
</event>
<event>
 5   0  0.5198430E-04  0.1701997E+04  0.7818609E-02  0.8760226E-01
        2   -1    0    0  501    0  0.00000000000E+00  0.00000000000E+00  0.12520859282E+04  0.12520859282E+04  0.25500000920E-02 0. -1.
       -2   -1    0    0    0  501  0.00000000000E+00  0.00000000000E+00 -0.57839343706E+03  0.57839343707E+03  0.25500000920E-02 0.  1.
    10030    2    1    2    0    0  0.00000000000E+00  0.00000000000E+00  0.67369249116E+03  0.18304793653E+04  0.17019968079E+04 0.  0.
        4    1    3    3  502    0 -0.75986727697E+03  0.38302229071E+03  0.32651276662E+03  0.91143653287E+03  0.12699999809E+01 0. -1.
       -4    1    3    3    0  502  0.75986727697E+03 -0.38302229071E+03  0.34717972454E+03  0.91904283242E+03  0.12699999809E+01 0.  1.
</event>
<event>
 5   0  0.2785059E-04  0.1682705E+04  0.7818609E-02  0.8771290E-01
       -1   -1    0    0    0  501  0.00000000000E+00  0.00000000000E+00  0.10712835071E+04  0.10712835071E+04  0.50400001928E-02 0.  1.
        1   -1    0    0  501    0  0.00000000000E+00  0.00000000000E+00 -0.66077185590E+03  0.66077185592E+03  0.50400001928E-02 0. -1.
    10030    2    1    2    0    0  0.00000000000E+00  0.00000000000E+00  0.41051165115E+03  0.17320553630E+04  0.16827049547E+04 0.  0.
        5    1    3    3  502    0  0.42803128966E+03 -0.21397892915E+02 -0.53998281368E+03  0.68939987222E+03  0.46999998093E+01 0. -1.
       -5    1    3    3    0  502 -0.42803128966E+03  0.21397892915E+02  0.95049446483E+03  0.10426554908E+04  0.46999998093E+01 0.  1.
</event>
<event>
 5   0  0.5310003E-04  0.1678262E+04  0.7818609E-02  0.8773860E-01
       -2   -1    0    0    0  501  0.00000000000E+00  0.00000000000E+00  0.29558816327E+03  0.29558816328E+03  0.25500000920E-02 0. -1.
        2   -1    0    0  501    0  0.00000000000E+00  0.00000000000E+00 -0.23821689251E+04  0.23821689251E+04  0.25500000920E-02 0.  1.
    10030    2    1    2    0    0  0.00000000000E+00  0.00000000000E+00 -0.20865807618E+04  0.26777570884E+04  0.16782621216E+04 0.  0.
        1    1    3    3  502    0  0.35907791020E+03  0.37306024681E+03 -0.20968754133E+04  0.21598605029E+04  0.50400001928E-02 0.  1.
       -1    1    3    3    0  502 -0.35907791020E+03 -0.37306024681E+03  0.10294651436E+02  0.51789658545E+03  0.50400001928E-02 0. -1.
</event>
<event>
 5   0  0.2595644E-04  0.1659140E+04  0.7818609E-02  0.8785018E-01
        1   -1    0    0  501    0  0.00000000000E+00  0.00000000000E+00  0.12934832469E+04  0.12934832469E+04  0.50400001928E-02 0. -1.
       -1   -1    0    0    0  501  0.00000000000E+00  0.00000000000E+00 -0.53204091656E+03  0.53204091658E+03  0.50400001928E-02 0.  1.
    10030    2    1    2    0    0  0.00000000000E+00  0.00000000000E+00  0.76144233033E+03  0.18255241635E+04  0.16591395508E+04 0.  0.
        2    1    3    3  502    0  0.24686736457E+03 -0.99266210659E+02  0.12452590326E+04  0.12733684991E+04  0.25500000920E-02 0. -1.
       -2    1    3    3    0  502 -0.24686736457E+03  0.99266210659E+02 -0.48381670228E+03  0.55215566436E+03  0.25500000920E-02 0.  1.
</event>
<event>
 5   0  0.5342255E-04  0.1707277E+04  0.7818609E-02  0.8757225E-01
       -2   -1    0    0    0  501  0.00000000000E+00  0.00000000000E+00  0.37692572101E+03  0.37692572102E+03  0.25500000920E-02 0.  1.
        2   -1    0    0  501    0  0.00000000000E+00  0.00000000000E+00 -0.19332676311E+04  0.19332676311E+04  0.25500000920E-02 0. -1.
    10030    2    1    2    0    0  0.00000000000E+00  0.00000000000E+00 -0.15563419101E+04  0.23101933521E+04  0.17072765397E+04 0.  0.
        5    1    3    3  502    0  0.79528947391E+02  0.57146365921E+03 -0.16294495818E+04  0.17285900604E+04  0.46999998093E+01 0. -1.
       -5    1    3    3    0  502 -0.79528947391E+02 -0.57146365921E+03  0.73107671719E+02  0.58160329172E+03  0.46999998093E+01 0.  1.
</event>
<event>
 5   0  0.2583422E-04  0.1714014E+04  0.7818609E-02  0.8753412E-01
        1   -1    0    0  501    0  0.00000000000E+00  0.00000000000E+00  0.12787435810E+04  0.12787435810E+04  0.50400001928E-02 0.  1.
       -1   -1    0    0    0  501  0.00000000000E+00  0.00000000000E+00 -0.57436158760E+03  0.57436158762E+03  0.50400001928E-02 0. -1.
    10030    2    1    2    0    0  0.00000000000E+00  0.00000000000E+00  0.70438199339E+03  0.18531051686E+04  0.17140142279E+04 0.  0.
        3    1    3    3  502    0 -0.20400641479E+03 -0.37954302226E+03  0.11531100121E+04  0.12309891280E+04  0.10100000352E+00 0.  1.
       -3    1    3    3    0  502  0.20400641479E+03  0.37954302226E+03 -0.44872801871E+03  0.62211604062E+03  0.10100000352E+00 0. -1.
</event>
<event>
 5   0  0.2583422E-04  0.1848266E+04  0.7818609E-02  0.8681045E-01
       -1   -1    0    0    0  501  0.00000000000E+00  0.00000000000E+00  0.10018561636E+04  0.10018561637E+04  0.50400001928E-02 0.  1.
        1   -1    0    0  501    0  0.00000000000E+00  0.00000000000E+00 -0.85243913017E+03  0.85243913019E+03  0.50400001928E-02 0. -1.
    10030    2    1    2    0    0  0.00000000000E+00  0.00000000000E+00  0.14941703347E+03  0.18542952938E+04  0.18482655618E+04 0.  0.
        3    1    3    3  502    0 -0.62898239482E+03 -0.67556012295E+03  0.29605721105E+02  0.92351331427E+03  0.10100000352E+00 0.  1.
       -3    1    3    3    0  502  0.62898239482E+03  0.67556012295E+03  0.11981131237E+03  0.93078197957E+03  0.10100000352E+00 0. -1.
</event>
<event>
 5   0  0.1910750E-04  0.1703799E+04  0.7818609E-02  0.8759200E-01
        3   -1    0    0  501    0  0.00000000000E+00  0.00000000000E+00  0.10388544260E+04  0.10388544309E+04  0.10100000352E+00 0.  1.
       -3   -1    0    0    0  501  0.00000000000E+00  0.00000000000E+00 -0.69858976823E+03  0.69858977553E+03  0.10100000352E+00 0. -1.
    10030    2    1    2    0    0  0.00000000000E+00  0.00000000000E+00  0.34026465777E+03  0.17374442064E+04  0.17037993817E+04 0.  0.
        4    1    3    3  502    0  0.41533656656E+03  0.65495532401E+03 -0.18933465893E+03  0.79832334674E+03  0.12699999809E+01 0. -1.
       -4    1    3    3    0  502 -0.41533656656E+03 -0.65495532401E+03  0.52959931669E+03  0.93912085970E+03  0.12699999809E+01 0.  1.
</event>
<event>
 5   0  0.2630135E-04  0.1697095E+04  0.7818609E-02  0.8763023E-01
        1   -1    0    0  501    0  0.00000000000E+00  0.00000000000E+00  0.15335731919E+04  0.15335731919E+04  0.50400001928E-02 0. -1.
       -1   -1    0    0    0  501  0.00000000000E+00  0.00000000000E+00 -0.46951299785E+03  0.46951299787E+03  0.50400001928E-02 0.  1.
    10030    2    1    2    0    0  0.00000000000E+00  0.00000000000E+00  0.10640601941E+04  0.20030861898E+04  0.16970946312E+04 0.  0.
        1    1    3    3  502    0  0.38419521125E+03  0.68533482976E+03  0.15370148598E+03  0.80057100625E+03  0.50400001928E-02 0.  1.
       -1    1    3    3    0  502 -0.38419521125E+03 -0.68533482976E+03  0.91035870809E+03  0.12025151835E+04  0.50400001928E-02 0. -1.
</event>
<event>
 5   0  0.2595644E-04  0.1685760E+04  0.7818609E-02  0.8769528E-01
       -1   -1    0    0    0  501  0.00000000000E+00  0.00000000000E+00  0.68435045143E+03  0.68435045145E+03  0.50400001928E-02 0. -1.
        1   -1    0    0  501    0  0.00000000000E+00  0.00000000000E+00 -0.10381323153E+04  0.10381323153E+04  0.50400001928E-02 0.  1.
    10030    2    1    2    0    0  0.00000000000E+00  0.00000000000E+00 -0.35378186388E+03  0.17224827668E+04  0.16857595542E+04 0.  0.
        2    1    3    3  502    0 -0.58870698372E+03 -0.29144696141E+03  0.36275157208E+03  0.75040385596E+03  0.25500000920E-02 0. -1.
       -2    1    3    3    0  502  0.58870698372E+03  0.29144696141E+03 -0.71653343596E+03  0.97207891081E+03  0.25500000920E-02 0.  1.
</event>
<event>
 5   0  0.2785059E-04  0.1599464E+04  0.7818609E-02  0.8820877E-01
        1   -1    0    0  501    0  0.00000000000E+00  0.00000000000E+00  0.10474853107E+04  0.10474853108E+04  0.50400001928E-02 0. -1.
       -1   -1    0    0    0  501  0.00000000000E+00  0.00000000000E+00 -0.61057766628E+03  0.61057766630E+03  0.50400001928E-02 0.  1.
    10030    2    1    2    0    0  0.00000000000E+00  0.00000000000E+00  0.43690764446E+03  0.16580629771E+04  0.15994638308E+04 0.  0.
        5    1    3    3  502    0 -0.32449070614E+03  0.14843630236E+03  0.96037112021E+03  0.10245302986E+04  0.46999998093E+01 0. -1.
       -5    1    3    3    0  502  0.32449070614E+03 -0.14843630236E+03 -0.52346347574E+03  0.63353267845E+03  0.46999998093E+01 0.  1.
</event>
<event>
 5   0  0.5342255E-04  0.1688944E+04  0.7818609E-02  0.8767695E-01
        2   -1    0    0  501    0  0.00000000000E+00  0.00000000000E+00  0.81793319485E+03  0.81793319485E+03  0.25500000920E-02 0. -1.
       -2   -1    0    0    0  501  0.00000000000E+00  0.00000000000E+00 -0.87187208040E+03  0.87187208041E+03  0.25500000920E-02 0.  1.
    10030    2    1    2    0    0  0.00000000000E+00  0.00000000000E+00 -0.53938885553E+02  0.16898052753E+04  0.16889441864E+04 0.  0.
        5    1    3    3  502    0  0.46192195236E+03  0.13658028403E+03 -0.72092595332E+03  0.86705385313E+03  0.46999998093E+01 0.  1.
       -5    1    3    3    0  502 -0.46192195236E+03 -0.13658028403E+03  0.66698706776E+03  0.82275142213E+03  0.46999998093E+01 0. -1.
</event>
<event>
 5   0  0.2785059E-04  0.1677066E+04  0.7818609E-02  0.8774553E-01
       -1   -1    0    0    0  501  0.00000000000E+00  0.00000000000E+00  0.53758885485E+03  0.53758885488E+03  0.50400001928E-02 0. -1.
        1   -1    0    0  501    0  0.00000000000E+00  0.00000000000E+00 -0.13079474989E+04  0.13079474989E+04  0.50400001928E-02 0.  1.
    10030    2    1    2    0    0  0.00000000000E+00  0.00000000000E+00 -0.77035864407E+03  0.18455363538E+04  0.16770664843E+04 0.  0.
        5    1    3    3  502    0  0.16430964839E+03  0.47688103767E+03 -0.11223222061E+04  0.12304643063E+04  0.46999998093E+01 0.  1.
       -5    1    3    3    0  502 -0.16430964839E+03 -0.47688103767E+03  0.35196356206E+03  0.61507204754E+03  0.46999998093E+01 0. -1.
</event>
<event>
 5   0  0.5310003E-04  0.1678751E+04  0.7818609E-02  0.8773577E-01
       -2   -1    0    0    0  501  0.00000000000E+00  0.00000000000E+00  0.30603899261E+03  0.30603899262E+03  0.25500000920E-02 0. -1.
        2   -1    0    0  501    0  0.00000000000E+00  0.00000000000E+00 -0.23021622087E+04  0.23021622087E+04  0.25500000920E-02 0.  1.
    10030    2    1    2    0    0  0.00000000000E+00  0.00000000000E+00 -0.19961232161E+04  0.26082012014E+04  0.16787512063E+04 0.  0.
        1    1    3    3  502    0  0.24248924186E+03 -0.20368266815E+03  0.20966329248E+03  0.37979778562E+03  0.50400001928E-02 0. -1.
       -1    1    3    3    0  502 -0.24248924186E+03  0.20368266815E+03 -0.22057865086E+04  0.22284034157E+04  0.50400001928E-02 0.  1.
</event>
<event>
 5   0  0.2630135E-04  0.1733456E+04  0.7818609E-02  0.8742510E-01
        1   -1    0    0  501    0  0.00000000000E+00  0.00000000000E+00  0.10221954456E+04  0.10221954456E+04  0.50400001928E-02 0.  1.
       -1   -1    0    0    0  501  0.00000000000E+00  0.00000000000E+00 -0.73490592787E+03  0.73490592789E+03  0.50400001928E-02 0. -1.
    10030    2    1    2    0    0  0.00000000000E+00  0.00000000000E+00  0.28728951770E+03  0.17571013735E+04  0.17334560767E+04 0.  0.
        1    1    3    3  502    0  0.66699606345E+02  0.86008691696E+03  0.22856793798E+03  0.89243579294E+03  0.50400001928E-02 0. -1.
       -1    1    3    3    0  502 -0.66699606345E+02 -0.86008691696E+03  0.58721579725E+02  0.86466558054E+03  0.50400001928E-02 0.  1.
</event>
<event>
 5   0  0.5198430E-04  0.1699268E+04  0.7818609E-02  0.8761782E-01
       -2   -1    0    0    0  501  0.00000000000E+00  0.00000000000E+00  0.58025531994E+03  0.58025531994E+03  0.25500000920E-02 0.  1.
        2   -1    0    0  501    0  0.00000000000E+00  0.00000000000E+00 -0.12440691565E+04  0.12440691565E+04  0.25500000920E-02 0. -1.
    10030    2    1    2    0    0  0.00000000000E+00  0.00000000000E+00 -0.66381383653E+03  0.18243244764E+04  0.16992677793E+04 0.  0.
        4    1    3    3  502    0 -0.58491777205E+03  0.47290830201E+03  0.92271695462E+02  0.75781708931E+03  0.12699999809E+01 0.  1.
       -4    1    3    3    0  502  0.58491777205E+03 -0.47290830201E+03 -0.75608553200E+03  0.10665073871E+04  0.12699999809E+01 0. -1.
</event>
<event>
 5   0  0.5299877E-04  0.1693902E+04  0.7818609E-02  0.8764850E-01
       -2   -1    0    0    0  501  0.00000000000E+00  0.00000000000E+00  0.17806343566E+04  0.17806343566E+04  0.25500000920E-02 0.  1.
        2   -1    0    0  501    0  0.00000000000E+00  0.00000000000E+00 -0.40284848059E+03  0.40284848060E+03  0.25500000920E-02 0. -1.
    10030    2    1    2    0    0  0.00000000000E+00  0.00000000000E+00  0.13777858760E+04  0.21834828372E+04  0.16939018213E+04 0.  0.
        3    1    3    3  502    0  0.66930237389E+03  0.23253107658E+03  0.90794129179E+02  0.71433882252E+03  0.10100000352E+00 0. -1.
       -3    1    3    3    0  502 -0.66930237389E+03 -0.23253107658E+03  0.12869917468E+04  0.14691440147E+04  0.10100000352E+00 0.  1.
</event>
<event>
 5   0  0.2583422E-04  0.1660990E+04  0.7818609E-02  0.8783931E-01
        1   -1    0    0  501    0  0.00000000000E+00  0.00000000000E+00  0.88702625628E+03  0.88702625629E+03  0.50400001928E-02 0. -1.
       -1   -1    0    0    0  501  0.00000000000E+00  0.00000000000E+00 -0.77756634966E+03  0.77756634968E+03  0.50400001928E-02 0.  1.
    10030    2    1    2    0    0  0.00000000000E+00  0.00000000000E+00  0.10945990662E+03  0.16645926060E+04  0.16609897871E+04 0.  0.
        3    1    3    3  502    0  0.49072956099E+02 -0.70934316052E+03 -0.37532307143E+03  0.80401697280E+03  0.10100000352E+00 0.  1.
       -3    1    3    3    0  502 -0.49072956099E+02  0.70934316052E+03  0.48478297805E+03  0.86057563317E+03  0.10100000352E+00 0. -1.
</event>
<event>
 5   0  0.2785059E-04  0.1745298E+04  0.7818609E-02  0.8735943E-01
       -1   -1    0    0    0  501  0.00000000000E+00  0.00000000000E+00  0.84492343781E+03  0.84492343783E+03  0.50400001928E-02 0. -1.
        1   -1    0    0  501    0  0.00000000000E+00  0.00000000000E+00 -0.90128414465E+03  0.90128414466E+03  0.50400001928E-02 0.  1.
    10030    2    1    2    0    0  0.00000000000E+00  0.00000000000E+00 -0.56360706835E+02  0.17462075825E+04  0.17452977946E+04 0.  0.
        5    1    3    3  502    0 -0.12820896936E+03 -0.67735174196E+03  0.50712292250E+03  0.85582630871E+03  0.46999998093E+01 0. -1.
       -5    1    3    3    0  502  0.12820896936E+03  0.67735174196E+03 -0.56348362933E+03  0.89038127378E+03  0.46999998093E+01 0.  1.
</event>
<event>
 5   0  0.1910750E-04  0.1699647E+04  0.7818609E-02  0.8761566E-01
        3   -1    0    0  501    0  0.00000000000E+00  0.00000000000E+00  0.50450389844E+03  0.50450390855E+03  0.10100000352E+00 0. -1.
       -3   -1    0    0    0  501  0.00000000000E+00  0.00000000000E+00 -0.14315055114E+04  0.14315055150E+04  0.10100000352E+00 0.  1.
    10030    2    1    2    0    0  0.00000000000E+00  0.00000000000E+00 -0.92700161298E+03  0.19360094235E+04  0.16996471685E+04 0.  0.
        1    1    3    3  502    0 -0.49341589657E+03 -0.37663632888E+03  0.19763418478E+03  0.65143951541E+03  0.50400001928E-02 0. -1.
       -1    1    3    3    0  502  0.49341589657E+03  0.37663632888E+03 -0.11246357978E+04  0.12845699081E+04  0.50400001928E-02 0.  1.
</event>
<event>
 5   0  0.2595644E-04  0.1704814E+04  0.7818609E-02  0.8758624E-01
        1   -1    0    0  501    0  0.00000000000E+00  0.00000000000E+00  0.10638077882E+04  0.10638077883E+04  0.50400001928E-02 0.  1.
       -1   -1    0    0    0  501  0.00000000000E+00  0.00000000000E+00 -0.68301592656E+03  0.68301592657E+03  0.50400001928E-02 0. -1.
    10030    2    1    2    0    0  0.00000000000E+00  0.00000000000E+00  0.38079186169E+03  0.17468237148E+04  0.17048139631E+04 0.  0.
        2    1    3    3  502    0  0.11203099194E+03  0.15549785144E+03 -0.66065355585E+03  0.68789072230E+03  0.25500000920E-02 0. -1.
       -2    1    3    3    0  502 -0.11203099194E+03 -0.15549785144E+03  0.10414454175E+04  0.10589329925E+04  0.25500000920E-02 0.  1.
</event>
<event>
 5   0  0.5299877E-04  0.1733724E+04  0.7818609E-02  0.8742360E-01
        2   -1    0    0  501    0  0.00000000000E+00  0.00000000000E+00  0.13459633147E+04  0.13459633147E+04  0.25500000920E-02 0.  1.
       -2   -1    0    0    0  501  0.00000000000E+00  0.00000000000E+00 -0.55829909972E+03  0.55829909973E+03  0.25500000920E-02 0. -1.
    10030    2    1    2    0    0  0.00000000000E+00  0.00000000000E+00  0.78766421495E+03  0.19042624144E+04  0.17337244381E+04 0.  0.
        3    1    3    3  502    0  0.50323266161E+03  0.20161876195E+03 -0.34913444030E+03  0.64481633392E+03  0.10100000352E+00 0. -1.
       -3    1    3    3    0  502 -0.50323266161E+03 -0.20161876195E+03  0.11367986553E+04  0.12594460805E+04  0.10100000352E+00 0.  1.
</event>
<event>
 5   0  0.5021349E-04  0.1670128E+04  0.7818609E-02  0.8778587E-01
        2   -1    0    0  501    0  0.00000000000E+00  0.00000000000E+00  0.82302518740E+03  0.82302518740E+03  0.25500000920E-02 0.  1.
       -2   -1    0    0    0  501  0.00000000000E+00  0.00000000000E+00 -0.84727886040E+03  0.84727886041E+03  0.25500000920E-02 0. -1.
    10030    2    1    2    0    0  0.00000000000E+00  0.00000000000E+00 -0.24253673005E+02  0.16703040478E+04  0.16701279506E+04 0.  0.
        2    1    3    3  502    0 -0.25669755717E+03 -0.42249946238E+03  0.66094665882E+03  0.82537865091E+03  0.25500000920E-02 0.  1.
       -2    1    3    3    0  502  0.25669755717E+03  0.42249946238E+03 -0.68520033183E+03  0.84492539689E+03  0.25500000920E-02 0. -1.
</event>
<event>
 5   0  0.5299877E-04  0.1690440E+04  0.7818609E-02  0.8766836E-01
       -2   -1    0    0    0  501  0.00000000000E+00  0.00000000000E+00  0.52206763854E+03  0.52206763855E+03  0.25500000920E-02 0. -1.
        2   -1    0    0  501    0  0.00000000000E+00  0.00000000000E+00 -0.13683992471E+04  0.13683992472E+04  0.25500000920E-02 0.  1.
    10030    2    1    2    0    0  0.00000000000E+00  0.00000000000E+00 -0.84633160861E+03  0.18904668857E+04  0.16904401362E+04 0.  0.
        3    1    3    3  502    0 -0.69817706129E+03  0.28198604190E+03  0.62338069278E+01  0.75299814560E+03  0.10100000352E+00 0. -1.
       -3    1    3    3    0  502  0.69817706129E+03 -0.28198604190E+03 -0.85256541554E+03  0.11374687401E+04  0.10100000352E+00 0.  1.
</event>
<event>
 5   0  0.5021349E-04  0.1697521E+04  0.7818609E-02  0.8762779E-01
        2   -1    0    0  501    0  0.00000000000E+00  0.00000000000E+00  0.13934984746E+04  0.13934984746E+04  0.25500000920E-02 0.  1.
       -2   -1    0    0    0  501  0.00000000000E+00  0.00000000000E+00 -0.51696839993E+03  0.51696839994E+03  0.25500000920E-02 0. -1.
    10030    2    1    2    0    0  0.00000000000E+00  0.00000000000E+00  0.87653007469E+03  0.19104668746E+04  0.16975213421E+04 0.  0.
        2    1    3    3  502    0  0.17438357170E+03  0.73461344402E+03  0.19055701282E+01  0.75502991558E+03  0.25500000920E-02 0. -1.
       -2    1    3    3    0  502 -0.17438357170E+03 -0.73461344402E+03  0.87462450456E+03  0.11554369590E+04  0.25500000920E-02 0.  1.
</event>
<event>
 5   0  0.5299877E-04  0.1677922E+04  0.7818609E-02  0.8774057E-01
       -2   -1    0    0    0  501  0.00000000000E+00  0.00000000000E+00  0.36890130473E+03  0.36890130474E+03  0.25500000920E-02 0. -1.
        2   -1    0    0  501    0  0.00000000000E+00  0.00000000000E+00 -0.19079783534E+04  0.19079783534E+04  0.25500000920E-02 0.  1.
    10030    2    1    2    0    0  0.00000000000E+00  0.00000000000E+00 -0.15390770486E+04  0.22768796581E+04  0.16779221722E+04 0.  0.
        3    1    3    3  502    0  0.25180916867E+03  0.41238127216E+02 -0.18540465917E+04  0.18715226996E+04  0.10100000352E+00 0.  1.
       -3    1    3    3    0  502 -0.25180916867E+03 -0.41238127216E+02  0.31496954308E+03  0.40535695853E+03  0.10100000352E+00 0. -1.
</event>
<event>
 5   0  0.5342255E-04  0.1682731E+04  0.7818609E-02  0.8771275E-01
        2   -1    0    0  501    0  0.00000000000E+00  0.00000000000E+00  0.12282711478E+04  0.12282711478E+04  0.25500000920E-02 0.  1.
       -2   -1    0    0    0  501  0.00000000000E+00  0.00000000000E+00 -0.57633528753E+03  0.57633528754E+03  0.25500000920E-02 0. -1.
    10030    2    1    2    0    0  0.00000000000E+00  0.00000000000E+00  0.65193586031E+03  0.18046064354E+04  0.16827311195E+04 0.  0.
        5    1    3    3  502    0  0.79840584406E+03  0.23580887246E+03  0.45650569636E+03  0.94946156161E+03  0.46999998093E+01 0.  1.
       -5    1    3    3    0  502 -0.79840584406E+03 -0.23580887246E+03  0.19543016395E+03  0.85514487378E+03  0.46999998093E+01 0. -1.
</event>
<event>
 5   0  0.5198430E-04  0.1646322E+04  0.7818609E-02  0.8792585E-01
       -2   -1    0    0    0  501  0.00000000000E+00  0.00000000000E+00  0.10346156065E+04  0.10346156065E+04  0.25500000920E-02 0. -1.
        2   -1    0    0  501    0  0.00000000000E+00  0.00000000000E+00 -0.65492384653E+03  0.65492384654E+03  0.25500000920E-02 0.  1.
    10030    2    1    2    0    0  0.00000000000E+00  0.00000000000E+00  0.37969175994E+03  0.16895394530E+04  0.16463224869E+04 0.  0.
        4    1    3    3  502    0  0.78226105775E+03  0.15545084017E+03 -0.19205912117E+02  0.79778932441E+03  0.12699999809E+01 0.  1.
       -4    1    3    3    0  502 -0.78226105775E+03 -0.15545084017E+03  0.39889767206E+03  0.89175012860E+03  0.12699999809E+01 0. -1.
</event>
<event>
 5   0  0.5198430E-04  0.1702169E+04  0.7818609E-02  0.8760129E-01
        2   -1    0    0  501    0  0.00000000000E+00  0.00000000000E+00  0.14663002419E+04  0.14663002419E+04  0.25500000920E-02 0.  1.
       -2   -1    0    0    0  501  0.00000000000E+00  0.00000000000E+00 -0.49399464822E+03  0.49399464822E+03  0.25500000920E-02 0. -1.
    10030    2    1    2    0    0  0.00000000000E+00  0.00000000000E+00  0.97230559370E+03  0.19602948901E+04  0.17021685841E+04 0.  0.
        4    1    3    3  502    0  0.58823273330E+03  0.18939223640E+02 -0.22186706945E+03  0.62896983403E+03  0.12699999809E+01 0. -1.
       -4    1    3    3    0  502 -0.58823273330E+03 -0.18939223640E+02  0.11941726632E+04  0.13313250561E+04  0.12699999809E+01 0.  1.
</event>
<event>
 5   0  0.2630135E-04  0.1679927E+04  0.7818609E-02  0.8772896E-01
        1   -1    0    0  501    0  0.00000000000E+00  0.00000000000E+00  0.80579068163E+03  0.80579068165E+03  0.50400001928E-02 0. -1.
       -1   -1    0    0    0  501  0.00000000000E+00  0.00000000000E+00 -0.87558536725E+03  0.87558536727E+03  0.50400001928E-02 0.  1.
    10030    2    1    2    0    0  0.00000000000E+00  0.00000000000E+00 -0.69794685621E+02  0.16813760489E+04  0.16799268197E+04 0.  0.
        1    1    3    3  502    0 -0.19263202019E+03  0.36947279861E+03 -0.76485585599E+03  0.87098893482E+03  0.50400001928E-02 0.  1.
       -1    1    3    3    0  502  0.19263202019E+03 -0.36947279861E+03  0.69506117037E+03  0.81038711409E+03  0.50400001928E-02 0. -1.
</event>
<event>
 5   0  0.5021349E-04  0.1700491E+04  0.7818609E-02  0.8761084E-01
        2   -1    0    0  501    0  0.00000000000E+00  0.00000000000E+00  0.19699433243E+04  0.19699433243E+04  0.25500000920E-02 0.  1.
       -2   -1    0    0    0  501  0.00000000000E+00  0.00000000000E+00 -0.36697366905E+03  0.36697366906E+03  0.25500000920E-02 0. -1.
    10030    2    1    2    0    0  0.00000000000E+00  0.00000000000E+00  0.16029696553E+04  0.23369169934E+04  0.17004909051E+04 0.  0.
        2    1    3    3  502    0  0.81183067458E+03 -0.18850932803E+03  0.10327223065E+04  0.13270720302E+04  0.25500000920E-02 0. -1.
       -2    1    3    3    0  502 -0.81183067458E+03  0.18850932803E+03  0.57024734881E+03  0.10098449632E+04  0.25500000920E-02 0.  1.
</event>
<event>
 5   0  0.2785059E-04  0.1697944E+04  0.7818609E-02  0.8762538E-01
       -1   -1    0    0    0  501  0.00000000000E+00  0.00000000000E+00  0.47579278628E+03  0.47579278630E+03  0.50400001928E-02 0. -1.
        1   -1    0    0  501    0  0.00000000000E+00  0.00000000000E+00 -0.15148466245E+04  0.15148466245E+04  0.50400001928E-02 0.  1.
    10030    2    1    2    0    0  0.00000000000E+00  0.00000000000E+00 -0.10390538382E+04  0.19906394108E+04  0.16979435753E+04 0.  0.
        5    1    3    3  502    0 -0.31814008077E+03  0.68651156524E+02 -0.14387861699E+04  0.14751453572E+04  0.46999998093E+01 0.  1.
       -5    1    3    3    0  502  0.31814008077E+03 -0.68651156524E+02  0.39973233167E+03  0.51549405357E+03  0.46999998093E+01 0. -1.
</event>
<event>
 5   0  0.2561518E-04  0.1485923E+04  0.7818609E-02  0.8893868E-01
        1   -1    0    0  501    0  0.00000000000E+00  0.00000000000E+00  0.68258560085E+03  0.68258560087E+03  0.50400001928E-02 0. -1.
       -1   -1    0    0    0  501  0.00000000000E+00  0.00000000000E+00 -0.80867770706E+03  0.80867770707E+03  0.50400001928E-02 0.  1.
    10030    2    1    2    0    0  0.00000000000E+00  0.00000000000E+00 -0.12609210621E+03  0.14912633079E+04  0.14859229571E+04 0.  0.
        4    1    3    3  502    0  0.15206394072E+03 -0.15343054700E+03  0.65037145532E+03  0.68530943203E+03  0.12699999809E+01 0. -1.
       -4    1    3    3    0  502 -0.15206394072E+03  0.15343054700E+03 -0.77646356153E+03  0.80595387592E+03  0.12699999809E+01 0.  1.
</event>
<event>
 5   0  0.2785059E-04  0.1653577E+04  0.7818609E-02  0.8788293E-01
        1   -1    0    0  501    0  0.00000000000E+00  0.00000000000E+00  0.40482795313E+03  0.40482795316E+03  0.50400001928E-02 0.  1.
       -1   -1    0    0    0  501  0.00000000000E+00  0.00000000000E+00 -0.16885667718E+04  0.16885667718E+04  0.50400001928E-02 0. -1.
    10030    2    1    2    0    0  0.00000000000E+00  0.00000000000E+00 -0.12837388186E+04  0.20933947249E+04  0.16535767656E+04 0.  0.
        5    1    3    3  502    0  0.27251411034E+03 -0.37422214209E+03 -0.15090893779E+04  0.15785053033E+04  0.46999998093E+01 0. -1.
       -5    1    3    3    0  502 -0.27251411034E+03  0.37422214209E+03  0.22535055928E+03  0.51488942165E+03  0.46999998093E+01 0.  1.
</event>
<event>
 5   0  0.5310003E-04  0.1709812E+04  0.7818609E-02  0.8755788E-01
        2   -1    0    0  501    0  0.00000000000E+00  0.00000000000E+00  0.66552947771E+03  0.66552947772E+03  0.25500000920E-02 0. -1.
       -2   -1    0    0    0  501  0.00000000000E+00  0.00000000000E+00 -0.10981693599E+04  0.10981693599E+04  0.25500000920E-02 0.  1.
    10030    2    1    2    0    0  0.00000000000E+00  0.00000000000E+00 -0.43263988216E+03  0.17636988376E+04  0.17098117797E+04 0.  0.
        1    1    3    3  502    0 -0.13791063228E+03 -0.11952893868E+02  0.65389227612E+03  0.66838411334E+03  0.50400001928E-02 0. -1.
       -1    1    3    3    0  502  0.13791063228E+03  0.11952893868E+02 -0.10865321583E+04  0.10953147243E+04  0.50400001928E-02 0.  1.
</event>
<event>
 5   0  0.5299877E-04  0.1677102E+04  0.7818609E-02  0.8774533E-01
       -2   -1    0    0    0  501  0.00000000000E+00  0.00000000000E+00  0.43887828478E+03  0.43887828479E+03  0.25500000920E-02 0. -1.
        2   -1    0    0  501    0  0.00000000000E+00  0.00000000000E+00 -0.16021938161E+04  0.16021938161E+04  0.25500000920E-02 0.  1.
    10030    2    1    2    0    0  0.00000000000E+00  0.00000000000E+00 -0.11633155313E+04  0.20410721009E+04  0.16771023510E+04 0.  0.
        3    1    3    3  502    0  0.27172320242E+03  0.58246857398E+03 -0.12371180578E+04  0.13941177273E+04  0.10100000352E+00 0.  1.
       -3    1    3    3    0  502 -0.27172320242E+03 -0.58246857398E+03  0.73802526482E+02  0.64695437360E+03  0.10100000352E+00 0. -1.
</event>
<event>
 5   0  0.5342255E-04  0.1704338E+04  0.7818609E-02  0.8758894E-01
       -2   -1    0    0    0  501  0.00000000000E+00  0.00000000000E+00  0.50499666140E+03  0.50499666140E+03  0.25500000920E-02 0.  1.
        2   -1    0    0  501    0  0.00000000000E+00  0.00000000000E+00 -0.14380137682E+04  0.14380137682E+04  0.25500000920E-02 0. -1.
    10030    2    1    2    0    0  0.00000000000E+00  0.00000000000E+00 -0.93301710682E+03  0.19430104296E+04  0.17043381730E+04 0.  0.
        5    1    3    3  502    0  0.44885071468E+03  0.13680645064E+03 -0.12774492204E+04  0.13609120360E+04  0.46999998093E+01 0. -1.
       -5    1    3    3    0  502 -0.44885071468E+03 -0.13680645064E+03  0.34443211358E+03  0.58209839363E+03  0.46999998093E+01 0.  1.
</event>
<event>
 5   0  0.2785059E-04  0.1615032E+04  0.7818609E-02  0.8811366E-01
       -1   -1    0    0    0  501  0.00000000000E+00  0.00000000000E+00  0.42729969997E+03  0.42729970000E+03  0.50400001928E-02 0.  1.
        1   -1    0    0  501    0  0.00000000000E+00  0.00000000000E+00 -0.15260530947E+04  0.15260530947E+04  0.50400001928E-02 0. -1.
    10030    2    1    2    0    0  0.00000000000E+00  0.00000000000E+00 -0.10987533947E+04  0.19533527947E+04  0.16150319248E+04 0.  0.
        5    1    3    3  502    0 -0.23831919887E+02 -0.71957239054E+03 -0.99163658221E+03  0.12254458727E+04  0.46999998093E+01 0. -1.
       -5    1    3    3    0  502  0.23831919887E+02  0.71957239054E+03 -0.10711681251E+03  0.72790692204E+03  0.46999998093E+01 0.  1.
</event>
<event>
 5   0  0.5299877E-04  0.1764712E+04  0.7818609E-02  0.8725294E-01
        2   -1    0    0  501    0  0.00000000000E+00  0.00000000000E+00  0.13784936256E+04  0.13784936256E+04  0.25500000920E-02 0. -1.
       -2   -1    0    0    0  501  0.00000000000E+00  0.00000000000E+00 -0.56478456531E+03  0.56478456532E+03  0.25500000920E-02 0.  1.
    10030    2    1    2    0    0  0.00000000000E+00  0.00000000000E+00  0.81370906027E+03  0.19432781909E+04  0.17647117874E+04 0.  0.
        3    1    3    3  502    0  0.46788779517E+03  0.72130718482E+03  0.62529209081E+03  0.10631054758E+04  0.10100000352E+00 0.  1.
       -3    1    3    3    0  502 -0.46788779517E+03 -0.72130718482E+03  0.18841696946E+03  0.88017271506E+03  0.10100000352E+00 0. -1.
</event>
<event>
 5   0  0.5198430E-04  0.1683859E+04  0.7818609E-02  0.8770624E-01
        2   -1    0    0  501    0  0.00000000000E+00  0.00000000000E+00  0.84237325909E+03  0.84237325910E+03  0.25500000920E-02 0. -1.
       -2   -1    0    0    0  501  0.00000000000E+00  0.00000000000E+00 -0.84148599508E+03  0.84148599508E+03  0.25500000920E-02 0.  1.
    10030    2    1    2    0    0  0.00000000000E+00  0.00000000000E+00  0.88726401390E+00  0.16838592542E+04  0.16838590204E+04 0.  0.
        4    1    3    3  502    0  0.22609668522E+03  0.14098904360E+03 -0.79820913540E+03  0.84150879865E+03  0.12699999809E+01 0.  1.
       -4    1    3    3    0  502 -0.22609668522E+03 -0.14098904360E+03  0.79909639941E+03  0.84235045553E+03  0.12699999809E+01 0. -1.
</event>
<event>
 5   0  0.5342255E-04  0.1722389E+04  0.7818609E-02  0.8748697E-01
        2   -1    0    0  501    0  0.00000000000E+00  0.00000000000E+00  0.11473073994E+04  0.11473073994E+04  0.25500000920E-02 0.  1.
       -2   -1    0    0    0  501  0.00000000000E+00  0.00000000000E+00 -0.64643200438E+03  0.64643200439E+03  0.25500000920E-02 0. -1.
    10030    2    1    2    0    0  0.00000000000E+00  0.00000000000E+00  0.50087539506E+03  0.17937394038E+04  0.17223892961E+04 0.  0.
        5    1    3    3  502    0  0.29581556097E+03  0.24258611465E+03  0.10539423717E+04  0.11212365861E+04  0.46999998093E+01 0.  1.
       -5    1    3    3    0  502 -0.29581556097E+03 -0.24258611465E+03 -0.55306697668E+03  0.67250281771E+03  0.46999998093E+01 0. -1.
</event>
<event>
 5   0  0.2785059E-04  0.1925898E+04  0.7818609E-02  0.8642072E-01
        1   -1    0    0  501    0  0.00000000000E+00  0.00000000000E+00  0.15966946225E+04  0.15966946225E+04  0.50400001928E-02 0.  1.
       -1   -1    0    0    0  501  0.00000000000E+00  0.00000000000E+00 -0.58074400190E+03  0.58074400192E+03  0.50400001928E-02 0. -1.
    10030    2    1    2    0    0  0.00000000000E+00  0.00000000000E+00  0.10159506206E+04  0.21774386244E+04  0.19258980502E+04 0.  0.
        5    1    3    3  502    0 -0.33156634047E+03 -0.66224313022E+03 -0.18782875539E+03  0.76407063352E+03  0.46999998093E+01 0. -1.
       -5    1    3    3    0  502  0.33156634047E+03  0.66224313022E+03  0.12037793760E+04  0.14133679909E+04  0.46999998093E+01 0.  1.
</event>
<event>
 5   0  0.5299877E-04  0.1727165E+04  0.7818609E-02  0.8746021E-01
       -2   -1    0    0    0  501  0.00000000000E+00  0.00000000000E+00  0.65244059069E+03  0.65244059069E+03  0.25500000920E-02 0.  1.
        2   -1    0    0  501    0  0.00000000000E+00  0.00000000000E+00 -0.11430535575E+04  0.11430535575E+04  0.25500000920E-02 0. -1.
    10030    2    1    2    0    0  0.00000000000E+00  0.00000000000E+00 -0.49061296678E+03  0.17954941482E+04  0.17271647730E+04 0.  0.
        3    1    3    3  502    0 -0.43084700763E+03 -0.29747598550E+03  0.46863352060E+03  0.70266527790E+03  0.10100000352E+00 0.  1.
       -3    1    3    3    0  502  0.43084700763E+03  0.29747598550E+03 -0.95924648739E+03  0.10928288703E+04  0.10100000352E+00 0. -1.
</event>
<event>
 5   0  0.5310003E-04  0.1721639E+04  0.7818609E-02  0.8749118E-01
        2   -1    0    0  501    0  0.00000000000E+00  0.00000000000E+00  0.76708231548E+03  0.76708231549E+03  0.25500000920E-02 0. -1.
       -2   -1    0    0    0  501  0.00000000000E+00  0.00000000000E+00 -0.96601106102E+03  0.96601106102E+03  0.25500000920E-02 0.  1.
    10030    2    1    2    0    0  0.00000000000E+00  0.00000000000E+00 -0.19892874554E+03  0.17330933765E+04  0.17216387559E+04 0.  0.
        1    1    3    3  502    0  0.42005948933E+03  0.44643902882E+03 -0.70784638411E+03  0.93637828069E+03  0.50400001928E-02 0.  1.
       -1    1    3    3    0  502 -0.42005948933E+03 -0.44643902882E+03  0.50891763857E+03  0.79671509582E+03  0.50400001928E-02 0. -1.
</event>
<event>
 5   0  0.5198430E-04  0.1678054E+04  0.7818609E-02  0.8773981E-01
       -2   -1    0    0    0  501  0.00000000000E+00  0.00000000000E+00  0.46628947581E+03  0.46628947581E+03  0.25500000920E-02 0. -1.
        2   -1    0    0  501    0  0.00000000000E+00  0.00000000000E+00 -0.15097197630E+04  0.15097197630E+04  0.25500000920E-02 0.  1.
    10030    2    1    2    0    0  0.00000000000E+00  0.00000000000E+00 -0.10434302872E+04  0.19760092388E+04  0.16780541551E+04 0.  0.
        4    1    3    3  502    0 -0.67162970687E+03  0.44760902790E+03 -0.25183928300E+03  0.84549686124E+03  0.12699999809E+01 0. -1.
       -4    1    3    3    0  502  0.67162970687E+03 -0.44760902790E+03 -0.79159100416E+03  0.11305123775E+04  0.12699999809E+01 0.  1.
</event>
<event>
 5   0  0.5310003E-04  0.1702557E+04  0.7818609E-02  0.8759907E-01
        2   -1    0    0  501    0  0.00000000000E+00  0.00000000000E+00  0.10060712913E+04  0.10060712913E+04  0.25500000920E-02 0.  1.
       -2   -1    0    0    0  501  0.00000000000E+00  0.00000000000E+00 -0.72030185714E+03  0.72030185714E+03  0.25500000920E-02 0. -1.
    10030    2    1    2    0    0  0.00000000000E+00  0.00000000000E+00  0.28576943420E+03  0.17263731485E+04  0.17025569237E+04 0.  0.
        1    1    3    3  502    0 -0.51881732397E+03  0.62366258250E+03  0.40446346164E+03  0.90648614125E+03  0.50400001928E-02 0.  1.
       -1    1    3    3    0  502  0.51881732397E+03 -0.62366258250E+03 -0.11869402743E+03  0.81988700724E+03  0.50400001928E-02 0. -1.
</event>
<event>
 5   0  0.5299877E-04  0.1684409E+04  0.7818609E-02  0.8770307E-01
        2   -1    0    0  501    0  0.00000000000E+00  0.00000000000E+00  0.13245794469E+04  0.13245794469E+04  0.25500000920E-02 0. -1.
       -2   -1    0    0    0  501  0.00000000000E+00  0.00000000000E+00 -0.53549735342E+03  0.53549735343E+03  0.25500000920E-02 0.  1.
    10030    2    1    2    0    0  0.00000000000E+00  0.00000000000E+00  0.78908209347E+03  0.18600768003E+04  0.16844094374E+04 0.  0.
        3    1    3    3  502    0 -0.34035376870E+03 -0.57266192676E+03  0.96357354476E+03  0.11714334623E+04  0.10100000352E+00 0. -1.
       -3    1    3    3    0  502  0.34035376870E+03  0.57266192676E+03 -0.17449145129E+03  0.68864333802E+03  0.10100000352E+00 0.  1.
</event>
<event>
 5   0  0.5021349E-04  0.1728468E+04  0.7818609E-02  0.8745293E-01
        2   -1    0    0  501    0  0.00000000000E+00  0.00000000000E+00  0.25724845748E+04  0.25724845748E+04  0.25500000920E-02 0.  1.
       -2   -1    0    0    0  501  0.00000000000E+00  0.00000000000E+00 -0.29034187610E+03  0.29034187611E+03  0.25500000920E-02 0. -1.
    10030    2    1    2    0    0  0.00000000000E+00  0.00000000000E+00  0.22821426987E+04  0.28628264509E+04  0.17284675267E+04 0.  0.
        2    1    3    3  502    0 -0.30023775101E+03  0.80971606789E+03  0.10857114401E+04  0.13872822888E+04  0.25500000920E-02 0. -1.
       -2    1    3    3    0  502  0.30023775101E+03 -0.80971606789E+03  0.11964312586E+04  0.14755441621E+04  0.25500000920E-02 0.  1.
</event>
<event>
 5   0  0.5310003E-04  0.1726977E+04  0.7818609E-02  0.8746126E-01
        2   -1    0    0  501    0  0.00000000000E+00  0.00000000000E+00  0.13310200305E+04  0.13310200305E+04  0.25500000920E-02 0.  1.
       -2   -1    0    0    0  501  0.00000000000E+00  0.00000000000E+00 -0.56018109144E+03  0.56018109144E+03  0.25500000920E-02 0. -1.
    10030    2    1    2    0    0  0.00000000000E+00  0.00000000000E+00  0.77083893902E+03  0.18912011219E+04  0.17269768422E+04 0.  0.
        1    1    3    3  502    0  0.66461568683E+03  0.10747632785E+02 -0.21815761594E+03  0.69958721273E+03  0.50400001928E-02 0. -1.
       -1    1    3    3    0  502 -0.66461568683E+03 -0.10747632785E+02  0.98899655496E+03  0.11916139092E+04  0.50400001928E-02 0.  1.
</event>
<event>
 5   0  0.5021349E-04  0.1763714E+04  0.7818609E-02  0.8725838E-01
       -2   -1    0    0    0  501  0.00000000000E+00  0.00000000000E+00  0.42209769387E+03  0.42209769388E+03  0.25500000920E-02 0.  1.
        2   -1    0    0  501    0  0.00000000000E+00  0.00000000000E+00 -0.18423968525E+04  0.18423968525E+04  0.25500000920E-02 0. -1.
    10030    2    1    2    0    0  0.00000000000E+00  0.00000000000E+00 -0.14202991587E+04  0.22644945464E+04  0.17637136533E+04 0.  0.
        2    1    3    3  502    0 -0.15553700281E+03  0.33337816116E+03  0.31887381457E+03  0.48684008381E+03  0.25500000920E-02 0.  1.
       -2    1    3    3    0  502  0.15553700281E+03 -0.33337816116E+03 -0.17391729732E+04  0.17776544626E+04  0.25500000920E-02 0. -1.
</event>
<event>
 5   0  0.2630135E-04  0.1699474E+04  0.7818609E-02  0.8761664E-01
        1   -1    0    0  501    0  0.00000000000E+00  0.00000000000E+00  0.10098508101E+04  0.10098508101E+04  0.50400001928E-02 0.  1.
       -1   -1    0    0    0  501  0.00000000000E+00  0.00000000000E+00 -0.71500957923E+03  0.71500957925E+03  0.50400001928E-02 0. -1.
    10030    2    1    2    0    0  0.00000000000E+00  0.00000000000E+00  0.29484123083E+03  0.17248603893E+04  0.16994740396E+04 0.  0.
        1    1    3    3  502    0 -0.10800880671E+03  0.15432607505E+03 -0.69355228931E+03  0.71867740872E+03  0.50400001928E-02 0. -1.
       -1    1    3    3    0  502  0.10800880671E+03 -0.15432607505E+03  0.98839352015E+03  0.10061829806E+04  0.50400001928E-02 0.  1.
</event>
<event>
 5   0  0.2595644E-04  0.1699387E+04  0.7818609E-02  0.8761714E-01
       -1   -1    0    0    0  501  0.00000000000E+00  0.00000000000E+00  0.41167643994E+03  0.41167643997E+03  0.50400001928E-02 0. -1.
        1   -1    0    0  501    0  0.00000000000E+00  0.00000000000E+00 -0.17537537254E+04  0.17537537254E+04  0.50400001928E-02 0.  1.
    10030    2    1    2    0    0  0.00000000000E+00  0.00000000000E+00 -0.13420772855E+04  0.21654301654E+04  0.16993870545E+04 0.  0.
        2    1    3    3  502    0 -0.29744027794E+03 -0.55728782035E+03  0.53083610222E+02  0.63392294747E+03  0.25500000920E-02 0. -1.
       -2    1    3    3    0  502  0.29744027794E+03  0.55728782035E+03 -0.13951608957E+04  0.15315072179E+04  0.25500000920E-02 0.  1.
</event>
<event>
 5   0  0.2561518E-04  0.1703287E+04  0.7818609E-02  0.8759492E-01
        1   -1    0    0  501    0  0.00000000000E+00  0.00000000000E+00  0.88153001408E+03  0.88153001410E+03  0.50400001928E-02 0. -1.
       -1   -1    0    0    0  501  0.00000000000E+00  0.00000000000E+00 -0.82277003683E+03  0.82277003684E+03  0.50400001928E-02 0.  1.
    10030    2    1    2    0    0  0.00000000000E+00  0.00000000000E+00  0.58759977254E+02  0.17043000509E+04  0.17032868017E+04 0.  0.
        4    1    3    3  502    0 -0.78466815420E+03  0.11050560822E+03 -0.28286216069E+03  0.84138470185E+03  0.12699999809E+01 0.  1.
       -4    1    3    3    0  502  0.78466815420E+03 -0.11050560822E+03  0.34162213794E+03  0.86291534909E+03  0.12699999809E+01 0. -1.
</event>
<event>
 5   0  0.2785059E-04  0.1716541E+04  0.7818609E-02  0.8751986E-01
        1   -1    0    0  501    0  0.00000000000E+00  0.00000000000E+00  0.10629462138E+04  0.10629462138E+04  0.50400001928E-02 0.  1.
       -1   -1    0    0    0  501  0.00000000000E+00  0.00000000000E+00 -0.69300604134E+03  0.69300604136E+03  0.50400001928E-02 0. -1.
    10030    2    1    2    0    0  0.00000000000E+00  0.00000000000E+00  0.36994017241E+03  0.17559522551E+04  0.17165408795E+04 0.  0.
        5    1    3    3  502    0 -0.40313559978E+03 -0.74323115532E+03  0.34295385061E+02  0.84623231177E+03  0.46999998093E+01 0. -1.
       -5    1    3    3    0  502  0.40313559978E+03  0.74323115532E+03  0.33564478735E+03  0.90971994335E+03  0.46999998093E+01 0.  1.
</event>
<event>
 5   0  0.5299877E-04  0.1699695E+04  0.7818609E-02  0.8761538E-01
        2   -1    0    0  501    0  0.00000000000E+00  0.00000000000E+00  0.14466989268E+04  0.14466989268E+04  0.25500000920E-02 0. -1.
       -2   -1    0    0    0  501  0.00000000000E+00  0.00000000000E+00 -0.49923391492E+03  0.49923391492E+03  0.25500000920E-02 0.  1.
    10030    2    1    2    0    0  0.00000000000E+00  0.00000000000E+00  0.94746501186E+03  0.19459328417E+04  0.16996954656E+04 0.  0.
        3    1    3    3  502    0 -0.29235497957E+03  0.78640928986E+03  0.62873539128E+03  0.10484365540E+04  0.10100000352E+00 0. -1.
       -3    1    3    3    0  502  0.29235497957E+03 -0.78640928986E+03  0.31872962059E+03  0.89749628774E+03  0.10100000352E+00 0.  1.
</event>
<event>
 5   0  0.1910750E-04  0.1678849E+04  0.7818609E-02  0.8773521E-01
       -3   -1    0    0    0  501  0.00000000000E+00  0.00000000000E+00  0.13631863794E+04  0.13631863831E+04  0.10100000352E+00 0. -1.
        3   -1    0    0  501    0  0.00000000000E+00  0.00000000000E+00 -0.51690158327E+03  0.51690159314E+03  0.10100000352E+00 0.  1.
    10030    2    1    2    0    0  0.00000000000E+00  0.00000000000E+00  0.84628479612E+03  0.18800879763E+04  0.16788486657E+04 0.  0.
        3    1    3    3  502    0  0.30094562015E+03  0.14946045805E+03 -0.43830176723E+03  0.55228176158E+03  0.10100000352E+00 0.  1.
       -3    1    3    3    0  502 -0.30094562015E+03 -0.14946045805E+03  0.12845865634E+04  0.13278062147E+04  0.10100000352E+00 0. -1.
</event>
<event>
 5   0  0.5299877E-04  0.1662766E+04  0.7818609E-02  0.8782890E-01
        2   -1    0    0  501    0  0.00000000000E+00  0.00000000000E+00  0.12145200449E+04  0.12145200449E+04  0.25500000920E-02 0.  1.
       -2   -1    0    0    0  501  0.00000000000E+00  0.00000000000E+00 -0.56911203327E+03  0.56911203328E+03  0.25500000920E-02 0. -1.
    10030    2    1    2    0    0  0.00000000000E+00  0.00000000000E+00  0.64540801162E+03  0.17836320782E+04  0.16627663362E+04 0.  0.
        3    1    3    3  502    0 -0.70342888398E+03  0.42741305145E+03  0.19713126913E+03  0.84637749193E+03  0.10100000352E+00 0. -1.
       -3    1    3    3    0  502  0.70342888398E+03 -0.42741305145E+03  0.44827674249E+03  0.93725458624E+03  0.10100000352E+00 0.  1.
</event>
<event>
 5   0  0.2583422E-04  0.1726853E+04  0.7818609E-02  0.8746195E-01
        1   -1    0    0  501    0  0.00000000000E+00  0.00000000000E+00  0.96762996288E+03  0.96762996289E+03  0.50400001928E-02 0. -1.
       -1   -1    0    0    0  501  0.00000000000E+00  0.00000000000E+00 -0.77044502131E+03  0.77044502133E+03  0.50400001928E-02 0.  1.
    10030    2    1    2    0    0  0.00000000000E+00  0.00000000000E+00  0.19718494157E+03  0.17380749842E+04  0.17268534245E+04 0.  0.
        3    1    3    3  502    0 -0.25023451498E+03 -0.80594445852E+03 -0.85191727922E+02  0.84818713938E+03  0.10100000352E+00 0.  1.
       -3    1    3    3    0  502  0.25023451498E+03  0.80594445852E+03  0.28237666949E+03  0.88988784483E+03  0.10100000352E+00 0. -1.
</event>
<event>
 5   0  0.2561518E-04  0.1697689E+04  0.7818609E-02  0.8762684E-01
        1   -1    0    0  501    0  0.00000000000E+00  0.00000000000E+00  0.87625579293E+03  0.87625579295E+03  0.50400001928E-02 0. -1.
       -1   -1    0    0    0  501  0.00000000000E+00  0.00000000000E+00 -0.82229028893E+03  0.82229028895E+03  0.50400001928E-02 0.  1.
    10030    2    1    2    0    0  0.00000000000E+00  0.00000000000E+00  0.53965504000E+02  0.16985460819E+04  0.16976885806E+04 0.  0.
        4    1    3    3  502    0 -0.23036097345E+03  0.35105245301E+03  0.76507551966E+03  0.87272341926E+03  0.12699999809E+01 0. -1.
       -4    1    3    3    0  502  0.23036097345E+03 -0.35105245301E+03 -0.71111001566E+03  0.82582266263E+03  0.12699999809E+01 0.  1.
</event>
<event>
 5   0  0.2785059E-04  0.1683468E+04  0.7818609E-02  0.8770850E-01
        1   -1    0    0  501    0  0.00000000000E+00  0.00000000000E+00  0.10634884741E+04  0.10634884741E+04  0.50400001928E-02 0.  1.
       -1   -1    0    0    0  501  0.00000000000E+00  0.00000000000E+00 -0.66621856870E+03  0.66621856872E+03  0.50400001928E-02 0. -1.
    10030    2    1    2    0    0  0.00000000000E+00  0.00000000000E+00  0.39726990537E+03  0.17297070428E+04  0.16834675750E+04 0.  0.
        5    1    3    3  502    0  0.19399451423E+03 -0.56571825558E+03  0.80720646395E+03  0.10046269863E+04  0.46999998093E+01 0.  1.
       -5    1    3    3    0  502 -0.19399451423E+03  0.56571825558E+03 -0.40993655858E+03  0.72508005647E+03  0.46999998093E+01 0. -1.
</event>
<event>
 5   0  0.5198430E-04  0.1598892E+04  0.7818609E-02  0.8821229E-01
       -2   -1    0    0    0  501  0.00000000000E+00  0.00000000000E+00  0.50345017675E+03  0.50345017676E+03  0.25500000920E-02 0. -1.
        2   -1    0    0  501    0  0.00000000000E+00  0.00000000000E+00 -0.12694674549E+04  0.12694674549E+04  0.25500000920E-02 0.  1.
    10030    2    1    2    0    0  0.00000000000E+00  0.00000000000E+00 -0.76601727812E+03  0.17729176316E+04  0.15988916343E+04 0.  0.
        4    1    3    3  502    0  0.38130940794E+03 -0.54506965868E+03 -0.87468233414E+03  0.10988942606E+04  0.12699999809E+01 0.  1.
       -4    1    3    3    0  502 -0.38130940794E+03  0.54506965868E+03  0.10866505602E+03  0.67402337104E+03  0.12699999809E+01 0. -1.
</event>
<event>
 5   0  0.5198430E-04  0.1693321E+04  0.7818609E-02  0.8765183E-01
        2   -1    0    0  501    0  0.00000000000E+00  0.00000000000E+00  0.12339999573E+04  0.12339999573E+04  0.25500000920E-02 0.  1.
       -2   -1    0    0    0  501  0.00000000000E+00  0.00000000000E+00 -0.58090260620E+03  0.58090260621E+03  0.25500000920E-02 0. -1.
    10030    2    1    2    0    0  0.00000000000E+00  0.00000000000E+00  0.65309735109E+03  0.18149025635E+04  0.16933207508E+04 0.  0.
        4    1    3    3  502    0 -0.91921956391E+02 -0.15390819138E+03 -0.56032670405E+03  0.58830689747E+03  0.12699999809E+01 0. -1.
       -4    1    3    3    0  502  0.91921956391E+02  0.15390819138E+03  0.12134240551E+04  0.12265956660E+04  0.12699999809E+01 0.  1.
</event>
<event>
 5   0  0.5299877E-04  0.1692746E+04  0.7818609E-02  0.8765513E-01
        2   -1    0    0  501    0  0.00000000000E+00  0.00000000000E+00  0.11627679434E+04  0.11627679434E+04  0.25500000920E-02 0. -1.
       -2   -1    0    0    0  501  0.00000000000E+00  0.00000000000E+00 -0.61607036823E+03  0.61607036823E+03  0.25500000920E-02 0.  1.
    10030    2    1    2    0    0  0.00000000000E+00  0.00000000000E+00  0.54669757513E+03  0.17788383116E+04  0.16927455509E+04 0.  0.
        3    1    3    3  502    0 -0.49837518259E+02 -0.31280996473E+03  0.10981318553E+04  0.11429030729E+04  0.10100000352E+00 0. -1.
       -3    1    3    3    0  502  0.49837518259E+02  0.31280996473E+03 -0.55143428016E+03  0.63593523868E+03  0.10100000352E+00 0.  1.
</event>
<event>
 5   0  0.2630135E-04  0.1705573E+04  0.7818609E-02  0.8758192E-01
        1   -1    0    0  501    0  0.00000000000E+00  0.00000000000E+00  0.13492732753E+04  0.13492732753E+04  0.50400001928E-02 0. -1.
       -1   -1    0    0    0  501  0.00000000000E+00  0.00000000000E+00 -0.53898995168E+03  0.53898995170E+03  0.50400001928E-02 0.  1.
    10030    2    1    2    0    0  0.00000000000E+00  0.00000000000E+00  0.81028332362E+03  0.18882632270E+04  0.17055729096E+04 0.  0.
        1    1    3    3  502    0 -0.11051080735E+03 -0.37893331080E+03 -0.43176724500E+03  0.58500089440E+03  0.50400001928E-02 0.  1.
       -1    1    3    3    0  502  0.11051080735E+03  0.37893331080E+03  0.12420505686E+04  0.13032623326E+04  0.50400001928E-02 0. -1.
</event>
<event>
 5   0  0.5198430E-04  0.1646715E+04  0.7818609E-02  0.8792352E-01
        2   -1    0    0  501    0  0.00000000000E+00  0.00000000000E+00  0.15277654612E+04  0.15277654612E+04  0.25500000920E-02 0. -1.
       -2   -1    0    0    0  501  0.00000000000E+00  0.00000000000E+00 -0.44373157812E+03  0.44373157813E+03  0.25500000920E-02 0.  1.
    10030    2    1    2    0    0  0.00000000000E+00  0.00000000000E+00  0.10840338831E+04  0.19714970393E+04  0.16467152505E+04 0.  0.
        4    1    3    3  502    0 -0.67177352705E+03 -0.46492687889E+03  0.41945722905E+03  0.91835867408E+03  0.12699999809E+01 0.  1.
       -4    1    3    3    0  502  0.67177352705E+03  0.46492687889E+03  0.66457665400E+03  0.10531383652E+04  0.12699999809E+01 0. -1.
</event>
<event>
 5   0  0.2561518E-04  0.1674828E+04  0.7818609E-02  0.8775852E-01
       -1   -1    0    0    0  501  0.00000000000E+00  0.00000000000E+00  0.11497087516E+04  0.11497087516E+04  0.50400001928E-02 0. -1.
        1   -1    0    0  501    0  0.00000000000E+00  0.00000000000E+00 -0.60994773564E+03  0.60994773566E+03  0.50400001928E-02 0.  1.
    10030    2    1    2    0    0  0.00000000000E+00  0.00000000000E+00  0.53976101593E+03  0.17596564872E+04  0.16748280505E+04 0.  0.
        4    1    3    3  502    0  0.77752398283E+03  0.30348345230E+03  0.34125420767E+03  0.90172157391E+03  0.12699999809E+01 0. -1.
       -4    1    3    3    0  502 -0.77752398283E+03 -0.30348345230E+03  0.19850680826E+03  0.85793491334E+03  0.12699999809E+01 0.  1.
</event>
<event>
 5   0  0.5310003E-04  0.1751075E+04  0.7818609E-02  0.8732759E-01
        2   -1    0    0  501    0  0.00000000000E+00  0.00000000000E+00  0.97708032055E+03  0.97708032055E+03  0.25500000920E-02 0. -1.
       -2   -1    0    0    0  501  0.00000000000E+00  0.00000000000E+00 -0.78454787196E+03  0.78454787196E+03  0.25500000920E-02 0.  1.
    10030    2    1    2    0    0  0.00000000000E+00  0.00000000000E+00  0.19253244859E+03  0.17616281925E+04  0.17510754252E+04 0.  0.
        1    1    3    3  502    0 -0.26561726632E+03  0.82977341371E+03  0.92008340453E+01  0.87129851695E+03  0.50400001928E-02 0. -1.
       -1    1    3    3    0  502  0.26561726632E+03 -0.82977341371E+03  0.18333161454E+03  0.89032967556E+03  0.50400001928E-02 0.  1.
</event>
<event>
 5   0  0.5342255E-04  0.1580911E+04  0.7818609E-02  0.8832362E-01
       -2   -1    0    0    0  501  0.00000000000E+00  0.00000000000E+00  0.92302490158E+03  0.92302490158E+03  0.25500000920E-02 0.  1.
        2   -1    0    0  501    0  0.00000000000E+00  0.00000000000E+00 -0.67692659362E+03  0.67692659363E+03  0.25500000920E-02 0. -1.
    10030    2    1    2    0    0  0.00000000000E+00  0.00000000000E+00  0.24609830795E+03  0.15999514952E+04  0.15809112593E+04 0.  0.
        5    1    3    3  502    0 -0.28223168566E+03  0.17041271607E+03 -0.60400612029E+03  0.68814293684E+03  0.46999998093E+01 0. -1.
       -5    1    3    3    0  502  0.28223168566E+03 -0.17041271607E+03  0.85010442824E+03  0.91180855836E+03  0.46999998093E+01 0.  1.
</event>
<event>
 5   0  0.2561518E-04  0.1703010E+04  0.7818609E-02  0.8759649E-01
       -1   -1    0    0    0  501  0.00000000000E+00  0.00000000000E+00  0.84476188342E+03  0.84476188343E+03  0.50400001928E-02 0.  1.
        1   -1    0    0  501    0  0.00000000000E+00  0.00000000000E+00 -0.85830203634E+03  0.85830203636E+03  0.50400001928E-02 0. -1.
    10030    2    1    2    0    0  0.00000000000E+00  0.00000000000E+00 -0.13540152929E+02  0.17030639198E+04  0.17030100937E+04 0.  0.
        4    1    3    3  502    0  0.45713800305E+03  0.21650796207E+03  0.67823944238E+03  0.84608581455E+03  0.12699999809E+01 0.  1.
       -4    1    3    3    0  502 -0.45713800305E+03 -0.21650796207E+03 -0.69177959531E+03  0.85697810524E+03  0.12699999809E+01 0. -1.
</event>
<event>
 5   0  0.2630135E-04  0.1718450E+04  0.7818609E-02  0.8750911E-01
        1   -1    0    0  501    0  0.00000000000E+00  0.00000000000E+00  0.11700863071E+04  0.11700863071E+04  0.50400001928E-02 0.  1.
       -1   -1    0    0    0  501  0.00000000000E+00  0.00000000000E+00 -0.63095163954E+03  0.63095163956E+03  0.50400001928E-02 0. -1.
    10030    2    1    2    0    0  0.00000000000E+00  0.00000000000E+00  0.53913466759E+03  0.18010379467E+04  0.17184503181E+04 0.  0.
        1    1    3    3  502    0  0.47806294859E+02  0.76845929721E+03 -0.13014434409E+03  0.78086662345E+03  0.50400001928E-02 0.  1.
       -1    1    3    3    0  502 -0.47806294859E+02 -0.76845929721E+03  0.66927901169E+03  0.10201713233E+04  0.50400001928E-02 0. -1.
</event>
<event>
 5   0  0.2561518E-04  0.1705649E+04  0.7818609E-02  0.8758149E-01
       -1   -1    0    0    0  501  0.00000000000E+00  0.00000000000E+00  0.68581389232E+03  0.68581389234E+03  0.50400001928E-02 0. -1.
        1   -1    0    0  501    0  0.00000000000E+00  0.00000000000E+00 -0.10605055007E+04  0.10605055007E+04  0.50400001928E-02 0.  1.
    10030    2    1    2    0    0  0.00000000000E+00  0.00000000000E+00 -0.37469160836E+03  0.17463193930E+04  0.17056487391E+04 0.  0.
        4    1    3    3  502    0 -0.57940963558E+03  0.57753592486E+02  0.45061442985E+03  0.73627846671E+03  0.12699999809E+01 0. -1.
       -4    1    3    3    0  502  0.57940963558E+03 -0.57753592486E+02 -0.82530603821E+03  0.10100409263E+04  0.12699999809E+01 0.  1.
</event>
<event>
 5   0  0.5198430E-04  0.1761735E+04  0.7818609E-02  0.8726917E-01
        2   -1    0    0  501    0  0.00000000000E+00  0.00000000000E+00  0.17507147386E+04  0.17507147386E+04  0.25500000920E-02 0.  1.
       -2   -1    0    0    0  501  0.00000000000E+00  0.00000000000E+00 -0.44320603142E+03  0.44320603143E+03  0.25500000920E-02 0. -1.
    10030    2    1    2    0    0  0.00000000000E+00  0.00000000000E+00  0.13075087072E+04  0.21939207700E+04  0.17617347490E+04 0.  0.
        4    1    3    3  502    0 -0.14001873313E+03 -0.26632483332E+03 -0.37722458634E+03  0.48252892546E+03  0.12699999809E+01 0. -1.
       -4    1    3    3    0  502  0.14001873313E+03  0.26632483332E+03  0.16847332935E+04  0.17113918446E+04  0.12699999809E+01 0.  1.
</event>
<event>
 5   0  0.2630135E-04  0.1765908E+04  0.7818609E-02  0.8724643E-01
        1   -1    0    0  501    0  0.00000000000E+00  0.00000000000E+00  0.13211411065E+04  0.13211411066E+04  0.50400001928E-02 0. -1.
       -1   -1    0    0    0  501  0.00000000000E+00  0.00000000000E+00 -0.59010148469E+03  0.59010148471E+03  0.50400001928E-02 0.  1.
    10030    2    1    2    0    0  0.00000000000E+00  0.00000000000E+00  0.73103962186E+03  0.19112425913E+04  0.17659075044E+04 0.  0.
        1    1    3    3  502    0  0.43500380779E+03 -0.47039636557E+03 -0.29202230825E+03  0.70411510570E+03  0.50400001928E-02 0.  1.
       -1    1    3    3    0  502 -0.43500380779E+03  0.47039636557E+03  0.10230619301E+04  0.12071274856E+04  0.50400001928E-02 0. -1.
</event>
<event>
 5   0  0.5310003E-04  0.1741455E+04  0.7818609E-02  0.8738068E-01
       -2   -1    0    0    0  501  0.00000000000E+00  0.00000000000E+00  0.56019987801E+03  0.56019987802E+03  0.25500000920E-02 0.  1.
        2   -1    0    0  501    0  0.00000000000E+00  0.00000000000E+00 -0.13533854292E+04  0.13533854292E+04  0.25500000920E-02 0. -1.
    10030    2    1    2    0    0  0.00000000000E+00  0.00000000000E+00 -0.79318555116E+03  0.19135853072E+04  0.17414549691E+04 0.  0.
        1    1    3    3  502    0  0.86147978199E+03 -0.53840188021E+02 -0.52245787927E+03  0.10089640312E+04  0.50400001928E-02 0. -1.
       -1    1    3    3    0  502 -0.86147978199E+03  0.53840188021E+02 -0.27072767189E+03  0.90462127599E+03  0.50400001928E-02 0.  1.
</event>
<event>
 5   0  0.1910750E-04  0.1749604E+04  0.7818609E-02  0.8733568E-01
       -3   -1    0    0    0  501  0.00000000000E+00  0.00000000000E+00  0.69324004259E+03  0.69324004995E+03  0.10100000352E+00 0.  1.
        3   -1    0    0  501    0  0.00000000000E+00  0.00000000000E+00 -0.11039160830E+04  0.11039160876E+04  0.10100000352E+00 0. -1.
    10030    2    1    2    0    0  0.00000000000E+00  0.00000000000E+00 -0.41067604037E+03  0.17971561375E+04  0.17496043474E+04 0.  0.
        1    1    3    3  502    0 -0.84177436694E+02 -0.17179852828E+03  0.67148888975E+03  0.69821050139E+03  0.50400001928E-02 0.  1.
       -1    1    3    3    0  502  0.84177436694E+02  0.17179852828E+03 -0.10821649301E+04  0.10989456361E+04  0.50400001928E-02 0. -1.
</event>
<event>
 5   0  0.2785059E-04  0.1540916E+04  0.7818609E-02  0.8857691E-01
       -1   -1    0    0    0  501  0.00000000000E+00  0.00000000000E+00  0.59586468797E+03  0.59586468799E+03  0.50400001928E-02 0.  1.
        1   -1    0    0  501    0  0.00000000000E+00  0.00000000000E+00 -0.99620880153E+03  0.99620880154E+03  0.50400001928E-02 0. -1.
    10030    2    1    2    0    0  0.00000000000E+00  0.00000000000E+00 -0.40034411356E+03  0.15920734895E+04  0.15409161518E+04 0.  0.
        5    1    3    3  502    0  0.61774144729E+02  0.76325355866E+03 -0.11243209978E+03  0.77397358277E+03  0.46999998093E+01 0.  1.
       -5    1    3    3    0  502 -0.61774144729E+02 -0.76325355866E+03 -0.28791201378E+03  0.81809990676E+03  0.46999998093E+01 0. -1.
</event>
<event>
 5   0  0.5299877E-04  0.1678835E+04  0.7818609E-02  0.8773529E-01
       -2   -1    0    0    0  501  0.00000000000E+00  0.00000000000E+00  0.92625141748E+03  0.92625141748E+03  0.25500000920E-02 0. -1.
        2   -1    0    0  501    0  0.00000000000E+00  0.00000000000E+00 -0.76072369082E+03  0.76072369083E+03  0.25500000920E-02 0.  1.
    10030    2    1    2    0    0  0.00000000000E+00  0.00000000000E+00  0.16552772665E+03  0.16869751083E+04  0.16788345921E+04 0.  0.
        3    1    3    3  502    0  0.40268040916E+03 -0.92215010434E+02  0.81703706107E+03  0.91553519289E+03  0.10100000352E+00 0. -1.
       -3    1    3    3    0  502 -0.40268040916E+03  0.92215010434E+02 -0.65150933441E+03  0.77143991542E+03  0.10100000352E+00 0.  1.
</event>
<event>
 5   0  0.2630135E-04  0.1726043E+04  0.7818609E-02  0.8746649E-01
        1   -1    0    0  501    0  0.00000000000E+00  0.00000000000E+00  0.63418121250E+03  0.63418121252E+03  0.50400001928E-02 0. -1.
       -1   -1    0    0    0  501  0.00000000000E+00  0.00000000000E+00 -0.11744377629E+04  0.11744377630E+04  0.50400001928E-02 0.  1.
    10030    2    1    2    0    0  0.00000000000E+00  0.00000000000E+00 -0.54025655045E+03  0.18086189755E+04  0.17260432956E+04 0.  0.
        1    1    3    3  502    0  0.41334878666E+03  0.68880588068E+03  0.60391420116E+02  0.80557922289E+03  0.50400001928E-02 0. -1.
       -1    1    3    3    0  502 -0.41334878666E+03 -0.68880588068E+03 -0.60064797057E+03  0.10030397526E+04  0.50400001928E-02 0.  1.
</event>
<event>
 5   0  0.2785059E-04  0.1699400E+04  0.7818609E-02  0.8761707E-01
        1   -1    0    0  501    0  0.00000000000E+00  0.00000000000E+00  0.44135496742E+03  0.44135496745E+03  0.50400001928E-02 0.  1.
       -1   -1    0    0    0  501  0.00000000000E+00  0.00000000000E+00 -0.16358490054E+04  0.16358490054E+04  0.50400001928E-02 0. -1.
    10030    2    1    2    0    0  0.00000000000E+00  0.00000000000E+00 -0.11944940379E+04  0.20772039728E+04  0.16993999935E+04 0.  0.
        5    1    3    3  502    0 -0.80456837752E+03  0.13570879330E+03 -0.88706959487E+03  0.12052641648E+04  0.46999998093E+01 0. -1.
       -5    1    3    3    0  502  0.80456837752E+03 -0.13570879330E+03 -0.30742444307E+03  0.87193980807E+03  0.46999998093E+01 0.  1.
</event>
<event>
 5   0  0.1910750E-04  0.1838917E+04  0.7818609E-02  0.8685874E-01
        3   -1    0    0  501    0  0.00000000000E+00  0.00000000000E+00  0.56468880325E+03  0.56468881228E+03  0.10100000352E+00 0. -1.
       -3   -1    0    0    0  501  0.00000000000E+00  0.00000000000E+00 -0.14971141461E+04  0.14971141495E+04  0.10100000352E+00 0.  1.
    10030    2    1    2    0    0  0.00000000000E+00  0.00000000000E+00 -0.93242534289E+03  0.20618029618E+04  0.18389166466E+04 0.  0.
        5    1    3    3  502    0  0.13800194541E+03 -0.57753191768E+03  0.32086530677E+03  0.67495502662E+03  0.46999998093E+01 0. -1.
       -5    1    3    3    0  502 -0.13800194541E+03  0.57753191768E+03 -0.12532906497E+04  0.13868479352E+04  0.46999998093E+01 0.  1.
</event>
<event>
 5   0  0.5342255E-04  0.1712341E+04  0.7818609E-02  0.8754357E-01
       -2   -1    0    0    0  501  0.00000000000E+00  0.00000000000E+00  0.74131285917E+03  0.74131285917E+03  0.25500000920E-02 0. -1.
        2   -1    0    0  501    0  0.00000000000E+00  0.00000000000E+00 -0.98882374533E+03  0.98882374533E+03  0.25500000920E-02 0.  1.
    10030    2    1    2    0    0  0.00000000000E+00  0.00000000000E+00 -0.24751088616E+03  0.17301366045E+04  0.17123408047E+04 0.  0.
        5    1    3    3  502    0 -0.68158943873E+03 -0.70651468675E-01 -0.64725343127E+03  0.93995918117E+03  0.46999998093E+01 0.  1.
       -5    1    3    3    0  502  0.68158943873E+03  0.70651468675E-01  0.39974254511E+03  0.79017742333E+03  0.46999998093E+01 0. -1.
</event>
<event>
 5   0  0.2630135E-04  0.1685788E+04  0.7818609E-02  0.8769512E-01
       -1   -1    0    0    0  501  0.00000000000E+00  0.00000000000E+00  0.99206897812E+03  0.99206897813E+03  0.50400001928E-02 0. -1.
        1   -1    0    0  501    0  0.00000000000E+00  0.00000000000E+00 -0.71615011336E+03  0.71615011337E+03  0.50400001928E-02 0.  1.
    10030    2    1    2    0    0  0.00000000000E+00  0.00000000000E+00  0.27591886476E+03  0.17082190915E+04  0.16857880189E+04 0.  0.
        1    1    3    3  502    0 -0.77853285554E+03 -0.29931192297E+03  0.26110540764E+03  0.87400061117E+03  0.50400001928E-02 0. -1.
       -1    1    3    3    0  502  0.77853285554E+03  0.29931192297E+03  0.14813457118E+02  0.83421848034E+03  0.50400001928E-02 0.  1.
</event>
<event>
 5   0  0.2785059E-04  0.1696679E+04  0.7818609E-02  0.8763261E-01
       -1   -1    0    0    0  501  0.00000000000E+00  0.00000000000E+00  0.40162820655E+03  0.40162820658E+03  0.50400001928E-02 0. -1.
        1   -1    0    0  501    0  0.00000000000E+00  0.00000000000E+00 -0.17919058551E+04  0.17919058551E+04  0.50400001928E-02 0.  1.
    10030    2    1    2    0    0  0.00000000000E+00  0.00000000000E+00 -0.13902776485E+04  0.21935340617E+04  0.16966790326E+04 0.  0.
        5    1    3    3  502    0  0.37887365566E+03 -0.24448829176E+02 -0.16759218881E+04  0.17183943835E+04  0.46999998093E+01 0.  1.
       -5    1    3    3    0  502 -0.37887365566E+03  0.24448829176E+02  0.28564423955E+03  0.47513967819E+03  0.46999998093E+01 0. -1.
</event>
<event>
 5   0  0.2583422E-04  0.1690006E+04  0.7818609E-02  0.8767085E-01
        1   -1    0    0  501    0  0.00000000000E+00  0.00000000000E+00  0.22844781906E+04  0.22844781906E+04  0.50400001928E-02 0. -1.
       -1   -1    0    0    0  501  0.00000000000E+00  0.00000000000E+00 -0.31255735446E+03  0.31255735450E+03  0.50400001928E-02 0.  1.
    10030    2    1    2    0    0  0.00000000000E+00  0.00000000000E+00  0.19719208361E+04  0.25970355451E+04  0.16900064611E+04 0.  0.
        3    1    3    3  502    0 -0.16413597825E+03 -0.18857579628E+03  0.22263451280E+04  0.22403379409E+04  0.10100000352E+00 0. -1.
       -3    1    3    3    0  502  0.16413597825E+03  0.18857579628E+03 -0.25442429191E+03  0.35669760416E+03  0.10100000352E+00 0.  1.
</event>
<event>
 5   0  0.5198430E-04  0.1741462E+04  0.7818609E-02  0.8738064E-01
       -2   -1    0    0    0  501  0.00000000000E+00  0.00000000000E+00  0.61797305119E+03  0.61797305120E+03  0.25500000920E-02 0. -1.
        2   -1    0    0  501    0  0.00000000000E+00  0.00000000000E+00 -0.12268698290E+04  0.12268698290E+04  0.25500000920E-02 0.  1.
    10030    2    1    2    0    0  0.00000000000E+00  0.00000000000E+00 -0.60889677776E+03  0.18448428802E+04  0.17414620198E+04 0.  0.
        4    1    3    3  502    0 -0.33922802948E+03  0.23918482158E+03  0.50642281848E+03  0.65479059159E+03  0.12699999809E+01 0. -1.
       -4    1    3    3    0  502  0.33922802948E+03 -0.23918482158E+03 -0.11153195962E+04  0.11900522886E+04  0.12699999809E+01 0.  1.
</event>
<event>
 5   0  0.2595644E-04  0.1681323E+04  0.7818609E-02  0.8772089E-01
       -1   -1    0    0    0  501  0.00000000000E+00  0.00000000000E+00  0.65558617284E+03  0.65558617286E+03  0.50400001928E-02 0. -1.
        1   -1    0    0  501    0  0.00000000000E+00  0.00000000000E+00 -0.10779839755E+04  0.10779839755E+04  0.50400001928E-02 0.  1.
    10030    2    1    2    0    0  0.00000000000E+00  0.00000000000E+00 -0.42239780265E+03  0.17335701484E+04  0.16813225614E+04 0.  0.
        2    1    3    3  502    0 -0.54927697209E+00 -0.30738219802E+03  0.59556547806E+03  0.67021068033E+03  0.25500000920E-02 0. -1.
       -2    1    3    3    0  502  0.54927697209E+00  0.30738219802E+03 -0.10179632807E+04  0.10633594680E+04  0.25500000920E-02 0.  1.
</event>
<event>
 5   0  0.1910750E-04  0.1397835E+04  0.7818609E-02  0.8955388E-01
        3   -1    0    0  501    0  0.00000000000E+00  0.00000000000E+00  0.44001594275E+03  0.44001595434E+03  0.10100000352E+00 0. -1.
       -3   -1    0    0    0  501  0.00000000000E+00  0.00000000000E+00 -0.11101537047E+04  0.11101537093E+04  0.10100000352E+00 0.  1.
    10030    2    1    2    0    0  0.00000000000E+00  0.00000000000E+00 -0.67013776199E+03  0.15501696637E+04  0.13978345275E+04 0.  0.
        2    1    3    3  502    0 -0.14700962780E+03  0.63645537354E+03 -0.59385288071E+02  0.65590691841E+03  0.25500000920E-02 0. -1.
       -2    1    3    3    0  502  0.14700962780E+03 -0.63645537354E+03 -0.61075247392E+03  0.89426274527E+03  0.25500000920E-02 0.  1.
</event>
<event>
 5   0  0.5310003E-04  0.1703354E+04  0.7818609E-02  0.8759454E-01
       -2   -1    0    0    0  501  0.00000000000E+00  0.00000000000E+00  0.35432754473E+03  0.35432754473E+03  0.25500000920E-02 0.  1.
        2   -1    0    0  501    0  0.00000000000E+00  0.00000000000E+00 -0.20471284342E+04  0.20471284342E+04  0.25500000920E-02 0. -1.
    10030    2    1    2    0    0  0.00000000000E+00  0.00000000000E+00 -0.16928008895E+04  0.24014559790E+04  0.17033543282E+04 0.  0.
        1    1    3    3  502    0  0.51056424600E+03  0.67734182493E+03 -0.95456549198E+03  0.12769741875E+04  0.50400001928E-02 0.  1.
       -1    1    3    3    0  502 -0.51056424600E+03 -0.67734182493E+03 -0.73823539753E+03  0.11244817914E+04  0.50400001928E-02 0. -1.
</event>
<event>
 5   0  0.5198430E-04  0.1270095E+04  0.7818609E-02  0.9053622E-01
        2   -1    0    0  501    0  0.00000000000E+00  0.00000000000E+00  0.18192800163E+04  0.18192800163E+04  0.25500000920E-02 0. -1.
       -2   -1    0    0    0  501  0.00000000000E+00  0.00000000000E+00 -0.22167294953E+03  0.22167294954E+03  0.25500000920E-02 0.  1.
    10030    2    1    2    0    0  0.00000000000E+00  0.00000000000E+00  0.15976070668E+04  0.20409529659E+04  0.12700947480E+04 0.  0.
        4    1    3    3  502    0 -0.52234856988E+03 -0.11218052811E+03  0.24715354470E+03  0.58865863359E+03  0.12699999809E+01 0.  1.
       -4    1    3    3    0  502  0.52234856988E+03  0.11218052811E+03  0.13504535221E+04  0.14522943323E+04  0.12699999809E+01 0. -1.
</event>
<event>
 5   0  0.5198430E-04  0.1644324E+04  0.7818609E-02  0.8793771E-01
        2   -1    0    0  501    0  0.00000000000E+00  0.00000000000E+00  0.16641601818E+04  0.16641601818E+04  0.25500000920E-02 0. -1.
       -2   -1    0    0    0  501  0.00000000000E+00  0.00000000000E+00 -0.40618105337E+03  0.40618105337E+03  0.25500000920E-02 0.  1.
    10030    2    1    2    0    0  0.00000000000E+00  0.00000000000E+00  0.12579791284E+04  0.20703412351E+04  0.16443239773E+04 0.  0.
        4    1    3    3  502    0  0.22830550964E+03  0.18553756454E+03  0.15956190179E+04  0.16225132531E+04  0.12699999809E+01 0. -1.
       -4    1    3    3    0  502 -0.22830550964E+03 -0.18553756454E+03 -0.33763988947E+03  0.44782798198E+03  0.12699999809E+01 0.  1.
</event>
<event>
 5   0  0.5021349E-04  0.1680912E+04  0.7818609E-02  0.8772326E-01
       -2   -1    0    0    0  501  0.00000000000E+00  0.00000000000E+00  0.35157158009E+03  0.35157158010E+03  0.25500000920E-02 0. -1.
        2   -1    0    0  501    0  0.00000000000E+00  0.00000000000E+00 -0.20091683500E+04  0.20091683500E+04  0.25500000920E-02 0.  1.
    10030    2    1    2    0    0  0.00000000000E+00  0.00000000000E+00 -0.16575967699E+04  0.23607399301E+04  0.16809122422E+04 0.  0.
        2    1    3    3  502    0  0.66292620205E+03  0.42609181963E+03 -0.12390801662E+04  0.14684498788E+04  0.25500000920E-02 0.  1.
       -2    1    3    3    0  502 -0.66292620205E+03 -0.42609181963E+03 -0.41851660366E+03  0.89229005131E+03  0.25500000920E-02 0. -1.
</event>
<event>
 5   0  0.5299877E-04  0.1481635E+04  0.7818609E-02  0.8896758E-01
        2   -1    0    0  501    0  0.00000000000E+00  0.00000000000E+00  0.50629740677E+03  0.50629740677E+03  0.25500000920E-02 0. -1.
       -2   -1    0    0    0  501  0.00000000000E+00  0.00000000000E+00 -0.10839694293E+04  0.10839694293E+04  0.25500000920E-02 0.  1.
    10030    2    1    2    0    0  0.00000000000E+00  0.00000000000E+00 -0.57767202254E+03  0.15902668361E+04  0.14816354627E+04 0.  0.
        3    1    3    3  502    0  0.30552253329E+03 -0.63192661863E+02  0.43234586391E+03  0.53316065787E+03  0.10100000352E+00 0. -1.
       -3    1    3    3    0  502 -0.30552253329E+03  0.63192661863E+02 -0.10100178865E+04  0.10571061782E+04  0.10100000352E+00 0.  1.
</event>
<event>
 5   0  0.2583422E-04  0.1614595E+04  0.7818609E-02  0.8811632E-01
        1   -1    0    0  501    0  0.00000000000E+00  0.00000000000E+00  0.44091102312E+03  0.44091102315E+03  0.50400001928E-02 0. -1.
       -1   -1    0    0    0  501  0.00000000000E+00  0.00000000000E+00 -0.14781422697E+04  0.14781422697E+04  0.50400001928E-02 0.  1.
    10030    2    1    2    0    0  0.00000000000E+00  0.00000000000E+00 -0.10372312465E+04  0.19190532928E+04  0.16145949591E+04 0.  0.
        3    1    3    3  502    0  0.65314845887E+02  0.79808644129E+03 -0.64053040285E+03  0.10254205011E+04  0.10100000352E+00 0.  1.
       -3    1    3    3    0  502 -0.65314845887E+02 -0.79808644129E+03 -0.39670084369E+03  0.89363279173E+03  0.10100000352E+00 0. -1.
</event>
<event>
 5   0  0.2561518E-04  0.1674368E+04  0.7818609E-02  0.8776120E-01
       -1   -1    0    0    0  501  0.00000000000E+00  0.00000000000E+00  0.79286417567E+03  0.79286417568E+03  0.50400001928E-02 0. -1.
        1   -1    0    0  501    0  0.00000000000E+00  0.00000000000E+00 -0.88398150967E+03  0.88398150968E+03  0.50400001928E-02 0.  1.
    10030    2    1    2    0    0  0.00000000000E+00  0.00000000000E+00 -0.91117333999E+02  0.16768456854E+04  0.16743682641E+04 0.  0.
        4    1    3    3  502    0 -0.23787035520E+03 -0.79851034449E+03  0.36260329546E+02  0.83397691847E+03  0.12699999809E+01 0.  1.
       -4    1    3    3    0  502  0.23787035520E+03  0.79851034449E+03 -0.12737766354E+03  0.84286876690E+03  0.12699999809E+01 0. -1.
</event>
<event>
 5   0  0.5299877E-04  0.1649349E+04  0.7818609E-02  0.8790792E-01
        2   -1    0    0  501    0  0.00000000000E+00  0.00000000000E+00  0.95526925955E+03  0.95526925956E+03  0.25500000920E-02 0. -1.
       -2   -1    0    0    0  501  0.00000000000E+00  0.00000000000E+00 -0.71193343925E+03  0.71193343925E+03  0.25500000920E-02 0.  1.
    10030    2    1    2    0    0  0.00000000000E+00  0.00000000000E+00  0.24333582031E+03  0.16672026988E+04  0.16493491193E+04 0.  0.
        3    1    3    3  502    0  0.66663758723E+03 -0.47936814607E+03  0.19923595314E+03  0.84492275824E+03  0.10100000352E+00 0.  1.
       -3    1    3    3    0  502 -0.66663758723E+03  0.47936814607E+03  0.44099867168E+02  0.82227994057E+03  0.10100000352E+00 0. -1.
</event>
<event>
 5   0  0.5021349E-04  0.1571312E+04  0.7818609E-02  0.8838368E-01
        2   -1    0    0  501    0  0.00000000000E+00  0.00000000000E+00  0.99117443069E+03  0.99117443070E+03  0.25500000920E-02 0. -1.
       -2   -1    0    0    0  501  0.00000000000E+00  0.00000000000E+00 -0.62275184999E+03  0.62275185000E+03  0.25500000920E-02 0.  1.
    10030    2    1    2    0    0  0.00000000000E+00  0.00000000000E+00  0.36842258070E+03  0.16139262807E+04  0.15713124583E+04 0.  0.
        2    1    3    3  502    0  0.61087836013E+03  0.24238785146E+03  0.62638785752E+03  0.90790197129E+03  0.25500000920E-02 0. -1.
       -2    1    3    3    0  502 -0.61087836013E+03 -0.24238785146E+03 -0.25796527682E+03  0.70602430940E+03  0.25500000920E-02 0.  1.
</event>
<event>
 5   0  0.2630135E-04  0.1680542E+04  0.7818609E-02  0.8772541E-01
       -1   -1    0    0    0  501  0.00000000000E+00  0.00000000000E+00  0.76964683717E+03  0.76964683719E+03  0.50400001928E-02 0. -1.
        1   -1    0    0  501    0  0.00000000000E+00  0.00000000000E+00 -0.91737529182E+03  0.91737529183E+03  0.50400001928E-02 0.  1.
    10030    2    1    2    0    0  0.00000000000E+00  0.00000000000E+00 -0.14772845464E+03  0.16870221290E+04  0.16805415697E+04 0.  0.
        1    1    3    3  502    0  0.21976059605E+03  0.32725045320E+02  0.73962443444E+03  0.77227582651E+03  0.50400001928E-02 0. -1.
       -1    1    3    3    0  502 -0.21976059605E+03 -0.32725045320E+02 -0.88735288908E+03  0.91474630251E+03  0.50400001928E-02 0.  1.
</event>
<event>
 5   0  0.5310003E-04  0.1669936E+04  0.7818609E-02  0.8778699E-01
       -2   -1    0    0    0  501  0.00000000000E+00  0.00000000000E+00  0.46641488666E+03  0.46641488667E+03  0.25500000920E-02 0.  1.
        2   -1    0    0  501    0  0.00000000000E+00  0.00000000000E+00 -0.14947446564E+04  0.14947446564E+04  0.25500000920E-02 0. -1.
    10030    2    1    2    0    0  0.00000000000E+00  0.00000000000E+00 -0.10283297697E+04  0.19611595431E+04  0.16699355191E+04 0.  0.
        1    1    3    3  502    0 -0.55922342977E+03 -0.53669274711E+03 -0.14953314765E+03  0.78938590783E+03  0.50400001928E-02 0.  1.
       -1    1    3    3    0  502  0.55922342977E+03  0.53669274711E+03 -0.87879662208E+03  0.11717736352E+04  0.50400001928E-02 0. -1.
</event>
<event>
 5   0  0.2595644E-04  0.1770654E+04  0.7818609E-02  0.8722063E-01
       -1   -1    0    0    0  501  0.00000000000E+00  0.00000000000E+00  0.82964335963E+03  0.82964335964E+03  0.50400001928E-02 0. -1.
        1   -1    0    0  501    0  0.00000000000E+00  0.00000000000E+00 -0.94474816674E+03  0.94474816676E+03  0.50400001928E-02 0.  1.
    10030    2    1    2    0    0  0.00000000000E+00  0.00000000000E+00 -0.11510480711E+03  0.17743915264E+04  0.17706541651E+04 0.  0.
        2    1    3    3  502    0  0.27574582891E+03 -0.73882281231E+03  0.34567624755E+03  0.86103831406E+03  0.25500000920E-02 0. -1.
       -2    1    3    3    0  502 -0.27574582891E+03  0.73882281231E+03 -0.46078105466E+03  0.91335321234E+03  0.25500000920E-02 0.  1.
</event>
<event>
 5   0  0.5342255E-04  0.1679408E+04  0.7818609E-02  0.8773197E-01
       -2   -1    0    0    0  501  0.00000000000E+00  0.00000000000E+00  0.49853917025E+03  0.49853917026E+03  0.25500000920E-02 0.  1.
        2   -1    0    0  501    0  0.00000000000E+00  0.00000000000E+00 -0.14143380598E+04  0.14143380598E+04  0.25500000920E-02 0. -1.
    10030    2    1    2    0    0  0.00000000000E+00  0.00000000000E+00 -0.91579888954E+03  0.19128772301E+04  0.16794081372E+04 0.  0.
        5    1    3    3  502    0  0.33186882440E+03 -0.75291610549E+03 -0.26709680277E+03  0.86509096086E+03  0.46999998093E+01 0.  1.
       -5    1    3    3    0  502 -0.33186882440E+03  0.75291610549E+03 -0.64870208678E+03  0.10477862692E+04  0.46999998093E+01 0. -1.
</event>
<event>
 5   0  0.2595644E-04  0.1692241E+04  0.7818609E-02  0.8765802E-01
        1   -1    0    0  501    0  0.00000000000E+00  0.00000000000E+00  0.42782018703E+03  0.42782018706E+03  0.50400001928E-02 0. -1.
       -1   -1    0    0    0  501  0.00000000000E+00  0.00000000000E+00 -0.16734122197E+04  0.16734122197E+04  0.50400001928E-02 0.  1.
    10030    2    1    2    0    0  0.00000000000E+00  0.00000000000E+00 -0.12455920326E+04  0.21012324067E+04  0.16922405607E+04 0.  0.
        2    1    3    3  502    0 -0.40208365214E+03  0.68573105817E+03 -0.98271634909E+03  0.12639738012E+04  0.25500000920E-02 0.  1.
       -2    1    3    3    0  502  0.40208365214E+03 -0.68573105817E+03 -0.26287568354E+03  0.83725860548E+03  0.25500000920E-02 0. -1.
</event>
<event>
 5   0  0.2583422E-04  0.1693813E+04  0.7818609E-02  0.8764901E-01
       -1   -1    0    0    0  501  0.00000000000E+00  0.00000000000E+00  0.91831900127E+03  0.91831900128E+03  0.50400001928E-02 0.  1.
        1   -1    0    0  501    0  0.00000000000E+00  0.00000000000E+00 -0.78104733504E+03  0.78104733505E+03  0.50400001928E-02 0. -1.
    10030    2    1    2    0    0  0.00000000000E+00  0.00000000000E+00  0.13727166623E+03  0.16993663363E+04  0.16938129869E+04 0.  0.
        3    1    3    3  502    0  0.21756163139E+03  0.58769824286E+03  0.64017743376E+03  0.89585124044E+03  0.10100000352E+00 0.  1.
       -3    1    3    3    0  502 -0.21756163139E+03 -0.58769824286E+03 -0.50290576753E+03  0.80351509589E+03  0.10100000352E+00 0. -1.
</event>
<event>
 5   0  0.2785059E-04  0.1706526E+04  0.7818609E-02  0.8757651E-01
        1   -1    0    0  501    0  0.00000000000E+00  0.00000000000E+00  0.15977356237E+04  0.15977356237E+04  0.50400001928E-02 0.  1.
       -1   -1    0    0    0  501  0.00000000000E+00  0.00000000000E+00 -0.45568107029E+03  0.45568107031E+03  0.50400001928E-02 0. -1.
    10030    2    1    2    0    0  0.00000000000E+00  0.00000000000E+00  0.11420545534E+04  0.20534166940E+04  0.17065261546E+04 0.  0.
        5    1    3    3  502    0  0.14888667422E+03  0.62058616829E+03  0.12524892391E+04  0.14057189684E+04  0.46999998093E+01 0.  1.
       -5    1    3    3    0  502 -0.14888667422E+03 -0.62058616829E+03 -0.11043468566E+03  0.64769772566E+03  0.46999998093E+01 0. -1.
</event>
<event>
 5   0  0.5310003E-04  0.1676670E+04  0.7818609E-02  0.8774783E-01
        2   -1    0    0  501    0  0.00000000000E+00  0.00000000000E+00  0.93021273414E+03  0.93021273414E+03  0.25500000920E-02 0.  1.
       -2   -1    0    0    0  501  0.00000000000E+00  0.00000000000E+00 -0.75553250431E+03  0.75553250432E+03  0.25500000920E-02 0. -1.
    10030    2    1    2    0    0  0.00000000000E+00  0.00000000000E+00  0.17468022982E+03  0.16857452385E+04  0.16766704585E+04 0.  0.
        1    1    3    3  502    0  0.37695690858E+03  0.18065936692E+03 -0.64327836162E+03  0.76716449888E+03  0.50400001928E-02 0. -1.
       -1    1    3    3    0  502 -0.37695690858E+03 -0.18065936692E+03  0.81795859144E+03  0.91858073958E+03  0.50400001928E-02 0.  1.
</event>
<event>
 5   0  0.2583422E-04  0.1665287E+04  0.7818609E-02  0.8781414E-01
       -1   -1    0    0    0  501  0.00000000000E+00  0.00000000000E+00  0.54230777613E+03  0.54230777616E+03  0.50400001928E-02 0.  1.
        1   -1    0    0  501    0  0.00000000000E+00  0.00000000000E+00 -0.12784164808E+04  0.12784164808E+04  0.50400001928E-02 0. -1.
    10030    2    1    2    0    0  0.00000000000E+00  0.00000000000E+00 -0.73610870468E+03  0.18207242570E+04  0.16652870008E+04 0.  0.
        3    1    3    3  502    0  0.73189894567E+02  0.74197530222E+02  0.53514817712E+03  0.54520236228E+03  0.10100000352E+00 0.  1.
       -3    1    3    3    0  502 -0.73189894567E+02 -0.74197530222E+02 -0.12712568818E+04  0.12755218947E+04  0.10100000352E+00 0. -1.
</event>
<event>
 5   0  0.5021349E-04  0.1713744E+04  0.7818609E-02  0.8753564E-01
        2   -1    0    0  501    0  0.00000000000E+00  0.00000000000E+00  0.70887169516E+03  0.70887169516E+03  0.25500000920E-02 0.  1.
       -2   -1    0    0    0  501  0.00000000000E+00  0.00000000000E+00 -0.10357720649E+04  0.10357720649E+04  0.25500000920E-02 0. -1.
    10030    2    1    2    0    0  0.00000000000E+00  0.00000000000E+00 -0.32690036970E+03  0.17446437600E+04  0.17137438542E+04 0.  0.
        2    1    3    3  502    0  0.19455479278E+03 -0.21557819276E+03  0.65725173186E+03  0.71854391907E+03  0.25500000920E-02 0.  1.
       -2    1    3    3    0  502 -0.19455479278E+03  0.21557819276E+03 -0.98415210156E+03  0.10260998410E+04  0.25500000920E-02 0. -1.
</event>
<event>
 5   0  0.2561518E-04  0.1687036E+04  0.7818609E-02  0.8768793E-01
       -1   -1    0    0    0  501  0.00000000000E+00  0.00000000000E+00  0.90329847083E+03  0.90329847084E+03  0.50400001928E-02 0.  1.
        1   -1    0    0  501    0  0.00000000000E+00  0.00000000000E+00 -0.78769389985E+03  0.78769389987E+03  0.50400001928E-02 0. -1.
    10030    2    1    2    0    0  0.00000000000E+00  0.00000000000E+00  0.11560457098E+03  0.16909923707E+04  0.16870360936E+04 0.  0.
        4    1    3    3  502    0  0.16146521998E+03  0.36092411685E+03  0.80465623994E+03  0.89655480187E+03  0.12699999809E+01 0.  1.
       -4    1    3    3    0  502 -0.16146521998E+03 -0.36092411685E+03 -0.68905166896E+03  0.79443756884E+03  0.12699999809E+01 0. -1.
</event>
<event>
 5   0  0.2785059E-04  0.1742191E+04  0.7818609E-02  0.8737660E-01
        1   -1    0    0  501    0  0.00000000000E+00  0.00000000000E+00  0.15926510471E+04  0.15926510471E+04  0.50400001928E-02 0.  1.
       -1   -1    0    0    0  501  0.00000000000E+00  0.00000000000E+00 -0.47644301489E+03  0.47644301492E+03  0.50400001928E-02 0. -1.
    10030    2    1    2    0    0  0.00000000000E+00  0.00000000000E+00  0.11162080322E+04  0.20690940620E+04  0.17421911108E+04 0.  0.
        5    1    3    3  502    0  0.13373321914E+02 -0.58222986452E+03  0.13274291118E+04  0.14495725569E+04  0.46999998093E+01 0.  1.
       -5    1    3    3    0  502 -0.13373321914E+02  0.58222986452E+03 -0.21122107957E+03  0.61952150514E+03  0.46999998093E+01 0. -1.
</event>
<event>
 5   0  0.5342255E-04  0.1706000E+04  0.7818609E-02  0.8757950E-01
        2   -1    0    0  501    0  0.00000000000E+00  0.00000000000E+00  0.99528915331E+03  0.99528915331E+03  0.25500000920E-02 0. -1.
       -2   -1    0    0    0  501  0.00000000000E+00  0.00000000000E+00 -0.73105270071E+03  0.73105270071E+03  0.25500000920E-02 0.  1.
    10030    2    1    2    0    0  0.00000000000E+00  0.00000000000E+00  0.26423645260E+03  0.17263418540E+04  0.17059997931E+04 0.  0.
        5    1    3    3  502    0  0.66929339193E+03  0.17755879041E+03 -0.37192342833E+03  0.78602156145E+03  0.46999998093E+01 0.  1.
       -5    1    3    3    0  502 -0.66929339193E+03 -0.17755879041E+03  0.63615988092E+03  0.94032029257E+03  0.46999998093E+01 0. -1.
</event>
<event>
 5   0  0.2785059E-04  0.1634717E+04  0.7818609E-02  0.8799500E-01
       -1   -1    0    0    0  501  0.00000000000E+00  0.00000000000E+00  0.69493695623E+03  0.69493695625E+03  0.50400001928E-02 0.  1.
        1   -1    0    0  501    0  0.00000000000E+00  0.00000000000E+00 -0.96134566832E+03  0.96134566833E+03  0.50400001928E-02 0. -1.
    10030    2    1    2    0    0  0.00000000000E+00  0.00000000000E+00 -0.26640871209E+03  0.16562826246E+04  0.16347166515E+04 0.  0.
        5    1    3    3  502    0 -0.17049216081E+03 -0.87530413803E+02  0.67183646053E+03  0.69865261034E+03  0.46999998093E+01 0.  1.
       -5    1    3    3    0  502  0.17049216081E+03  0.87530413803E+02 -0.93824517262E+03  0.95763001424E+03  0.46999998093E+01 0. -1.
</event>
<event>
 5   0  0.2595644E-04  0.1715674E+04  0.7818609E-02  0.8752475E-01
       -1   -1    0    0    0  501  0.00000000000E+00  0.00000000000E+00  0.36501759529E+03  0.36501759533E+03  0.50400001928E-02 0.  1.
        1   -1    0    0  501    0  0.00000000000E+00  0.00000000000E+00 -0.20160232456E+04  0.20160232456E+04  0.50400001928E-02 0. -1.
    10030    2    1    2    0    0  0.00000000000E+00  0.00000000000E+00 -0.16510056503E+04  0.23810408409E+04  0.17156735787E+04 0.  0.
        2    1    3    3  502    0  0.17861339417E+03  0.38858774344E+03  0.20651500158E+03  0.47492275668E+03  0.25500000920E-02 0.  1.
       -2    1    3    3    0  502 -0.17861339417E+03 -0.38858774344E+03 -0.18575206519E+04  0.19061180842E+04  0.25500000920E-02 0. -1.
</event>
<event>
 5   0  0.5310003E-04  0.1719141E+04  0.7818609E-02  0.8750522E-01
        2   -1    0    0  501    0  0.00000000000E+00  0.00000000000E+00  0.10350615868E+04  0.10350615868E+04  0.25500000920E-02 0.  1.
       -2   -1    0    0    0  501  0.00000000000E+00  0.00000000000E+00 -0.71383312684E+03  0.71383312685E+03  0.25500000920E-02 0. -1.
    10030    2    1    2    0    0  0.00000000000E+00  0.00000000000E+00  0.32122845997E+03  0.17488947137E+04  0.17191407726E+04 0.  0.
        1    1    3    3  502    0  0.15293678462E+02  0.31656495487E+03 -0.65222268597E+03  0.72514943245E+03  0.50400001928E-02 0. -1.
       -1    1    3    3    0  502 -0.15293678462E+02 -0.31656495487E+03  0.97345114594E+03  0.10237452812E+04  0.50400001928E-02 0.  1.
</event>
<event>
 5   0  0.2561518E-04  0.1738986E+04  0.7818609E-02  0.8739437E-01
        1   -1    0    0  501    0  0.00000000000E+00  0.00000000000E+00  0.16362541253E+04  0.16362541253E+04  0.50400001928E-02 0.  1.
       -1   -1    0    0    0  501  0.00000000000E+00  0.00000000000E+00 -0.46204171323E+03  0.46204171325E+03  0.50400001928E-02 0. -1.
    10030    2    1    2    0    0  0.00000000000E+00  0.00000000000E+00  0.11742124120E+04  0.20982958385E+04  0.17389855196E+04 0.  0.
        4    1    3    3  502    0 -0.48564921581E+03 -0.35914246664E+03  0.13417773220E+04  0.14714640556E+04  0.12699999809E+01 0.  1.
       -4    1    3    3    0  502  0.48564921581E+03  0.35914246664E+03 -0.16756490995E+03  0.62683178294E+03  0.12699999809E+01 0. -1.
</event>
<event>
 5   0  0.5310003E-04  0.1322722E+04  0.7818609E-02  0.9011738E-01
        2   -1    0    0  501    0  0.00000000000E+00  0.00000000000E+00  0.12897142937E+04  0.12897142937E+04  0.25500000920E-02 0. -1.
       -2   -1    0    0    0  501  0.00000000000E+00  0.00000000000E+00 -0.33914386199E+03  0.33914386200E+03  0.25500000920E-02 0.  1.
    10030    2    1    2    0    0  0.00000000000E+00  0.00000000000E+00  0.95057043172E+03  0.16288581557E+04  0.13227224750E+04 0.  0.
        1    1    3    3  502    0 -0.40237592508E+03  0.13010156996E+03  0.11014665879E+04  0.11798565370E+04  0.50400001928E-02 0. -1.
       -1    1    3    3    0  502  0.40237592508E+03 -0.13010156996E+03 -0.15089615622E+03  0.44900161868E+03  0.50400001928E-02 0.  1.
</event>
<event>
 5   0  0.5310003E-04  0.1678336E+04  0.7818609E-02  0.8773817E-01
       -2   -1    0    0    0  501  0.00000000000E+00  0.00000000000E+00  0.87564061378E+03  0.87564061379E+03  0.25500000920E-02 0.  1.
        2   -1    0    0  501    0  0.00000000000E+00  0.00000000000E+00 -0.80421453636E+03  0.80421453636E+03  0.25500000920E-02 0. -1.
    10030    2    1    2    0    0  0.00000000000E+00  0.00000000000E+00  0.71426077424E+02  0.16798551501E+04  0.16783359738E+04 0.  0.
        1    1    3    3  502    0 -0.61604342726E+03 -0.23165772579E+03 -0.48536179097E+03  0.81777189628E+03  0.50400001928E-02 0. -1.
       -1    1    3    3    0  502  0.61604342726E+03  0.23165772579E+03  0.55678786839E+03  0.86208325387E+03  0.50400001928E-02 0.  1.
</event>
<event>
 5   0  0.2561518E-04  0.1692154E+04  0.7818609E-02  0.8765852E-01
       -1   -1    0    0    0  501  0.00000000000E+00  0.00000000000E+00  0.59092311970E+03  0.59092311973E+03  0.50400001928E-02 0.  1.
        1   -1    0    0  501    0  0.00000000000E+00  0.00000000000E+00 -0.12114033183E+04  0.12114033183E+04  0.50400001928E-02 0. -1.
    10030    2    1    2    0    0  0.00000000000E+00  0.00000000000E+00 -0.62048019855E+03  0.18023264380E+04  0.16921539269E+04 0.  0.
        4    1    3    3  502    0 -0.79972246397E+03 -0.27620389230E+03 -0.31015990508E+03  0.90113561084E+03  0.12699999809E+01 0. -1.
       -4    1    3    3    0  502  0.79972246397E+03  0.27620389230E+03 -0.31032029347E+03  0.90119082715E+03  0.12699999809E+01 0.  1.
</event>
<event>
 5   0  0.2583422E-04  0.1675285E+04  0.7818609E-02  0.8775587E-01
       -1   -1    0    0    0  501  0.00000000000E+00  0.00000000000E+00  0.57640619941E+03  0.57640619943E+03  0.50400001928E-02 0.  1.
        1   -1    0    0  501    0  0.00000000000E+00  0.00000000000E+00 -0.12172757295E+04  0.12172757295E+04  0.50400001928E-02 0. -1.
    10030    2    1    2    0    0  0.00000000000E+00  0.00000000000E+00 -0.64086953012E+03  0.17936819290E+04  0.16752853810E+04 0.  0.
        3    1    3    3  502    0 -0.63049735258E+03 -0.55135899701E+03 -0.33224188512E+03  0.90105956276E+03  0.10100000352E+00 0.  1.
       -3    1    3    3    0  502  0.63049735258E+03  0.55135899701E+03 -0.30862764500E+03  0.89262236621E+03  0.10100000352E+00 0. -1.
</event>
<event>
 5   0  0.5198430E-04  0.1729749E+04  0.7818609E-02  0.8744577E-01
       -2   -1    0    0    0  501  0.00000000000E+00  0.00000000000E+00  0.61132452143E+03  0.61132452144E+03  0.25500000920E-02 0.  1.
        2   -1    0    0  501    0  0.00000000000E+00  0.00000000000E+00 -0.12235850033E+04  0.12235850033E+04  0.25500000920E-02 0. -1.
    10030    2    1    2    0    0  0.00000000000E+00  0.00000000000E+00 -0.61226048190E+03  0.18349095248E+04  0.17297485558E+04 0.  0.
        4    1    3    3  502    0  0.90123636767E+02 -0.37189930034E+03 -0.11288963681E+04  0.11919899254E+04  0.12699999809E+01 0. -1.
       -4    1    3    3    0  502 -0.90123636767E+02  0.37189930034E+03  0.51663588617E+03  0.64291959939E+03  0.12699999809E+01 0.  1.
</event>
<event>
 5   0  0.2561518E-04  0.1697557E+04  0.7818609E-02  0.8762759E-01
        1   -1    0    0  501    0  0.00000000000E+00  0.00000000000E+00  0.51209933636E+03  0.51209933638E+03  0.50400001928E-02 0. -1.
       -1   -1    0    0    0  501  0.00000000000E+00  0.00000000000E+00 -0.14068073983E+04  0.14068073983E+04  0.50400001928E-02 0.  1.
    10030    2    1    2    0    0  0.00000000000E+00  0.00000000000E+00 -0.89470806197E+03  0.19189067347E+04  0.16975572274E+04 0.  0.
        4    1    3    3  502    0  0.55156535540E+03 -0.64202164414E+03 -0.51891236398E+03  0.99281810379E+03  0.12699999809E+01 0.  1.
       -4    1    3    3    0  502 -0.55156535540E+03  0.64202164414E+03 -0.37579569799E+03  0.92608863093E+03  0.12699999809E+01 0. -1.
</event>
<event>
 5   0  0.2630135E-04  0.1688693E+04  0.7818609E-02  0.8767840E-01
       -1   -1    0    0    0  501  0.00000000000E+00  0.00000000000E+00  0.70406985895E+03  0.70406985896E+03  0.50400001928E-02 0. -1.
        1   -1    0    0  501    0  0.00000000000E+00  0.00000000000E+00 -0.10125713175E+04  0.10125713175E+04  0.50400001928E-02 0.  1.
    10030    2    1    2    0    0  0.00000000000E+00  0.00000000000E+00 -0.30850145858E+03  0.17166411765E+04  0.16886929203E+04 0.  0.
        1    1    3    3  502    0  0.44747974346E+02 -0.50322427942E+03  0.53346927157E+03  0.73472887540E+03  0.50400001928E-02 0. -1.
       -1    1    3    3    0  502 -0.44747974346E+02  0.50322427942E+03 -0.84197073015E+03  0.98191230110E+03  0.50400001928E-02 0.  1.
</event>
<event>
 5   0  0.2785059E-04  0.1694743E+04  0.7818609E-02  0.8764368E-01
        1   -1    0    0  501    0  0.00000000000E+00  0.00000000000E+00  0.17722064644E+04  0.17722064644E+04  0.50400001928E-02 0. -1.
       -1   -1    0    0    0  501  0.00000000000E+00  0.00000000000E+00 -0.40516626036E+03  0.40516626039E+03  0.50400001928E-02 0.  1.
    10030    2    1    2    0    0  0.00000000000E+00  0.00000000000E+00  0.13670402041E+04  0.21773727248E+04  0.16947427720E+04 0.  0.
        5    1    3    3  502    0  0.45616386142E+03 -0.36101293805E+03 -0.10805531648E+03  0.59170419242E+03  0.46999998093E+01 0.  1.
       -5    1    3    3    0  502 -0.45616386142E+03  0.36101293805E+03  0.14750955206E+04  0.15856685324E+04  0.46999998093E+01 0. -1.
</event>
<event>
 5   0  0.5198430E-04  0.1698813E+04  0.7818609E-02  0.8762042E-01
       -2   -1    0    0    0  501  0.00000000000E+00  0.00000000000E+00  0.41004169017E+03  0.41004169018E+03  0.25500000920E-02 0. -1.
        2   -1    0    0  501    0  0.00000000000E+00  0.00000000000E+00 -0.17595561395E+04  0.17595561395E+04  0.25500000920E-02 0.  1.
    10030    2    1    2    0    0  0.00000000000E+00  0.00000000000E+00 -0.13495144493E+04  0.21695978297E+04  0.16988129660E+04 0.  0.
        4    1    3    3  502    0  0.23347751939E+03  0.54757314192E+03  0.99081583520E+02  0.60346240223E+03  0.12699999809E+01 0. -1.
       -4    1    3    3    0  502 -0.23347751939E+03 -0.54757314192E+03 -0.14485960329E+04  0.15661354275E+04  0.12699999809E+01 0.  1.
</event>
<event>
 5   0  0.5021349E-04  0.1747327E+04  0.7818609E-02  0.8734823E-01
        2   -1    0    0  501    0  0.00000000000E+00  0.00000000000E+00  0.14587485277E+04  0.14587485277E+04  0.25500000920E-02 0.  1.
       -2   -1    0    0    0  501  0.00000000000E+00  0.00000000000E+00 -0.52324825007E+03  0.52324825007E+03  0.25500000920E-02 0. -1.
    10030    2    1    2    0    0  0.00000000000E+00  0.00000000000E+00  0.93550027765E+03  0.19819967778E+04  0.17473266603E+04 0.  0.
        2    1    3    3  502    0 -0.67828197669E+03  0.54766219281E+03  0.53278531450E+03  0.10216949196E+04  0.25500000920E-02 0. -1.
       -2    1    3    3    0  502  0.67828197669E+03 -0.54766219281E+03  0.40271496315E+03  0.96030185822E+03  0.25500000920E-02 0.  1.
</event>
<event>
 5   0  0.2785059E-04  0.1617555E+04  0.7818609E-02  0.8809836E-01
        1   -1    0    0  501    0  0.00000000000E+00  0.00000000000E+00  0.91869148318E+03  0.91869148319E+03  0.50400001928E-02 0.  1.
       -1   -1    0    0    0  501  0.00000000000E+00  0.00000000000E+00 -0.71201340710E+03  0.71201340711E+03  0.50400001928E-02 0. -1.
    10030    2    1    2    0    0  0.00000000000E+00  0.00000000000E+00  0.20667807608E+03  0.16307048903E+04  0.16175545160E+04 0.  0.
        5    1    3    3  502    0  0.78923507454E+03  0.34842557858E+02 -0.71252499072E+02  0.79322444198E+03  0.46999998093E+01 0. -1.
       -5    1    3    3    0  502 -0.78923507454E+03 -0.34842557858E+02  0.27793057515E+03  0.83748044833E+03  0.46999998093E+01 0.  1.
</event>
<event>
 5   0  0.2630135E-04  0.1690695E+04  0.7818609E-02  0.8766689E-01
       -1   -1    0    0    0  501  0.00000000000E+00  0.00000000000E+00  0.13919971097E+04  0.13919971097E+04  0.50400001928E-02 0. -1.
        1   -1    0    0  501    0  0.00000000000E+00  0.00000000000E+00 -0.51337193661E+03  0.51337193663E+03  0.50400001928E-02 0.  1.
    10030    2    1    2    0    0  0.00000000000E+00  0.00000000000E+00  0.87862517304E+03  0.19053690463E+04  0.16906948299E+04 0.  0.
        1    1    3    3  502    0 -0.15422676667E+03  0.25434614803E+03 -0.45244674189E+03  0.54146644665E+03  0.50400001928E-02 0.  1.
       -1    1    3    3    0  502  0.15422676667E+03 -0.25434614803E+03  0.13310719149E+04  0.13639025996E+04  0.50400001928E-02 0. -1.
</event>
<event>
 5   0  0.5299877E-04  0.1691561E+04  0.7818609E-02  0.8766192E-01
        2   -1    0    0  501    0  0.00000000000E+00  0.00000000000E+00  0.16512304161E+04  0.16512304161E+04  0.25500000920E-02 0. -1.
       -2   -1    0    0    0  501  0.00000000000E+00  0.00000000000E+00 -0.43321898016E+03  0.43321898017E+03  0.25500000920E-02 0.  1.
    10030    2    1    2    0    0  0.00000000000E+00  0.00000000000E+00  0.12180114359E+04  0.20844493962E+04  0.16915606485E+04 0.  0.
        3    1    3    3  502    0  0.67875874510E+03 -0.14943927869E+03  0.15086634859E+02  0.69517850140E+03  0.10100000352E+00 0.  1.
       -3    1    3    3    0  502 -0.67875874510E+03  0.14943927869E+03  0.12029248011E+04  0.13892708948E+04  0.10100000352E+00 0. -1.
</event>
<event>
 5   0  0.5198430E-04  0.1522556E+04  0.7818609E-02  0.8869591E-01
       -2   -1    0    0    0  501  0.00000000000E+00  0.00000000000E+00  0.81589156730E+03  0.81589156731E+03  0.25500000920E-02 0.  1.
        2   -1    0    0  501    0  0.00000000000E+00  0.00000000000E+00 -0.71031999595E+03  0.71031999595E+03  0.25500000920E-02 0. -1.
    10030    2    1    2    0    0  0.00000000000E+00  0.00000000000E+00  0.10557157136E+03  0.15262115633E+04  0.15225558706E+04 0.  0.
        4    1    3    3  502    0 -0.29842135121E+03  0.15526493732E+03  0.73734567759E+03  0.81045836709E+03  0.12699999809E+01 0.  1.
       -4    1    3    3    0  502  0.29842135121E+03 -0.15526493732E+03 -0.63177410624E+03  0.71575319617E+03  0.12699999809E+01 0. -1.
</event>
<event>
 5   0  0.5198430E-04  0.1709340E+04  0.7818609E-02  0.8756055E-01
        2   -1    0    0  501    0  0.00000000000E+00  0.00000000000E+00  0.16959831629E+04  0.16959831629E+04  0.25500000920E-02 0. -1.
       -2   -1    0    0    0  501  0.00000000000E+00  0.00000000000E+00 -0.43070060168E+03  0.43070060168E+03  0.25500000920E-02 0.  1.
    10030    2    1    2    0    0  0.00000000000E+00  0.00000000000E+00  0.12652825612E+04  0.21266837646E+04  0.17093401870E+04 0.  0.
        4    1    3    3  502    0 -0.76897987753E+03 -0.45346491093E+02  0.10932693198E+04  0.13373951454E+04  0.12699999809E+01 0. -1.
       -4    1    3    3    0  502  0.76897987753E+03  0.45346491093E+02  0.17201324139E+03  0.78928861921E+03  0.12699999809E+01 0.  1.
</event>
<event>
 5   0  0.2583422E-04  0.1429404E+04  0.7818609E-02  0.8932805E-01
       -1   -1    0    0    0  501  0.00000000000E+00  0.00000000000E+00  0.43174856389E+03  0.43174856392E+03  0.50400001928E-02 0.  1.
        1   -1    0    0  501    0  0.00000000000E+00  0.00000000000E+00 -0.11830929961E+04  0.11830929961E+04  0.50400001928E-02 0. -1.
    10030    2    1    2    0    0  0.00000000000E+00  0.00000000000E+00 -0.75134443220E+03  0.16148415600E+04  0.14294036547E+04 0.  0.
        3    1    3    3  502    0 -0.50271067615E+03  0.47747618827E+03 -0.57166395707E+03  0.89861071900E+03  0.10100000352E+00 0. -1.
       -3    1    3    3    0  502  0.50271067615E+03 -0.47747618827E+03 -0.17968047513E+03  0.71623084102E+03  0.10100000352E+00 0.  1.
</event>
<event>
 5   0  0.2583422E-04  0.1692146E+04  0.7818609E-02  0.8765857E-01
        1   -1    0    0  501    0  0.00000000000E+00  0.00000000000E+00  0.18463329023E+04  0.18463329023E+04  0.50400001928E-02 0. -1.
       -1   -1    0    0    0  501  0.00000000000E+00  0.00000000000E+00 -0.38770865322E+03  0.38770865325E+03  0.50400001928E-02 0.  1.
    10030    2    1    2    0    0  0.00000000000E+00  0.00000000000E+00  0.14586242491E+04  0.22340415555E+04  0.16921456710E+04 0.  0.
        3    1    3    3  502    0 -0.37394911970E+03 -0.74273227439E+03  0.52329491848E+03  0.98251043631E+03  0.10100000352E+00 0.  1.
       -3    1    3    3    0  502  0.37394911970E+03  0.74273227439E+03  0.93532933057E+03  0.12515311192E+04  0.10100000352E+00 0. -1.
</event>
<event>
 5   0  0.2630135E-04  0.1690593E+04  0.7818609E-02  0.8766748E-01
       -1   -1    0    0    0  501  0.00000000000E+00  0.00000000000E+00  0.94391867735E+03  0.94391867737E+03  0.50400001928E-02 0. -1.
        1   -1    0    0  501    0  0.00000000000E+00  0.00000000000E+00 -0.75697852491E+03  0.75697852493E+03  0.50400001928E-02 0.  1.
    10030    2    1    2    0    0  0.00000000000E+00  0.00000000000E+00  0.18694015244E+03  0.17008972023E+04  0.16905929942E+04 0.  0.
        1    1    3    3  502    0  0.46212696176E+02  0.40380022561E+03  0.83915953802E+03  0.93240493659E+03  0.50400001928E-02 0. -1.
       -1    1    3    3    0  502 -0.46212696176E+02 -0.40380022561E+03 -0.65221938558E+03  0.76849226571E+03  0.50400001928E-02 0.  1.
</event>
<event>
 5   0  0.2595644E-04  0.1710479E+04  0.7818609E-02  0.8755410E-01
        1   -1    0    0  501    0  0.00000000000E+00  0.00000000000E+00  0.11211287043E+04  0.11211287043E+04  0.50400001928E-02 0.  1.
       -1   -1    0    0    0  501  0.00000000000E+00  0.00000000000E+00 -0.65240887215E+03  0.65240887217E+03  0.50400001928E-02 0. -1.
    10030    2    1    2    0    0  0.00000000000E+00  0.00000000000E+00  0.46871983218E+03  0.17735375765E+04  0.17104786623E+04 0.  0.
        2    1    3    3  502    0 -0.18169616815E+03 -0.59066561116E+03  0.84737059246E+03  0.10487784717E+04  0.25500000920E-02 0.  1.
       -2    1    3    3    0  502  0.18169616815E+03  0.59066561116E+03 -0.37865076028E+03  0.72475910481E+03  0.25500000920E-02 0. -1.
</event>
<event>
 5   0  0.5299877E-04  0.1731651E+04  0.7818609E-02  0.8743516E-01
       -2   -1    0    0    0  501  0.00000000000E+00  0.00000000000E+00  0.11114038070E+04  0.11114038070E+04  0.25500000920E-02 0.  1.
        2   -1    0    0  501    0  0.00000000000E+00  0.00000000000E+00 -0.67451066182E+03  0.67451066183E+03  0.25500000920E-02 0. -1.
    10030    2    1    2    0    0  0.00000000000E+00  0.00000000000E+00  0.43689314515E+03  0.17859144688E+04  0.17316509087E+04 0.  0.
        3    1    3    3  502    0 -0.31120970308E+02 -0.57678923939E+03  0.88363800186E+03  0.10556848346E+04  0.10100000352E+00 0.  1.
       -3    1    3    3    0  502  0.31120970308E+02  0.57678923939E+03 -0.44674485671E+03  0.73022963420E+03  0.10100000352E+00 0. -1.
</event>
<event>
 5   0  0.5299877E-04  0.1660488E+04  0.7818609E-02  0.8784226E-01
       -2   -1    0    0    0  501  0.00000000000E+00  0.00000000000E+00  0.29753543230E+03  0.29753543231E+03  0.25500000920E-02 0.  1.
        2   -1    0    0  501    0  0.00000000000E+00  0.00000000000E+00 -0.23167167749E+04  0.23167167749E+04  0.25500000920E-02 0. -1.
    10030    2    1    2    0    0  0.00000000000E+00  0.00000000000E+00 -0.20191813426E+04  0.26142522072E+04  0.16604882741E+04 0.  0.
        3    1    3    3  502    0  0.13018560616E+03 -0.77775575433E+03 -0.60069516081E+03  0.99130570051E+03  0.10100000352E+00 0.  1.
       -3    1    3    3    0  502 -0.13018560616E+03  0.77775575433E+03 -0.14184861817E+04  0.16229465067E+04  0.10100000352E+00 0. -1.
</event>
<event>
 5   0  0.2583422E-04  0.1674775E+04  0.7818609E-02  0.8775884E-01
        1   -1    0    0  501    0  0.00000000000E+00  0.00000000000E+00  0.65597775456E+03  0.65597775458E+03  0.50400001928E-02 0. -1.
       -1   -1    0    0    0  501  0.00000000000E+00  0.00000000000E+00 -0.10689654037E+04  0.10689654037E+04  0.50400001928E-02 0.  1.
    10030    2    1    2    0    0  0.00000000000E+00  0.00000000000E+00 -0.41298764917E+03  0.17249431583E+04  0.16747746419E+04 0.  0.
        3    1    3    3  502    0 -0.19328385367E+03 -0.47035433713E+03 -0.89172435990E+03  0.10265301724E+04  0.10100000352E+00 0.  1.
       -3    1    3    3    0  502  0.19328385367E+03  0.47035433713E+03  0.47873671072E+03  0.69841298595E+03  0.10100000352E+00 0. -1.
</event>
<event>
 5   0  0.5021349E-04  0.1700153E+04  0.7818609E-02  0.8761277E-01
       -2   -1    0    0    0  501  0.00000000000E+00  0.00000000000E+00  0.65197701933E+03  0.65197701933E+03  0.25500000920E-02 0. -1.
        2   -1    0    0  501    0  0.00000000000E+00  0.00000000000E+00 -0.11083679098E+04  0.11083679098E+04  0.25500000920E-02 0.  1.
    10030    2    1    2    0    0  0.00000000000E+00  0.00000000000E+00 -0.45639089045E+03  0.17603449291E+04  0.17001534121E+04 0.  0.
        2    1    3    3  502    0 -0.74884075668E+03 -0.29683752934E+03 -0.50938980053E+03  0.95307553036E+03  0.25500000920E-02 0.  1.
       -2    1    3    3    0  502  0.74884075668E+03  0.29683752934E+03  0.52998910074E+02  0.80726939875E+03  0.25500000920E-02 0. -1.
</event>
<event>
 5   0  0.5310003E-04  0.1807145E+04  0.7818609E-02  0.8702509E-01
        2   -1    0    0  501    0  0.00000000000E+00  0.00000000000E+00  0.14868894116E+04  0.14868894116E+04  0.25500000920E-02 0. -1.
       -2   -1    0    0    0  501  0.00000000000E+00  0.00000000000E+00 -0.54909490489E+03  0.54909490490E+03  0.25500000920E-02 0.  1.
    10030    2    1    2    0    0  0.00000000000E+00  0.00000000000E+00  0.93779450674E+03  0.20359843165E+04  0.18071451520E+04 0.  0.
        1    1    3    3  502    0  0.65883349029E+03  0.52485908216E+03  0.83726359856E+03  0.11876653390E+04  0.50400001928E-02 0. -1.
       -1    1    3    3    0  502 -0.65883349029E+03 -0.52485908216E+03  0.10053090817E+03  0.84831897749E+03  0.50400001928E-02 0.  1.
</event>
<event>
 5   0  0.5198430E-04  0.1687406E+04  0.7818609E-02  0.8768580E-01
        2   -1    0    0  501    0  0.00000000000E+00  0.00000000000E+00  0.18168071565E+04  0.18168071565E+04  0.25500000920E-02 0. -1.
       -2   -1    0    0    0  501  0.00000000000E+00  0.00000000000E+00 -0.39180538814E+03  0.39180538815E+03  0.25500000920E-02 0.  1.
    10030    2    1    2    0    0  0.00000000000E+00  0.00000000000E+00  0.14250017684E+04  0.22086125446E+04  0.16874060959E+04 0.  0.
        4    1    3    3  502    0 -0.10801522101E+03  0.32914588512E+03  0.17194279438E+04  0.17539778700E+04  0.12699999809E+01 0. -1.
       -4    1    3    3    0  502  0.10801522101E+03 -0.32914588512E+03 -0.29442617546E+03  0.45463467461E+03  0.12699999809E+01 0.  1.
</event>
<event>
 5   0  0.2785059E-04  0.1589297E+04  0.7818609E-02  0.8827150E-01
        1   -1    0    0  501    0  0.00000000000E+00  0.00000000000E+00  0.83692984757E+03  0.83692984759E+03  0.50400001928E-02 0. -1.
       -1   -1    0    0    0  501  0.00000000000E+00  0.00000000000E+00 -0.75450319507E+03  0.75450319508E+03  0.50400001928E-02 0.  1.
    10030    2    1    2    0    0  0.00000000000E+00  0.00000000000E+00  0.82426652505E+02  0.15914330427E+04  0.15892970069E+04 0.  0.
        5    1    3    3  502    0 -0.72141385956E+03  0.18948370476E+03  0.31562931529E+03  0.80992961781E+03  0.46999998093E+01 0.  1.
       -5    1    3    3    0  502  0.72141385956E+03 -0.18948370476E+03 -0.23320266279E+03  0.78150342486E+03  0.46999998093E+01 0. -1.
</event>
<event>
 5   0  0.5310003E-04  0.1699664E+04  0.7818609E-02  0.8761556E-01
        2   -1    0    0  501    0  0.00000000000E+00  0.00000000000E+00  0.20447432936E+04  0.20447432936E+04  0.25500000920E-02 0. -1.
       -2   -1    0    0    0  501  0.00000000000E+00  0.00000000000E+00 -0.35320524712E+03  0.35320524713E+03  0.25500000920E-02 0.  1.
    10030    2    1    2    0    0  0.00000000000E+00  0.00000000000E+00  0.16915380464E+04  0.23979485407E+04  0.16996635671E+04 0.  0.
        1    1    3    3  502    0 -0.20569873399E+03  0.80683778634E+03  0.60586497669E+03  0.10297434402E+04  0.50400001928E-02 0.  1.
       -1    1    3    3    0  502  0.20569873399E+03 -0.80683778634E+03  0.10856730698E+04  0.13682051005E+04  0.50400001928E-02 0. -1.
</event>
<event>
 5   0  0.5299877E-04  0.1701741E+04  0.7818609E-02  0.8760372E-01
        2   -1    0    0  501    0  0.00000000000E+00  0.00000000000E+00  0.13313349133E+04  0.13313349133E+04  0.25500000920E-02 0. -1.
       -2   -1    0    0    0  501  0.00000000000E+00  0.00000000000E+00 -0.54380077932E+03  0.54380077932E+03  0.25500000920E-02 0.  1.
    10030    2    1    2    0    0  0.00000000000E+00  0.00000000000E+00  0.78753413403E+03  0.18751356927E+04  0.17017414180E+04 0.  0.
        3    1    3    3  502    0 -0.17426939219E+03  0.44909119674E+03  0.11666078006E+04  0.12621515339E+04  0.10100000352E+00 0. -1.
       -3    1    3    3    0  502  0.17426939219E+03 -0.44909119674E+03 -0.37907366652E+03  0.61298415876E+03  0.10100000352E+00 0.  1.
</event>
<event>
 5   0  0.2561518E-04  0.1695956E+04  0.7818609E-02  0.8763674E-01
        1   -1    0    0  501    0  0.00000000000E+00  0.00000000000E+00  0.19393452650E+04  0.19393452650E+04  0.50400001928E-02 0. -1.
       -1   -1    0    0    0  501  0.00000000000E+00  0.00000000000E+00 -0.37077822318E+03  0.37077822321E+03  0.50400001928E-02 0.  1.
    10030    2    1    2    0    0  0.00000000000E+00  0.00000000000E+00  0.15685670419E+04  0.23101234883E+04  0.16959563574E+04 0.  0.
        4    1    3    3  502    0 -0.73694127283E+03  0.86775897668E+01  0.21298529847E+03  0.76715193438E+03  0.12699999809E+01 0.  1.
       -4    1    3    3    0  502  0.73694127283E+03 -0.86775897668E+01  0.13555817434E+04  0.15429715539E+04  0.12699999809E+01 0. -1.
</event>
<event>
 5   0  0.5342255E-04  0.1683713E+04  0.7818609E-02  0.8770708E-01
        2   -1    0    0  501    0  0.00000000000E+00  0.00000000000E+00  0.23743809214E+04  0.23743809214E+04  0.25500000920E-02 0.  1.
       -2   -1    0    0    0  501  0.00000000000E+00  0.00000000000E+00 -0.29848739644E+03  0.29848739645E+03  0.25500000920E-02 0. -1.
    10030    2    1    2    0    0  0.00000000000E+00  0.00000000000E+00  0.20758935250E+04  0.26728683179E+04  0.16837134904E+04 0.  0.
        5    1    3    3  502    0  0.36936762089E+03  0.12187073806E+03 -0.14727331169E+03  0.41592840068E+03  0.46999998093E+01 0. -1.
       -5    1    3    3    0  502 -0.36936762089E+03 -0.12187073806E+03  0.22231668367E+04  0.22569399172E+04  0.46999998093E+01 0.  1.
</event>
<event>
 5   0  0.5021349E-04  0.1725379E+04  0.7818609E-02  0.8747021E-01
       -2   -1    0    0    0  501  0.00000000000E+00  0.00000000000E+00  0.53603140995E+03  0.53603140996E+03  0.25500000920E-02 0.  1.
        2   -1    0    0  501    0  0.00000000000E+00  0.00000000000E+00 -0.13884130116E+04  0.13884130116E+04  0.25500000920E-02 0. -1.
    10030    2    1    2    0    0  0.00000000000E+00  0.00000000000E+00 -0.85238160160E+03  0.19244444215E+04  0.17253787807E+04 0.  0.
        2    1    3    3  502    0 -0.17004403582E+03  0.83032471190E+03 -0.24676136853E+03  0.88274870394E+03  0.25500000920E-02 0.  1.
       -2    1    3    3    0  502  0.17004403582E+03 -0.83032471190E+03 -0.60562023306E+03  0.10416957176E+04  0.25500000920E-02 0. -1.
</event>
<event>
 5   0  0.5021349E-04  0.1721105E+04  0.7818609E-02  0.8749418E-01
        2   -1    0    0  501    0  0.00000000000E+00  0.00000000000E+00  0.11641362796E+04  0.11641362796E+04  0.25500000920E-02 0.  1.
       -2   -1    0    0    0  501  0.00000000000E+00  0.00000000000E+00 -0.63613701805E+03  0.63613701806E+03  0.25500000920E-02 0. -1.
    10030    2    1    2    0    0  0.00000000000E+00  0.00000000000E+00  0.52799926154E+03  0.18002732976E+04  0.17211045076E+04 0.  0.
        2    1    3    3  502    0 -0.61996106349E+03 -0.58224363011E+03  0.40114446365E+03  0.94035963640E+03  0.25500000920E-02 0.  1.
       -2    1    3    3    0  502  0.61996106349E+03  0.58224363011E+03  0.12685479789E+03  0.85991366125E+03  0.25500000920E-02 0. -1.
</event>
<event>
 5   0  0.2583422E-04  0.1706947E+04  0.7818609E-02  0.8757412E-01
       -1   -1    0    0    0  501  0.00000000000E+00  0.00000000000E+00  0.29650379164E+03  0.29650379168E+03  0.50400001928E-02 0.  1.
        1   -1    0    0  501    0  0.00000000000E+00  0.00000000000E+00 -0.24566881932E+04  0.24566881932E+04  0.50400001928E-02 0. -1.
    10030    2    1    2    0    0  0.00000000000E+00  0.00000000000E+00 -0.21601844016E+04  0.27531919849E+04  0.17069474090E+04 0.  0.
        3    1    3    3  502    0 -0.66472500449E+01  0.77753414265E+03 -0.16476380168E+04  0.18218986178E+04  0.10100000352E+00 0.  1.
       -3    1    3    3    0  502  0.66472500449E+01 -0.77753414265E+03 -0.51254638482E+03  0.93129336715E+03  0.10100000352E+00 0. -1.
</event>
<event>
 5   0  0.2595644E-04  0.1726833E+04  0.7818609E-02  0.8746207E-01
        1   -1    0    0  501    0  0.00000000000E+00  0.00000000000E+00  0.80370257041E+03  0.80370257043E+03  0.50400001928E-02 0.  1.
       -1   -1    0    0    0  501  0.00000000000E+00  0.00000000000E+00 -0.92756678992E+03  0.92756678993E+03  0.50400001928E-02 0. -1.
    10030    2    1    2    0    0  0.00000000000E+00  0.00000000000E+00 -0.12386421950E+03  0.17312693604E+04  0.17268327230E+04 0.  0.
        2    1    3    3  502    0 -0.68169514870E+03  0.52127224224E+03 -0.15733323407E+03  0.87246018410E+03  0.25500000920E-02 0. -1.
       -2    1    3    3    0  502  0.68169514870E+03 -0.52127224224E+03  0.33469014562E+02  0.85880917626E+03  0.25500000920E-02 0.  1.
</event>
<event>
 5   0  0.5310003E-04  0.1705246E+04  0.7818609E-02  0.8758378E-01
       -2   -1    0    0    0  501  0.00000000000E+00  0.00000000000E+00  0.59339054726E+03  0.59339054727E+03  0.25500000920E-02 0. -1.
        2   -1    0    0  501    0  0.00000000000E+00  0.00000000000E+00 -0.12251057744E+04  0.12251057744E+04  0.25500000920E-02 0.  1.
    10030    2    1    2    0    0  0.00000000000E+00  0.00000000000E+00 -0.63171522714E+03  0.18184963217E+04  0.17052462414E+04 0.  0.
        1    1    3    3  502    0 -0.13605563243E+03  0.65921018411E+03 -0.87396651723E+03  0.11031258655E+04  0.50400001928E-02 0.  1.
       -1    1    3    3    0  502  0.13605563243E+03 -0.65921018411E+03  0.24225129009E+03  0.71537045614E+03  0.50400001928E-02 0. -1.
</event>
<event>
 5   0  0.2595644E-04  0.1233933E+04  0.7818609E-02  0.9083663E-01
       -1   -1    0    0    0  501  0.00000000000E+00  0.00000000000E+00  0.71450699943E+03  0.71450699945E+03  0.50400001928E-02 0.  1.
        1   -1    0    0  501    0  0.00000000000E+00  0.00000000000E+00 -0.53274189414E+03  0.53274189417E+03  0.50400001928E-02 0. -1.
    10030    2    1    2    0    0  0.00000000000E+00  0.00000000000E+00  0.18176510529E+03  0.12472488936E+04  0.12339332434E+04 0.  0.
        2    1    3    3  502    0 -0.30779262779E+03  0.43248380140E+03  0.40871053507E+03  0.66994241669E+03  0.25500000920E-02 0.  1.
       -2    1    3    3    0  502  0.30779262779E+03 -0.43248380140E+03 -0.22694542979E+03  0.57730647693E+03  0.25500000920E-02 0. -1.
</event>
<event>
 5   0  0.2785059E-04  0.1710152E+04  0.7818609E-02  0.8755595E-01
        1   -1    0    0  501    0  0.00000000000E+00  0.00000000000E+00  0.16735795332E+04  0.16735795332E+04  0.50400001928E-02 0. -1.
       -1   -1    0    0    0  501  0.00000000000E+00  0.00000000000E+00 -0.43688107064E+03  0.43688107067E+03  0.50400001928E-02 0.  1.
    10030    2    1    2    0    0  0.00000000000E+00  0.00000000000E+00  0.12366984625E+04  0.21104606038E+04  0.17101522953E+04 0.  0.
        5    1    3    3  502    0  0.61364744651E+02 -0.45178799002E+03 -0.27433774847E+03  0.53212903515E+03  0.46999998093E+01 0.  1.
       -5    1    3    3    0  502 -0.61364744651E+02  0.45178799002E+03  0.15110362110E+04  0.15783315687E+04  0.46999998093E+01 0. -1.
</event>
<event>
 5   0  0.5342255E-04  0.1647875E+04  0.7818609E-02  0.8791665E-01
       -2   -1    0    0    0  501  0.00000000000E+00  0.00000000000E+00  0.38159352614E+03  0.38159352615E+03  0.25500000920E-02 0. -1.
        2   -1    0    0  501    0  0.00000000000E+00  0.00000000000E+00 -0.17790471945E+04  0.17790471945E+04  0.25500000920E-02 0.  1.
    10030    2    1    2    0    0  0.00000000000E+00  0.00000000000E+00 -0.13974536684E+04  0.21606407206E+04  0.16478748643E+04 0.  0.
        5    1    3    3  502    0  0.50110254746E+03  0.61148220566E+03 -0.10029532655E+04  0.12770871519E+04  0.46999998093E+01 0.  1.
       -5    1    3    3    0  502 -0.50110254746E+03 -0.61148220566E+03 -0.39450040287E+03  0.88355356870E+03  0.46999998093E+01 0. -1.
</event>
<event>
 5   0  0.2595644E-04  0.1690716E+04  0.7818609E-02  0.8766677E-01
        1   -1    0    0  501    0  0.00000000000E+00  0.00000000000E+00  0.12146361056E+04  0.12146361056E+04  0.50400001928E-02 0.  1.
       -1   -1    0    0    0  501  0.00000000000E+00  0.00000000000E+00 -0.58834946787E+03  0.58834946789E+03  0.50400001928E-02 0. -1.
    10030    2    1    2    0    0  0.00000000000E+00  0.00000000000E+00  0.62628663771E+03  0.18029855735E+04  0.16907164238E+04 0.  0.
        2    1    3    3  502    0 -0.69951917997E+02 -0.83817148829E+03  0.40366702682E+03  0.93293718071E+03  0.25500000920E-02 0.  1.
       -2    1    3    3    0  502  0.69951917997E+02  0.83817148829E+03  0.22261961088E+03  0.87004839277E+03  0.25500000920E-02 0. -1.
</event>
<event>
 5   0  0.2583422E-04  0.1697513E+04  0.7818609E-02  0.8762784E-01
        1   -1    0    0  501    0  0.00000000000E+00  0.00000000000E+00  0.13449704152E+04  0.13449704152E+04  0.50400001928E-02 0.  1.
       -1   -1    0    0    0  501  0.00000000000E+00  0.00000000000E+00 -0.53561585157E+03  0.53561585160E+03  0.50400001928E-02 0. -1.
    10030    2    1    2    0    0  0.00000000000E+00  0.00000000000E+00  0.80935456365E+03  0.18805862668E+04  0.16975128563E+04 0.  0.
        3    1    3    3  502    0  0.57488875949E+03 -0.55351838915E+03  0.84534558857E+02  0.80251217733E+03  0.10100000352E+00 0. -1.
       -3    1    3    3    0  502 -0.57488875949E+03  0.55351838915E+03  0.72482000480E+03  0.10780740895E+04  0.10100000352E+00 0.  1.
</event>
<event>
 5   0  0.2583422E-04  0.1702269E+04  0.7818609E-02  0.8760072E-01
        1   -1    0    0  501    0  0.00000000000E+00  0.00000000000E+00  0.18074807001E+04  0.18074807001E+04  0.50400001928E-02 0. -1.
       -1   -1    0    0    0  501  0.00000000000E+00  0.00000000000E+00 -0.40079522828E+03  0.40079522831E+03  0.50400001928E-02 0.  1.
    10030    2    1    2    0    0  0.00000000000E+00  0.00000000000E+00  0.14066854718E+04  0.22082759284E+04  0.17022686508E+04 0.  0.
        3    1    3    3  502    0  0.38924823230E+03 -0.36824076919E+03 -0.15452832281E+03  0.55766877553E+03  0.10100000352E+00 0.  1.
       -3    1    3    3    0  502 -0.38924823230E+03  0.36824076919E+03  0.15612137946E+04  0.16506071529E+04  0.10100000352E+00 0. -1.
</event>
<event>
 5   0  0.5021349E-04  0.1698768E+04  0.7818609E-02  0.8762067E-01
       -2   -1    0    0    0  501  0.00000000000E+00  0.00000000000E+00  0.10098206254E+04  0.10098206254E+04  0.25500000920E-02 0. -1.
        2   -1    0    0  501    0  0.00000000000E+00  0.00000000000E+00 -0.71443672651E+03  0.71443672651E+03  0.25500000920E-02 0.  1.
    10030    2    1    2    0    0  0.00000000000E+00  0.00000000000E+00  0.29538389891E+03  0.17242573519E+04  0.16987677204E+04 0.  0.
        2    1    3    3  502    0  0.53743648617E+03  0.48436770498E+03  0.59934386117E+03  0.93950152433E+03  0.25500000920E-02 0. -1.
       -2    1    3    3    0  502 -0.53743648617E+03 -0.48436770498E+03 -0.30395996226E+03  0.78475582760E+03  0.25500000920E-02 0.  1.
</event>
<event>
 5   0  0.5310003E-04  0.1665170E+04  0.7818609E-02  0.8781482E-01
       -2   -1    0    0    0  501  0.00000000000E+00  0.00000000000E+00  0.41274432470E+03  0.41274432471E+03  0.25500000920E-02 0.  1.
        2   -1    0    0  501    0  0.00000000000E+00  0.00000000000E+00 -0.16794851995E+04  0.16794851995E+04  0.25500000920E-02 0. -1.
    10030    2    1    2    0    0  0.00000000000E+00  0.00000000000E+00 -0.12667408748E+04  0.20922295242E+04  0.16651702430E+04 0.  0.
        1    1    3    3  502    0 -0.80726294801E+03 -0.11707765814E+03 -0.84293048009E+03  0.11729929410E+04  0.50400001928E-02 0. -1.
       -1    1    3    3    0  502  0.80726294801E+03  0.11707765814E+03 -0.42381039467E+03  0.91923658321E+03  0.50400001928E-02 0.  1.
</event>
<event>
 5   0  0.2630135E-04  0.1749090E+04  0.7818609E-02  0.8733851E-01
        1   -1    0    0  501    0  0.00000000000E+00  0.00000000000E+00  0.65262669085E+03  0.65262669086E+03  0.50400001928E-02 0. -1.
       -1   -1    0    0    0  501  0.00000000000E+00  0.00000000000E+00 -0.11719244555E+04  0.11719244555E+04  0.50400001928E-02 0.  1.
    10030    2    1    2    0    0  0.00000000000E+00  0.00000000000E+00 -0.51929776469E+03  0.18245511464E+04  0.17490902542E+04 0.  0.
        1    1    3    3  502    0  0.28909808095E+03 -0.60250382404E+03  0.32881746083E+03  0.74478821216E+03  0.50400001928E-02 0. -1.
       -1    1    3    3    0  502 -0.28909808095E+03  0.60250382404E+03 -0.84811522553E+03  0.10797629343E+04  0.50400001928E-02 0.  1.
</event>
<event>
 5   0  0.5310003E-04  0.1702963E+04  0.7818609E-02  0.8759676E-01
       -2   -1    0    0    0  501  0.00000000000E+00  0.00000000000E+00  0.66744712347E+03  0.66744712347E+03  0.25500000920E-02 0. -1.
        2   -1    0    0  501    0  0.00000000000E+00  0.00000000000E+00 -0.10862598176E+04  0.10862598176E+04  0.25500000920E-02 0.  1.
    10030    2    1    2    0    0  0.00000000000E+00  0.00000000000E+00 -0.41881269409E+03  0.17537069410E+04  0.17029632886E+04 0.  0.
        1    1    3    3  502    0  0.26356145784E+03 -0.13086999208E+03 -0.10322326612E+04  0.10733572861E+04  0.50400001928E-02 0.  1.
       -1    1    3    3    0  502 -0.26356145784E+03  0.13086999208E+03  0.61341996708E+03  0.68034965490E+03  0.50400001928E-02 0. -1.
</event>
<event>
 5   0  0.5310003E-04  0.1690723E+04  0.7818609E-02  0.8766673E-01
       -2   -1    0    0    0  501  0.00000000000E+00  0.00000000000E+00  0.77759222110E+03  0.77759222111E+03  0.25500000920E-02 0.  1.
        2   -1    0    0  501    0  0.00000000000E+00  0.00000000000E+00 -0.91903714993E+03  0.91903714994E+03  0.25500000920E-02 0. -1.
    10030    2    1    2    0    0  0.00000000000E+00  0.00000000000E+00 -0.14144492883E+03  0.16966293710E+04  0.16907230864E+04 0.  0.
        1    1    3    3  502    0  0.13377813002E+03 -0.54638134563E+01  0.76688478182E+03  0.77848488100E+03  0.50400001928E-02 0.  1.
       -1    1    3    3    0  502 -0.13377813002E+03  0.54638134563E+01 -0.90832971065E+03  0.91814449005E+03  0.50400001928E-02 0. -1.
</event>
<event>
 5   0  0.5342255E-04  0.1702912E+04  0.7818609E-02  0.8759706E-01
        2   -1    0    0  501    0  0.00000000000E+00  0.00000000000E+00  0.11512052754E+04  0.11512052754E+04  0.25500000920E-02 0.  1.
       -2   -1    0    0    0  501  0.00000000000E+00  0.00000000000E+00 -0.62975471008E+03  0.62975471008E+03  0.25500000920E-02 0. -1.
    10030    2    1    2    0    0  0.00000000000E+00  0.00000000000E+00  0.52145056531E+03  0.17809599855E+04  0.17029115590E+04 0.  0.
        5    1    3    3  502    0 -0.18633720722E+03  0.26491073342E+03 -0.56280085296E+03  0.64935825364E+03  0.46999998093E+01 0. -1.
       -5    1    3    3    0  502  0.18633720722E+03 -0.26491073342E+03  0.10842514183E+04  0.11316017318E+04  0.46999998093E+01 0.  1.
</event>
<event>
 5   0  0.5299877E-04  0.1706184E+04  0.7818609E-02  0.8757845E-01
       -2   -1    0    0    0  501  0.00000000000E+00  0.00000000000E+00  0.64612600655E+03  0.64612600656E+03  0.25500000920E-02 0.  1.
        2   -1    0    0  501    0  0.00000000000E+00  0.00000000000E+00 -0.11263536507E+04  0.11263536507E+04  0.25500000920E-02 0. -1.
    10030    2    1    2    0    0  0.00000000000E+00  0.00000000000E+00 -0.48022764411E+03  0.17724796572E+04  0.17061844991E+04 0.  0.
        3    1    3    3  502    0 -0.56778934130E+02  0.22381830954E+03  0.61304418012E+03  0.65508904740E+03  0.10100000352E+00 0.  1.
       -3    1    3    3    0  502  0.56778934130E+02 -0.22381830954E+03 -0.10932718242E+04  0.11173906098E+04  0.10100000352E+00 0. -1.
</event>
<event>
 5   0  0.2630135E-04  0.1724477E+04  0.7818609E-02  0.8747526E-01
       -1   -1    0    0    0  501  0.00000000000E+00  0.00000000000E+00  0.67868042406E+03  0.67868042408E+03  0.50400001928E-02 0. -1.
        1   -1    0    0  501    0  0.00000000000E+00  0.00000000000E+00 -0.10954424548E+04  0.10954424548E+04  0.50400001928E-02 0.  1.
    10030    2    1    2    0    0  0.00000000000E+00  0.00000000000E+00 -0.41676203073E+03  0.17741228789E+04  0.17244771379E+04 0.  0.
        1    1    3    3  502    0  0.14524033559E+03  0.39016930815E+02 -0.10818453457E+04  0.10922483363E+04  0.50400001928E-02 0.  1.
       -1    1    3    3    0  502 -0.14524033559E+03 -0.39016930815E+02  0.66508331499E+03  0.68187454262E+03  0.50400001928E-02 0. -1.
</event>
<event>
 5   0  0.2630135E-04  0.1699748E+04  0.7818609E-02  0.8761508E-01
        1   -1    0    0  501    0  0.00000000000E+00  0.00000000000E+00  0.78177391591E+03  0.78177391593E+03  0.50400001928E-02 0. -1.
       -1   -1    0    0    0  501  0.00000000000E+00  0.00000000000E+00 -0.92390588301E+03  0.92390588303E+03  0.50400001928E-02 0.  1.
    10030    2    1    2    0    0  0.00000000000E+00  0.00000000000E+00 -0.14213196710E+03  0.17056797990E+04  0.16997476520E+04 0.  0.
        1    1    3    3  502    0  0.52015337229E+03  0.21867973282E+03  0.56668738154E+03  0.79969678296E+03  0.50400001928E-02 0. -1.
       -1    1    3    3    0  502 -0.52015337229E+03 -0.21867973282E+03 -0.70881934864E+03  0.90598301600E+03  0.50400001928E-02 0.  1.
</event>
<event>
 5   0  0.2630135E-04  0.1675755E+04  0.7818609E-02  0.8775314E-01
       -1   -1    0    0    0  501  0.00000000000E+00  0.00000000000E+00  0.76163064673E+03  0.76163064675E+03  0.50400001928E-02 0.  1.
        1   -1    0    0  501    0  0.00000000000E+00  0.00000000000E+00 -0.92175765664E+03  0.92175765665E+03  0.50400001928E-02 0. -1.
    10030    2    1    2    0    0  0.00000000000E+00  0.00000000000E+00 -0.16012700991E+03  0.16833883034E+04  0.16757552091E+04 0.  0.
        1    1    3    3  502    0  0.83419241195E+03  0.74931220295E+02 -0.10356262616E+03  0.84392943159E+03  0.50400001928E-02 0.  1.
       -1    1    3    3    0  502 -0.83419241195E+03 -0.74931220295E+02 -0.56564383750E+02  0.83945887182E+03  0.50400001928E-02 0. -1.
</event>
<event>
 5   0  0.5342255E-04  0.1687340E+04  0.7818609E-02  0.8768618E-01
        2   -1    0    0  501    0  0.00000000000E+00  0.00000000000E+00  0.11163178669E+04  0.11163178669E+04  0.25500000920E-02 0. -1.
       -2   -1    0    0    0  501  0.00000000000E+00  0.00000000000E+00 -0.63761300270E+03  0.63761300270E+03  0.25500000920E-02 0.  1.
    10030    2    1    2    0    0  0.00000000000E+00  0.00000000000E+00  0.47870486425E+03  0.17539308697E+04  0.16873396660E+04 0.  0.
        5    1    3    3  502    0 -0.50641345155E+03  0.32955187710E+03 -0.37269547822E+03  0.70991762416E+03  0.46999998093E+01 0.  1.
       -5    1    3    3    0  502  0.50641345155E+03 -0.32955187710E+03  0.85140034246E+03  0.10440132455E+04  0.46999998093E+01 0. -1.
</event>
<event>
 5   0  0.5310003E-04  0.1705042E+04  0.7818609E-02  0.8758494E-01
        2   -1    0    0  501    0  0.00000000000E+00  0.00000000000E+00  0.11358078308E+04  0.11358078308E+04  0.25500000920E-02 0.  1.
       -2   -1    0    0    0  501  0.00000000000E+00  0.00000000000E+00 -0.63989014172E+03  0.63989014173E+03  0.25500000920E-02 0. -1.
    10030    2    1    2    0    0  0.00000000000E+00  0.00000000000E+00  0.49591768908E+03  0.17756979725E+04  0.17050422092E+04 0.  0.
        1    1    3    3  502    0  0.14969399175E+03  0.83195623736E+03  0.13277376595E+03  0.85568004826E+03  0.50400001928E-02 0. -1.
       -1    1    3    3    0  502 -0.14969399175E+03 -0.83195623736E+03  0.36314392313E+03  0.92001792427E+03  0.50400001928E-02 0.  1.
</event>
<event>
 5   0  0.2785059E-04  0.1661391E+04  0.7818609E-02  0.8783696E-01
       -1   -1    0    0    0  501  0.00000000000E+00  0.00000000000E+00  0.56651191465E+03  0.56651191468E+03  0.50400001928E-02 0. -1.
        1   -1    0    0  501    0  0.00000000000E+00  0.00000000000E+00 -0.12180772817E+04  0.12180772817E+04  0.50400001928E-02 0.  1.
    10030    2    1    2    0    0  0.00000000000E+00  0.00000000000E+00 -0.65156536700E+03  0.17845891963E+04  0.16613913363E+04 0.  0.
        5    1    3    3  502    0  0.72252003057E+03  0.90612941658E+02  0.10359300593E+03  0.73552668249E+03  0.46999998093E+01 0. -1.
       -5    1    3    3    0  502 -0.72252003057E+03 -0.90612941658E+02 -0.75515837293E+03  0.10490625139E+04  0.46999998093E+01 0.  1.
</event>
<event>
 5   0  0.2583422E-04  0.1694728E+04  0.7818609E-02  0.8764377E-01
       -1   -1    0    0    0  501  0.00000000000E+00  0.00000000000E+00  0.77505763469E+03  0.77505763470E+03  0.50400001928E-02 0.  1.
        1   -1    0    0  501    0  0.00000000000E+00  0.00000000000E+00 -0.92641601841E+03  0.92641601843E+03  0.50400001928E-02 0. -1.
    10030    2    1    2    0    0  0.00000000000E+00  0.00000000000E+00 -0.15135838373E+03  0.17014736531E+04  0.16947280702E+04 0.  0.
        3    1    3    3  502    0 -0.51796257198E+03 -0.44556056840E+03  0.42753068628E+03  0.80597266951E+03  0.10100000352E+00 0. -1.
       -3    1    3    3    0  502  0.51796257198E+03  0.44556056840E+03 -0.57888907001E+03  0.89550098362E+03  0.10100000352E+00 0.  1.
</event>
<event>
 5   0  0.5310003E-04  0.1698229E+04  0.7818609E-02  0.8762375E-01
       -2   -1    0    0    0  501  0.00000000000E+00  0.00000000000E+00  0.47787912330E+03  0.47787912331E+03  0.25500000920E-02 0.  1.
        2   -1    0    0  501    0  0.00000000000E+00  0.00000000000E+00 -0.15087401139E+04  0.15087401139E+04  0.25500000920E-02 0. -1.
    10030    2    1    2    0    0  0.00000000000E+00  0.00000000000E+00 -0.10308609906E+04  0.19866192372E+04  0.16982289633E+04 0.  0.
        1    1    3    3  502    0 -0.54601850129E+03  0.10489646037E+03 -0.12661730878E+04  0.13828715629E+04  0.50400001928E-02 0. -1.
       -1    1    3    3    0  502  0.54601850129E+03 -0.10489646037E+03  0.23531209720E+03  0.60374767433E+03  0.50400001928E-02 0.  1.
</event>
<event>
 5   0  0.2630135E-04  0.1684412E+04  0.7818609E-02  0.8770305E-01
        1   -1    0    0  501    0  0.00000000000E+00  0.00000000000E+00  0.75478544412E+03  0.75478544414E+03  0.50400001928E-02 0. -1.
       -1   -1    0    0    0  501  0.00000000000E+00  0.00000000000E+00 -0.93975127651E+03  0.93975127653E+03  0.50400001928E-02 0.  1.
    10030    2    1    2    0    0  0.00000000000E+00  0.00000000000E+00 -0.18496583239E+03  0.16945367207E+04  0.16844115704E+04 0.  0.
        1    1    3    3  502    0  0.11899512508E+03 -0.65653410429E+03  0.42452625281E+03  0.79083462825E+03  0.50400001928E-02 0. -1.
       -1    1    3    3    0  502 -0.11899512508E+03  0.65653410429E+03 -0.60949208520E+03  0.90370209242E+03  0.50400001928E-02 0.  1.
</event>
<event>
 5   0  0.2595644E-04  0.1708395E+04  0.7818609E-02  0.8756591E-01
       -1   -1    0    0    0  501  0.00000000000E+00  0.00000000000E+00  0.69778887149E+03  0.69778887151E+03  0.50400001928E-02 0. -1.
        1   -1    0    0  501    0  0.00000000000E+00  0.00000000000E+00 -0.10456647210E+04  0.10456647211E+04  0.50400001928E-02 0.  1.
    10030    2    1    2    0    0  0.00000000000E+00  0.00000000000E+00 -0.34787584955E+03  0.17434535926E+04  0.17083948088E+04 0.  0.
        2    1    3    3  502    0 -0.84103318137E+02 -0.74939334170E+03  0.23553092302E+03  0.79002440747E+03  0.25500000920E-02 0. -1.
       -2    1    3    3    0  502  0.84103318137E+02  0.74939334170E+03 -0.58340677257E+03  0.95342918509E+03  0.25500000920E-02 0.  1.
</event>
<event>
 5   0  0.2561518E-04  0.1523816E+04  0.7818609E-02  0.8868769E-01
       -1   -1    0    0    0  501  0.00000000000E+00  0.00000000000E+00  0.40478112184E+03  0.40478112187E+03  0.50400001928E-02 0.  1.
        1   -1    0    0  501    0  0.00000000000E+00  0.00000000000E+00 -0.14341168696E+04  0.14341168696E+04  0.50400001928E-02 0. -1.
    10030    2    1    2    0    0  0.00000000000E+00  0.00000000000E+00 -0.10293357477E+04  0.18388979914E+04  0.15238155208E+04 0.  0.
        4    1    3    3  502    0  0.36339793249E+02  0.75684326820E+03 -0.41835635504E+03  0.86553796329E+03  0.12699999809E+01 0.  1.
       -4    1    3    3    0  502 -0.36339793249E+02 -0.75684326820E+03 -0.61097939269E+03  0.97336002814E+03  0.12699999809E+01 0. -1.
</event>
<event>
 5   0  0.2561518E-04  0.1668599E+04  0.7818609E-02  0.8779479E-01
       -1   -1    0    0    0  501  0.00000000000E+00  0.00000000000E+00  0.48577386980E+03  0.48577386983E+03  0.50400001928E-02 0. -1.
        1   -1    0    0  501    0  0.00000000000E+00  0.00000000000E+00 -0.14328798243E+04  0.14328798243E+04  0.50400001928E-02 0.  1.
    10030    2    1    2    0    0  0.00000000000E+00  0.00000000000E+00 -0.94710595449E+03  0.19186536941E+04  0.16685989060E+04 0.  0.
        4    1    3    3  502    0  0.18033512216E+03 -0.10940026114E+03  0.45460829554E+03  0.50115814739E+03  0.12699999809E+01 0. -1.
       -4    1    3    3    0  502 -0.18033512216E+03  0.10940026114E+03 -0.14017142500E+04  0.14174955467E+04  0.12699999809E+01 0.  1.
</event>
<event>
 5   0  0.2630135E-04  0.1711211E+04  0.7818609E-02  0.8754996E-01
        1   -1    0    0  501    0  0.00000000000E+00  0.00000000000E+00  0.76978274603E+03  0.76978274604E+03  0.50400001928E-02 0.  1.
       -1   -1    0    0    0  501  0.00000000000E+00  0.00000000000E+00 -0.95099697847E+03  0.95099697848E+03  0.50400001928E-02 0. -1.
    10030    2    1    2    0    0  0.00000000000E+00  0.00000000000E+00 -0.18121423244E+03  0.17207797245E+04  0.17112113435E+04 0.  0.
        1    1    3    3  502    0  0.44471217527E+03  0.11131603569E+03  0.63585947575E+03  0.78388612155E+03  0.50400001928E-02 0.  1.
       -1    1    3    3    0  502 -0.44471217527E+03 -0.11131603569E+03 -0.81707370820E+03  0.93689360297E+03  0.50400001928E-02 0. -1.
</event>
<event>
 5   0  0.2583422E-04  0.1523666E+04  0.7818609E-02  0.8868866E-01
       -1   -1    0    0    0  501  0.00000000000E+00  0.00000000000E+00  0.32776934650E+03  0.32776934653E+03  0.50400001928E-02 0. -1.
        1   -1    0    0  501    0  0.00000000000E+00  0.00000000000E+00 -0.17707249147E+04  0.17707249148E+04  0.50400001928E-02 0.  1.
    10030    2    1    2    0    0  0.00000000000E+00  0.00000000000E+00 -0.14429555683E+04  0.20984942613E+04  0.15236657746E+04 0.  0.
        3    1    3    3  502    0  0.43851620897E+03  0.44503747535E+03 -0.13218689873E+04  0.14620849667E+04  0.10100000352E+00 0.  1.
       -3    1    3    3    0  502 -0.43851620897E+03 -0.44503747535E+03 -0.12108658097E+03  0.63640929463E+03  0.10100000352E+00 0. -1.
</event>
<event>
 5   0  0.2561518E-04  0.1658174E+04  0.7818609E-02  0.8785585E-01
       -1   -1    0    0    0  501  0.00000000000E+00  0.00000000000E+00  0.71611918121E+03  0.71611918123E+03  0.50400001928E-02 0.  1.
        1   -1    0    0  501    0  0.00000000000E+00  0.00000000000E+00 -0.95987605273E+03  0.95987605274E+03  0.50400001928E-02 0. -1.
    10030    2    1    2    0    0  0.00000000000E+00  0.00000000000E+00 -0.24375687151E+03  0.16759952340E+04  0.16581744817E+04 0.  0.
        4    1    3    3  502    0  0.19849396631E+03  0.47875742196E+03 -0.77596193521E+03  0.93312756981E+03  0.12699999809E+01 0. -1.
       -4    1    3    3    0  502 -0.19849396631E+03 -0.47875742196E+03  0.53220506370E+03  0.74286766416E+03  0.12699999809E+01 0.  1.
</event>
<event>
 5   0  0.5299877E-04  0.1695125E+04  0.7818609E-02  0.8764149E-01
       -2   -1    0    0    0  501  0.00000000000E+00  0.00000000000E+00  0.16255015548E+04  0.16255015548E+04  0.25500000920E-02 0.  1.
        2   -1    0    0  501    0  0.00000000000E+00  0.00000000000E+00 -0.44193283845E+03  0.44193283845E+03  0.25500000920E-02 0. -1.
    10030    2    1    2    0    0  0.00000000000E+00  0.00000000000E+00  0.11835687163E+04  0.20674343932E+04  0.16951253830E+04 0.  0.
        3    1    3    3  502    0 -0.37202696126E+03 -0.57563040795E+03  0.11999018966E+04  0.13818534648E+04  0.10100000352E+00 0.  1.
       -3    1    3    3    0  502  0.37202696126E+03  0.57563040795E+03 -0.16333180281E+02  0.68558092844E+03  0.10100000352E+00 0. -1.
</event>
<event>
 5   0  0.2595644E-04  0.1908591E+04  0.7818609E-02  0.8650592E-01
       -1   -1    0    0    0  501  0.00000000000E+00  0.00000000000E+00  0.49481385322E+03  0.49481385324E+03  0.50400001928E-02 0.  1.
        1   -1    0    0  501    0  0.00000000000E+00  0.00000000000E+00 -0.18404500270E+04  0.18404500271E+04  0.50400001928E-02 0. -1.
    10030    2    1    2    0    0  0.00000000000E+00  0.00000000000E+00 -0.13456361738E+04  0.23352638803E+04  0.19085912811E+04 0.  0.
        2    1    3    3  502    0 -0.22264544809E+03 -0.24979676788E+03 -0.17663155784E+04  0.17977319443E+04  0.25500000920E-02 0. -1.
       -2    1    3    3    0  502  0.22264544809E+03  0.24979676788E+03  0.42067940460E+03  0.53753193604E+03  0.25500000920E-02 0.  1.
</event>
<event>
 5   0  0.2583422E-04  0.1684621E+04  0.7818609E-02  0.8770184E-01
       -1   -1    0    0    0  501  0.00000000000E+00  0.00000000000E+00  0.62557458519E+03  0.62557458521E+03  0.50400001928E-02 0. -1.
        1   -1    0    0  501    0  0.00000000000E+00  0.00000000000E+00 -0.11341371720E+04  0.11341371720E+04  0.50400001928E-02 0.  1.
    10030    2    1    2    0    0  0.00000000000E+00  0.00000000000E+00 -0.50856258684E+03  0.17597117573E+04  0.16846214898E+04 0.  0.
        3    1    3    3  502    0  0.81764133412E+02 -0.97476282992E+02  0.61547968419E+03  0.62849204539E+03  0.10100000352E+00 0. -1.
       -3    1    3    3    0  502 -0.81764133412E+02  0.97476282992E+02 -0.11240422710E+04  0.11312197119E+04  0.10100000352E+00 0.  1.
</event>
<event>
 5   0  0.2595644E-04  0.1658761E+04  0.7818609E-02  0.8785241E-01
       -1   -1    0    0    0  501  0.00000000000E+00  0.00000000000E+00  0.95528660753E+03  0.95528660754E+03  0.50400001928E-02 0. -1.
        1   -1    0    0  501    0  0.00000000000E+00  0.00000000000E+00 -0.72006829968E+03  0.72006829970E+03  0.50400001928E-02 0.  1.
    10030    2    1    2    0    0  0.00000000000E+00  0.00000000000E+00  0.23521830785E+03  0.16753549072E+04  0.16587605050E+04 0.  0.
        2    1    3    3  502    0  0.27771607650E+02  0.58732615313E+03 -0.47317705482E+03  0.75473160631E+03  0.25500000920E-02 0.  1.
       -2    1    3    3    0  502 -0.27771607650E+02 -0.58732615313E+03  0.70839536267E+03  0.92062330093E+03  0.25500000920E-02 0. -1.
</event>
<event>
 5   0  0.5310003E-04  0.1707713E+04  0.7818609E-02  0.8756978E-01
        2   -1    0    0  501    0  0.00000000000E+00  0.00000000000E+00  0.38219891961E+03  0.38219891962E+03  0.25500000920E-02 0.  1.
       -2   -1    0    0    0  501  0.00000000000E+00  0.00000000000E+00 -0.19075693056E+04  0.19075693056E+04  0.25500000920E-02 0. -1.
    10030    2    1    2    0    0  0.00000000000E+00  0.00000000000E+00 -0.15253703860E+04  0.22897682252E+04  0.17077130060E+04 0.  0.
        1    1    3    3  502    0 -0.23350934737E+03  0.64172075231E+03 -0.14499731513E+04  0.16027333773E+04  0.50400001928E-02 0. -1.
       -1    1    3    3    0  502  0.23350934737E+03 -0.64172075231E+03 -0.75397234726E+02  0.68703484794E+03  0.50400001928E-02 0.  1.
</event>
<event>
 5   0  0.2630135E-04  0.1607807E+04  0.7818609E-02  0.8815766E-01
        1   -1    0    0  501    0  0.00000000000E+00  0.00000000000E+00  0.16807619399E+04  0.16807619399E+04  0.50400001928E-02 0.  1.
       -1   -1    0    0    0  501  0.00000000000E+00  0.00000000000E+00 -0.38450488509E+03  0.38450488513E+03  0.50400001928E-02 0. -1.
    10030    2    1    2    0    0  0.00000000000E+00  0.00000000000E+00  0.12962570548E+04  0.20652668251E+04  0.16078074221E+04 0.  0.
        1    1    3    3  502    0  0.79488960759E+03 -0.10337707981E+03  0.56973186630E+03  0.98342803925E+03  0.50400001928E-02 0. -1.
       -1    1    3    3    0  502 -0.79488960759E+03  0.10337707981E+03  0.72652518853E+03  0.10818387858E+04  0.50400001928E-02 0.  1.
</event>
<event>
 5   0  0.5021349E-04  0.1690853E+04  0.7818609E-02  0.8766598E-01
       -2   -1    0    0    0  501  0.00000000000E+00  0.00000000000E+00  0.49685487711E+03  0.49685487712E+03  0.25500000920E-02 0. -1.
        2   -1    0    0  501    0  0.00000000000E+00  0.00000000000E+00 -0.14385408201E+04  0.14385408201E+04  0.25500000920E-02 0.  1.
    10030    2    1    2    0    0  0.00000000000E+00  0.00000000000E+00 -0.94168594303E+03  0.19353956973E+04  0.16908530657E+04 0.  0.
        2    1    3    3  502    0 -0.24876418723E+03 -0.59343729851E+03  0.15682027361E+03  0.66230208087E+03  0.25500000920E-02 0. -1.
       -2    1    3    3    0  502  0.24876418723E+03  0.59343729851E+03 -0.10985062166E+04  0.12730936164E+04  0.25500000920E-02 0.  1.
</event>
<event>
 5   0  0.2785059E-04  0.1720527E+04  0.7818609E-02  0.8749743E-01
        1   -1    0    0  501    0  0.00000000000E+00  0.00000000000E+00  0.83036988940E+03  0.83036988942E+03  0.50400001928E-02 0.  1.
       -1   -1    0    0    0  501  0.00000000000E+00  0.00000000000E+00 -0.89123368939E+03  0.89123368940E+03  0.50400001928E-02 0. -1.
    10030    2    1    2    0    0  0.00000000000E+00  0.00000000000E+00 -0.60863799987E+02  0.17216035788E+04  0.17205273844E+04 0.  0.
        5    1    3    3  502    0 -0.51762959295E+03 -0.49027227572E+03 -0.51211043303E+03  0.87783055622E+03  0.46999998093E+01 0. -1.
       -5    1    3    3    0  502  0.51762959295E+03  0.49027227572E+03  0.45124663304E+03  0.84377302259E+03  0.46999998093E+01 0.  1.
</event>
<event>
 5   0  0.2561518E-04  0.1726285E+04  0.7818609E-02  0.8746513E-01
       -1   -1    0    0    0  501  0.00000000000E+00  0.00000000000E+00  0.89214004845E+03  0.89214004846E+03  0.50400001928E-02 0. -1.
        1   -1    0    0  501    0  0.00000000000E+00  0.00000000000E+00 -0.83508742348E+03  0.83508742350E+03  0.50400001928E-02 0.  1.
    10030    2    1    2    0    0  0.00000000000E+00  0.00000000000E+00  0.57052624966E+02  0.17272274720E+04  0.17262849527E+04 0.  0.
        4    1    3    3  502    0  0.70728901713E+03  0.87071018733E+02 -0.45874492776E+03  0.84751851762E+03  0.12699999809E+01 0.  1.
       -4    1    3    3    0  502 -0.70728901713E+03 -0.87071018733E+02  0.51579755272E+03  0.87970895434E+03  0.12699999809E+01 0. -1.
</event>
<event>
 5   0  0.2583422E-04  0.1689837E+04  0.7818609E-02  0.8767182E-01
        1   -1    0    0  501    0  0.00000000000E+00  0.00000000000E+00  0.64007918381E+03  0.64007918383E+03  0.50400001928E-02 0.  1.
       -1   -1    0    0    0  501  0.00000000000E+00  0.00000000000E+00 -0.11153114009E+04  0.11153114009E+04  0.50400001928E-02 0. -1.
    10030    2    1    2    0    0  0.00000000000E+00  0.00000000000E+00 -0.47523221706E+03  0.17553905847E+04  0.16898374019E+04 0.  0.
        3    1    3    3  502    0 -0.62755801258E+03 -0.54845560068E+03 -0.93470783510E+02  0.83867121248E+03  0.10100000352E+00 0.  1.
       -3    1    3    3    0  502  0.62755801258E+03  0.54845560068E+03 -0.38176143355E+03  0.91671937223E+03  0.10100000352E+00 0. -1.
</event>
<event>
 5   0  0.1910750E-04  0.1763867E+04  0.7818609E-02  0.8725754E-01
       -3   -1    0    0    0  501  0.00000000000E+00  0.00000000000E+00  0.73464562847E+03  0.73464563541E+03  0.10100000352E+00 0. -1.
        3   -1    0    0  501    0  0.00000000000E+00  0.00000000000E+00 -0.10587509314E+04  0.10587509362E+04  0.10100000352E+00 0.  1.
    10030    2    1    2    0    0  0.00000000000E+00  0.00000000000E+00 -0.32410530292E+03  0.17933965716E+04  0.17638670629E+04 0.  0.
        5    1    3    3  502    0 -0.52353527694E+03 -0.40055406713E+03 -0.75773807123E+03  0.10043514432E+04  0.46999998093E+01 0.  1.
       -5    1    3    3    0  502  0.52353527694E+03  0.40055406713E+03  0.43363276832E+03  0.78904512840E+03  0.46999998093E+01 0. -1.
</event>
<event>
 5   0  0.5299877E-04  0.1800634E+04  0.7818609E-02  0.8705963E-01
        2   -1    0    0  501    0  0.00000000000E+00  0.00000000000E+00  0.78197197955E+03  0.78197197956E+03  0.25500000920E-02 0.  1.
       -2   -1    0    0    0  501  0.00000000000E+00  0.00000000000E+00 -0.10365720952E+04  0.10365720952E+04  0.25500000920E-02 0. -1.
    10030    2    1    2    0    0  0.00000000000E+00  0.00000000000E+00 -0.25460011562E+03  0.18185440747E+04  0.18006335921E+04 0.  0.
        3    1    3    3  502    0 -0.39213127147E+03 -0.80517004133E+03 -0.34162410506E+02  0.89623256469E+03  0.10100000352E+00 0.  1.
       -3    1    3    3    0  502  0.39213127147E+03  0.80517004133E+03 -0.22043770511E+03  0.92231151004E+03  0.10100000352E+00 0. -1.
</event>
<event>
 5   0  0.5198430E-04  0.1687929E+04  0.7818609E-02  0.8768279E-01
        2   -1    0    0  501    0  0.00000000000E+00  0.00000000000E+00  0.15852036999E+04  0.15852036999E+04  0.25500000920E-02 0. -1.
       -2   -1    0    0    0  501  0.00000000000E+00  0.00000000000E+00 -0.44932789103E+03  0.44932789104E+03  0.25500000920E-02 0.  1.
    10030    2    1    2    0    0  0.00000000000E+00  0.00000000000E+00  0.11358758089E+04  0.20345315910E+04  0.16879291873E+04 0.  0.
        4    1    3    3  502    0  0.80686014770E+03  0.91940514721E+02  0.84489981449E+03  0.11718931972E+04  0.12699999809E+01 0. -1.
       -4    1    3    3    0  502 -0.80686014770E+03 -0.91940514721E+02  0.29097599441E+03  0.86263839377E+03  0.12699999809E+01 0.  1.
</event>
<event>
 5   0  0.2561518E-04  0.1683536E+04  0.7818609E-02  0.8770811E-01
       -1   -1    0    0    0  501  0.00000000000E+00  0.00000000000E+00  0.13099521286E+04  0.13099521286E+04  0.50400001928E-02 0. -1.
        1   -1    0    0  501    0  0.00000000000E+00  0.00000000000E+00 -0.54091528621E+03  0.54091528623E+03  0.50400001928E-02 0.  1.
    10030    2    1    2    0    0  0.00000000000E+00  0.00000000000E+00  0.76903684243E+03  0.18508674149E+04  0.16835357206E+04 0.  0.
        4    1    3    3  502    0  0.45777033679E+03  0.51422473080E+03  0.91700470790E+03  0.11466821714E+04  0.12699999809E+01 0. -1.
       -4    1    3    3    0  502 -0.45777033679E+03 -0.51422473080E+03 -0.14796786547E+03  0.70418524347E+03  0.12699999809E+01 0.  1.
</event>
<event>
 5   0  0.2785059E-04  0.1965349E+04  0.7818609E-02  0.8622995E-01
        1   -1    0    0  501    0  0.00000000000E+00  0.00000000000E+00  0.58984639198E+03  0.58984639200E+03  0.50400001928E-02 0.  1.
       -1   -1    0    0    0  501  0.00000000000E+00  0.00000000000E+00 -0.16371196659E+04  0.16371196660E+04  0.50400001928E-02 0. -1.
    10030    2    1    2    0    0  0.00000000000E+00  0.00000000000E+00 -0.10472732740E+04  0.22269660580E+04  0.19653489545E+04 0.  0.
        5    1    3    3  502    0  0.14569775352E+02  0.73757645209E+03  0.21192487153E+03  0.76757119683E+03  0.46999998093E+01 0.  1.
       -5    1    3    3    0  502 -0.14569775352E+02 -0.73757645209E+03 -0.12591981455E+04  0.14593948611E+04  0.46999998093E+01 0. -1.
</event>
<event>
 5   0  0.5299877E-04  0.1724619E+04  0.7818609E-02  0.8747446E-01
       -2   -1    0    0    0  501  0.00000000000E+00  0.00000000000E+00  0.43117035886E+03  0.43117035887E+03  0.25500000920E-02 0.  1.
        2   -1    0    0  501    0  0.00000000000E+00  0.00000000000E+00 -0.17245573685E+04  0.17245573685E+04  0.25500000920E-02 0. -1.
    10030    2    1    2    0    0  0.00000000000E+00  0.00000000000E+00 -0.12933870097E+04  0.21557277274E+04  0.17246194009E+04 0.  0.
        3    1    3    3  502    0  0.49864883786E+03 -0.19263804338E+02 -0.15257332027E+04  0.16052674461E+04  0.10100000352E+00 0. -1.
       -3    1    3    3    0  502 -0.49864883786E+03  0.19263804338E+02  0.23234619301E+03  0.55046028127E+03  0.10100000352E+00 0.  1.
</event>
<event>
 5   0  0.2561518E-04  0.2083821E+04  0.7818609E-02  0.8568404E-01
       -1   -1    0    0    0  501  0.00000000000E+00  0.00000000000E+00  0.10769470294E+04  0.10769470294E+04  0.50400001928E-02 0.  1.
        1   -1    0    0  501    0  0.00000000000E+00  0.00000000000E+00 -0.10080134661E+04  0.10080134661E+04  0.50400001928E-02 0. -1.
    10030    2    1    2    0    0  0.00000000000E+00  0.00000000000E+00  0.68933563222E+02  0.20849604955E+04  0.20838206333E+04 0.  0.
        4    1    3    3  502    0 -0.70023265210E+03  0.19690882038E+03  0.78084845539E+03  0.10671573332E+04  0.12699999809E+01 0.  1.
       -4    1    3    3    0  502  0.70023265210E+03 -0.19690882038E+03 -0.71191489217E+03  0.10178031623E+04  0.12699999809E+01 0. -1.
</event>
<event>
 5   0  0.5299877E-04  0.1720255E+04  0.7818609E-02  0.8749896E-01
        2   -1    0    0  501    0  0.00000000000E+00  0.00000000000E+00  0.60993415735E+03  0.60993415735E+03  0.25500000920E-02 0. -1.
       -2   -1    0    0    0  501  0.00000000000E+00  0.00000000000E+00 -0.12129493145E+04  0.12129493145E+04  0.25500000920E-02 0.  1.
    10030    2    1    2    0    0  0.00000000000E+00  0.00000000000E+00 -0.60301515719E+03  0.18228834719E+04  0.17202548858E+04 0.  0.
        3    1    3    3  502    0  0.11875553180E+03 -0.36487324673E+03  0.51421223463E+03  0.64159924794E+03  0.10100000352E+00 0. -1.
       -3    1    3    3    0  502 -0.11875553180E+03  0.36487324673E+03 -0.11172273918E+04  0.11812842239E+04  0.10100000352E+00 0.  1.
</event>
<event>
 5   0  0.2785059E-04  0.1681828E+04  0.7818609E-02  0.8771797E-01
       -1   -1    0    0    0  501  0.00000000000E+00  0.00000000000E+00  0.83013218239E+03  0.83013218241E+03  0.50400001928E-02 0.  1.
        1   -1    0    0  501    0  0.00000000000E+00  0.00000000000E+00 -0.85183593172E+03  0.85183593173E+03  0.50400001928E-02 0. -1.
    10030    2    1    2    0    0  0.00000000000E+00  0.00000000000E+00 -0.21703749326E+02  0.16819681141E+04  0.16818280781E+04 0.  0.
        5    1    3    3  502    0 -0.16881835258E+03  0.62896858390E+03  0.52118228501E+03  0.83411880443E+03  0.46999998093E+01 0.  1.
       -5    1    3    3    0  502  0.16881835258E+03 -0.62896858390E+03 -0.54288603434E+03  0.84784930971E+03  0.46999998093E+01 0. -1.
</event>
<event>
 5   0  0.2595644E-04  0.1718124E+04  0.7818609E-02  0.8751094E-01
       -1   -1    0    0    0  501  0.00000000000E+00  0.00000000000E+00  0.81171301179E+03  0.81171301181E+03  0.50400001928E-02 0. -1.
        1   -1    0    0  501    0  0.00000000000E+00  0.00000000000E+00 -0.90917346665E+03  0.90917346667E+03  0.50400001928E-02 0.  1.
    10030    2    1    2    0    0  0.00000000000E+00  0.00000000000E+00 -0.97460454862E+02  0.17208864785E+04  0.17181244808E+04 0.  0.
        2    1    3    3  502    0 -0.25756071328E+03  0.57243428978E+03 -0.63616208843E+03  0.89371177676E+03  0.25500000920E-02 0.  1.
       -2    1    3    3    0  502  0.25756071328E+03 -0.57243428978E+03  0.53870163357E+03  0.82717470172E+03  0.25500000920E-02 0. -1.
</event>
<event>
 5   0  0.5342255E-04  0.1682989E+04  0.7818609E-02  0.8771126E-01
       -2   -1    0    0    0  501  0.00000000000E+00  0.00000000000E+00  0.58851880730E+03  0.58851880730E+03  0.25500000920E-02 0. -1.
        2   -1    0    0  501    0  0.00000000000E+00  0.00000000000E+00 -0.12032128703E+04  0.12032128703E+04  0.25500000920E-02 0.  1.
    10030    2    1    2    0    0  0.00000000000E+00  0.00000000000E+00 -0.61469406300E+03  0.17917316776E+04  0.16829894870E+04 0.  0.
        5    1    3    3  502    0 -0.75026708164E+03 -0.14066931361E+03 -0.68435030656E+03  0.10252053363E+04  0.46999998093E+01 0.  1.
       -5    1    3    3    0  502  0.75026708164E+03  0.14066931361E+03  0.69656243555E+02  0.76652634126E+03  0.46999998093E+01 0. -1.
</event>
<event>
 5   0  0.2630135E-04  0.1712043E+04  0.7818609E-02  0.8754525E-01
       -1   -1    0    0    0  501  0.00000000000E+00  0.00000000000E+00  0.82734148611E+03  0.82734148612E+03  0.50400001928E-02 0.  1.
        1   -1    0    0  501    0  0.00000000000E+00  0.00000000000E+00 -0.88569575997E+03  0.88569575999E+03  0.50400001928E-02 0. -1.
    10030    2    1    2    0    0  0.00000000000E+00  0.00000000000E+00 -0.58354273861E+02  0.17130372461E+04  0.17120430442E+04 0.  0.
        1    1    3    3  502    0  0.92421609601E+02  0.16970800503E+03 -0.86358603410E+03  0.88494259656E+03  0.50400001928E-02 0. -1.
       -1    1    3    3    0  502 -0.92421609601E+02 -0.16970800503E+03  0.80523176024E+03  0.82809464955E+03  0.50400001928E-02 0.  1.
</event>
<event>
 5   0  0.2630135E-04  0.1715273E+04  0.7818609E-02  0.8752701E-01
        1   -1    0    0  501    0  0.00000000000E+00  0.00000000000E+00  0.11685385424E+04  0.11685385424E+04  0.50400001928E-02 0.  1.
       -1   -1    0    0    0  501  0.00000000000E+00  0.00000000000E+00 -0.62945309442E+03  0.62945309444E+03  0.50400001928E-02 0. -1.
    10030    2    1    2    0    0  0.00000000000E+00  0.00000000000E+00  0.53908544799E+03  0.17979916369E+04  0.17152728080E+04 0.  0.
        1    1    3    3  502    0  0.83273587596E+03 -0.18571997175E+03  0.17816507975E+03  0.87159838383E+03  0.50400001928E-02 0.  1.
       -1    1    3    3    0  502 -0.83273587596E+03  0.18571997175E+03  0.36092036824E+03  0.92639325303E+03  0.50400001928E-02 0. -1.
</event>
<event>
 5   0  0.5299877E-04  0.1751409E+04  0.7818609E-02  0.8732575E-01
       -2   -1    0    0    0  501  0.00000000000E+00  0.00000000000E+00  0.59023079343E+03  0.59023079343E+03  0.25500000920E-02 0. -1.
        2   -1    0    0  501    0  0.00000000000E+00  0.00000000000E+00 -0.12992510063E+04  0.12992510063E+04  0.25500000920E-02 0.  1.
    10030    2    1    2    0    0  0.00000000000E+00  0.00000000000E+00 -0.70902021285E+03  0.18894817997E+04  0.17514085215E+04 0.  0.
        3    1    3    3  502    0 -0.23975511369E+03 -0.65284418563E+03  0.21957832557E+03  0.72931659552E+03  0.10100000352E+00 0. -1.
       -3    1    3    3    0  502  0.23975511369E+03  0.65284418563E+03 -0.92859853842E+03  0.11601652042E+04  0.10100000352E+00 0.  1.
</event>
<event>
 5   0  0.2561518E-04  0.1287576E+04  0.7818609E-02  0.9039476E-01
       -1   -1    0    0    0  501  0.00000000000E+00  0.00000000000E+00  0.68015877675E+03  0.68015877676E+03  0.50400001928E-02 0.  1.
        1   -1    0    0  501    0  0.00000000000E+00  0.00000000000E+00 -0.60936233311E+03  0.60936233313E+03  0.50400001928E-02 0. -1.
    10030    2    1    2    0    0  0.00000000000E+00  0.00000000000E+00  0.70796443636E+02  0.12895211099E+04  0.12875762333E+04 0.  0.
        4    1    3    3  502    0 -0.24671208797E+03 -0.57474411783E+03  0.18815359438E+03  0.65314703039E+03  0.12699999809E+01 0.  1.
       -4    1    3    3    0  502  0.24671208797E+03  0.57474411783E+03 -0.11735715074E+03  0.63637407950E+03  0.12699999809E+01 0. -1.
</event>
<event>
 5   0  0.2630135E-04  0.1814609E+04  0.7818609E-02  0.8698569E-01
       -1   -1    0    0    0  501  0.00000000000E+00  0.00000000000E+00  0.95484724811E+03  0.95484724812E+03  0.50400001928E-02 0.  1.
        1   -1    0    0  501    0  0.00000000000E+00  0.00000000000E+00 -0.86212882192E+03  0.86212882193E+03  0.50400001928E-02 0. -1.
    10030    2    1    2    0    0  0.00000000000E+00  0.00000000000E+00  0.92718426193E+02  0.18169760701E+04  0.18146088649E+04 0.  0.
        1    1    3    3  502    0 -0.51884990789E+03 -0.40813836782E+03 -0.57688282279E+03  0.87668463285E+03  0.50400001928E-02 0. -1.
       -1    1    3    3    0  502  0.51884990789E+03  0.40813836782E+03  0.66960124899E+03  0.94029143720E+03  0.50400001928E-02 0.  1.
</event>
<event>
 5   0  0.5342255E-04  0.1727062E+04  0.7818609E-02  0.8746079E-01
       -2   -1    0    0    0  501  0.00000000000E+00  0.00000000000E+00  0.77232667161E+03  0.77232667161E+03  0.25500000920E-02 0.  1.
        2   -1    0    0  501    0  0.00000000000E+00  0.00000000000E+00 -0.96550568393E+03  0.96550568393E+03  0.25500000920E-02 0. -1.
    10030    2    1    2    0    0  0.00000000000E+00  0.00000000000E+00 -0.19317901232E+03  0.17378323555E+04  0.17270620039E+04 0.  0.
        5    1    3    3  502    0 -0.54759053910E+03  0.55083888577E+03  0.28310280410E+03  0.82670923805E+03  0.46999998093E+01 0.  1.
       -5    1    3    3    0  502  0.54759053910E+03 -0.55083888577E+03 -0.47628181643E+03  0.91112311750E+03  0.46999998093E+01 0. -1.
</event>
<event>
 5   0  0.2785059E-04  0.1345769E+04  0.7818609E-02  0.8994037E-01
       -1   -1    0    0    0  501  0.00000000000E+00  0.00000000000E+00  0.83767493382E+03  0.83767493384E+03  0.50400001928E-02 0.  1.
        1   -1    0    0  501    0  0.00000000000E+00  0.00000000000E+00 -0.54051221496E+03  0.54051221498E+03  0.50400001928E-02 0. -1.
    10030    2    1    2    0    0  0.00000000000E+00  0.00000000000E+00  0.29716271886E+03  0.13781871488E+04  0.13457689756E+04 0.  0.
        5    1    3    3  502    0  0.77064472285E+02  0.66302253074E+03  0.61602289632E+02  0.67033927323E+03  0.46999998093E+01 0. -1.
       -5    1    3    3    0  502 -0.77064472285E+02 -0.66302253074E+03  0.23556042923E+03  0.70784787559E+03  0.46999998093E+01 0.  1.
</event>
<event>
 5   0  0.5299877E-04  0.1727283E+04  0.7818609E-02  0.8745955E-01
       -2   -1    0    0    0  501  0.00000000000E+00  0.00000000000E+00  0.73103988048E+03  0.73103988048E+03  0.25500000920E-02 0. -1.
        2   -1    0    0  501    0  0.00000000000E+00  0.00000000000E+00 -0.10202950594E+04  0.10202950594E+04  0.25500000920E-02 0.  1.
    10030    2    1    2    0    0  0.00000000000E+00  0.00000000000E+00 -0.28925517893E+03  0.17513349399E+04  0.17272826964E+04 0.  0.
        3    1    3    3  502    0  0.21618220479E+02  0.80600163350E+03  0.16914963126E+03  0.82384318205E+03  0.10100000352E+00 0. -1.
       -3    1    3    3    0  502 -0.21618220479E+02 -0.80600163350E+03 -0.45840481019E+03  0.92749175784E+03  0.10100000352E+00 0.  1.
</event>
<event>
 5   0  0.2595644E-04  0.1682181E+04  0.7818609E-02  0.8771593E-01
       -1   -1    0    0    0  501  0.00000000000E+00  0.00000000000E+00  0.12617376410E+04  0.12617376410E+04  0.50400001928E-02 0. -1.
        1   -1    0    0  501    0  0.00000000000E+00  0.00000000000E+00 -0.56068159668E+03  0.56068159670E+03  0.50400001928E-02 0.  1.
    10030    2    1    2    0    0  0.00000000000E+00  0.00000000000E+00  0.70105604435E+03  0.18224192377E+04  0.16821808169E+04 0.  0.
        2    1    3    3  502    0 -0.79502831854E+03 -0.95678051730E+02  0.62928987135E+03  0.10184449220E+04  0.25500000920E-02 0.  1.
       -2    1    3    3    0  502  0.79502831854E+03  0.95678051730E+02  0.71766173002E+02  0.80397431579E+03  0.25500000920E-02 0. -1.
</event>
<event>
 5   0  0.2561518E-04  0.1686086E+04  0.7818609E-02  0.8769340E-01
       -1   -1    0    0    0  501  0.00000000000E+00  0.00000000000E+00  0.72438533001E+03  0.72438533003E+03  0.50400001928E-02 0. -1.
        1   -1    0    0  501    0  0.00000000000E+00  0.00000000000E+00 -0.98113696719E+03  0.98113696720E+03  0.50400001928E-02 0.  1.
    10030    2    1    2    0    0  0.00000000000E+00  0.00000000000E+00 -0.25675163717E+03  0.17055222972E+04  0.16860856749E+04 0.  0.
        4    1    3    3  502    0  0.27830286679E+03  0.67968776482E+03  0.29026915779E+03  0.78973776671E+03  0.12699999809E+01 0. -1.
       -4    1    3    3    0  502 -0.27830286679E+03 -0.67968776482E+03 -0.54702079496E+03  0.91578453052E+03  0.12699999809E+01 0.  1.
</event>
<event>
 5   0  0.2630135E-04  0.1703431E+04  0.7818609E-02  0.8759410E-01
        1   -1    0    0  501    0  0.00000000000E+00  0.00000000000E+00  0.70736758112E+03  0.70736758114E+03  0.50400001928E-02 0.  1.
       -1   -1    0    0    0  501  0.00000000000E+00  0.00000000000E+00 -0.10255201235E+04  0.10255201235E+04  0.50400001928E-02 0. -1.
    10030    2    1    2    0    0  0.00000000000E+00  0.00000000000E+00 -0.31815254241E+03  0.17328877047E+04  0.17034314652E+04 0.  0.
        1    1    3    3  502    0 -0.53869056006E+02 -0.49296666299E+03  0.54535856222E+03  0.73711190970E+03  0.50400001928E-02 0.  1.
       -1    1    3    3    0  502  0.53869056006E+02  0.49296666299E+03 -0.86351110463E+03  0.99577579498E+03  0.50400001928E-02 0. -1.
</event>
<event>
 5   0  0.2561518E-04  0.1700803E+04  0.7818609E-02  0.8760906E-01
        1   -1    0    0  501    0  0.00000000000E+00  0.00000000000E+00  0.22276821504E+04  0.22276821504E+04  0.50400001928E-02 0.  1.
       -1   -1    0    0    0  501  0.00000000000E+00  0.00000000000E+00 -0.32463466702E+03  0.32463466706E+03  0.50400001928E-02 0. -1.
    10030    2    1    2    0    0  0.00000000000E+00  0.00000000000E+00  0.19030474834E+04  0.25523168175E+04  0.17008031670E+04 0.  0.
        4    1    3    3  502    0 -0.14241077139E+03  0.69185081893E+03  0.24089980032E+03  0.74630604323E+03  0.12699999809E+01 0. -1.
       -4    1    3    3    0  502  0.14241077139E+03 -0.69185081893E+03  0.16621476831E+04  0.18060107743E+04  0.12699999809E+01 0.  1.
</event>
<event>
 5   0  0.5021349E-04  0.1696489E+04  0.7818609E-02  0.8763369E-01
       -2   -1    0    0    0  501  0.00000000000E+00  0.00000000000E+00  0.97841654421E+03  0.97841654422E+03  0.25500000920E-02 0.  1.
        2   -1    0    0  501    0  0.00000000000E+00  0.00000000000E+00 -0.73539077474E+03  0.73539077475E+03  0.25500000920E-02 0. -1.
    10030    2    1    2    0    0  0.00000000000E+00  0.00000000000E+00  0.24302576947E+03  0.17138073190E+04  0.16964887273E+04 0.  0.
        2    1    3    3  502    0  0.10940264925E+03  0.83975791939E+03  0.17054909203E+03  0.86385721948E+03  0.25500000920E-02 0. -1.
       -2    1    3    3    0  502 -0.10940264925E+03 -0.83975791939E+03  0.72476677440E+02  0.84995009949E+03  0.25500000920E-02 0.  1.
</event>
<event>
 5   0  0.5310003E-04  0.1660654E+04  0.7818609E-02  0.8784128E-01
        2   -1    0    0  501    0  0.00000000000E+00  0.00000000000E+00  0.16019494086E+04  0.16019494086E+04  0.25500000920E-02 0.  1.
       -2   -1    0    0    0  501  0.00000000000E+00  0.00000000000E+00 -0.43037751348E+03  0.43037751349E+03  0.25500000920E-02 0. -1.
    10030    2    1    2    0    0  0.00000000000E+00  0.00000000000E+00  0.11715718952E+04  0.20323269221E+04  0.16606540919E+04 0.  0.
        1    1    3    3  502    0 -0.39409235710E+03 -0.59380385952E+03  0.11072087531E+04  0.13167471407E+04  0.50400001928E-02 0. -1.
       -1    1    3    3    0  502  0.39409235710E+03  0.59380385952E+03  0.64363142014E+02  0.71557978142E+03  0.50400001928E-02 0.  1.
</event>
<event>
 5   0  0.5299877E-04  0.1719653E+04  0.7818609E-02  0.8750234E-01
        2   -1    0    0  501    0  0.00000000000E+00  0.00000000000E+00  0.39366775134E+03  0.39366775135E+03  0.25500000920E-02 0.  1.
       -2   -1    0    0    0  501  0.00000000000E+00  0.00000000000E+00 -0.18779845315E+04  0.18779845315E+04  0.25500000920E-02 0. -1.
    10030    2    1    2    0    0  0.00000000000E+00  0.00000000000E+00 -0.14843167802E+04  0.22716522829E+04  0.17196533925E+04 0.  0.
        3    1    3    3  502    0 -0.19022730730E+03  0.35189493083E+03 -0.17475777677E+04  0.17927756511E+04  0.10100000352E+00 0. -1.
       -3    1    3    3    0  502  0.19022730730E+03 -0.35189493083E+03  0.26326098747E+03  0.47887663183E+03  0.10100000352E+00 0.  1.
</event>
<event>
 5   0  0.5310003E-04  0.1708638E+04  0.7818609E-02  0.8756453E-01
        2   -1    0    0  501    0  0.00000000000E+00  0.00000000000E+00  0.10976682288E+04  0.10976682288E+04  0.25500000920E-02 0. -1.
       -2   -1    0    0    0  501  0.00000000000E+00  0.00000000000E+00 -0.66491929982E+03  0.66491929983E+03  0.25500000920E-02 0.  1.
    10030    2    1    2    0    0  0.00000000000E+00  0.00000000000E+00  0.43274892898E+03  0.17625875286E+04  0.17086378085E+04 0.  0.
        1    1    3    3  502    0  0.26493841613E+03  0.32170315911E+03 -0.55294480221E+03  0.69241117931E+03  0.50400001928E-02 0.  1.
       -1    1    3    3    0  502 -0.26493841613E+03 -0.32170315911E+03  0.98569373119E+03  0.10701763493E+04  0.50400001928E-02 0. -1.
</event>
<event>
 5   0  0.5198430E-04  0.1714834E+04  0.7818609E-02  0.8752949E-01
       -2   -1    0    0    0  501  0.00000000000E+00  0.00000000000E+00  0.14700093226E+04  0.14700093226E+04  0.25500000920E-02 0.  1.
        2   -1    0    0  501    0  0.00000000000E+00  0.00000000000E+00 -0.50010806449E+03  0.50010806450E+03  0.25500000920E-02 0. -1.
    10030    2    1    2    0    0  0.00000000000E+00  0.00000000000E+00  0.96990125806E+03  0.19701173871E+04  0.17148335396E+04 0.  0.
        4    1    3    3  502    0  0.27166464232E+03  0.45565598320E+03  0.12588288771E+04  0.13660438527E+04  0.12699999809E+01 0.  1.
       -4    1    3    3    0  502 -0.27166464232E+03 -0.45565598320E+03 -0.28892761903E+03  0.60407353431E+03  0.12699999809E+01 0. -1.
</event>
<event>
 5   0  0.2583422E-04  0.1447964E+04  0.7818609E-02  0.8919814E-01
        1   -1    0    0  501    0  0.00000000000E+00  0.00000000000E+00  0.38455713641E+03  0.38455713644E+03  0.50400001928E-02 0.  1.
       -1   -1    0    0    0  501  0.00000000000E+00  0.00000000000E+00 -0.13629953343E+04  0.13629953343E+04  0.50400001928E-02 0. -1.
    10030    2    1    2    0    0  0.00000000000E+00  0.00000000000E+00 -0.97843819792E+03  0.17475524708E+04  0.14479635116E+04 0.  0.
        3    1    3    3  502    0  0.48945278830E+03  0.62857310966E+02  0.15013747637E+03  0.51580650009E+03  0.10100000352E+00 0.  1.
       -3    1    3    3    0  502 -0.48945278830E+03 -0.62857310966E+02 -0.11285756743E+04  0.12317459707E+04  0.10100000352E+00 0. -1.
</event>
<event>
 5   0  0.2630135E-04  0.1636971E+04  0.7818609E-02  0.8798152E-01
       -1   -1    0    0    0  501  0.00000000000E+00  0.00000000000E+00  0.58447042107E+03  0.58447042109E+03  0.50400001928E-02 0. -1.
        1   -1    0    0  501    0  0.00000000000E+00  0.00000000000E+00 -0.11461975177E+04  0.11461975177E+04  0.50400001928E-02 0.  1.
    10030    2    1    2    0    0  0.00000000000E+00  0.00000000000E+00 -0.56172709659E+03  0.17306679388E+04  0.16369710392E+04 0.  0.
        1    1    3    3  502    0 -0.36817216525E+03 -0.68369848509E+03 -0.55436793384E+03  0.95410595212E+03  0.50400001928E-02 0.  1.
       -1    1    3    3    0  502  0.36817216525E+03  0.68369848509E+03 -0.73591627426E+01  0.77656198663E+03  0.50400001928E-02 0. -1.
</event>
<event>
 5   0  0.2785059E-04  0.1714287E+04  0.7818609E-02  0.8753257E-01
        1   -1    0    0  501    0  0.00000000000E+00  0.00000000000E+00  0.15590307463E+04  0.15590307464E+04  0.50400001928E-02 0.  1.
       -1   -1    0    0    0  501  0.00000000000E+00  0.00000000000E+00 -0.47125127607E+03  0.47125127610E+03  0.50400001928E-02 0. -1.
    10030    2    1    2    0    0  0.00000000000E+00  0.00000000000E+00  0.10877794703E+04  0.20302820224E+04  0.17142872906E+04 0.  0.
        5    1    3    3  502    0  0.79029129668E+03 -0.40882887744E+02  0.15388461315E+03  0.80618503353E+03  0.46999998093E+01 0. -1.
       -5    1    3    3    0  502 -0.79029129668E+03  0.40882887744E+02  0.93389485712E+03  0.12240969889E+04  0.46999998093E+01 0.  1.
</event>
<event>
 5   0  0.2630135E-04  0.1674095E+04  0.7818609E-02  0.8776279E-01
       -1   -1    0    0    0  501  0.00000000000E+00  0.00000000000E+00  0.45420773091E+03  0.45420773094E+03  0.50400001928E-02 0.  1.
        1   -1    0    0  501    0  0.00000000000E+00  0.00000000000E+00 -0.15425722613E+04  0.15425722613E+04  0.50400001928E-02 0. -1.
    10030    2    1    2    0    0  0.00000000000E+00  0.00000000000E+00 -0.10883645304E+04  0.19967799922E+04  0.16740946767E+04 0.  0.
        1    1    3    3  502    0  0.55413114746E+03  0.58359434343E+03 -0.26957829048E+03  0.84871440485E+03  0.50400001928E-02 0. -1.
       -1    1    3    3    0  502 -0.55413114746E+03 -0.58359434343E+03 -0.81878623991E+03  0.11480655874E+04  0.50400001928E-02 0.  1.
</event>
<event>
 5   0  0.2561518E-04  0.1826921E+04  0.7818609E-02  0.8692113E-01
        1   -1    0    0  501    0  0.00000000000E+00  0.00000000000E+00  0.75225622718E+03  0.75225622720E+03  0.50400001928E-02 0.  1.
       -1   -1    0    0    0  501  0.00000000000E+00  0.00000000000E+00 -0.11092103420E+04  0.11092103420E+04  0.50400001928E-02 0. -1.
    10030    2    1    2    0    0  0.00000000000E+00  0.00000000000E+00 -0.35695411482E+03  0.18614665692E+04  0.18269213306E+04 0.  0.
        4    1    3    3  502    0 -0.68318720957E+03  0.56019464490E+03  0.57958069458E+02  0.88539457543E+03  0.12699999809E+01 0. -1.
       -4    1    3    3    0  502  0.68318720957E+03 -0.56019464490E+03 -0.41491218428E+03  0.97607199378E+03  0.12699999809E+01 0.  1.
</event>
<event>
 5   0  0.2583422E-04  0.1722631E+04  0.7818609E-02  0.8748561E-01
        1   -1    0    0  501    0  0.00000000000E+00  0.00000000000E+00  0.10715353700E+04  0.10715353700E+04  0.50400001928E-02 0. -1.
       -1   -1    0    0    0  501  0.00000000000E+00  0.00000000000E+00 -0.69233754721E+03  0.69233754723E+03  0.50400001928E-02 0.  1.
    10030    2    1    2    0    0  0.00000000000E+00  0.00000000000E+00  0.37919782281E+03  0.17638729173E+04  0.17226307438E+04 0.  0.
        3    1    3    3  502    0 -0.85050746529E+03  0.37422253866E+02  0.55698122753E+02  0.85315043497E+03  0.10100000352E+00 0.  1.
       -3    1    3    3    0  502  0.85050746529E+03 -0.37422253866E+02  0.32349970005E+03  0.91072248229E+03  0.10100000352E+00 0. -1.
</event>
<event>
 5   0  0.5198430E-04  0.1705165E+04  0.7818609E-02  0.8758424E-01
       -2   -1    0    0    0  501  0.00000000000E+00  0.00000000000E+00  0.72066101138E+03  0.72066101139E+03  0.25500000920E-02 0.  1.
        2   -1    0    0  501    0  0.00000000000E+00  0.00000000000E+00 -0.10086530677E+04  0.10086530677E+04  0.25500000920E-02 0. -1.
    10030    2    1    2    0    0  0.00000000000E+00  0.00000000000E+00 -0.28799205634E+03  0.17293140791E+04  0.17051650242E+04 0.  0.
        4    1    3    3  502    0  0.65775270761E+03  0.54016822878E+03 -0.93542220573E+02  0.85625469323E+03  0.12699999809E+01 0. -1.
       -4    1    3    3    0  502 -0.65775270761E+03 -0.54016822878E+03 -0.19444983577E+03  0.87305938588E+03  0.12699999809E+01 0.  1.
</event>
<event>
 5   0  0.2595644E-04  0.1716872E+04  0.7818609E-02  0.8751800E-01
        1   -1    0    0  501    0  0.00000000000E+00  0.00000000000E+00  0.29052307318E+03  0.29052307323E+03  0.50400001928E-02 0. -1.
       -1   -1    0    0    0  501  0.00000000000E+00  0.00000000000E+00 -0.25365025734E+04  0.25365025734E+04  0.50400001928E-02 0.  1.
    10030    2    1    2    0    0  0.00000000000E+00  0.00000000000E+00 -0.22459795002E+04  0.28270256466E+04  0.17168721826E+04 0.  0.
        2    1    3    3  502    0 -0.45572640149E+03  0.63287815762E+03 -0.53229076851E+03  0.94422178415E+03  0.25500000920E-02 0. -1.
       -2    1    3    3    0  502  0.45572640149E+03 -0.63287815762E+03 -0.17136887317E+04  0.18828038625E+04  0.25500000920E-02 0.  1.
</event>
<event>
 5   0  0.2583422E-04  0.1690626E+04  0.7818609E-02  0.8766729E-01
       -1   -1    0    0    0  501  0.00000000000E+00  0.00000000000E+00  0.96697648738E+03  0.96697648739E+03  0.50400001928E-02 0.  1.
        1   -1    0    0  501    0  0.00000000000E+00  0.00000000000E+00 -0.73895677692E+03  0.73895677694E+03  0.50400001928E-02 0. -1.
    10030    2    1    2    0    0  0.00000000000E+00  0.00000000000E+00  0.22801971045E+03  0.17059332643E+04  0.16906257167E+04 0.  0.
        3    1    3    3  502    0  0.81605589001E+03 -0.15983128714E+03  0.26724187051E+03  0.87344804283E+03  0.10100000352E+00 0.  1.
       -3    1    3    3    0  502 -0.81605589001E+03  0.15983128714E+03 -0.39222160060E+02  0.83248522150E+03  0.10100000352E+00 0. -1.
</event>
<event>
 5   0  0.5342255E-04  0.1667376E+04  0.7818609E-02  0.8780193E-01
       -2   -1    0    0    0  501  0.00000000000E+00  0.00000000000E+00  0.43888341155E+03  0.43888341156E+03  0.25500000920E-02 0.  1.
        2   -1    0    0  501    0  0.00000000000E+00  0.00000000000E+00 -0.15836462179E+04  0.15836462179E+04  0.25500000920E-02 0. -1.
    10030    2    1    2    0    0  0.00000000000E+00  0.00000000000E+00 -0.11447628063E+04  0.20225296295E+04  0.16673764480E+04 0.  0.
        5    1    3    3  502    0 -0.55577426508E+03  0.36693389446E+03  0.35922006013E+02  0.66696176588E+03  0.46999998093E+01 0.  1.
       -5    1    3    3    0  502  0.55577426508E+03 -0.36693389446E+03 -0.11806848124E+04  0.13555678636E+04  0.46999998093E+01 0. -1.
</event>
<event>
 5   0  0.2595644E-04  0.1692697E+04  0.7818609E-02  0.8765540E-01
        1   -1    0    0  501    0  0.00000000000E+00  0.00000000000E+00  0.61815078861E+03  0.61815078863E+03  0.50400001928E-02 0.  1.
       -1   -1    0    0    0  501  0.00000000000E+00  0.00000000000E+00 -0.11587886099E+04  0.11587886099E+04  0.50400001928E-02 0. -1.
    10030    2    1    2    0    0  0.00000000000E+00  0.00000000000E+00 -0.54063782132E+03  0.17769393986E+04  0.16926973659E+04 0.  0.
        2    1    3    3  502    0  0.26398437633E+03 -0.30044622979E+03 -0.10533292606E+04  0.11267023650E+04  0.25500000920E-02 0. -1.
       -2    1    3    3    0  502 -0.26398437633E+03  0.30044622979E+03  0.51269143930E+03  0.65023703361E+03  0.25500000920E-02 0.  1.
</event>
<event>
 5   0  0.2583422E-04  0.1680051E+04  0.7818609E-02  0.8772825E-01
       -1   -1    0    0    0  501  0.00000000000E+00  0.00000000000E+00  0.58295950558E+03  0.58295950560E+03  0.50400001928E-02 0. -1.
        1   -1    0    0  501    0  0.00000000000E+00  0.00000000000E+00 -0.12104488498E+04  0.12104488498E+04  0.50400001928E-02 0.  1.
    10030    2    1    2    0    0  0.00000000000E+00  0.00000000000E+00 -0.62748934422E+03  0.17934083554E+04  0.16800507886E+04 0.  0.
        3    1    3    3  502    0 -0.17990687326E+02  0.32547349864E+03  0.51269293515E+03  0.60754482888E+03  0.10100000352E+00 0. -1.
       -3    1    3    3    0  502  0.17990687326E+02 -0.32547349864E+03 -0.11401822794E+04  0.11858635265E+04  0.10100000352E+00 0.  1.
</event>
<event>
 5   0  0.2785059E-04  0.1718480E+04  0.7818609E-02  0.8750894E-01
       -1   -1    0    0    0  501  0.00000000000E+00  0.00000000000E+00  0.44443790577E+03  0.44443790580E+03  0.50400001928E-02 0. -1.
        1   -1    0    0  501    0  0.00000000000E+00  0.00000000000E+00 -0.16611851700E+04  0.16611851700E+04  0.50400001928E-02 0.  1.
    10030    2    1    2    0    0  0.00000000000E+00  0.00000000000E+00 -0.12167472642E+04  0.21056230758E+04  0.17184803264E+04 0.  0.
        5    1    3    3  502    0  0.24743519679E+02 -0.57357413746E+03 -0.13916653366E+04  0.15054414741E+04  0.46999998093E+01 0.  1.
       -5    1    3    3    0  502 -0.24743519679E+02  0.57357413746E+03  0.17491807238E+03  0.60018160166E+03  0.46999998093E+01 0. -1.
</event>
<event>
 5   0  0.5021349E-04  0.1710211E+04  0.7818609E-02  0.8755562E-01
        2   -1    0    0  501    0  0.00000000000E+00  0.00000000000E+00  0.12242626065E+04  0.12242626065E+04  0.25500000920E-02 0.  1.
       -2   -1    0    0    0  501  0.00000000000E+00  0.00000000000E+00 -0.59726167114E+03  0.59726167114E+03  0.25500000920E-02 0. -1.
    10030    2    1    2    0    0  0.00000000000E+00  0.00000000000E+00  0.62700093539E+03  0.18215242777E+04  0.17102106657E+04 0.  0.
        2    1    3    3  502    0 -0.13980293802E+03 -0.70020217336E+03 -0.18763112647E+03  0.73826376363E+03  0.25500000920E-02 0. -1.
       -2    1    3    3    0  502  0.13980293802E+03  0.70020217336E+03  0.81463206186E+03  0.10832605140E+04  0.25500000920E-02 0.  1.
</event>
<event>
 5   0  0.5021349E-04  0.1715557E+04  0.7818609E-02  0.8752541E-01
        2   -1    0    0  501    0  0.00000000000E+00  0.00000000000E+00  0.10187026184E+04  0.10187026184E+04  0.25500000920E-02 0. -1.
       -2   -1    0    0    0  501  0.00000000000E+00  0.00000000000E+00 -0.72227557793E+03  0.72227557793E+03  0.25500000920E-02 0.  1.
    10030    2    1    2    0    0  0.00000000000E+00  0.00000000000E+00  0.29642704047E+03  0.17409781963E+04  0.17155570786E+04 0.  0.
        2    1    3    3  502    0 -0.44153400024E+03  0.66689359387E+03 -0.16635498744E+03  0.81692920181E+03  0.25500000920E-02 0.  1.
       -2    1    3    3    0  502  0.44153400024E+03 -0.66689359387E+03  0.46278202791E+03  0.92404899452E+03  0.25500000920E-02 0. -1.
</event>
<event>
 5   0  0.5342255E-04  0.1695397E+04  0.7818609E-02  0.8763994E-01
        2   -1    0    0  501    0  0.00000000000E+00  0.00000000000E+00  0.90853278863E+03  0.90853278863E+03  0.25500000920E-02 0. -1.
       -2   -1    0    0    0  501  0.00000000000E+00  0.00000000000E+00 -0.79093744262E+03  0.79093744262E+03  0.25500000920E-02 0.  1.
    10030    2    1    2    0    0  0.00000000000E+00  0.00000000000E+00  0.11759534601E+03  0.16994702313E+04  0.16953968272E+04 0.  0.
        5    1    3    3  502    0 -0.42028957291E+02  0.62869327863E+03 -0.50961750780E+03  0.81040345883E+03  0.46999998093E+01 0.  1.
       -5    1    3    3    0  502  0.42028957291E+02 -0.62869327863E+03  0.62721285381E+03  0.88906677242E+03  0.46999998093E+01 0. -1.
</event>
<event>
 5   0  0.5198430E-04  0.1711530E+04  0.7818609E-02  0.8754816E-01
        2   -1    0    0  501    0  0.00000000000E+00  0.00000000000E+00  0.12987051322E+04  0.12987051322E+04  0.25500000920E-02 0. -1.
       -2   -1    0    0    0  501  0.00000000000E+00  0.00000000000E+00 -0.56389532795E+03  0.56389532796E+03  0.25500000920E-02 0.  1.
    10030    2    1    2    0    0  0.00000000000E+00  0.00000000000E+00  0.73480980428E+03  0.18626004602E+04  0.17115300248E+04 0.  0.
        4    1    3    3  502    0  0.71892177079E+03  0.24521003306E+03 -0.61537262251E+02  0.76207933995E+03  0.12699999809E+01 0.  1.
       -4    1    3    3    0  502 -0.71892177079E+03 -0.24521003306E+03  0.79634706653E+03  0.11005211202E+04  0.12699999809E+01 0. -1.
</event>
<event>
 5   0  0.2630135E-04  0.1580490E+04  0.7818609E-02  0.8832624E-01
        1   -1    0    0  501    0  0.00000000000E+00  0.00000000000E+00  0.11189574802E+04  0.11189574802E+04  0.50400001928E-02 0.  1.
       -1   -1    0    0    0  501  0.00000000000E+00  0.00000000000E+00 -0.55809761277E+03  0.55809761279E+03  0.50400001928E-02 0. -1.
    10030    2    1    2    0    0  0.00000000000E+00  0.00000000000E+00  0.56085986747E+03  0.16770550930E+04  0.15804904284E+04 0.  0.
        1    1    3    3  502    0 -0.38335793610E+03  0.27283243998E+03 -0.39325163832E+03  0.61322728132E+03  0.50400001928E-02 0. -1.
       -1    1    3    3    0  502  0.38335793610E+03 -0.27283243998E+03  0.95411150579E+03  0.10638278117E+04  0.50400001928E-02 0.  1.
</event>
<event>
 5   0  0.5198430E-04  0.1518349E+04  0.7818609E-02  0.8872342E-01
       -2   -1    0    0    0  501  0.00000000000E+00  0.00000000000E+00  0.72051119097E+03  0.72051119097E+03  0.25500000920E-02 0.  1.
        2   -1    0    0  501    0  0.00000000000E+00  0.00000000000E+00 -0.79991216562E+03  0.79991216562E+03  0.25500000920E-02 0. -1.
    10030    2    1    2    0    0  0.00000000000E+00  0.00000000000E+00 -0.79400974651E+02  0.15204233566E+04  0.15183486650E+04 0.  0.
        4    1    3    3  502    0  0.40326966582E+02 -0.74226193798E+03 -0.19407015862E+03  0.76827331607E+03  0.12699999809E+01 0.  1.
       -4    1    3    3    0  502 -0.40326966582E+02  0.74226193798E+03  0.11466918397E+03  0.75215004053E+03  0.12699999809E+01 0. -1.
</event>
<event>
 5   0  0.2561518E-04  0.1722252E+04  0.7818609E-02  0.8748774E-01
        1   -1    0    0  501    0  0.00000000000E+00  0.00000000000E+00  0.67504294359E+03  0.67504294360E+03  0.50400001928E-02 0. -1.
       -1   -1    0    0    0  501  0.00000000000E+00  0.00000000000E+00 -0.10985044457E+04  0.10985044457E+04  0.50400001928E-02 0.  1.
    10030    2    1    2    0    0  0.00000000000E+00  0.00000000000E+00 -0.42346150209E+03  0.17735473893E+04  0.17222516362E+04 0.  0.
        4    1    3    3  502    0 -0.82830041256E+03  0.10978416319E+03 -0.42626700401E+03  0.93799749869E+03  0.12699999809E+01 0.  1.
       -4    1    3    3    0  502  0.82830041256E+03 -0.10978416319E+03  0.28055019224E+01  0.83554989060E+03  0.12699999809E+01 0. -1.
</event>
<event>
 5   0  0.5310003E-04  0.1674425E+04  0.7818609E-02  0.8776086E-01
       -2   -1    0    0    0  501  0.00000000000E+00  0.00000000000E+00  0.86148159613E+03  0.86148159614E+03  0.25500000920E-02 0.  1.
        2   -1    0    0  501    0  0.00000000000E+00  0.00000000000E+00 -0.81362756175E+03  0.81362756176E+03  0.25500000920E-02 0. -1.
    10030    2    1    2    0    0  0.00000000000E+00  0.00000000000E+00  0.47854034381E+02  0.16751091579E+04  0.16744254783E+04 0.  0.
        1    1    3    3  502    0  0.43225569838E+02 -0.14573940281E+02  0.86023744010E+03  0.86144605345E+03  0.50400001928E-02 0.  1.
       -1    1    3    3    0  502 -0.43225569838E+02  0.14573940281E+02 -0.81238340572E+03  0.81366310445E+03  0.50400001928E-02 0. -1.
</event>
<event>
 5   0  0.2583422E-04  0.1590488E+04  0.7818609E-02  0.8826413E-01
        1   -1    0    0  501    0  0.00000000000E+00  0.00000000000E+00  0.13468057095E+04  0.13468057095E+04  0.50400001928E-02 0.  1.
       -1   -1    0    0    0  501  0.00000000000E+00  0.00000000000E+00 -0.46956543373E+03  0.46956543375E+03  0.50400001928E-02 0. -1.
    10030    2    1    2    0    0  0.00000000000E+00  0.00000000000E+00  0.87724027581E+03  0.18163711433E+04  0.15904884875E+04 0.  0.
        3    1    3    3  502    0  0.50020418323E+03 -0.42782449474E+03  0.94829343927E+03  0.11543389798E+04  0.10100000352E+00 0.  1.
       -3    1    3    3    0  502 -0.50020418323E+03  0.42782449474E+03 -0.71053163459E+02  0.66203216346E+03  0.10100000352E+00 0. -1.
</event>
<event>
 5   0  0.5299877E-04  0.1444971E+04  0.7818609E-02  0.8921895E-01
        2   -1    0    0  501    0  0.00000000000E+00  0.00000000000E+00  0.23189824936E+04  0.23189824936E+04  0.25500000920E-02 0. -1.
       -2   -1    0    0    0  501  0.00000000000E+00  0.00000000000E+00 -0.22509223467E+03  0.22509223469E+03  0.25500000920E-02 0.  1.
    10030    2    1    2    0    0  0.00000000000E+00  0.00000000000E+00  0.20938902589E+04  0.25440747283E+04  0.14449705211E+04 0.  0.
        3    1    3    3  502    0  0.31164911101E+03  0.64916230360E+03  0.11503305585E+04  0.13571283170E+04  0.10100000352E+00 0. -1.
       -3    1    3    3    0  502 -0.31164911101E+03 -0.64916230360E+03  0.94355970049E+03  0.11869464113E+04  0.10100000352E+00 0.  1.
</event>
<event>
 5   0  0.2785059E-04  0.1708743E+04  0.7818609E-02  0.8756394E-01
        1   -1    0    0  501    0  0.00000000000E+00  0.00000000000E+00  0.17511012050E+04  0.17511012050E+04  0.50400001928E-02 0. -1.
       -1   -1    0    0    0  501  0.00000000000E+00  0.00000000000E+00 -0.41685219130E+03  0.41685219133E+03  0.50400001928E-02 0.  1.
    10030    2    1    2    0    0  0.00000000000E+00  0.00000000000E+00  0.13342490137E+04  0.21679533963E+04  0.17087426659E+04 0.  0.
        5    1    3    3  502    0 -0.54566084578E+03  0.83282724818E+02  0.14944828666E+04  0.15931675679E+04  0.46999998093E+01 0. -1.
       -5    1    3    3    0  502  0.54566084578E+03 -0.83282724818E+02 -0.16023385296E+03  0.57478582838E+03  0.46999998093E+01 0.  1.
</event>
<event>
 5   0  0.5310003E-04  0.1727955E+04  0.7818609E-02  0.8745579E-01
        2   -1    0    0  501    0  0.00000000000E+00  0.00000000000E+00  0.44172311860E+03  0.44172311860E+03  0.25500000920E-02 0.  1.
       -2   -1    0    0    0  501  0.00000000000E+00  0.00000000000E+00 -0.16898753804E+04  0.16898753804E+04  0.25500000920E-02 0. -1.
    10030    2    1    2    0    0  0.00000000000E+00  0.00000000000E+00 -0.12481522618E+04  0.21315984990E+04  0.17279548872E+04 0.  0.
        1    1    3    3  502    0  0.43555034194E+03 -0.25919380972E+03  0.23906351677E+03  0.56038995033E+03  0.50400001928E-02 0.  1.
       -1    1    3    3    0  502 -0.43555034194E+03  0.25919380972E+03 -0.14872157786E+04  0.15712085487E+04  0.50400001928E-02 0. -1.
</event>
<event>
 5   0  0.5299877E-04  0.1704799E+04  0.7818609E-02  0.8758632E-01
        2   -1    0    0  501    0  0.00000000000E+00  0.00000000000E+00  0.90677338471E+03  0.90677338472E+03  0.25500000920E-02 0. -1.
       -2   -1    0    0    0  501  0.00000000000E+00  0.00000000000E+00 -0.80128644568E+03  0.80128644569E+03  0.25500000920E-02 0.  1.
    10030    2    1    2    0    0  0.00000000000E+00  0.00000000000E+00  0.10548693903E+03  0.17080598304E+04  0.17047993694E+04 0.  0.
        3    1    3    3  502    0 -0.15595552846E+02 -0.34567805822E+03  0.83323825480E+03  0.90223197719E+03  0.10100000352E+00 0. -1.
       -3    1    3    3    0  502  0.15595552846E+02  0.34567805822E+03 -0.72775131577E+03  0.80582785321E+03  0.10100000352E+00 0.  1.
</event>
<event>
 5   0  0.2785059E-04  0.1677887E+04  0.7818609E-02  0.8774077E-01
       -1   -1    0    0    0  501  0.00000000000E+00  0.00000000000E+00  0.40462868616E+03  0.40462868620E+03  0.50400001928E-02 0. -1.
        1   -1    0    0  501    0  0.00000000000E+00  0.00000000000E+00 -0.17394378981E+04  0.17394378981E+04  0.50400001928E-02 0.  1.
    10030    2    1    2    0    0  0.00000000000E+00  0.00000000000E+00 -0.13348092119E+04  0.21440665843E+04  0.16778873280E+04 0.  0.
        5    1    3    3  502    0  0.58071640214E+03  0.49134247218E+03 -0.21534021458E+03  0.79059627036E+03  0.46999998093E+01 0. -1.
       -5    1    3    3    0  502 -0.58071640214E+03 -0.49134247218E+03 -0.11194689973E+04  0.13534703139E+04  0.46999998093E+01 0.  1.
</event>
<event>
 5   0  0.2561518E-04  0.1706089E+04  0.7818609E-02  0.8757899E-01
       -1   -1    0    0    0  501  0.00000000000E+00  0.00000000000E+00  0.11021724413E+04  0.11021724413E+04  0.50400001928E-02 0.  1.
        1   -1    0    0  501    0  0.00000000000E+00  0.00000000000E+00 -0.66022763230E+03  0.66022763232E+03  0.50400001928E-02 0. -1.
    10030    2    1    2    0    0  0.00000000000E+00  0.00000000000E+00  0.44194480896E+03  0.17624000736E+04  0.17060887448E+04 0.  0.
        4    1    3    3  502    0  0.21919559777E+03 -0.78074196116E+03 -0.52488266641E+02  0.81262620622E+03  0.12699999809E+01 0.  1.
       -4    1    3    3    0  502 -0.21919559777E+03  0.78074196116E+03  0.49443307560E+03  0.94977386737E+03  0.12699999809E+01 0. -1.
</event>
<event>
 5   0  0.2595644E-04  0.1712593E+04  0.7818609E-02  0.8754215E-01
       -1   -1    0    0    0  501  0.00000000000E+00  0.00000000000E+00  0.96887440347E+03  0.96887440348E+03  0.50400001928E-02 0.  1.
        1   -1    0    0  501    0  0.00000000000E+00  0.00000000000E+00 -0.75679954086E+03  0.75679954087E+03  0.50400001928E-02 0. -1.
    10030    2    1    2    0    0  0.00000000000E+00  0.00000000000E+00  0.21207486261E+03  0.17256739444E+04  0.17125930091E+04 0.  0.
        2    1    3    3  502    0 -0.56074006088E+03  0.45109997035E+03 -0.36153607098E+03  0.80537502429E+03  0.25500000920E-02 0. -1.
       -2    1    3    3    0  502  0.56074006088E+03 -0.45109997035E+03  0.57361093359E+03  0.92029892006E+03  0.25500000920E-02 0.  1.
</event>
<event>
 5   0  0.5198430E-04  0.1558533E+04  0.7818609E-02  0.8846436E-01
        2   -1    0    0  501    0  0.00000000000E+00  0.00000000000E+00  0.45142148420E+03  0.45142148421E+03  0.25500000920E-02 0. -1.
       -2   -1    0    0    0  501  0.00000000000E+00  0.00000000000E+00 -0.13452086761E+04  0.13452086761E+04  0.25500000920E-02 0.  1.
    10030    2    1    2    0    0  0.00000000000E+00  0.00000000000E+00 -0.89378719193E+03  0.17966301603E+04  0.15585327679E+04 0.  0.
        4    1    3    3  502    0  0.56942632322E+02  0.75993037898E+03 -0.63461414728E+03  0.99170226031E+03  0.12699999809E+01 0. -1.
       -4    1    3    3    0  502 -0.56942632322E+02 -0.75993037898E+03 -0.25917304465E+03  0.80492790003E+03  0.12699999809E+01 0.  1.
</event>
<event>
 5   0  0.5310003E-04  0.1693589E+04  0.7818609E-02  0.8765029E-01
       -2   -1    0    0    0  501  0.00000000000E+00  0.00000000000E+00  0.63606903511E+03  0.63606903511E+03  0.25500000920E-02 0.  1.
        2   -1    0    0  501    0  0.00000000000E+00  0.00000000000E+00 -0.11273324145E+04  0.11273324145E+04  0.25500000920E-02 0. -1.
    10030    2    1    2    0    0  0.00000000000E+00  0.00000000000E+00 -0.49126337942E+03  0.17634014496E+04  0.16935893731E+04 0.  0.
        1    1    3    3  502    0 -0.63623176960E+03 -0.50925864686E+03 -0.48517146557E+03  0.94843375366E+03  0.50400001928E-02 0. -1.
       -1    1    3    3    0  502  0.63623176960E+03  0.50925864686E+03 -0.60919138526E+01  0.81496769598E+03  0.50400001928E-02 0.  1.
</event>
<event>
 5   0  0.2630135E-04  0.1715644E+04  0.7818609E-02  0.8752492E-01
       -1   -1    0    0    0  501  0.00000000000E+00  0.00000000000E+00  0.95803102360E+03  0.95803102361E+03  0.50400001928E-02 0.  1.
        1   -1    0    0  501    0  0.00000000000E+00  0.00000000000E+00 -0.76809445791E+03  0.76809445792E+03  0.50400001928E-02 0. -1.
    10030    2    1    2    0    0  0.00000000000E+00  0.00000000000E+00  0.18993656569E+03  0.17261254815E+04  0.17156436923E+04 0.  0.
        1    1    3    3  502    0  0.63168819504E+03  0.35059614014E+03  0.56029877370E+03  0.91426601439E+03  0.50400001928E-02 0.  1.
       -1    1    3    3    0  502 -0.63168819504E+03 -0.35059614014E+03 -0.37036220801E+03  0.81185946714E+03  0.50400001928E-02 0. -1.
</event>
<event>
 5   0  0.5342255E-04  0.1640098E+04  0.7818609E-02  0.8796286E-01
        2   -1    0    0  501    0  0.00000000000E+00  0.00000000000E+00  0.13486003075E+04  0.13486003075E+04  0.25500000920E-02 0. -1.
       -2   -1    0    0    0  501  0.00000000000E+00  0.00000000000E+00 -0.49865091067E+03  0.49865091068E+03  0.25500000920E-02 0.  1.
    10030    2    1    2    0    0  0.00000000000E+00  0.00000000000E+00  0.84994939683E+03  0.18472512182E+04  0.16400984988E+04 0.  0.
        5    1    3    3  502    0 -0.10753994334E+03 -0.39232888345E+03 -0.37697655421E+03  0.55463519959E+03  0.46999998093E+01 0.  1.
       -5    1    3    3    0  502  0.10753994334E+03  0.39232888345E+03  0.12269259510E+04  0.12926160186E+04  0.46999998093E+01 0. -1.
</event>
<event>
 5   0  0.2561518E-04  0.1715845E+04  0.7818609E-02  0.8752379E-01
       -1   -1    0    0    0  501  0.00000000000E+00  0.00000000000E+00  0.74088444523E+03  0.74088444524E+03  0.50400001928E-02 0.  1.
        1   -1    0    0  501    0  0.00000000000E+00  0.00000000000E+00 -0.99344921136E+03  0.99344921137E+03  0.50400001928E-02 0. -1.
    10030    2    1    2    0    0  0.00000000000E+00  0.00000000000E+00 -0.25256476613E+03  0.17343336566E+04  0.17158450604E+04 0.  0.
        4    1    3    3  502    0  0.36354950070E+03  0.71805905173E+03  0.17399172074E+03  0.82343899167E+03  0.12699999809E+01 0.  1.
       -4    1    3    3    0  502 -0.36354950070E+03 -0.71805905173E+03 -0.42655648687E+03  0.91089466494E+03  0.12699999809E+01 0. -1.
</event>
<event>
 5   0  0.2583422E-04  0.1712971E+04  0.7818609E-02  0.8754001E-01
       -1   -1    0    0    0  501  0.00000000000E+00  0.00000000000E+00  0.96065651115E+03  0.96065651117E+03  0.50400001928E-02 0.  1.
        1   -1    0    0  501    0  0.00000000000E+00  0.00000000000E+00 -0.76361035450E+03  0.76361035452E+03  0.50400001928E-02 0. -1.
    10030    2    1    2    0    0  0.00000000000E+00  0.00000000000E+00  0.19704615665E+03  0.17242668657E+04  0.17129708218E+04 0.  0.
        3    1    3    3  502    0 -0.95274998713E+02  0.47884169026E+03  0.80686848247E+03  0.94308188824E+03  0.10100000352E+00 0.  1.
       -3    1    3    3    0  502  0.95274998713E+02 -0.47884169026E+03 -0.60982232582E+03  0.78118497744E+03  0.10100000352E+00 0. -1.
</event>
<event>
 5   0  0.1910750E-04  0.1694941E+04  0.7818609E-02  0.8764255E-01
        3   -1    0    0  501    0  0.00000000000E+00  0.00000000000E+00  0.48249484521E+03  0.48249485578E+03  0.10100000352E+00 0. -1.
       -3   -1    0    0    0  501  0.00000000000E+00  0.00000000000E+00 -0.14885270682E+04  0.14885270717E+04  0.10100000352E+00 0.  1.
    10030    2    1    2    0    0  0.00000000000E+00  0.00000000000E+00 -0.10060322230E+04  0.19710219274E+04  0.16949414753E+04 0.  0.
        5    1    3    3  502    0  0.68741764423E+03  0.28985597359E+03 -0.35505905906E+02  0.74688838683E+03  0.46999998093E+01 0. -1.
       -5    1    3    3    0  502 -0.68741764423E+03 -0.28985597359E+03 -0.97052631712E+03  0.12241335406E+04  0.46999998093E+01 0.  1.
</event>
<event>
 5   0  0.2595644E-04  0.1655594E+04  0.7818609E-02  0.8787104E-01
       -1   -1    0    0    0  501  0.00000000000E+00  0.00000000000E+00  0.62444187359E+03  0.62444187361E+03  0.50400001928E-02 0. -1.
        1   -1    0    0  501    0  0.00000000000E+00  0.00000000000E+00 -0.10973760776E+04  0.10973760776E+04  0.50400001928E-02 0.  1.
    10030    2    1    2    0    0  0.00000000000E+00  0.00000000000E+00 -0.47293420404E+03  0.17218179513E+04  0.16555936385E+04 0.  0.
        2    1    3    3  502    0 -0.68346731863E+03  0.18943597258E+03 -0.68043155527E+03  0.98285332820E+03  0.25500000920E-02 0.  1.
       -2    1    3    3    0  502  0.68346731863E+03 -0.18943597258E+03  0.20749735123E+03  0.73896462305E+03  0.25500000920E-02 0. -1.
</event>
<event>
 5   0  0.5198430E-04  0.1687905E+04  0.7818609E-02  0.8768293E-01
       -2   -1    0    0    0  501  0.00000000000E+00  0.00000000000E+00  0.38997411226E+03  0.38997411227E+03  0.25500000920E-02 0. -1.
        2   -1    0    0  501    0  0.00000000000E+00  0.00000000000E+00 -0.18264179866E+04  0.18264179866E+04  0.25500000920E-02 0.  1.
    10030    2    1    2    0    0  0.00000000000E+00  0.00000000000E+00 -0.14364438743E+04  0.22163920988E+04  0.16879048942E+04 0.  0.
        4    1    3    3  502    0  0.56493622582E+02  0.83557354888E+02  0.38203003681E+03  0.39512266813E+03  0.12699999809E+01 0. -1.
       -4    1    3    3    0  502 -0.56493622582E+02 -0.83557354888E+02 -0.18184739111E+04  0.18212694307E+04  0.12699999809E+01 0.  1.
</event>
<event>
 5   0  0.2630135E-04  0.1674875E+04  0.7818609E-02  0.8775825E-01
       -1   -1    0    0    0  501  0.00000000000E+00  0.00000000000E+00  0.16853674191E+04  0.16853674191E+04  0.50400001928E-02 0. -1.
        1   -1    0    0  501    0  0.00000000000E+00  0.00000000000E+00 -0.41611179698E+03  0.41611179701E+03  0.50400001928E-02 0.  1.
    10030    2    1    2    0    0  0.00000000000E+00  0.00000000000E+00  0.12692556221E+04  0.21014792161E+04  0.16748746405E+04 0.  0.
        1    1    3    3  502    0 -0.29284871544E+03 -0.26439252127E+03 -0.29219111438E+03  0.49095765886E+03  0.50400001928E-02 0.  1.
       -1    1    3    3    0  502  0.29284871544E+03  0.26439252127E+03  0.15614467365E+04  0.16105215572E+04  0.50400001928E-02 0. -1.
</event>
<event>
 5   0  0.2583422E-04  0.1711811E+04  0.7818609E-02  0.8754657E-01
       -1   -1    0    0    0  501  0.00000000000E+00  0.00000000000E+00  0.14941921493E+04  0.14941921493E+04  0.50400001928E-02 0.  1.
        1   -1    0    0  501    0  0.00000000000E+00  0.00000000000E+00 -0.49028093648E+03  0.49028093651E+03  0.50400001928E-02 0. -1.
    10030    2    1    2    0    0  0.00000000000E+00  0.00000000000E+00  0.10039112128E+04  0.19844730858E+04  0.17118106511E+04 0.  0.
        3    1    3    3  502    0 -0.36095948269E+03  0.64464133313E+03  0.10028943038E+04  0.12456529177E+04  0.10100000352E+00 0.  1.
       -3    1    3    3    0  502  0.36095948269E+03 -0.64464133313E+03  0.10169089965E+01  0.73882016812E+03  0.10100000352E+00 0. -1.
</event>
<event>
 5   0  0.5021349E-04  0.1779517E+04  0.7818609E-02  0.8717269E-01
        2   -1    0    0  501    0  0.00000000000E+00  0.00000000000E+00  0.63916261218E+03  0.63916261219E+03  0.25500000920E-02 0.  1.
       -2   -1    0    0    0  501  0.00000000000E+00  0.00000000000E+00 -0.12386049596E+04  0.12386049596E+04  0.25500000920E-02 0. -1.
    10030    2    1    2    0    0  0.00000000000E+00  0.00000000000E+00 -0.59944234738E+03  0.18777675718E+04  0.17795167675E+04 0.  0.
        2    1    3    3  502    0  0.13665195247E+03 -0.27834258992E+03  0.58030394791E+03  0.65795214525E+03  0.25500000920E-02 0.  1.
       -2    1    3    3    0  502 -0.13665195247E+03  0.27834258992E+03 -0.11797462953E+04  0.12198154265E+04  0.25500000920E-02 0. -1.
</event>
<event>
 5   0  0.5198430E-04  0.1683138E+04  0.7818609E-02  0.8771040E-01
       -2   -1    0    0    0  501  0.00000000000E+00  0.00000000000E+00  0.44099793098E+03  0.44099793099E+03  0.25500000920E-02 0. -1.
        2   -1    0    0  501    0  0.00000000000E+00  0.00000000000E+00 -0.16059908652E+04  0.16059908652E+04  0.25500000920E-02 0.  1.
    10030    2    1    2    0    0  0.00000000000E+00  0.00000000000E+00 -0.11649929343E+04  0.20469887962E+04  0.16831383173E+04 0.  0.
        4    1    3    3  502    0  0.56758184027E+03 -0.57488710576E+03 -0.86924721946E+03  0.11866914811E+04  0.12699999809E+01 0.  1.
       -4    1    3    3    0  502 -0.56758184027E+03  0.57488710576E+03 -0.29574571480E+03  0.86029731517E+03  0.12699999809E+01 0. -1.
</event>
<event>
 5   0  0.2785059E-04  0.1685767E+04  0.7818609E-02  0.8769524E-01
       -1   -1    0    0    0  501  0.00000000000E+00  0.00000000000E+00  0.29960823601E+03  0.29960823605E+03  0.50400001928E-02 0.  1.
        1   -1    0    0  501    0  0.00000000000E+00  0.00000000000E+00 -0.23712726874E+04  0.23712726874E+04  0.50400001928E-02 0. -1.
    10030    2    1    2    0    0  0.00000000000E+00  0.00000000000E+00 -0.20716644514E+04  0.26708809234E+04  0.16857672758E+04 0.  0.
        5    1    3    3  502    0  0.37459621154E+02 -0.72593135837E+03 -0.35982139753E+03  0.81109376054E+03  0.46999998093E+01 0.  1.
       -5    1    3    3    0  502 -0.37459621154E+02  0.72593135837E+03 -0.17118430538E+04  0.18597871629E+04  0.46999998093E+01 0. -1.
</event>
<event>
 5   0  0.5198430E-04  0.1650857E+04  0.7818609E-02  0.8789900E-01
        2   -1    0    0  501    0  0.00000000000E+00  0.00000000000E+00  0.15360041685E+04  0.15360041686E+04  0.25500000920E-02 0.  1.
       -2   -1    0    0    0  501  0.00000000000E+00  0.00000000000E+00 -0.44357438105E+03  0.44357438105E+03  0.25500000920E-02 0. -1.
    10030    2    1    2    0    0  0.00000000000E+00  0.00000000000E+00  0.10924297875E+04  0.19795785496E+04  0.16508568664E+04 0.  0.
        4    1    3    3  502    0 -0.14290791550E+03 -0.43585327100E+03 -0.27668307121E+03  0.53567329684E+03  0.12699999809E+01 0. -1.
       -4    1    3    3    0  502  0.14290791550E+03  0.43585327100E+03  0.13691128587E+04  0.14439052528E+04  0.12699999809E+01 0.  1.
</event>
<event>
 5   0  0.2595644E-04  0.1698629E+04  0.7818609E-02  0.8762147E-01
       -1   -1    0    0    0  501  0.00000000000E+00  0.00000000000E+00  0.19242413786E+03  0.19242413792E+03  0.50400001928E-02 0. -1.
        1   -1    0    0  501    0  0.00000000000E+00  0.00000000000E+00 -0.37486728591E+04  0.37486728592E+04  0.50400001928E-02 0.  1.
    10030    2    1    2    0    0  0.00000000000E+00  0.00000000000E+00 -0.35562487213E+04  0.39410969971E+04  0.16986290274E+04 0.  0.
        2    1    3    3  502    0 -0.15081028643E+03  0.13805442789E+03  0.13447347028E+03  0.24471592055E+03  0.25500000920E-02 0. -1.
       -2    1    3    3    0  502  0.15081028643E+03 -0.13805442789E+03 -0.36907221916E+04  0.36963810765E+04  0.25500000920E-02 0.  1.
</event>
<event>
 5   0  0.5342255E-04  0.1765672E+04  0.7818609E-02  0.8724771E-01
        2   -1    0    0  501    0  0.00000000000E+00  0.00000000000E+00  0.15188949957E+04  0.15188949958E+04  0.25500000920E-02 0. -1.
       -2   -1    0    0    0  501  0.00000000000E+00  0.00000000000E+00 -0.51313605049E+03  0.51313605050E+03  0.25500000920E-02 0.  1.
    10030    2    1    2    0    0  0.00000000000E+00  0.00000000000E+00  0.10057589453E+04  0.20320310462E+04  0.17656724263E+04 0.  0.
        5    1    3    3  502    0 -0.12671713398E+03  0.37178359262E+03 -0.40702134742E+03  0.56565779323E+03  0.46999998093E+01 0.  1.
       -5    1    3    3    0  502  0.12671713398E+03 -0.37178359262E+03  0.14127802927E+04  0.14663732530E+04  0.46999998093E+01 0. -1.
</event>
<event>
 5   0  0.2561518E-04  0.1674907E+04  0.7818609E-02  0.8775807E-01
        1   -1    0    0  501    0  0.00000000000E+00  0.00000000000E+00  0.53855331477E+03  0.53855331480E+03  0.50400001928E-02 0. -1.
       -1   -1    0    0    0  501  0.00000000000E+00  0.00000000000E+00 -0.13022446782E+04  0.13022446782E+04  0.50400001928E-02 0.  1.
    10030    2    1    2    0    0  0.00000000000E+00  0.00000000000E+00 -0.76369136338E+03  0.18407979930E+04  0.16749067892E+04 0.  0.
        4    1    3    3  502    0 -0.64966674311E+03  0.16607353308E+03  0.16951935158E+03  0.69165433488E+03  0.12699999809E+01 0. -1.
       -4    1    3    3    0  502  0.64966674311E+03 -0.16607353308E+03 -0.93321071496E+03  0.11491436581E+04  0.12699999809E+01 0.  1.
</event>
<event>
 5   0  0.5299877E-04  0.1682669E+04  0.7818609E-02  0.8771311E-01
       -2   -1    0    0    0  501  0.00000000000E+00  0.00000000000E+00  0.71659241249E+03  0.71659241250E+03  0.25500000920E-02 0.  1.
        2   -1    0    0  501    0  0.00000000000E+00  0.00000000000E+00 -0.98779092519E+03  0.98779092519E+03  0.25500000920E-02 0. -1.
    10030    2    1    2    0    0  0.00000000000E+00  0.00000000000E+00 -0.27119851270E+03  0.17043833377E+04  0.16826686924E+04 0.  0.
        3    1    3    3  502    0 -0.38402650353E+03  0.72672571621E+03  0.46264000396E+02  0.82325390370E+03  0.10100000352E+00 0. -1.
       -3    1    3    3    0  502  0.38402650353E+03 -0.72672571621E+03 -0.31746251309E+03  0.88112943399E+03  0.10100000352E+00 0.  1.
</event>
<event>
 5   0  0.1910750E-04  0.1690109E+04  0.7818609E-02  0.8767026E-01
       -4   -1    0    0    0  501  0.00000000000E+00  0.00000000000E+00  0.11256545162E+04  0.11256552326E+04  0.12699999809E+01 0. -1.
        4   -1    0    0  501    0  0.00000000000E+00  0.00000000000E+00 -0.63440036139E+03  0.63440163259E+03  0.12699999809E+01 0.  1.
    10030    2    1    2    0    0  0.00000000000E+00  0.00000000000E+00  0.49125415477E+03  0.17600568652E+04  0.16901093231E+04 0.  0.
        3    1    3    3  502    0  0.60322103382E+03  0.40092597083E+03 -0.20770520622E+03  0.75349765269E+03  0.10100000352E+00 0.  1.
       -3    1    3    3    0  502 -0.60322103382E+03 -0.40092597083E+03  0.69895936099E+03  0.10065592125E+04  0.10100000352E+00 0. -1.
</event>
<event>
 5   0  0.5021349E-04  0.1673966E+04  0.7818609E-02  0.8776353E-01
        2   -1    0    0  501    0  0.00000000000E+00  0.00000000000E+00  0.81176894719E+03  0.81176894719E+03  0.25500000920E-02 0.  1.
       -2   -1    0    0    0  501  0.00000000000E+00  0.00000000000E+00 -0.86298034987E+03  0.86298034987E+03  0.25500000920E-02 0. -1.
    10030    2    1    2    0    0  0.00000000000E+00  0.00000000000E+00 -0.51211402682E+02  0.16747492971E+04  0.16739661288E+04 0.  0.
        2    1    3    3  502    0  0.75619670998E+02  0.58871363003E+03 -0.61599921557E+03  0.85542802527E+03  0.25500000920E-02 0. -1.
       -2    1    3    3    0  502 -0.75619670998E+02 -0.58871363003E+03  0.56478781288E+03  0.81932127179E+03  0.25500000920E-02 0.  1.
</event>
<event>
 5   0  0.1910750E-04  0.1714731E+04  0.7818609E-02  0.8753007E-01
        3   -1    0    0  501    0  0.00000000000E+00  0.00000000000E+00  0.10303623051E+04  0.10303623100E+04  0.10100000352E+00 0. -1.
       -3   -1    0    0    0  501  0.00000000000E+00  0.00000000000E+00 -0.71341483047E+03  0.71341483762E+03  0.10100000352E+00 0.  1.
    10030    2    1    2    0    0  0.00000000000E+00  0.00000000000E+00  0.31694747460E+03  0.17437771476E+04  0.17147311856E+04 0.  0.
        2    1    3    3  502    0 -0.11172586534E+03  0.54976228809E+03  0.81780367362E+03  0.99172783111E+03  0.25500000920E-02 0. -1.
       -2    1    3    3    0  502  0.11172586534E+03 -0.54976228809E+03 -0.50085619902E+03  0.75204931654E+03  0.25500000920E-02 0.  1.
</event>
<event>
 5   0  0.5198430E-04  0.1592919E+04  0.7818609E-02  0.8824910E-01
        2   -1    0    0  501    0  0.00000000000E+00  0.00000000000E+00  0.16152977696E+04  0.16152977696E+04  0.25500000920E-02 0.  1.
       -2   -1    0    0    0  501  0.00000000000E+00  0.00000000000E+00 -0.39271234475E+03  0.39271234476E+03  0.25500000920E-02 0. -1.
    10030    2    1    2    0    0  0.00000000000E+00  0.00000000000E+00  0.12225854249E+04  0.20080101144E+04  0.15929185473E+04 0.  0.
        4    1    3    3  502    0  0.73105672128E+03 -0.29839732506E+03  0.47992017086E+03  0.92401833133E+03  0.12699999809E+01 0. -1.
       -4    1    3    3    0  502 -0.73105672128E+03  0.29839732506E+03  0.74266525401E+03  0.10839917831E+04  0.12699999809E+01 0.  1.
</event>
<event>
 5   0  0.5342255E-04  0.1717255E+04  0.7818609E-02  0.8751584E-01
       -2   -1    0    0    0  501  0.00000000000E+00  0.00000000000E+00  0.80439602878E+03  0.80439602878E+03  0.25500000920E-02 0. -1.
        2   -1    0    0  501    0  0.00000000000E+00  0.00000000000E+00 -0.91651510507E+03  0.91651510507E+03  0.25500000920E-02 0.  1.
    10030    2    1    2    0    0  0.00000000000E+00  0.00000000000E+00 -0.11211907629E+03  0.17209111339E+04  0.17172549151E+04 0.  0.
        5    1    3    3  502    0  0.53316500203E+03 -0.31830870385E+03 -0.65030914532E+03  0.89917152136E+03  0.46999998093E+01 0.  1.
       -5    1    3    3    0  502 -0.53316500203E+03  0.31830870385E+03  0.53819006903E+03  0.82173961250E+03  0.46999998093E+01 0. -1.
</event>
<event>
 5   0  0.2561518E-04  0.1702767E+04  0.7818609E-02  0.8759788E-01
        1   -1    0    0  501    0  0.00000000000E+00  0.00000000000E+00  0.18677458039E+04  0.18677458039E+04  0.50400001928E-02 0.  1.
       -1   -1    0    0    0  501  0.00000000000E+00  0.00000000000E+00 -0.38809012458E+03  0.38809012462E+03  0.50400001928E-02 0. -1.
    10030    2    1    2    0    0  0.00000000000E+00  0.00000000000E+00  0.14796556793E+04  0.22558359285E+04  0.17027668094E+04 0.  0.
        4    1    3    3  502    0  0.83909015075E+03  0.10086005171E+03  0.60338529826E+03  0.10384221021E+04  0.12699999809E+01 0. -1.
       -4    1    3    3    0  502 -0.83909015075E+03 -0.10086005171E+03  0.87627038107E+03  0.12174138264E+04  0.12699999809E+01 0.  1.
</event>
<event>
 5   0  0.2595644E-04  0.1701197E+04  0.7818609E-02  0.8760682E-01
        1   -1    0    0  501    0  0.00000000000E+00  0.00000000000E+00  0.12064789728E+04  0.12064789728E+04  0.50400001928E-02 0.  1.
       -1   -1    0    0    0  501  0.00000000000E+00  0.00000000000E+00 -0.59969332509E+03  0.59969332512E+03  0.50400001928E-02 0. -1.
    10030    2    1    2    0    0  0.00000000000E+00  0.00000000000E+00  0.60678564767E+03  0.18061722979E+04  0.17011965047E+04 0.  0.
        2    1    3    3  502    0  0.64412906956E+03  0.52482088292E+03  0.11000420767E+03  0.83811702233E+03  0.25500000920E-02 0. -1.
       -2    1    3    3    0  502 -0.64412906956E+03 -0.52482088292E+03  0.49678144001E+03  0.96805527556E+03  0.25500000920E-02 0.  1.
</event>
<event>
 5   0  0.5342255E-04  0.1700046E+04  0.7818609E-02  0.8761338E-01
       -2   -1    0    0    0  501  0.00000000000E+00  0.00000000000E+00  0.47441301904E+03  0.47441301905E+03  0.25500000920E-02 0. -1.
        2   -1    0    0  501    0  0.00000000000E+00  0.00000000000E+00 -0.15230165959E+04  0.15230165959E+04  0.25500000920E-02 0.  1.
    10030    2    1    2    0    0  0.00000000000E+00  0.00000000000E+00 -0.10486035768E+04  0.19974296149E+04  0.17000457656E+04 0.  0.
        5    1    3    3  502    0  0.43367320468E+03  0.37944926435E+03 -0.12584784979E+04  0.13841403152E+04  0.46999998093E+01 0.  1.
       -5    1    3    3    0  502 -0.43367320468E+03 -0.37944926435E+03  0.20987492101E+03  0.61328929971E+03  0.46999998093E+01 0. -1.
</event>
<event>
 5   0  0.2583422E-04  0.1688249E+04  0.7818609E-02  0.8768095E-01
       -1   -1    0    0    0  501  0.00000000000E+00  0.00000000000E+00  0.75985924946E+03  0.75985924947E+03  0.50400001928E-02 0. -1.
        1   -1    0    0  501    0  0.00000000000E+00  0.00000000000E+00 -0.93773390435E+03  0.93773390436E+03  0.50400001928E-02 0.  1.
    10030    2    1    2    0    0  0.00000000000E+00  0.00000000000E+00 -0.17787465489E+03  0.16975931538E+04  0.16882485371E+04 0.  0.
        3    1    3    3  502    0  0.18932583603E+03  0.33320500673E+03  0.66733999804E+03  0.76955346265E+03  0.10100000352E+00 0. -1.
       -3    1    3    3    0  502 -0.18932583603E+03 -0.33320500673E+03 -0.84521465293E+03  0.92803969119E+03  0.10100000352E+00 0.  1.
</event>
<event>
 5   0  0.5310003E-04  0.1695003E+04  0.7818609E-02  0.8764220E-01
       -2   -1    0    0    0  501  0.00000000000E+00  0.00000000000E+00  0.66341277777E+03  0.66341277777E+03  0.25500000920E-02 0.  1.
        2   -1    0    0  501    0  0.00000000000E+00  0.00000000000E+00 -0.10826724151E+04  0.10826724151E+04  0.25500000920E-02 0. -1.
    10030    2    1    2    0    0  0.00000000000E+00  0.00000000000E+00 -0.41925963737E+03  0.17460851929E+04  0.16950029078E+04 0.  0.
        1    1    3    3  502    0  0.29478094460E+03  0.41481167103E+03  0.48850686093E+03  0.70541015085E+03  0.50400001928E-02 0.  1.
       -1    1    3    3    0  502 -0.29478094460E+03 -0.41481167103E+03 -0.90776649830E+03  0.10406750421E+04  0.50400001928E-02 0. -1.
</event>
<event>
 5   0  0.2630135E-04  0.1702602E+04  0.7818609E-02  0.8759882E-01
       -1   -1    0    0    0  501  0.00000000000E+00  0.00000000000E+00  0.51364618279E+03  0.51364618282E+03  0.50400001928E-02 0. -1.
        1   -1    0    0  501    0  0.00000000000E+00  0.00000000000E+00 -0.14109187999E+04  0.14109187999E+04  0.50400001928E-02 0.  1.
    10030    2    1    2    0    0  0.00000000000E+00  0.00000000000E+00 -0.89727261710E+03  0.19245649827E+04  0.17026016044E+04 0.  0.
        1    1    3    3  502    0 -0.58239767992E+03 -0.36678535545E+03 -0.10149429369E+04  0.12263065358E+04  0.50400001928E-02 0.  1.
       -1    1    3    3    0  502  0.58239767992E+03  0.36678535545E+03  0.11767031978E+03  0.69825844694E+03  0.50400001928E-02 0. -1.
</event>
<event>
 5   0  0.5310003E-04  0.1716544E+04  0.7818609E-02  0.8751985E-01
       -2   -1    0    0    0  501  0.00000000000E+00  0.00000000000E+00  0.59743875553E+03  0.59743875554E+03  0.25500000920E-02 0. -1.
        2   -1    0    0  501    0  0.00000000000E+00  0.00000000000E+00 -0.12329808408E+04  0.12329808408E+04  0.25500000920E-02 0.  1.
    10030    2    1    2    0    0  0.00000000000E+00  0.00000000000E+00 -0.63554208523E+03  0.18304195963E+04  0.17165436658E+04 0.  0.
        1    1    3    3  502    0  0.35085284266E+03  0.73151979246E+03 -0.61636842820E+03  0.10188861385E+04  0.50400001928E-02 0.  1.
       -1    1    3    3    0  502 -0.35085284266E+03 -0.73151979246E+03 -0.19173657030E+02  0.81153345779E+03  0.50400001928E-02 0. -1.
</event>
<event>
 5   0  0.5310003E-04  0.1481490E+04  0.7818609E-02  0.8896856E-01
       -2   -1    0    0    0  501  0.00000000000E+00  0.00000000000E+00  0.33903540240E+03  0.33903540241E+03  0.25500000920E-02 0.  1.
        2   -1    0    0  501    0  0.00000000000E+00  0.00000000000E+00 -0.16184242174E+04  0.16184242174E+04  0.25500000920E-02 0. -1.
    10030    2    1    2    0    0  0.00000000000E+00  0.00000000000E+00 -0.12793888150E+04  0.19574596198E+04  0.14814899336E+04 0.  0.
        1    1    3    3  502    0  0.50900169090E+03  0.19471625000E+03  0.23194668276E+02  0.54546781025E+03  0.50400001928E-02 0.  1.
       -1    1    3    3    0  502 -0.50900169090E+03 -0.19471625000E+03 -0.13025834832E+04  0.14119918095E+04  0.50400001928E-02 0. -1.
</event>
<event>
 5   0  0.5342255E-04  0.1682160E+04  0.7818609E-02  0.8771605E-01
        2   -1    0    0  501    0  0.00000000000E+00  0.00000000000E+00  0.83127432871E+03  0.83127432872E+03  0.25500000920E-02 0.  1.
       -2   -1    0    0    0  501  0.00000000000E+00  0.00000000000E+00 -0.85100158981E+03  0.85100158981E+03  0.25500000920E-02 0. -1.
    10030    2    1    2    0    0  0.00000000000E+00  0.00000000000E+00 -0.19727261095E+02  0.16822759185E+04  0.16821602484E+04 0.  0.
        5    1    3    3  502    0 -0.44563962902E+02 -0.25475490112E+03 -0.81023589905E+03  0.85052354967E+03  0.46999998093E+01 0. -1.
       -5    1    3    3    0  502  0.44563962902E+02  0.25475490112E+03  0.79050863795E+03  0.83175236886E+03  0.46999998093E+01 0.  1.
</event>
<event>
 5   0  0.5299877E-04  0.1659915E+04  0.7818609E-02  0.8784563E-01
        2   -1    0    0  501    0  0.00000000000E+00  0.00000000000E+00  0.28274814400E+04  0.28274814400E+04  0.25500000920E-02 0. -1.
       -2   -1    0    0    0  501  0.00000000000E+00  0.00000000000E+00 -0.24361935092E+03  0.24361935093E+03  0.25500000920E-02 0.  1.
    10030    2    1    2    0    0  0.00000000000E+00  0.00000000000E+00  0.25838620891E+04  0.30711007909E+04  0.16599146884E+04 0.  0.
        3    1    3    3  502    0  0.13891099956E+02  0.53093004437E+03  0.11195872311E+03  0.54278397227E+03  0.10100000352E+00 0.  1.
       -3    1    3    3    0  502 -0.13891099956E+02 -0.53093004437E+03  0.24719033660E+04  0.25283168187E+04  0.10100000352E+00 0. -1.
</event>
<event>
 5   0  0.2595644E-04  0.1694925E+04  0.7818609E-02  0.8764264E-01
        1   -1    0    0  501    0  0.00000000000E+00  0.00000000000E+00  0.10403506426E+04  0.10403506426E+04  0.50400001928E-02 0.  1.
       -1   -1    0    0    0  501  0.00000000000E+00  0.00000000000E+00 -0.69033749967E+03  0.69033749969E+03  0.50400001928E-02 0. -1.
    10030    2    1    2    0    0  0.00000000000E+00  0.00000000000E+00  0.35001314291E+03  0.17306881423E+04  0.16949254395E+04 0.  0.
        2    1    3    3  502    0 -0.77927127108E+03  0.25560553635E+03  0.39304225662E+03  0.90943945353E+03  0.25500000920E-02 0.  1.
       -2    1    3    3    0  502  0.77927127108E+03 -0.25560553635E+03 -0.43029113705E+02  0.82124868875E+03  0.25500000920E-02 0. -1.
</event>
<event>
 5   0  0.2583422E-04  0.1696709E+04  0.7818609E-02  0.8763244E-01
        1   -1    0    0  501    0  0.00000000000E+00  0.00000000000E+00  0.18855676567E+04  0.18855676567E+04  0.50400001928E-02 0. -1.
       -1   -1    0    0    0  501  0.00000000000E+00  0.00000000000E+00 -0.38169148947E+03  0.38169148950E+03  0.50400001928E-02 0.  1.
    10030    2    1    2    0    0  0.00000000000E+00  0.00000000000E+00  0.15038761672E+04  0.22672591462E+04  0.16967087286E+04 0.  0.
        3    1    3    3  502    0 -0.18816906297E+01  0.57239258008E+03 -0.84771491980E+02  0.57863893970E+03  0.10100000352E+00 0.  1.
       -3    1    3    3    0  502  0.18816906297E+01 -0.57239258008E+03  0.15886476592E+04  0.16886202065E+04  0.10100000352E+00 0. -1.
</event>
<event>
 5   0  0.1910750E-04  0.1667399E+04  0.7818609E-02  0.8780180E-01
        3   -1    0    0  501    0  0.00000000000E+00  0.00000000000E+00  0.35962239182E+03  0.35962240601E+03  0.10100000352E+00 0.  1.
       -3   -1    0    0    0  501  0.00000000000E+00  0.00000000000E+00 -0.19327343749E+04  0.19327343776E+04  0.10100000352E+00 0. -1.
    10030    2    1    2    0    0  0.00000000000E+00  0.00000000000E+00 -0.15731119831E+04  0.22923567836E+04  0.16673986661E+04 0.  0.
        1    1    3    3  502    0 -0.53882453800E+03  0.62575445041E+03 -0.62887740404E+03  0.10379726896E+04  0.50400001928E-02 0.  1.
       -1    1    3    3    0  502  0.53882453800E+03 -0.62575445041E+03 -0.94423457906E+03  0.12543840940E+04  0.50400001928E-02 0. -1.
</event>
<event>
 5   0  0.2595644E-04  0.1738538E+04  0.7818609E-02  0.8739685E-01
       -1   -1    0    0    0  501  0.00000000000E+00  0.00000000000E+00  0.82096296686E+03  0.82096296688E+03  0.50400001928E-02 0.  1.
        1   -1    0    0  501    0  0.00000000000E+00  0.00000000000E+00 -0.92041710736E+03  0.92041710737E+03  0.50400001928E-02 0. -1.
    10030    2    1    2    0    0  0.00000000000E+00  0.00000000000E+00 -0.99454140494E+02  0.17413800742E+04  0.17385377295E+04 0.  0.
        2    1    3    3  502    0  0.45291693128E+03  0.65839979566E+03  0.29289110849E+03  0.85112234080E+03  0.25500000920E-02 0.  1.
       -2    1    3    3    0  502 -0.45291693128E+03 -0.65839979566E+03 -0.39234524899E+03  0.89025773345E+03  0.25500000920E-02 0. -1.
</event>
<event>
 5   0  0.2630135E-04  0.1658980E+04  0.7818609E-02  0.8785112E-01
        1   -1    0    0  501    0  0.00000000000E+00  0.00000000000E+00  0.15354758700E+04  0.15354758700E+04  0.50400001928E-02 0. -1.
       -1   -1    0    0    0  501  0.00000000000E+00  0.00000000000E+00 -0.44810425382E+03  0.44810425385E+03  0.50400001928E-02 0.  1.
    10030    2    1    2    0    0  0.00000000000E+00  0.00000000000E+00  0.10873716162E+04  0.19835801239E+04  0.16589795285E+04 0.  0.
        1    1    3    3  502    0  0.26426998109E+02  0.76276304821E+03  0.93213347888E+03  0.12047317861E+04  0.50400001928E-02 0.  1.
       -1    1    3    3    0  502 -0.26426998109E+02 -0.76276304821E+03  0.15523813731E+03  0.77884833777E+03  0.50400001928E-02 0. -1.
</event>
<event>
 5   0  0.5198430E-04  0.1700048E+04  0.7818609E-02  0.8761337E-01
       -2   -1    0    0    0  501  0.00000000000E+00  0.00000000000E+00  0.27259075130E+03  0.27259075132E+03  0.25500000920E-02 0.  1.
        2   -1    0    0  501    0  0.00000000000E+00  0.00000000000E+00 -0.26506439040E+04  0.26506439040E+04  0.25500000920E-02 0. -1.
    10030    2    1    2    0    0  0.00000000000E+00  0.00000000000E+00 -0.23780531527E+04  0.29232346553E+04  0.17000482502E+04 0.  0.
        4    1    3    3  502    0  0.71799294437E+03  0.37847887305E+02 -0.19686891129E+04  0.20958732707E+04  0.12699999809E+01 0. -1.
       -4    1    3    3    0  502 -0.71799294437E+03 -0.37847887305E+02 -0.40936403978E+03  0.82736138459E+03  0.12699999809E+01 0.  1.
</event>
<event>
 5   0  0.2583422E-04  0.1708776E+04  0.7818609E-02  0.8756375E-01
       -1   -1    0    0    0  501  0.00000000000E+00  0.00000000000E+00  0.69595409746E+03  0.69595409747E+03  0.50400001928E-02 0.  1.
        1   -1    0    0  501    0  0.00000000000E+00  0.00000000000E+00 -0.10488890211E+04  0.10488890211E+04  0.50400001928E-02 0. -1.
    10030    2    1    2    0    0  0.00000000000E+00  0.00000000000E+00 -0.35293492365E+03  0.17448431186E+04  0.17087757162E+04 0.  0.
        3    1    3    3  502    0  0.32089242784E+02 -0.37440276143E+03 -0.95997773362E+03  0.10309046544E+04  0.10100000352E+00 0. -1.
       -3    1    3    3    0  502 -0.32089242784E+02  0.37440276143E+03  0.60704280997E+03  0.71393846416E+03  0.10100000352E+00 0.  1.
</event>
<event>
 5   0  0.5021349E-04  0.1663588E+04  0.7818609E-02  0.8782408E-01
       -2   -1    0    0    0  501  0.00000000000E+00  0.00000000000E+00  0.54231996222E+03  0.54231996223E+03  0.25500000920E-02 0. -1.
        2   -1    0    0  501    0  0.00000000000E+00  0.00000000000E+00 -0.12757808530E+04  0.12757808530E+04  0.25500000920E-02 0.  1.
    10030    2    1    2    0    0  0.00000000000E+00  0.00000000000E+00 -0.73346089082E+03  0.18181008153E+04  0.16635881991E+04 0.  0.
        2    1    3    3  502    0 -0.58741714457E+02 -0.27648159794E+03 -0.12216866213E+04  0.12539580789E+04  0.25500000920E-02 0.  1.
       -2    1    3    3    0  502  0.58741714457E+02  0.27648159794E+03  0.48822573051E+03  0.56414273633E+03  0.25500000920E-02 0. -1.
</event>
<event>
 5   0  0.2785059E-04  0.1679170E+04  0.7818609E-02  0.8773335E-01
        1   -1    0    0  501    0  0.00000000000E+00  0.00000000000E+00  0.23535015488E+04  0.23535015488E+04  0.50400001928E-02 0.  1.
       -1   -1    0    0    0  501  0.00000000000E+00  0.00000000000E+00 -0.29951230012E+03  0.29951230016E+03  0.50400001928E-02 0. -1.
    10030    2    1    2    0    0  0.00000000000E+00  0.00000000000E+00  0.20539892487E+04  0.26530138490E+04  0.16791696308E+04 0.  0.
        5    1    3    3  502    0 -0.77717763515E+03 -0.14923726129E+03  0.58403255547E+03  0.98356136188E+03  0.46999998093E+01 0. -1.
       -5    1    3    3    0  502  0.77717763515E+03  0.14923726129E+03  0.14699566932E+04  0.16694524871E+04  0.46999998093E+01 0.  1.
</event>
<event>
 5   0  0.5198430E-04  0.1640591E+04  0.7818609E-02  0.8795993E-01
        2   -1    0    0  501    0  0.00000000000E+00  0.00000000000E+00  0.97646996848E+03  0.97646996849E+03  0.25500000920E-02 0. -1.
       -2   -1    0    0    0  501  0.00000000000E+00  0.00000000000E+00 -0.68909881625E+03  0.68909881626E+03  0.25500000920E-02 0.  1.
    10030    2    1    2    0    0  0.00000000000E+00  0.00000000000E+00  0.28737115223E+03  0.16655687847E+04  0.16405905027E+04 0.  0.
        4    1    3    3  502    0 -0.40373933087E+03 -0.11634853194E+03  0.85892613027E+03  0.95618938414E+03  0.12699999809E+01 0. -1.
       -4    1    3    3    0  502  0.40373933087E+03  0.11634853194E+03 -0.57155497804E+03  0.70937940060E+03  0.12699999809E+01 0.  1.
</event>
<event>
 5   0  0.5310003E-04  0.1838888E+04  0.7818609E-02  0.8685888E-01
        2   -1    0    0  501    0  0.00000000000E+00  0.00000000000E+00  0.17782336928E+04  0.17782336928E+04  0.25500000920E-02 0. -1.
       -2   -1    0    0    0  501  0.00000000000E+00  0.00000000000E+00 -0.47540283534E+03  0.47540283535E+03  0.25500000920E-02 0.  1.
    10030    2    1    2    0    0  0.00000000000E+00  0.00000000000E+00  0.13028308575E+04  0.22536365282E+04  0.18388880765E+04 0.  0.
        1    1    3    3  502    0 -0.41780501312E+03  0.11679128980E+03  0.16449190595E+04  0.17011642915E+04  0.50400001928E-02 0. -1.
       -1    1    3    3    0  502  0.41780501312E+03 -0.11679128980E+03 -0.34208820198E+03  0.55247223670E+03  0.50400001928E-02 0.  1.
</event>
<event>
 5   0  0.5310003E-04  0.1703823E+04  0.7818609E-02  0.8759187E-01
        2   -1    0    0  501    0  0.00000000000E+00  0.00000000000E+00  0.24945134980E+04  0.24945134980E+04  0.25500000920E-02 0. -1.
       -2   -1    0    0    0  501  0.00000000000E+00  0.00000000000E+00 -0.29093961982E+03  0.29093961983E+03  0.25500000920E-02 0.  1.
    10030    2    1    2    0    0  0.00000000000E+00  0.00000000000E+00  0.22035738781E+04  0.27854531178E+04  0.17038225362E+04 0.  0.
        1    1    3    3  502    0 -0.66233458233E+03  0.54002033521E+02  0.19732418777E+04  0.20821351605E+04  0.50400001928E-02 0. -1.
       -1    1    3    3    0  502  0.66233458233E+03 -0.54002033521E+02  0.23033200040E+03  0.70331795727E+03  0.50400001928E-02 0.  1.
</event>
<event>
 5   0  0.2561518E-04  0.1684644E+04  0.7818609E-02  0.8770171E-01
        1   -1    0    0  501    0  0.00000000000E+00  0.00000000000E+00  0.89450452155E+03  0.89450452156E+03  0.50400001928E-02 0. -1.
       -1   -1    0    0    0  501  0.00000000000E+00  0.00000000000E+00 -0.79318372674E+03  0.79318372676E+03  0.50400001928E-02 0.  1.
    10030    2    1    2    0    0  0.00000000000E+00  0.00000000000E+00  0.10132079480E+03  0.16876882483E+04  0.16846440930E+04 0.  0.
        4    1    3    3  502    0 -0.26000939520E+03  0.13868421542E+03 -0.73985776988E+03  0.79638516419E+03  0.12699999809E+01 0.  1.
       -4    1    3    3    0  502  0.26000939520E+03 -0.13868421542E+03  0.84117856468E+03  0.89130308413E+03  0.12699999809E+01 0. -1.
</event>
<event>
 5   0  0.5198430E-04  0.1661987E+04  0.7818609E-02  0.8783346E-01
       -2   -1    0    0    0  501  0.00000000000E+00  0.00000000000E+00  0.12667589188E+04  0.12667589188E+04  0.25500000920E-02 0.  1.
        2   -1    0    0  501    0  0.00000000000E+00  0.00000000000E+00 -0.54513166421E+03  0.54513166421E+03  0.25500000920E-02 0. -1.
    10030    2    1    2    0    0  0.00000000000E+00  0.00000000000E+00  0.72162725457E+03  0.18118905830E+04  0.16619872413E+04 0.  0.
        4    1    3    3  502    0  0.28540717945E+03 -0.77692754825E+03  0.44148152887E+03  0.93807314563E+03  0.12699999809E+01 0.  1.
       -4    1    3    3    0  502 -0.28540717945E+03  0.77692754825E+03  0.28014572570E+03  0.87381743737E+03  0.12699999809E+01 0. -1.
</event>
<event>
 5   0  0.5198430E-04  0.1707597E+04  0.7818609E-02  0.8757043E-01
        2   -1    0    0  501    0  0.00000000000E+00  0.00000000000E+00  0.13518889575E+04  0.13518889575E+04  0.25500000920E-02 0.  1.
       -2   -1    0    0    0  501  0.00000000000E+00  0.00000000000E+00 -0.53922488294E+03  0.53922488295E+03  0.25500000920E-02 0. -1.
    10030    2    1    2    0    0  0.00000000000E+00  0.00000000000E+00  0.81266407458E+03  0.18911138405E+04  0.17075973353E+04 0.  0.
        4    1    3    3  502    0  0.34200598669E+03 -0.36567309787E+03 -0.35957467701E+03  0.61642555973E+03  0.12699999809E+01 0. -1.
       -4    1    3    3    0  502 -0.34200598669E+03  0.36567309787E+03  0.11722387516E+04  0.12746882807E+04  0.12699999809E+01 0.  1.
</event>
<event>
 5   0  0.2595644E-04  0.1671739E+04  0.7818609E-02  0.8777649E-01
        1   -1    0    0  501    0  0.00000000000E+00  0.00000000000E+00  0.71563459541E+03  0.71563459543E+03  0.50400001928E-02 0. -1.
       -1   -1    0    0    0  501  0.00000000000E+00  0.00000000000E+00 -0.97630528115E+03  0.97630528116E+03  0.50400001928E-02 0.  1.
    10030    2    1    2    0    0  0.00000000000E+00  0.00000000000E+00 -0.26067068574E+03  0.16919398766E+04  0.16717390166E+04 0.  0.
        2    1    3    3  502    0 -0.54126880883E+03 -0.45588390979E+03 -0.58054287758E+03  0.91533168597E+03  0.25500000920E-02 0.  1.
       -2    1    3    3    0  502  0.54126880883E+03  0.45588390979E+03  0.31987219184E+03  0.77660819062E+03  0.25500000920E-02 0. -1.
</event>
<event>
 5   0  0.5198430E-04  0.1424090E+04  0.7818609E-02  0.8936563E-01
        2   -1    0    0  501    0  0.00000000000E+00  0.00000000000E+00  0.63616880259E+03  0.63616880259E+03  0.25500000920E-02 0.  1.
       -2   -1    0    0    0  501  0.00000000000E+00  0.00000000000E+00 -0.79697131161E+03  0.79697131162E+03  0.25500000920E-02 0. -1.
    10030    2    1    2    0    0  0.00000000000E+00  0.00000000000E+00 -0.16080250903E+03  0.14331401142E+04  0.14240902851E+04 0.  0.
        4    1    3    3  502    0  0.29753726500E+03  0.64474986914E+03 -0.27380065599E+02  0.71062092476E+03  0.12699999809E+01 0. -1.
       -4    1    3    3    0  502 -0.29753726500E+03 -0.64474986914E+03 -0.13342244343E+03  0.72251918945E+03  0.12699999809E+01 0.  1.
</event>
<event>
 5   0  0.2583422E-04  0.1729084E+04  0.7818609E-02  0.8744948E-01
       -1   -1    0    0    0  501  0.00000000000E+00  0.00000000000E+00  0.23984927363E+04  0.23984927363E+04  0.50400001928E-02 0. -1.
        1   -1    0    0  501    0  0.00000000000E+00  0.00000000000E+00 -0.31162609007E+03  0.31162609011E+03  0.50400001928E-02 0.  1.
    10030    2    1    2    0    0  0.00000000000E+00  0.00000000000E+00  0.20868666463E+04  0.27101188265E+04  0.17290840506E+04 0.  0.
        3    1    3    3  502    0 -0.23762766315E+03  0.52651613904E+03  0.20516166881E+04  0.21313885605E+04  0.10100000352E+00 0. -1.
       -3    1    3    3    0  502  0.23762766315E+03 -0.52651613904E+03  0.35249958208E+02  0.57873026594E+03  0.10100000352E+00 0.  1.
</event>
<event>
 5   0  0.2785059E-04  0.1697445E+04  0.7818609E-02  0.8762823E-01
        1   -1    0    0  501    0  0.00000000000E+00  0.00000000000E+00  0.12117173372E+04  0.12117173372E+04  0.50400001928E-02 0. -1.
       -1   -1    0    0    0  501  0.00000000000E+00  0.00000000000E+00 -0.59447007598E+03  0.59447007600E+03  0.50400001928E-02 0.  1.
    10030    2    1    2    0    0  0.00000000000E+00  0.00000000000E+00  0.61724726125E+03  0.18061874132E+04  0.16974447827E+04 0.  0.
        5    1    3    3  502    0  0.28481235703E+03  0.54195121580E+03  0.93405204898E+03  0.11168278825E+04  0.46999998093E+01 0. -1.
       -5    1    3    3    0  502 -0.28481235703E+03 -0.54195121580E+03 -0.31680478774E+03  0.68935953069E+03  0.46999998093E+01 0.  1.
</event>
<event>
 5   0  0.2785059E-04  0.1687942E+04  0.7818609E-02  0.8768272E-01
        1   -1    0    0  501    0  0.00000000000E+00  0.00000000000E+00  0.13783495288E+04  0.13783495288E+04  0.50400001928E-02 0.  1.
       -1   -1    0    0    0  501  0.00000000000E+00  0.00000000000E+00 -0.51676794301E+03  0.51676794303E+03  0.50400001928E-02 0. -1.
    10030    2    1    2    0    0  0.00000000000E+00  0.00000000000E+00  0.86158158583E+03  0.18951174719E+04  0.16879417653E+04 0.  0.
        5    1    3    3  502    0  0.12043467120E+03 -0.39385500135E+03  0.12578449970E+04  0.13235642782E+04  0.46999998093E+01 0.  1.
       -5    1    3    3    0  502 -0.12043467120E+03  0.39385500135E+03 -0.39626341118E+03  0.57155319364E+03  0.46999998093E+01 0. -1.
</event>
<event>
 5   0  0.2595644E-04  0.1706097E+04  0.7818609E-02  0.8757895E-01
       -1   -1    0    0    0  501  0.00000000000E+00  0.00000000000E+00  0.64401994836E+03  0.64401994838E+03  0.50400001928E-02 0. -1.
        1   -1    0    0  501    0  0.00000000000E+00  0.00000000000E+00 -0.11299213665E+04  0.11299213665E+04  0.50400001928E-02 0.  1.
    10030    2    1    2    0    0  0.00000000000E+00  0.00000000000E+00 -0.48590141817E+03  0.17739413149E+04  0.17060971838E+04 0.  0.
        2    1    3    3  502    0  0.48290328030E+03  0.27160736300E+03  0.43147642593E+03  0.70223788270E+03  0.25500000920E-02 0. -1.
       -2    1    3    3    0  502 -0.48290328030E+03 -0.27160736300E+03 -0.91737784410E+03  0.10717034322E+04  0.25500000920E-02 0.  1.
</event>
<event>
 5   0  0.5299877E-04  0.1657070E+04  0.7818609E-02  0.8786235E-01
       -2   -1    0    0    0  501  0.00000000000E+00  0.00000000000E+00  0.83733927075E+03  0.83733927075E+03  0.25500000920E-02 0. -1.
        2   -1    0    0  501    0  0.00000000000E+00  0.00000000000E+00 -0.81982346382E+03  0.81982346383E+03  0.25500000920E-02 0.  1.
    10030    2    1    2    0    0  0.00000000000E+00  0.00000000000E+00  0.17515806925E+02  0.16571627346E+04  0.16570701631E+04 0.  0.
        3    1    3    3  502    0 -0.99026059328E+02 -0.17491652035E+02 -0.81369806730E+03  0.81988820778E+03  0.10100000352E+00 0.  1.
       -3    1    3    3    0  502  0.99026059328E+02  0.17491652035E+02  0.83121387423E+03  0.83727452680E+03  0.10100000352E+00 0. -1.
</event>
<event>
 5   0  0.5342255E-04  0.1653658E+04  0.7818609E-02  0.8788245E-01
       -2   -1    0    0    0  501  0.00000000000E+00  0.00000000000E+00  0.35214314430E+03  0.35214314431E+03  0.25500000920E-02 0.  1.
        2   -1    0    0  501    0  0.00000000000E+00  0.00000000000E+00 -0.19413877797E+04  0.19413877797E+04  0.25500000920E-02 0. -1.
    10030    2    1    2    0    0  0.00000000000E+00  0.00000000000E+00 -0.15892446354E+04  0.22935309241E+04  0.16536582441E+04 0.  0.
        5    1    3    3  502    0  0.87188291053E+01  0.60008015508E+03 -0.58279060757E+01  0.60019019068E+03  0.46999998093E+01 0.  1.
       -5    1    3    3    0  502 -0.87188291053E+01 -0.60008015508E+03 -0.15834167294E+04  0.16933407334E+04  0.46999998093E+01 0. -1.
</event>
<event>
 5   0  0.5021349E-04  0.1598542E+04  0.7818609E-02  0.8821444E-01
       -2   -1    0    0    0  501  0.00000000000E+00  0.00000000000E+00  0.45175223487E+03  0.45175223488E+03  0.25500000920E-02 0. -1.
        2   -1    0    0  501    0  0.00000000000E+00  0.00000000000E+00 -0.14141242269E+04  0.14141242269E+04  0.25500000920E-02 0.  1.
    10030    2    1    2    0    0  0.00000000000E+00  0.00000000000E+00 -0.96237199200E+03  0.18658764617E+04  0.15985415601E+04 0.  0.
        2    1    3    3  502    0  0.54827158011E+03 -0.53829142417E+03 -0.73817536722E+03  0.10654868632E+04  0.25500000920E-02 0.  1.
       -2    1    3    3    0  502 -0.54827158011E+03  0.53829142417E+03 -0.22419662478E+03  0.80038959854E+03  0.25500000920E-02 0. -1.
</event>
<event>
 5   0  0.2595644E-04  0.1763070E+04  0.7818609E-02  0.8726189E-01
        1   -1    0    0  501    0  0.00000000000E+00  0.00000000000E+00  0.26393015260E+04  0.26393015260E+04  0.50400001928E-02 0.  1.
       -1   -1    0    0    0  501  0.00000000000E+00  0.00000000000E+00 -0.29443546376E+03  0.29443546381E+03  0.50400001928E-02 0. -1.
    10030    2    1    2    0    0  0.00000000000E+00  0.00000000000E+00  0.23448660623E+04  0.29337369898E+04  0.17630700144E+04 0.  0.
        2    1    3    3  502    0  0.16934913090E+03  0.79993114470E+03  0.17206298761E+04  0.19050291691E+04  0.25500000920E-02 0.  1.
       -2    1    3    3    0  502 -0.16934913090E+03 -0.79993114470E+03  0.62423618613E+03  0.10287078208E+04  0.25500000920E-02 0. -1.
</event>
<event>
 5   0  0.5310003E-04  0.1722799E+04  0.7818609E-02  0.8748467E-01
        2   -1    0    0  501    0  0.00000000000E+00  0.00000000000E+00  0.61848639399E+03  0.61848639400E+03  0.25500000920E-02 0.  1.
       -2   -1    0    0    0  501  0.00000000000E+00  0.00000000000E+00 -0.11997178406E+04  0.11997178406E+04  0.25500000920E-02 0. -1.
    10030    2    1    2    0    0  0.00000000000E+00  0.00000000000E+00 -0.58123144665E+03  0.18182042346E+04  0.17227990725E+04 0.  0.
        1    1    3    3  502    0  0.52491140166E+03  0.56102141996E+02  0.42776243608E+03  0.67945576139E+03  0.50400001928E-02 0.  1.
       -1    1    3    3    0  502 -0.52491140166E+03 -0.56102141996E+02 -0.10089938827E+04  0.11387484733E+04  0.50400001928E-02 0. -1.
</event>
<event>
 5   0  0.1910750E-04  0.1684969E+04  0.7818609E-02  0.8769984E-01
        3   -1    0    0  501    0  0.00000000000E+00  0.00000000000E+00  0.68530747684E+03  0.68530748429E+03  0.10100000352E+00 0. -1.
       -3   -1    0    0    0  501  0.00000000000E+00  0.00000000000E+00 -0.10357099046E+04  0.10357099095E+04  0.10100000352E+00 0.  1.
    10030    2    1    2    0    0  0.00000000000E+00  0.00000000000E+00 -0.35040242775E+03  0.17210173938E+04  0.16849685482E+04 0.  0.
        3    1    3    3  502    0  0.23074861903E+03  0.29972678399E+03  0.59369825033E+03  0.70395929774E+03  0.10100000352E+00 0. -1.
       -3    1    3    3    0  502 -0.23074861903E+03 -0.29972678399E+03 -0.94410067808E+03  0.10170580961E+04  0.10100000352E+00 0.  1.
</event>
<event>
 5   0  0.1910750E-04  0.1692386E+04  0.7818609E-02  0.8765719E-01
       -4   -1    0    0    0  501  0.00000000000E+00  0.00000000000E+00  0.48114248387E+03  0.48114415998E+03  0.12699999809E+01 0.  1.
        4   -1    0    0  501    0  0.00000000000E+00  0.00000000000E+00 -0.14882080474E+04  0.14882085893E+04  0.12699999809E+01 0. -1.
    10030    2    1    2    0    0  0.00000000000E+00  0.00000000000E+00 -0.10070655636E+04  0.19693527493E+04  0.16923856540E+04 0.  0.
        5    1    3    3  502    0 -0.54690767741E+03 -0.62493918283E+03 -0.69247256401E+03  0.10812942855E+04  0.46999998093E+01 0. -1.
       -5    1    3    3    0  502  0.54690767741E+03  0.62493918283E+03 -0.31459299955E+03  0.88805846384E+03  0.46999998093E+01 0.  1.
</event>
<event>
 5   0  0.2630135E-04  0.1681205E+04  0.7818609E-02  0.8772157E-01
        1   -1    0    0  501    0  0.00000000000E+00  0.00000000000E+00  0.82380916500E+03  0.82380916502E+03  0.50400001928E-02 0.  1.
       -1   -1    0    0    0  501  0.00000000000E+00  0.00000000000E+00 -0.85773772363E+03  0.85773772365E+03  0.50400001928E-02 0. -1.
    10030    2    1    2    0    0  0.00000000000E+00  0.00000000000E+00 -0.33928558634E+02  0.16815468887E+04  0.16812045657E+04 0.  0.
        1    1    3    3  502    0 -0.35870238444E+03  0.15751033669E+03 -0.76084637368E+03  0.85578274763E+03  0.50400001928E-02 0. -1.
       -1    1    3    3    0  502  0.35870238444E+03 -0.15751033669E+03  0.72691781505E+03  0.82576414104E+03  0.50400001928E-02 0.  1.
</event>
<event>
 5   0  0.2583422E-04  0.1649857E+04  0.7818609E-02  0.8790491E-01
       -1   -1    0    0    0  501  0.00000000000E+00  0.00000000000E+00  0.45324953849E+03  0.45324953852E+03  0.50400001928E-02 0.  1.
        1   -1    0    0  501    0  0.00000000000E+00  0.00000000000E+00 -0.15013961951E+04  0.15013961952E+04  0.50400001928E-02 0. -1.
    10030    2    1    2    0    0  0.00000000000E+00  0.00000000000E+00 -0.10481466567E+04  0.19546457337E+04  0.16498571242E+04 0.  0.
        3    1    3    3  502    0  0.35665155145E+03  0.15755492123E+03 -0.13853393798E+04  0.14391626349E+04  0.10100000352E+00 0. -1.
       -3    1    3    3    0  502 -0.35665155145E+03 -0.15755492123E+03  0.33719272314E+03  0.51548309875E+03  0.10100000352E+00 0.  1.
</event>
<event>
 5   0  0.2595644E-04  0.1697244E+04  0.7818609E-02  0.8762938E-01
       -1   -1    0    0    0  501  0.00000000000E+00  0.00000000000E+00  0.70567902876E+03  0.70567902878E+03  0.50400001928E-02 0.  1.
        1   -1    0    0  501    0  0.00000000000E+00  0.00000000000E+00 -0.10205197917E+04  0.10205197917E+04  0.50400001928E-02 0. -1.
    10030    2    1    2    0    0  0.00000000000E+00  0.00000000000E+00 -0.31484076296E+03  0.17261988205E+04  0.16972441374E+04 0.  0.
        2    1    3    3  502    0  0.16484939239E+03 -0.30644418038E+03  0.62978395871E+03  0.71952150247E+03  0.25500000920E-02 0.  1.
       -2    1    3    3    0  502 -0.16484939239E+03  0.30644418038E+03 -0.94462472167E+03  0.10066773180E+04  0.25500000920E-02 0. -1.
</event>
<event>
 5   0  0.2583422E-04  0.1701144E+04  0.7818609E-02  0.8760712E-01
       -1   -1    0    0    0  501  0.00000000000E+00  0.00000000000E+00  0.66583249517E+03  0.66583249519E+03  0.50400001928E-02 0.  1.
        1   -1    0    0  501    0  0.00000000000E+00  0.00000000000E+00 -0.10865683155E+04  0.10865683155E+04  0.50400001928E-02 0. -1.
    10030    2    1    2    0    0  0.00000000000E+00  0.00000000000E+00 -0.42073582035E+03  0.17524008107E+04  0.17011437243E+04 0.  0.
        3    1    3    3  502    0  0.39852690257E+03 -0.35827173198E+03 -0.89079272752E+03  0.10395643413E+04  0.10100000352E+00 0. -1.
       -3    1    3    3    0  502 -0.39852690257E+03  0.35827173198E+03  0.47005690717E+03  0.71283646946E+03  0.10100000352E+00 0.  1.
</event>
<event>
 5   0  0.2561518E-04  0.1365543E+04  0.7818609E-02  0.8979145E-01
        1   -1    0    0  501    0  0.00000000000E+00  0.00000000000E+00  0.30876382886E+03  0.30876382890E+03  0.50400001928E-02 0. -1.
       -1   -1    0    0    0  501  0.00000000000E+00  0.00000000000E+00 -0.15098160649E+04  0.15098160649E+04  0.50400001928E-02 0.  1.
    10030    2    1    2    0    0  0.00000000000E+00  0.00000000000E+00 -0.12010522360E+04  0.18185798938E+04  0.13655425136E+04 0.  0.
        4    1    3    3  502    0  0.77341715536E+02  0.14973308825E+03  0.28062777378E+03  0.32734584005E+03  0.12699999809E+01 0. -1.
       -4    1    3    3    0  502 -0.77341715536E+02 -0.14973308825E+03 -0.14816800098E+04  0.14912340538E+04  0.12699999809E+01 0.  1.
</event>
<event>
 5   0  0.2595644E-04  0.1755617E+04  0.7818609E-02  0.8730265E-01
       -1   -1    0    0    0  501  0.00000000000E+00  0.00000000000E+00  0.47893189457E+03  0.47893189460E+03  0.50400001928E-02 0.  1.
        1   -1    0    0  501    0  0.00000000000E+00  0.00000000000E+00 -0.16088879970E+04  0.16088879970E+04  0.50400001928E-02 0. -1.
    10030    2    1    2    0    0  0.00000000000E+00  0.00000000000E+00 -0.11299561025E+04  0.20878198916E+04  0.17556170159E+04 0.  0.
        2    1    3    3  502    0  0.10778860614E+03 -0.48534941835E+03 -0.14253093573E+04  0.15095327773E+04  0.25500000920E-02 0. -1.
       -2    1    3    3    0  502 -0.10778860614E+03  0.48534941835E+03  0.29535325486E+03  0.57828711439E+03  0.25500000920E-02 0.  1.
</event>
<event>
 5   0  0.5021349E-04  0.1620321E+04  0.7818609E-02  0.8808160E-01
       -2   -1    0    0    0  501  0.00000000000E+00  0.00000000000E+00  0.40562062960E+03  0.40562062961E+03  0.25500000920E-02 0. -1.
        2   -1    0    0  501    0  0.00000000000E+00  0.00000000000E+00 -0.16181626629E+04  0.16181626629E+04  0.25500000920E-02 0.  1.
    10030    2    1    2    0    0  0.00000000000E+00  0.00000000000E+00 -0.12125420333E+04  0.20237832925E+04  0.16203211510E+04 0.  0.
        2    1    3    3  502    0  0.62736287026E+03 -0.13869405740E+03  0.10108229606E+02  0.64259037408E+03  0.25500000920E-02 0. -1.
       -2    1    3    3    0  502 -0.62736287026E+03  0.13869405740E+03 -0.12226502629E+04  0.13811929184E+04  0.25500000920E-02 0.  1.
</event>
<event>
 5   0  0.2595644E-04  0.1689441E+04  0.7818609E-02  0.8767410E-01
       -1   -1    0    0    0  501  0.00000000000E+00  0.00000000000E+00  0.48332511431E+03  0.48332511434E+03  0.50400001928E-02 0.  1.
        1   -1    0    0  501    0  0.00000000000E+00  0.00000000000E+00 -0.14763408308E+04  0.14763408308E+04  0.50400001928E-02 0. -1.
    10030    2    1    2    0    0  0.00000000000E+00  0.00000000000E+00 -0.99301571648E+03  0.19596659451E+04  0.16894408552E+04 0.  0.
        2    1    3    3  502    0 -0.69150399869E+03  0.34356851880E+03 -0.89384005224E+03  0.11811719377E+04  0.25500000920E-02 0. -1.
       -2    1    3    3    0  502  0.69150399869E+03 -0.34356851880E+03 -0.99175664244E+02  0.77849400749E+03  0.25500000920E-02 0.  1.
</event>
<event>
 5   0  0.2785059E-04  0.1705247E+04  0.7818609E-02  0.8758377E-01
       -1   -1    0    0    0  501  0.00000000000E+00  0.00000000000E+00  0.98085635651E+03  0.98085635653E+03  0.50400001928E-02 0.  1.
        1   -1    0    0  501    0  0.00000000000E+00  0.00000000000E+00 -0.74115520244E+03  0.74115520246E+03  0.50400001928E-02 0. -1.
    10030    2    1    2    0    0  0.00000000000E+00  0.00000000000E+00  0.23970115407E+03  0.17220115590E+04  0.17052469516E+04 0.  0.
        5    1    3    3  502    0 -0.36591450582E+03  0.70449953514E+03  0.43392541747E+03  0.90472447657E+03  0.46999998093E+01 0. -1.
       -5    1    3    3    0  502  0.36591450582E+03 -0.70449953514E+03 -0.19422426340E+03  0.81728708241E+03  0.46999998093E+01 0.  1.
</event>
<event>
 5   0  0.1910750E-04  0.1782710E+04  0.7818609E-02  0.8715548E-01
       -3   -1    0    0    0  501  0.00000000000E+00  0.00000000000E+00  0.17250618370E+04  0.17250618400E+04  0.10100000352E+00 0.  1.
        3   -1    0    0  501    0  0.00000000000E+00  0.00000000000E+00 -0.46057121857E+03  0.46057122964E+03  0.10100000352E+00 0. -1.
    10030    2    1    2    0    0  0.00000000000E+00  0.00000000000E+00  0.12644906185E+04  0.21856330696E+04  0.17827101253E+04 0.  0.
        4    1    3    3  502    0  0.45633845274E+03  0.37541073344E+02  0.15698543441E+04  0.16352670700E+04  0.12699999809E+01 0.  1.
       -4    1    3    3    0  502 -0.45633845274E+03 -0.37541073344E+02 -0.30536372568E+03  0.55036599958E+03  0.12699999809E+01 0. -1.
</event>
<event>
 5   0  0.5299877E-04  0.1712280E+04  0.7818609E-02  0.8754392E-01
        2   -1    0    0  501    0  0.00000000000E+00  0.00000000000E+00  0.91788181362E+03  0.91788181362E+03  0.25500000920E-02 0.  1.
       -2   -1    0    0    0  501  0.00000000000E+00  0.00000000000E+00 -0.79855088847E+03  0.79855088848E+03  0.25500000920E-02 0. -1.
    10030    2    1    2    0    0  0.00000000000E+00  0.00000000000E+00  0.11933092515E+03  0.17164327021E+04  0.17122795774E+04 0.  0.
        3    1    3    3  502    0 -0.73344243696E+03 -0.35454979291E+03 -0.20428282794E+03  0.83986597025E+03  0.10100000352E+00 0.  1.
       -3    1    3    3    0  502  0.73344243696E+03  0.35454979291E+03  0.32361375309E+03  0.87656673185E+03  0.10100000352E+00 0. -1.
</event>
<event>
 5   0  0.5299877E-04  0.1684790E+04  0.7818609E-02  0.8770087E-01
        2   -1    0    0  501    0  0.00000000000E+00  0.00000000000E+00  0.20795916006E+04  0.20795916006E+04  0.25500000920E-02 0. -1.
       -2   -1    0    0    0  501  0.00000000000E+00  0.00000000000E+00 -0.34123493203E+03  0.34123493204E+03  0.25500000920E-02 0.  1.
    10030    2    1    2    0    0  0.00000000000E+00  0.00000000000E+00  0.17383566686E+04  0.24208265327E+04  0.16847899555E+04 0.  0.
        3    1    3    3  502    0 -0.36044578152E+03 -0.29894894345E+02  0.19623480149E+04  0.19954008640E+04  0.10100000352E+00 0. -1.
       -3    1    3    3    0  502  0.36044578152E+03  0.29894894345E+02 -0.22399134634E+03  0.42542566867E+03  0.10100000352E+00 0.  1.
</event>
<event>
 5   0  0.5198430E-04  0.1619738E+04  0.7818609E-02  0.8808513E-01
       -2   -1    0    0    0  501  0.00000000000E+00  0.00000000000E+00  0.35166181794E+03  0.35166181795E+03  0.25500000920E-02 0. -1.
        2   -1    0    0  501    0  0.00000000000E+00  0.00000000000E+00 -0.18651098642E+04  0.18651098642E+04  0.25500000920E-02 0.  1.
    10030    2    1    2    0    0  0.00000000000E+00  0.00000000000E+00 -0.15134480462E+04  0.22167716821E+04  0.16197381585E+04 0.  0.
        4    1    3    3  502    0 -0.18232947965E+03 -0.45032671958E+03  0.13006897894E+03  0.50294904881E+03  0.12699999809E+01 0. -1.
       -4    1    3    3    0  502  0.18232947965E+03  0.45032671958E+03 -0.16435170252E+04  0.17138226333E+04  0.12699999809E+01 0.  1.
</event>
<event>
 5   0  0.5299877E-04  0.1724464E+04  0.7818609E-02  0.8747533E-01
        2   -1    0    0  501    0  0.00000000000E+00  0.00000000000E+00  0.20159366245E+04  0.20159366245E+04  0.25500000920E-02 0.  1.
       -2   -1    0    0    0  501  0.00000000000E+00  0.00000000000E+00 -0.36878347368E+03  0.36878347369E+03  0.25500000920E-02 0. -1.
    10030    2    1    2    0    0  0.00000000000E+00  0.00000000000E+00  0.16471531508E+04  0.23847200982E+04  0.17244641035E+04 0.  0.
        3    1    3    3  502    0  0.24268429870E+03 -0.20871911895E+03  0.19307282106E+04  0.19570822090E+04  0.10100000352E+00 0.  1.
       -3    1    3    3    0  502 -0.24268429870E+03  0.20871911895E+03 -0.28357505983E+03  0.42763788912E+03  0.10100000352E+00 0. -1.
</event>
<event>
 5   0  0.5310003E-04  0.1666070E+04  0.7818609E-02  0.8780956E-01
       -2   -1    0    0    0  501  0.00000000000E+00  0.00000000000E+00  0.78952598808E+03  0.78952598808E+03  0.25500000920E-02 0.  1.
        2   -1    0    0  501    0  0.00000000000E+00  0.00000000000E+00 -0.87894202064E+03  0.87894202065E+03  0.25500000920E-02 0. -1.
    10030    2    1    2    0    0  0.00000000000E+00  0.00000000000E+00 -0.89416032562E+02  0.16684680087E+04  0.16660703074E+04 0.  0.
        1    1    3    3  502    0  0.79569783046E+03 -0.40813134184E+02  0.19884317150E+03  0.82118168282E+03  0.50400001928E-02 0. -1.
       -1    1    3    3    0  502 -0.79569783046E+03  0.40813134184E+02 -0.28825920407E+03  0.84728632591E+03  0.50400001928E-02 0.  1.
</event>
<event>
 5   0  0.5299877E-04  0.1728940E+04  0.7818609E-02  0.8745029E-01
       -2   -1    0    0    0  501  0.00000000000E+00  0.00000000000E+00  0.27986127516E+03  0.27986127517E+03  0.25500000920E-02 0.  1.
        2   -1    0    0  501    0  0.00000000000E+00  0.00000000000E+00 -0.26702814337E+04  0.26702814337E+04  0.25500000920E-02 0. -1.
    10030    2    1    2    0    0  0.00000000000E+00  0.00000000000E+00 -0.23904201586E+04  0.29501427089E+04  0.17289399840E+04 0.  0.
        3    1    3    3  502    0 -0.78967700994E+03  0.26767106900E+03 -0.80584219225E+03  0.11595771773E+04  0.10100000352E+00 0. -1.
       -3    1    3    3    0  502  0.78967700994E+03 -0.26767106900E+03 -0.15845779663E+04  0.17905655315E+04  0.10100000352E+00 0.  1.
</event>
<event>
 5   0  0.5342255E-04  0.1682195E+04  0.7818609E-02  0.8771585E-01
       -2   -1    0    0    0  501  0.00000000000E+00  0.00000000000E+00  0.67172523829E+03  0.67172523830E+03  0.25500000920E-02 0. -1.
        2   -1    0    0  501    0  0.00000000000E+00  0.00000000000E+00 -0.10531756482E+04  0.10531756482E+04  0.25500000920E-02 0.  1.
    10030    2    1    2    0    0  0.00000000000E+00  0.00000000000E+00 -0.38145040990E+03  0.17249008865E+04  0.16821945943E+04 0.  0.
        5    1    3    3  502    0 -0.27961313988E+02  0.84010275017E+03 -0.16051354241E+03  0.85576933412E+03  0.46999998093E+01 0. -1.
       -5    1    3    3    0  502  0.27961313988E+02 -0.84010275017E+03 -0.22093686749E+03  0.86913155237E+03  0.46999998093E+01 0.  1.
</event>
<event>
 5   0  0.2583422E-04  0.1705444E+04  0.7818609E-02  0.8758265E-01
        1   -1    0    0  501    0  0.00000000000E+00  0.00000000000E+00  0.13773264689E+04  0.13773264689E+04  0.50400001928E-02 0.  1.
       -1   -1    0    0    0  501  0.00000000000E+00  0.00000000000E+00 -0.52793212583E+03  0.52793212585E+03  0.50400001928E-02 0. -1.
    10030    2    1    2    0    0  0.00000000000E+00  0.00000000000E+00  0.84939434304E+03  0.19052585947E+04  0.17054440955E+04 0.  0.
        3    1    3    3  502    0 -0.24746877600E+03 -0.80586204362E+03  0.56811429308E+03  0.10165669130E+04  0.10100000352E+00 0.  1.
       -3    1    3    3    0  502  0.24746877600E+03  0.80586204362E+03  0.28128004996E+03  0.88869168172E+03  0.10100000352E+00 0. -1.
</event>
<event>
 5   0  0.2630135E-04  0.1697033E+04  0.7818609E-02  0.8763058E-01
       -1   -1    0    0    0  501  0.00000000000E+00  0.00000000000E+00  0.94861409424E+03  0.94861409425E+03  0.50400001928E-02 0. -1.
        1   -1    0    0  501    0  0.00000000000E+00  0.00000000000E+00 -0.75898152769E+03  0.75898152771E+03  0.50400001928E-02 0.  1.
    10030    2    1    2    0    0  0.00000000000E+00  0.00000000000E+00  0.18963256655E+03  0.17075956220E+04  0.16970333815E+04 0.  0.
        1    1    3    3  502    0 -0.44385245226E+03 -0.72134466555E+03  0.43140550278E+02  0.84805909758E+03  0.50400001928E-02 0.  1.
       -1    1    3    3    0  502  0.44385245226E+03  0.72134466555E+03  0.14649201627E+03  0.85953652438E+03  0.50400001928E-02 0. -1.
</event>
<event>
 5   0  0.2583422E-04  0.1711635E+04  0.7818609E-02  0.8754756E-01
        1   -1    0    0  501    0  0.00000000000E+00  0.00000000000E+00  0.17765916985E+04  0.17765916985E+04  0.50400001928E-02 0.  1.
       -1   -1    0    0    0  501  0.00000000000E+00  0.00000000000E+00 -0.41226337482E+03  0.41226337485E+03  0.50400001928E-02 0. -1.
    10030    2    1    2    0    0  0.00000000000E+00  0.00000000000E+00  0.13643283237E+04  0.21888550734E+04  0.17116351122E+04 0.  0.
        3    1    3    3  502    0 -0.57697380338E+03  0.32533500219E+02 -0.12507406074E+03  0.59127043668E+03  0.10100000352E+00 0. -1.
       -3    1    3    3    0  502  0.57697380338E+03 -0.32533500219E+02  0.14894023845E+04  0.15975846367E+04  0.10100000352E+00 0.  1.
</event>
<event>
 5   0  0.2630135E-04  0.1698265E+04  0.7818609E-02  0.8762354E-01
        1   -1    0    0  501    0  0.00000000000E+00  0.00000000000E+00  0.16976794047E+04  0.16976794047E+04  0.50400001928E-02 0.  1.
       -1   -1    0    0    0  501  0.00000000000E+00  0.00000000000E+00 -0.42471292023E+03  0.42471292026E+03  0.50400001928E-02 0. -1.
    10030    2    1    2    0    0  0.00000000000E+00  0.00000000000E+00  0.12729664845E+04  0.21223923249E+04  0.16982654417E+04 0.  0.
        1    1    3    3  502    0 -0.37422754030E+03 -0.83704091753E+02  0.15833003796E+04  0.16290772599E+04  0.50400001928E-02 0.  1.
       -1    1    3    3    0  502  0.37422754030E+03  0.83704091753E+02 -0.31033389511E+03  0.49331506502E+03  0.50400001928E-02 0. -1.
</event>
<event>
 5   0  0.2561518E-04  0.1711653E+04  0.7818609E-02  0.8754746E-01
       -1   -1    0    0    0  501  0.00000000000E+00  0.00000000000E+00  0.10750537793E+04  0.10750537793E+04  0.50400001928E-02 0. -1.
        1   -1    0    0  501    0  0.00000000000E+00  0.00000000000E+00 -0.68130478972E+03  0.68130478974E+03  0.50400001928E-02 0.  1.
    10030    2    1    2    0    0  0.00000000000E+00  0.00000000000E+00  0.39374898954E+03  0.17563585690E+04  0.17116533400E+04 0.  0.
        4    1    3    3  502    0 -0.61071362853E+03  0.46652385878E+01  0.81207043369E+03  0.10160968963E+04  0.12699999809E+01 0. -1.
       -4    1    3    3    0  502  0.61071362853E+03 -0.46652385878E+01 -0.41832144415E+03  0.74026167270E+03  0.12699999809E+01 0.  1.
</event>
<event>
 5   0  0.5198430E-04  0.1708370E+04  0.7818609E-02  0.8756605E-01
       -2   -1    0    0    0  501  0.00000000000E+00  0.00000000000E+00  0.51030948691E+03  0.51030948692E+03  0.25500000920E-02 0. -1.
        2   -1    0    0  501    0  0.00000000000E+00  0.00000000000E+00 -0.14297838589E+04  0.14297838589E+04  0.25500000920E-02 0.  1.
    10030    2    1    2    0    0  0.00000000000E+00  0.00000000000E+00 -0.91947437202E+03  0.19400933459E+04  0.17083702965E+04 0.  0.
        4    1    3    3  502    0 -0.80835175064E+03  0.26273260729E+03 -0.36357806913E+03  0.92447368862E+03  0.12699999809E+01 0.  1.
       -4    1    3    3    0  502  0.80835175064E+03 -0.26273260729E+03 -0.55589630290E+03  0.10156196572E+04  0.12699999809E+01 0. -1.
</event>
<event>
 5   0  0.5342255E-04  0.1729634E+04  0.7818609E-02  0.8744641E-01
        2   -1    0    0  501    0  0.00000000000E+00  0.00000000000E+00  0.91261965523E+03  0.91261965524E+03  0.25500000920E-02 0.  1.
       -2   -1    0    0    0  501  0.00000000000E+00  0.00000000000E+00 -0.81951781292E+03  0.81951781293E+03  0.25500000920E-02 0. -1.
    10030    2    1    2    0    0  0.00000000000E+00  0.00000000000E+00  0.93101842309E+02  0.17321374682E+04  0.17296335611E+04 0.  0.
        5    1    3    3  502    0  0.57434517557E+03 -0.25931055370E+03  0.63966807265E+03  0.89794859381E+03  0.46999998093E+01 0.  1.
       -5    1    3    3    0  502 -0.57434517557E+03  0.25931055370E+03 -0.54656623034E+03  0.83418887436E+03  0.46999998093E+01 0. -1.
</event>
<event>
 5   0  0.2561518E-04  0.1708010E+04  0.7818609E-02  0.8756809E-01
       -1   -1    0    0    0  501  0.00000000000E+00  0.00000000000E+00  0.35222929975E+03  0.35222929978E+03  0.50400001928E-02 0.  1.
        1   -1    0    0  501    0  0.00000000000E+00  0.00000000000E+00 -0.20705961947E+04  0.20705961947E+04  0.50400001928E-02 0. -1.
    10030    2    1    2    0    0  0.00000000000E+00  0.00000000000E+00 -0.17183668950E+04  0.24228254945E+04  0.17080101262E+04 0.  0.
        4    1    3    3  502    0  0.58947480582E+03 -0.13235864517E+03 -0.29831149273E+01  0.60416046670E+03  0.12699999809E+01 0.  1.
       -4    1    3    3    0  502 -0.58947480582E+03  0.13235864517E+03 -0.17153837801E+04  0.18186650278E+04  0.12699999809E+01 0. -1.
</event>
<event>
 5   0  0.5299877E-04  0.1707192E+04  0.7818609E-02  0.8757273E-01
        2   -1    0    0  501    0  0.00000000000E+00  0.00000000000E+00  0.11436572432E+04  0.11436572432E+04  0.25500000920E-02 0. -1.
       -2   -1    0    0    0  501  0.00000000000E+00  0.00000000000E+00 -0.63710189362E+03  0.63710189363E+03  0.25500000920E-02 0.  1.
    10030    2    1    2    0    0  0.00000000000E+00  0.00000000000E+00  0.50655534955E+03  0.17807591368E+04  0.17071920751E+04 0.  0.
        3    1    3    3  502    0  0.66861934279E+03 -0.44167702969E+03  0.56005284605E+03  0.97764493794E+03  0.10100000352E+00 0. -1.
       -3    1    3    3    0  502 -0.66861934279E+03  0.44167702969E+03 -0.53497496495E+02  0.80311419888E+03  0.10100000352E+00 0.  1.
</event>
<event>
 5   0  0.5310003E-04  0.1691342E+04  0.7818609E-02  0.8766318E-01
        2   -1    0    0  501    0  0.00000000000E+00  0.00000000000E+00  0.62604744743E+03  0.62604744743E+03  0.25500000920E-02 0.  1.
       -2   -1    0    0    0  501  0.00000000000E+00  0.00000000000E+00 -0.11423403205E+04  0.11423403205E+04  0.25500000920E-02 0. -1.
    10030    2    1    2    0    0  0.00000000000E+00  0.00000000000E+00 -0.51629287311E+03  0.17683877680E+04  0.16913417653E+04 0.  0.
        1    1    3    3  502    0  0.43453194790E+03  0.67725489380E+03  0.13832147442E+02  0.80478788090E+03  0.50400001928E-02 0.  1.
       -1    1    3    3    0  502 -0.43453194790E+03 -0.67725489380E+03 -0.53012502055E+03  0.96359988707E+03  0.50400001928E-02 0. -1.
</event>
<event>
 5   0  0.5021349E-04  0.1549635E+04  0.7818609E-02  0.8852101E-01
        2   -1    0    0  501    0  0.00000000000E+00  0.00000000000E+00  0.73468949389E+03  0.73468949389E+03  0.25500000920E-02 0.  1.
       -2   -1    0    0    0  501  0.00000000000E+00  0.00000000000E+00 -0.81713713094E+03  0.81713713094E+03  0.25500000920E-02 0. -1.
    10030    2    1    2    0    0  0.00000000000E+00  0.00000000000E+00 -0.82447637051E+02  0.15518266248E+04  0.15496348798E+04 0.  0.
        2    1    3    3  502    0 -0.45277744843E+03 -0.61790241489E+02 -0.66782168736E+03  0.80920408913E+03  0.25500000920E-02 0. -1.
       -2    1    3    3    0  502  0.45277744843E+03  0.61790241489E+02  0.58537405031E+03  0.74262253570E+03  0.25500000920E-02 0.  1.
</event>
<event>
 5   0  0.2595644E-04  0.1700648E+04  0.7818609E-02  0.8760995E-01
       -1   -1    0    0    0  501  0.00000000000E+00  0.00000000000E+00  0.90580285541E+03  0.90580285543E+03  0.50400001928E-02 0.  1.
        1   -1    0    0  501    0  0.00000000000E+00  0.00000000000E+00 -0.79824342872E+03  0.79824342874E+03  0.50400001928E-02 0. -1.
    10030    2    1    2    0    0  0.00000000000E+00  0.00000000000E+00  0.10755942669E+03  0.17040462842E+04  0.17006483200E+04 0.  0.
        2    1    3    3  502    0  0.16575617255E+03  0.48462618430E+03 -0.62633528989E+03  0.80909427301E+03  0.25500000920E-02 0. -1.
       -2    1    3    3    0  502 -0.16575617255E+03 -0.48462618430E+03  0.73389471658E+03  0.89495201116E+03  0.25500000920E-02 0.  1.
</event>
<event>
 5   0  0.2561518E-04  0.1682671E+04  0.7818609E-02  0.8771310E-01
       -1   -1    0    0    0  501  0.00000000000E+00  0.00000000000E+00  0.69376583879E+03  0.69376583881E+03  0.50400001928E-02 0.  1.
        1   -1    0    0  501    0  0.00000000000E+00  0.00000000000E+00 -0.10202948066E+04  0.10202948067E+04  0.50400001928E-02 0. -1.
    10030    2    1    2    0    0  0.00000000000E+00  0.00000000000E+00 -0.32652896785E+03  0.17140606455E+04  0.16826713076E+04 0.  0.
        4    1    3    3  502    0  0.48943817097E+02 -0.60512399663E+02 -0.10166190148E+04  0.10195945674E+04  0.12699999809E+01 0. -1.
       -4    1    3    3    0  502 -0.48943817097E+02  0.60512399663E+02  0.69009004695E+03  0.69446607804E+03  0.12699999809E+01 0.  1.
</event>
<event>
 5   0  0.5342255E-04  0.1695815E+04  0.7818609E-02  0.8763755E-01
       -2   -1    0    0    0  501  0.00000000000E+00  0.00000000000E+00  0.40181930019E+03  0.40181930020E+03  0.25500000920E-02 0. -1.
        2   -1    0    0  501    0  0.00000000000E+00  0.00000000000E+00 -0.17892304695E+04  0.17892304695E+04  0.25500000920E-02 0.  1.
    10030    2    1    2    0    0  0.00000000000E+00  0.00000000000E+00 -0.13874111693E+04  0.21910497697E+04  0.16958152437E+04 0.  0.
        5    1    3    3  502    0 -0.27388711587E+02  0.78239428372E+03 -0.27298198748E+03  0.82911531901E+03  0.46999998093E+01 0. -1.
       -5    1    3    3    0  502  0.27388711587E+02 -0.78239428372E+03 -0.11144291818E+04  0.13619344507E+04  0.46999998093E+01 0.  1.
</event>
<event>
 5   0  0.1910750E-04  0.1449756E+04  0.7818609E-02  0.8918569E-01
       -4   -1    0    0    0  501  0.00000000000E+00  0.00000000000E+00  0.78563233516E+03  0.78563336165E+03  0.12699999809E+01 0. -1.
        4   -1    0    0  501    0  0.00000000000E+00  0.00000000000E+00 -0.66882009021E+03  0.66882129599E+03  0.12699999809E+01 0.  1.
    10030    2    1    2    0    0  0.00000000000E+00  0.00000000000E+00  0.11681224495E+03  0.14544546576E+04  0.14497562728E+04 0.  0.
        3    1    3    3  502    0 -0.42250110775E+03 -0.57201555942E+03 -0.82545877310E+02  0.71590699000E+03  0.10100000352E+00 0.  1.
       -3    1    3    3    0  502  0.42250110775E+03  0.57201555942E+03  0.19935812226E+03  0.73854766764E+03  0.10100000352E+00 0. -1.
</event>
<event>
 5   0  0.2785059E-04  0.1665959E+04  0.7818609E-02  0.8781021E-01
        1   -1    0    0  501    0  0.00000000000E+00  0.00000000000E+00  0.69431350206E+03  0.69431350208E+03  0.50400001928E-02 0.  1.
       -1   -1    0    0    0  501  0.00000000000E+00  0.00000000000E+00 -0.99933928451E+03  0.99933928453E+03  0.50400001928E-02 0. -1.
    10030    2    1    2    0    0  0.00000000000E+00  0.00000000000E+00 -0.30502578245E+03  0.16936527866E+04  0.16659588931E+04 0.  0.
        5    1    3    3  502    0 -0.80799549519E+03 -0.26650884398E+02 -0.35651169027E+03  0.88356644639E+03  0.46999998093E+01 0. -1.
       -5    1    3    3    0  502  0.80799549519E+03  0.26650884398E+02  0.51485907815E+02  0.81008634021E+03  0.46999998093E+01 0.  1.
</event>
<event>
 5   0  0.2561518E-04  0.1691847E+04  0.7818609E-02  0.8766028E-01
       -1   -1    0    0    0  501  0.00000000000E+00  0.00000000000E+00  0.45677162014E+03  0.45677162017E+03  0.50400001928E-02 0.  1.
        1   -1    0    0  501    0  0.00000000000E+00  0.00000000000E+00 -0.15666181729E+04  0.15666181729E+04  0.50400001928E-02 0. -1.
    10030    2    1    2    0    0  0.00000000000E+00  0.00000000000E+00 -0.11098465528E+04  0.20233897931E+04  0.16918471811E+04 0.  0.
        4    1    3    3  502    0  0.40387364514E+03 -0.50948380221E+03 -0.12021794661E+04  0.13667204351E+04  0.12699999809E+01 0. -1.
       -4    1    3    3    0  502 -0.40387364514E+03  0.50948380221E+03  0.92332913376E+02  0.65666935801E+03  0.12699999809E+01 0.  1.
</event>
<event>
 5   0  0.2583422E-04  0.1786879E+04  0.7818609E-02  0.8713308E-01
        1   -1    0    0  501    0  0.00000000000E+00  0.00000000000E+00  0.18424066563E+04  0.18424066563E+04  0.50400001928E-02 0. -1.
       -1   -1    0    0    0  501  0.00000000000E+00  0.00000000000E+00 -0.43325607605E+03  0.43325607608E+03  0.50400001928E-02 0.  1.
    10030    2    1    2    0    0  0.00000000000E+00  0.00000000000E+00  0.14091505803E+04  0.22756627324E+04  0.17868787071E+04 0.  0.
        3    1    3    3  502    0 -0.45649360366E+03  0.62196975655E+03  0.13077336915E+03  0.78251803335E+03  0.10100000352E+00 0.  1.
       -3    1    3    3    0  502  0.45649360366E+03 -0.62196975655E+03  0.12783772111E+04  0.14931446991E+04  0.10100000352E+00 0. -1.
</event>
<event>
 5   0  0.2785059E-04  0.1684315E+04  0.7818609E-02  0.8770361E-01
        1   -1    0    0  501    0  0.00000000000E+00  0.00000000000E+00  0.19984109811E+04  0.19984109811E+04  0.50400001928E-02 0.  1.
       -1   -1    0    0    0  501  0.00000000000E+00  0.00000000000E+00 -0.35489676770E+03  0.35489676774E+03  0.50400001928E-02 0. -1.
    10030    2    1    2    0    0  0.00000000000E+00  0.00000000000E+00  0.16435142134E+04  0.23533077488E+04  0.16843154073E+04 0.  0.
        5    1    3    3  502    0  0.71370979683E+03 -0.59426216663E+02  0.14407835658E+04  0.16089725053E+04  0.46999998093E+01 0.  1.
       -5    1    3    3    0  502 -0.71370979683E+03  0.59426216663E+02  0.20273064761E+03  0.74433524356E+03  0.46999998093E+01 0. -1.
</event>
<event>
 5   0  0.2630135E-04  0.1690934E+04  0.7818609E-02  0.8766552E-01
        1   -1    0    0  501    0  0.00000000000E+00  0.00000000000E+00  0.35390411965E+03  0.35390411969E+03  0.50400001928E-02 0.  1.
       -1   -1    0    0    0  501  0.00000000000E+00  0.00000000000E+00 -0.20197972190E+04  0.20197972190E+04  0.50400001928E-02 0. -1.
    10030    2    1    2    0    0  0.00000000000E+00  0.00000000000E+00 -0.16658930994E+04  0.23737013387E+04  0.16909341285E+04 0.  0.
        1    1    3    3  502    0 -0.23967811027E+03  0.45372168391E+03 -0.17762055387E+04  0.18488415505E+04  0.50400001928E-02 0. -1.
       -1    1    3    3    0  502  0.23967811027E+03 -0.45372168391E+03  0.11031243936E+03  0.52485978822E+03  0.50400001928E-02 0.  1.
</event>
<event>
 5   0  0.1910750E-04  0.1692595E+04  0.7818609E-02  0.8765599E-01
       -3   -1    0    0    0  501  0.00000000000E+00  0.00000000000E+00  0.12011413934E+04  0.12011413976E+04  0.10100000352E+00 0. -1.
        3   -1    0    0  501    0  0.00000000000E+00  0.00000000000E+00 -0.59628260108E+03  0.59628260964E+03  0.10100000352E+00 0.  1.
    10030    2    1    2    0    0  0.00000000000E+00  0.00000000000E+00  0.60485879229E+03  0.17974240073E+04  0.16925953159E+04 0.  0.
        4    1    3    3  502    0 -0.48524983438E+03 -0.31500340554E+03  0.95836029180E+03  0.11194420972E+04  0.12699999809E+01 0. -1.
       -4    1    3    3    0  502  0.48524983438E+03  0.31500340554E+03 -0.35350149950E+03  0.67798191003E+03  0.12699999809E+01 0.  1.
</event>
<event>
 5   0  0.5310003E-04  0.1740018E+04  0.7818609E-02  0.8738864E-01
        2   -1    0    0  501    0  0.00000000000E+00  0.00000000000E+00  0.10095513724E+04  0.10095513724E+04  0.25500000920E-02 0. -1.
       -2   -1    0    0    0  501  0.00000000000E+00  0.00000000000E+00 -0.74975408065E+03  0.74975408066E+03  0.25500000920E-02 0.  1.
    10030    2    1    2    0    0  0.00000000000E+00  0.00000000000E+00  0.25979729172E+03  0.17593054530E+04  0.17400175414E+04 0.  0.
        1    1    3    3  502    0  0.76225402066E+03  0.14659832534E+03 -0.26738567480E+03  0.82098560287E+03  0.50400001928E-02 0. -1.
       -1    1    3    3    0  502 -0.76225402066E+03 -0.14659832534E+03  0.52718296652E+03  0.93831985017E+03  0.50400001928E-02 0.  1.
</event>
<event>
 5   0  0.2630135E-04  0.1689193E+04  0.7818609E-02  0.8767552E-01
        1   -1    0    0  501    0  0.00000000000E+00  0.00000000000E+00  0.64226753798E+03  0.64226753800E+03  0.50400001928E-02 0.  1.
       -1   -1    0    0    0  501  0.00000000000E+00  0.00000000000E+00 -0.11106642524E+04  0.11106642524E+04  0.50400001928E-02 0. -1.
    10030    2    1    2    0    0  0.00000000000E+00  0.00000000000E+00 -0.46839671444E+03  0.17529317904E+04  0.16891934110E+04 0.  0.
        1    1    3    3  502    0  0.22936599724E+03  0.80957343073E+03 -0.15846734473E+03  0.85622999235E+03  0.50400001928E-02 0.  1.
       -1    1    3    3    0  502 -0.22936599724E+03 -0.80957343073E+03 -0.30992936972E+03  0.89670179807E+03  0.50400001928E-02 0. -1.
</event>
<event>
 5   0  0.5198430E-04  0.1648602E+04  0.7818609E-02  0.8791234E-01
       -2   -1    0    0    0  501  0.00000000000E+00  0.00000000000E+00  0.13519501357E+04  0.13519501357E+04  0.25500000920E-02 0. -1.
        2   -1    0    0  501    0  0.00000000000E+00  0.00000000000E+00 -0.50258687946E+03  0.50258687947E+03  0.25500000920E-02 0.  1.
    10030    2    1    2    0    0  0.00000000000E+00  0.00000000000E+00  0.84936325619E+03  0.18545370151E+04  0.16486023170E+04 0.  0.
        4    1    3    3  502    0 -0.56222791181E+03  0.10315720527E+03 -0.24341653536E+03  0.62128484321E+03  0.12699999809E+01 0.  1.
       -4    1    3    3    0  502  0.56222791181E+03 -0.10315720527E+03  0.10927797916E+04  0.12332521719E+04  0.12699999809E+01 0. -1.
</event>
<event>
 5   0  0.5342255E-04  0.1688603E+04  0.7818609E-02  0.8767891E-01
        2   -1    0    0  501    0  0.00000000000E+00  0.00000000000E+00  0.13032943600E+04  0.13032943600E+04  0.25500000920E-02 0. -1.
       -2   -1    0    0    0  501  0.00000000000E+00  0.00000000000E+00 -0.54695631629E+03  0.54695631629E+03  0.25500000920E-02 0.  1.
    10030    2    1    2    0    0  0.00000000000E+00  0.00000000000E+00  0.75633804371E+03  0.18502506763E+04  0.16886030702E+04 0.  0.
        5    1    3    3  502    0 -0.15776258650E+02  0.11482160990E+01 -0.54677960572E+03  0.54702855133E+03  0.46999998093E+01 0.  1.
       -5    1    3    3    0  502  0.15776258650E+02 -0.11482160990E+01  0.13031176494E+04  0.13032221250E+04  0.46999998093E+01 0. -1.
</event>
<event>
 5   0  0.2595644E-04  0.1708199E+04  0.7818609E-02  0.8756702E-01
        1   -1    0    0  501    0  0.00000000000E+00  0.00000000000E+00  0.70479822085E+03  0.70479822087E+03  0.50400001928E-02 0. -1.
       -1   -1    0    0    0  501  0.00000000000E+00  0.00000000000E+00 -0.10350276637E+04  0.10350276637E+04  0.50400001928E-02 0.  1.
    10030    2    1    2    0    0  0.00000000000E+00  0.00000000000E+00 -0.33022944284E+03  0.17398258846E+04  0.17081986488E+04 0.  0.
        2    1    3    3  502    0  0.26120227141E+02 -0.73632193615E+03  0.27489481907E+03  0.78639647855E+03  0.25500000920E-02 0. -1.
       -2    1    3    3    0  502 -0.26120227141E+02  0.73632193615E+03 -0.60512426191E+03  0.95342940602E+03  0.25500000920E-02 0.  1.
</event>
<event>
 5   0  0.2630135E-04  0.1711239E+04  0.7818609E-02  0.8754980E-01
        1   -1    0    0  501    0  0.00000000000E+00  0.00000000000E+00  0.11210248758E+04  0.11210248758E+04  0.50400001928E-02 0. -1.
       -1   -1    0    0    0  501  0.00000000000E+00  0.00000000000E+00 -0.65304948077E+03  0.65304948079E+03  0.50400001928E-02 0.  1.
    10030    2    1    2    0    0  0.00000000000E+00  0.00000000000E+00  0.46797539500E+03  0.17740743566E+04  0.17112389817E+04 0.  0.
        1    1    3    3  502    0  0.67150030016E+03  0.13495091053E+02 -0.31556145354E+03  0.74207398660E+03  0.50400001928E-02 0.  1.
       -1    1    3    3    0  502 -0.67150030016E+03 -0.13495091053E+02  0.78353684853E+03  0.10320003700E+04  0.50400001928E-02 0. -1.
</event>
<event>
 5   0  0.5021349E-04  0.1702465E+04  0.7818609E-02  0.8759960E-01
       -2   -1    0    0    0  501  0.00000000000E+00  0.00000000000E+00  0.48757374276E+03  0.48757374276E+03  0.25500000920E-02 0. -1.
        2   -1    0    0  501    0  0.00000000000E+00  0.00000000000E+00 -0.14861274773E+04  0.14861274773E+04  0.25500000920E-02 0.  1.
    10030    2    1    2    0    0  0.00000000000E+00  0.00000000000E+00 -0.99855373454E+03  0.19737012201E+04  0.17024649615E+04 0.  0.
        2    1    3    3  502    0  0.30910289069E+02 -0.54089490042E+03 -0.12604424457E+04  0.13719467549E+04  0.25500000920E-02 0.  1.
       -2    1    3    3    0  502 -0.30910289069E+02  0.54089490042E+03  0.26188871120E+03  0.60175446515E+03  0.25500000920E-02 0. -1.
</event>
<event>
 5   0  0.2583422E-04  0.1806086E+04  0.7818609E-02  0.8703070E-01
       -1   -1    0    0    0  501  0.00000000000E+00  0.00000000000E+00  0.94051326828E+03  0.94051326829E+03  0.50400001928E-02 0.  1.
        1   -1    0    0  501    0  0.00000000000E+00  0.00000000000E+00 -0.86706521624E+03  0.86706521625E+03  0.50400001928E-02 0. -1.
    10030    2    1    2    0    0  0.00000000000E+00  0.00000000000E+00  0.73448052040E+02  0.18075784845E+04  0.18060856462E+04 0.  0.
        3    1    3    3  502    0 -0.55379570891E+03  0.61866977271E+03  0.39204473732E+03  0.91822712938E+03  0.10100000352E+00 0. -1.
       -3    1    3    3    0  502  0.55379570891E+03 -0.61866977271E+03 -0.31859668528E+03  0.88935135517E+03  0.10100000352E+00 0.  1.
</event>
<event>
 5   0  0.2583422E-04  0.1712494E+04  0.7818609E-02  0.8754271E-01
        1   -1    0    0  501    0  0.00000000000E+00  0.00000000000E+00  0.10694020084E+04  0.10694020084E+04  0.50400001928E-02 0.  1.
       -1   -1    0    0    0  501  0.00000000000E+00  0.00000000000E+00 -0.68557834330E+03  0.68557834332E+03  0.50400001928E-02 0. -1.
    10030    2    1    2    0    0  0.00000000000E+00  0.00000000000E+00  0.38382366509E+03  0.17549803517E+04  0.17124939209E+04 0.  0.
        3    1    3    3  502    0  0.50967133897E+03 -0.14407808567E+03 -0.49756156803E+03  0.72669862578E+03  0.10100000352E+00 0. -1.
       -3    1    3    3    0  502 -0.50967133897E+03  0.14407808567E+03  0.88138523312E+03  0.10282817259E+04  0.10100000352E+00 0.  1.
</event>
<event>
 5   0  0.5021349E-04  0.1701525E+04  0.7818609E-02  0.8760495E-01
        2   -1    0    0  501    0  0.00000000000E+00  0.00000000000E+00  0.10475792656E+04  0.10475792656E+04  0.25500000920E-02 0.  1.
       -2   -1    0    0    0  501  0.00000000000E+00  0.00000000000E+00 -0.69092356479E+03  0.69092356480E+03  0.25500000920E-02 0. -1.
    10030    2    1    2    0    0  0.00000000000E+00  0.00000000000E+00  0.35665570078E+03  0.17385028304E+04  0.17015254339E+04 0.  0.
        2    1    3    3  502    0 -0.18421177807E+03  0.20116778525E+03 -0.64503513907E+03  0.70033762404E+03  0.25500000920E-02 0. -1.
       -2    1    3    3    0  502  0.18421177807E+03 -0.20116778525E+03  0.10016908398E+04  0.10381652063E+04  0.25500000920E-02 0.  1.
</event>
<event>
 5   0  0.2583422E-04  0.1664899E+04  0.7818609E-02  0.8781641E-01
       -1   -1    0    0    0  501  0.00000000000E+00  0.00000000000E+00  0.59756876756E+03  0.59756876758E+03  0.50400001928E-02 0. -1.
        1   -1    0    0  501    0  0.00000000000E+00  0.00000000000E+00 -0.11596521507E+04  0.11596521507E+04  0.50400001928E-02 0.  1.
    10030    2    1    2    0    0  0.00000000000E+00  0.00000000000E+00 -0.56208338314E+03  0.17572209183E+04  0.16648986834E+04 0.  0.
        3    1    3    3  502    0 -0.28349718041E+03  0.53868664562E+03  0.31826366029E+03  0.68691027153E+03  0.10100000352E+00 0. -1.
       -3    1    3    3    0  502  0.28349718041E+03 -0.53868664562E+03 -0.88034704343E+03  0.10703106468E+04  0.10100000352E+00 0.  1.
</event>
<event>
 5   0  0.5299877E-04  0.1698296E+04  0.7818609E-02  0.8762337E-01
       -2   -1    0    0    0  501  0.00000000000E+00  0.00000000000E+00  0.34956491832E+03  0.34956491833E+03  0.25500000920E-02 0. -1.
        2   -1    0    0  501    0  0.00000000000E+00  0.00000000000E+00 -0.20627143986E+04  0.20627143986E+04  0.25500000920E-02 0.  1.
    10030    2    1    2    0    0  0.00000000000E+00  0.00000000000E+00 -0.17131494803E+04  0.24122793169E+04  0.16982963114E+04 0.  0.
        3    1    3    3  502    0  0.82634396633E+03  0.80876073802E+02 -0.11093412763E+04  0.13856490781E+04  0.10100000352E+00 0.  1.
       -3    1    3    3    0  502 -0.82634396633E+03 -0.80876073802E+02 -0.60380820395E+03  0.10266302389E+04  0.10100000352E+00 0. -1.
</event>
<event>
 5   0  0.5299877E-04  0.1708336E+04  0.7818609E-02  0.8756624E-01
       -2   -1    0    0    0  501  0.00000000000E+00  0.00000000000E+00  0.98387256474E+03  0.98387256474E+03  0.25500000920E-02 0. -1.
        2   -1    0    0  501    0  0.00000000000E+00  0.00000000000E+00 -0.74156218256E+03  0.74156218256E+03  0.25500000920E-02 0.  1.
    10030    2    1    2    0    0  0.00000000000E+00  0.00000000000E+00  0.24231038218E+03  0.17254347473E+04  0.17083356655E+04 0.  0.
        3    1    3    3  502    0  0.17119356634E+03 -0.73368102796E+03  0.52768557524E+03  0.91980822157E+03  0.10100000352E+00 0. -1.
       -3    1    3    3    0  502 -0.17119356634E+03  0.73368102796E+03 -0.28537519306E+03  0.80562652573E+03  0.10100000352E+00 0.  1.
</event>
<event>
 5   0  0.5021349E-04  0.1696830E+04  0.7818609E-02  0.8763174E-01
        2   -1    0    0  501    0  0.00000000000E+00  0.00000000000E+00  0.86267144568E+03  0.86267144568E+03  0.25500000920E-02 0.  1.
       -2   -1    0    0    0  501  0.00000000000E+00  0.00000000000E+00 -0.83439439005E+03  0.83439439006E+03  0.25500000920E-02 0. -1.
    10030    2    1    2    0    0  0.00000000000E+00  0.00000000000E+00  0.28277055628E+02  0.16970658357E+04  0.16968302387E+04 0.  0.
        2    1    3    3  502    0  0.50293421313E+03  0.64562833577E+03  0.23784221069E+03  0.85226034043E+03  0.25500000920E-02 0.  1.
       -2    1    3    3    0  502 -0.50293421313E+03 -0.64562833577E+03 -0.20956515506E+03  0.84480549531E+03  0.25500000920E-02 0. -1.
</event>
<event>
 5   0  0.2561518E-04  0.1716832E+04  0.7818609E-02  0.8751822E-01
        1   -1    0    0  501    0  0.00000000000E+00  0.00000000000E+00  0.10173200915E+04  0.10173200916E+04  0.50400001928E-02 0. -1.
       -1   -1    0    0    0  501  0.00000000000E+00  0.00000000000E+00 -0.72433293023E+03  0.72433293024E+03  0.50400001928E-02 0.  1.
    10030    2    1    2    0    0  0.00000000000E+00  0.00000000000E+00  0.29298716132E+03  0.17416530218E+04  0.17168324821E+04 0.  0.
        4    1    3    3  502    0 -0.34426480899E+03 -0.95068165434E+01  0.94416157739E+03  0.10050131021E+04  0.12699999809E+01 0. -1.
       -4    1    3    3    0  502  0.34426480899E+03  0.95068165434E+01 -0.65117441607E+03  0.73663991971E+03  0.12699999809E+01 0.  1.
</event>
<event>
 5   0  0.5310003E-04  0.1692529E+04  0.7818609E-02  0.8765637E-01
        2   -1    0    0  501    0  0.00000000000E+00  0.00000000000E+00  0.25364442116E+04  0.25364442116E+04  0.25500000920E-02 0. -1.
       -2   -1    0    0    0  501  0.00000000000E+00  0.00000000000E+00 -0.28234960402E+03  0.28234960403E+03  0.25500000920E-02 0.  1.
    10030    2    1    2    0    0  0.00000000000E+00  0.00000000000E+00  0.22540946076E+04  0.28187938156E+04  0.16925294902E+04 0.  0.
        1    1    3    3  502    0 -0.27273143279E+03 -0.13139417296E+03 -0.18908410077E+03  0.35693089010E+03  0.50400001928E-02 0.  1.
       -1    1    3    3    0  502  0.27273143279E+03  0.13139417296E+03  0.24431787084E+04  0.24618629255E+04  0.50400001928E-02 0. -1.
</event>
<event>
 5   0  0.5021349E-04  0.1576330E+04  0.7818609E-02  0.8835223E-01
        2   -1    0    0  501    0  0.00000000000E+00  0.00000000000E+00  0.25745653300E+04  0.25745653300E+04  0.25500000920E-02 0.  1.
       -2   -1    0    0    0  501  0.00000000000E+00  0.00000000000E+00 -0.24128513879E+03  0.24128513881E+03  0.25500000920E-02 0. -1.
    10030    2    1    2    0    0  0.00000000000E+00  0.00000000000E+00  0.23332801912E+04  0.28158504688E+04  0.15763303626E+04 0.  0.
        2    1    3    3  502    0 -0.73789665198E+03  0.25055148303E+03  0.13775245075E+04  0.15826690379E+04  0.25500000920E-02 0.  1.
       -2    1    3    3    0  502  0.73789665198E+03 -0.25055148303E+03  0.95575568367E+03  0.12331814309E+04  0.25500000920E-02 0. -1.
</event>
<event>
 5   0  0.5198430E-04  0.1683353E+04  0.7818609E-02  0.8770916E-01
       -2   -1    0    0    0  501  0.00000000000E+00  0.00000000000E+00  0.78886035122E+03  0.78886035122E+03  0.25500000920E-02 0. -1.
        2   -1    0    0  501    0  0.00000000000E+00  0.00000000000E+00 -0.89802896174E+03  0.89802896175E+03  0.25500000920E-02 0.  1.
    10030    2    1    2    0    0  0.00000000000E+00  0.00000000000E+00 -0.10916861052E+03  0.16868893130E+04  0.16833531325E+04 0.  0.
        4    1    3    3  502    0 -0.19263255832E+03  0.66084792796E+03 -0.53994723728E+03  0.87485536997E+03  0.12699999809E+01 0.  1.
       -4    1    3    3    0  502  0.19263255832E+03 -0.66084792796E+03  0.43077862676E+03  0.81203394300E+03  0.12699999809E+01 0. -1.
</event>
<event>
 5   0  0.5299877E-04  0.1661986E+04  0.7818609E-02  0.8783347E-01
       -2   -1    0    0    0  501  0.00000000000E+00  0.00000000000E+00  0.42617289348E+03  0.42617289349E+03  0.25500000920E-02 0.  1.
        2   -1    0    0  501    0  0.00000000000E+00  0.00000000000E+00 -0.16203498962E+04  0.16203498963E+04  0.25500000920E-02 0. -1.
    10030    2    1    2    0    0  0.00000000000E+00  0.00000000000E+00 -0.11941770028E+04  0.20465227897E+04  0.16619858047E+04 0.  0.
        3    1    3    3  502    0  0.45078540766E+03 -0.56115522395E+03 -0.85740576276E+02  0.72488214611E+03  0.10100000352E+00 0.  1.
       -3    1    3    3    0  502 -0.45078540766E+03  0.56115522395E+03 -0.11084364265E+04  0.13216406436E+04  0.10100000352E+00 0. -1.
</event>
<event>
 5   0  0.2595644E-04  0.1640061E+04  0.7818609E-02  0.8796308E-01
        1   -1    0    0  501    0  0.00000000000E+00  0.00000000000E+00  0.11153824365E+04  0.11153824365E+04  0.50400001928E-02 0.  1.
       -1   -1    0    0    0  501  0.00000000000E+00  0.00000000000E+00 -0.60288761972E+03  0.60288761974E+03  0.50400001928E-02 0. -1.
    10030    2    1    2    0    0  0.00000000000E+00  0.00000000000E+00  0.51249481679E+03  0.17182700563E+04  0.16400612943E+04 0.  0.
        2    1    3    3  502    0  0.42888301670E+03 -0.16055514497E+03  0.96892967512E+03  0.10717011299E+04  0.25500000920E-02 0.  1.
       -2    1    3    3    0  502 -0.42888301670E+03  0.16055514497E+03 -0.45643485832E+03  0.64656892632E+03  0.25500000920E-02 0. -1.
</event>
<event>
 5   0  0.5310003E-04  0.1695153E+04  0.7818609E-02  0.8764134E-01
        2   -1    0    0  501    0  0.00000000000E+00  0.00000000000E+00  0.15632143138E+04  0.15632143138E+04  0.25500000920E-02 0. -1.
       -2   -1    0    0    0  501  0.00000000000E+00  0.00000000000E+00 -0.45955668940E+03  0.45955668941E+03  0.25500000920E-02 0.  1.
    10030    2    1    2    0    0  0.00000000000E+00  0.00000000000E+00  0.11036576244E+04  0.20227710032E+04  0.16951526125E+04 0.  0.
        1    1    3    3  502    0  0.65816108145E+03 -0.78080490973E+02  0.11822458849E+04  0.13553515797E+04  0.50400001928E-02 0. -1.
       -1    1    3    3    0  502 -0.65816108145E+03  0.78080490973E+02 -0.78588260472E+02  0.66741942354E+03  0.50400001928E-02 0.  1.
</event>
<event>
 5   0  0.5198430E-04  0.1697883E+04  0.7818609E-02  0.8762573E-01
       -2   -1    0    0    0  501  0.00000000000E+00  0.00000000000E+00  0.81230658047E+03  0.81230658048E+03  0.25500000920E-02 0. -1.
        2   -1    0    0  501    0  0.00000000000E+00  0.00000000000E+00 -0.88722885672E+03  0.88722885672E+03  0.25500000920E-02 0.  1.
    10030    2    1    2    0    0  0.00000000000E+00  0.00000000000E+00 -0.74922276247E+02  0.16995354372E+04  0.16978831982E+04 0.  0.
        4    1    3    3  502    0 -0.63649171325E+03  0.23255209859E+03  0.47440528021E+03  0.82720261266E+03  0.12699999809E+01 0. -1.
       -4    1    3    3    0  502  0.63649171325E+03 -0.23255209859E+03 -0.54932755645E+03  0.87233282454E+03  0.12699999809E+01 0.  1.
</event>
<event>
 5   0  0.2630135E-04  0.1696479E+04  0.7818609E-02  0.8763375E-01
       -1   -1    0    0    0  501  0.00000000000E+00  0.00000000000E+00  0.52552498164E+03  0.52552498167E+03  0.50400001928E-02 0.  1.
        1   -1    0    0  501    0  0.00000000000E+00  0.00000000000E+00 -0.13691262555E+04  0.13691262555E+04  0.50400001928E-02 0. -1.
    10030    2    1    2    0    0  0.00000000000E+00  0.00000000000E+00 -0.84360127383E+03  0.18946512372E+04  0.16964787653E+04 0.  0.
        1    1    3    3  502    0 -0.19670071474E+03  0.41720378181E+03  0.37322651977E+03  0.59333649965E+03  0.50400001928E-02 0.  1.
       -1    1    3    3    0  502  0.19670071474E+03 -0.41720378181E+03 -0.12168277936E+04  0.13013147375E+04  0.50400001928E-02 0. -1.
</event>
<event>
 5   0  0.2595644E-04  0.1813285E+04  0.7818609E-02  0.8699266E-01
       -1   -1    0    0    0  501  0.00000000000E+00  0.00000000000E+00  0.51294273400E+03  0.51294273403E+03  0.50400001928E-02 0. -1.
        1   -1    0    0  501    0  0.00000000000E+00  0.00000000000E+00 -0.16025197363E+04  0.16025197363E+04  0.50400001928E-02 0.  1.
    10030    2    1    2    0    0  0.00000000000E+00  0.00000000000E+00 -0.10895770023E+04  0.21154624703E+04  0.18132852559E+04 0.  0.
        2    1    3    3  502    0 -0.45687496258E+03 -0.70703086813E+03 -0.93760970640E+03  0.12600552930E+04  0.25500000920E-02 0. -1.
       -2    1    3    3    0  502  0.45687496258E+03  0.70703086813E+03 -0.15196729585E+03  0.85540717727E+03  0.25500000920E-02 0.  1.
</event>
<event>
 5   0  0.2785059E-04  0.1697205E+04  0.7818609E-02  0.8762960E-01
       -1   -1    0    0    0  501  0.00000000000E+00  0.00000000000E+00  0.12792490196E+04  0.12792490196E+04  0.50400001928E-02 0.  1.
        1   -1    0    0  501    0  0.00000000000E+00  0.00000000000E+00 -0.56292899238E+03  0.56292899240E+03  0.50400001928E-02 0. -1.
    10030    2    1    2    0    0  0.00000000000E+00  0.00000000000E+00  0.71632002719E+03  0.18421780120E+04  0.16972051869E+04 0.  0.
        5    1    3    3  502    0  0.81577045631E+01  0.14152594317E+03  0.12662916100E+04  0.12742106075E+04  0.46999998093E+01 0.  1.
       -5    1    3    3    0  502 -0.81577045631E+01 -0.14152594317E+03 -0.54997158277E+03  0.56796740451E+03  0.46999998093E+01 0. -1.
</event>
<event>
 5   0  0.1910750E-04  0.1736295E+04  0.7818609E-02  0.8740930E-01
        3   -1    0    0  501    0  0.00000000000E+00  0.00000000000E+00  0.95612608789E+03  0.95612609323E+03  0.10100000352E+00 0. -1.
       -3   -1    0    0    0  501  0.00000000000E+00  0.00000000000E+00 -0.78826466478E+03  0.78826467126E+03  0.10100000352E+00 0.  1.
    10030    2    1    2    0    0  0.00000000000E+00  0.00000000000E+00  0.16786142311E+03  0.17443907645E+04  0.17362953901E+04 0.  0.
        4    1    3    3  502    0 -0.50535971831E+03  0.57812458992E+03  0.49086528779E+03  0.91135439321E+03  0.12699999809E+01 0. -1.
       -4    1    3    3    0  502  0.50535971831E+03 -0.57812458992E+03 -0.32300386468E+03  0.83303637127E+03  0.12699999809E+01 0.  1.
</event>
<event>
 5   0  0.2583422E-04  0.1699992E+04  0.7818609E-02  0.8761369E-01
       -1   -1    0    0    0  501  0.00000000000E+00  0.00000000000E+00  0.58101098132E+03  0.58101098135E+03  0.50400001928E-02 0.  1.
        1   -1    0    0  501    0  0.00000000000E+00  0.00000000000E+00 -0.12435101283E+04  0.12435101283E+04  0.50400001928E-02 0. -1.
    10030    2    1    2    0    0  0.00000000000E+00  0.00000000000E+00 -0.66249914700E+03  0.18245211097E+04  0.16999918117E+04 0.  0.
        3    1    3    3  502    0 -0.27935432568E+03 -0.62699627792E+03  0.20680224788E+03  0.71688935808E+03  0.10100000352E+00 0.  1.
       -3    1    3    3    0  502  0.27935432568E+03  0.62699627792E+03 -0.86930139489E+03  0.11076317516E+04  0.10100000352E+00 0. -1.
</event>
<event>
 5   0  0.5198430E-04  0.1955870E+04  0.7818609E-02  0.8627535E-01
        2   -1    0    0  501    0  0.00000000000E+00  0.00000000000E+00  0.63719345082E+03  0.63719345083E+03  0.25500000920E-02 0. -1.
       -2   -1    0    0    0  501  0.00000000000E+00  0.00000000000E+00 -0.15008897268E+04  0.15008897268E+04  0.25500000920E-02 0.  1.
    10030    2    1    2    0    0  0.00000000000E+00  0.00000000000E+00 -0.86369627600E+03  0.21380831777E+04  0.19558702455E+04 0.  0.
        4    1    3    3  502    0  0.21992244050E+03 -0.77071472083E+03  0.18070163010E+03  0.82159707446E+03  0.12699999809E+01 0. -1.
       -4    1    3    3    0  502 -0.21992244050E+03  0.77071472083E+03 -0.10443979061E+04  0.13164861032E+04  0.12699999809E+01 0.  1.
</event>
<event>
 5   0  0.2630135E-04  0.1666343E+04  0.7818609E-02  0.8780797E-01
        1   -1    0    0  501    0  0.00000000000E+00  0.00000000000E+00  0.14504065960E+04  0.14504065960E+04  0.50400001928E-02 0. -1.
       -1   -1    0    0    0  501  0.00000000000E+00  0.00000000000E+00 -0.47860674981E+03  0.47860674984E+03  0.50400001928E-02 0.  1.
    10030    2    1    2    0    0  0.00000000000E+00  0.00000000000E+00  0.97179984623E+03  0.19290133459E+04  0.16663425661E+04 0.  0.
        1    1    3    3  502    0 -0.64233132643E+03  0.16600322366E+03 -0.97560702756E+02  0.67057042428E+03  0.50400001928E-02 0.  1.
       -1    1    3    3    0  502  0.64233132643E+03 -0.16600322366E+03  0.10693605490E+04  0.12584429216E+04  0.50400001928E-02 0. -1.
</event>
<event>
 5   0  0.5342255E-04  0.1700650E+04  0.7818609E-02  0.8760994E-01
       -2   -1    0    0    0  501  0.00000000000E+00  0.00000000000E+00  0.48129695936E+03  0.48129695937E+03  0.25500000920E-02 0. -1.
        2   -1    0    0  501    0  0.00000000000E+00  0.00000000000E+00 -0.15023006387E+04  0.15023006387E+04  0.25500000920E-02 0.  1.
    10030    2    1    2    0    0  0.00000000000E+00  0.00000000000E+00 -0.10210036793E+04  0.19835975980E+04  0.17006501456E+04 0.  0.
        5    1    3    3  502    0 -0.26354376612E+03 -0.34783948140E+03  0.34069940560E+03  0.55366578046E+03  0.46999998093E+01 0. -1.
       -5    1    3    3    0  502  0.26354376612E+03  0.34783948140E+03 -0.13617030849E+04  0.14299318176E+04  0.46999998093E+01 0.  1.
</event>
<event>
 5   0  0.5342255E-04  0.1691090E+04  0.7818609E-02  0.8766462E-01
       -2   -1    0    0    0  501  0.00000000000E+00  0.00000000000E+00  0.10891181630E+04  0.10891181630E+04  0.25500000920E-02 0.  1.
        2   -1    0    0  501    0  0.00000000000E+00  0.00000000000E+00 -0.65644552340E+03  0.65644552340E+03  0.25500000920E-02 0. -1.
    10030    2    1    2    0    0  0.00000000000E+00  0.00000000000E+00  0.43267263959E+03  0.17455636864E+04  0.16910904678E+04 0.  0.
        5    1    3    3  502    0  0.60164230634E+03  0.28551337153E+03  0.75411108871E+03  0.10060800039E+04  0.46999998093E+01 0. -1.
       -5    1    3    3    0  502 -0.60164230634E+03 -0.28551337153E+03 -0.32143844913E+03  0.73948368250E+03  0.46999998093E+01 0.  1.
</event>
<event>
 5   0  0.5342255E-04  0.1691943E+04  0.7818609E-02  0.8765973E-01
        2   -1    0    0  501    0  0.00000000000E+00  0.00000000000E+00  0.13014542516E+04  0.13014542516E+04  0.25500000920E-02 0.  1.
       -2   -1    0    0    0  501  0.00000000000E+00  0.00000000000E+00 -0.54989861730E+03  0.54989861730E+03  0.25500000920E-02 0. -1.
    10030    2    1    2    0    0  0.00000000000E+00  0.00000000000E+00  0.75155563428E+03  0.18513528689E+04  0.16919431355E+04 0.  0.
        5    1    3    3  502    0 -0.55516117111E+03  0.47819832932E+03  0.83842361006E+03  0.11134872285E+04  0.46999998093E+01 0.  1.
       -5    1    3    3    0  502  0.55516117111E+03 -0.47819832932E+03 -0.86867975781E+02  0.73786564041E+03  0.46999998093E+01 0. -1.
</event>
<event>
 5   0  0.5021349E-04  0.1450727E+04  0.7818609E-02  0.8917897E-01
       -2   -1    0    0    0  501  0.00000000000E+00  0.00000000000E+00  0.39842648773E+03  0.39842648774E+03  0.25500000920E-02 0.  1.
        2   -1    0    0  501    0  0.00000000000E+00  0.00000000000E+00 -0.13205751509E+04  0.13205751509E+04  0.25500000920E-02 0. -1.
    10030    2    1    2    0    0  0.00000000000E+00  0.00000000000E+00 -0.92214866319E+03  0.17190016387E+04  0.14507268787E+04 0.  0.
        2    1    3    3  502    0 -0.23028767361E+03 -0.63893064639E+03 -0.76291003076E+03  0.10214188654E+04  0.25500000920E-02 0. -1.
       -2    1    3    3    0  502  0.23028767361E+03  0.63893064639E+03 -0.15923863243E+03  0.69758277328E+03  0.25500000920E-02 0.  1.
</event>
<event>
 5   0  0.2561518E-04  0.1698506E+04  0.7818609E-02  0.8762217E-01
       -1   -1    0    0    0  501  0.00000000000E+00  0.00000000000E+00  0.11521827326E+04  0.11521827326E+04  0.50400001928E-02 0. -1.
        1   -1    0    0  501    0  0.00000000000E+00  0.00000000000E+00 -0.62596910182E+03  0.62596910184E+03  0.50400001928E-02 0.  1.
    10030    2    1    2    0    0  0.00000000000E+00  0.00000000000E+00  0.52621363074E+03  0.17781518344E+04  0.16985061557E+04 0.  0.
        4    1    3    3  502    0  0.30759248551E+03  0.47383524980E+03 -0.40073820116E+03  0.69262233566E+03  0.12699999809E+01 0.  1.
       -4    1    3    3    0  502 -0.30759248551E+03 -0.47383524980E+03  0.92695183189E+03  0.10855294987E+04  0.12699999809E+01 0. -1.
</event>
<event>
 5   0  0.5310003E-04  0.1716505E+04  0.7818609E-02  0.8752006E-01
        2   -1    0    0  501    0  0.00000000000E+00  0.00000000000E+00  0.61981660165E+03  0.61981660166E+03  0.25500000920E-02 0. -1.
       -2   -1    0    0    0  501  0.00000000000E+00  0.00000000000E+00 -0.11884123244E+04  0.11884123244E+04  0.25500000920E-02 0.  1.
    10030    2    1    2    0    0  0.00000000000E+00  0.00000000000E+00 -0.56859572279E+03  0.18082289261E+04  0.17165053898E+04 0.  0.
        1    1    3    3  502    0  0.38008890377E+03 -0.77788704555E+02  0.52216863987E+03  0.65052190264E+03  0.50400001928E-02 0. -1.
       -1    1    3    3    0  502 -0.38008890377E+03  0.77788704555E+02 -0.10907643627E+04  0.11577070235E+04  0.50400001928E-02 0.  1.
</event>
<event>
 5   0  0.5342255E-04  0.1693111E+04  0.7818609E-02  0.8765303E-01
        2   -1    0    0  501    0  0.00000000000E+00  0.00000000000E+00  0.61670509429E+03  0.61670509429E+03  0.25500000920E-02 0. -1.
       -2   -1    0    0    0  501  0.00000000000E+00  0.00000000000E+00 -0.11620732821E+04  0.11620732821E+04  0.25500000920E-02 0.  1.
    10030    2    1    2    0    0  0.00000000000E+00  0.00000000000E+00 -0.54536818786E+03  0.17787783764E+04  0.16931113526E+04 0.  0.
        5    1    3    3  502    0  0.62910116447E+03  0.44737215268E+03 -0.63771839567E+03  0.10013076252E+04  0.46999998093E+01 0.  1.
       -5    1    3    3    0  502 -0.62910116447E+03 -0.44737215268E+03  0.92350207812E+02  0.77747075123E+03  0.46999998093E+01 0. -1.
</event>
<event>
 5   0  0.5198430E-04  0.1762701E+04  0.7818609E-02  0.8726390E-01
       -2   -1    0    0    0  501  0.00000000000E+00  0.00000000000E+00  0.92226055532E+03  0.92226055533E+03  0.25500000920E-02 0.  1.
        2   -1    0    0  501    0  0.00000000000E+00  0.00000000000E+00 -0.84225506438E+03  0.84225506439E+03  0.25500000920E-02 0. -1.
    10030    2    1    2    0    0  0.00000000000E+00  0.00000000000E+00  0.80005490943E+02  0.17645156197E+04  0.17627009087E+04 0.  0.
        4    1    3    3  502    0  0.19212585956E+02 -0.20720845464E+03  0.89731456120E+03  0.92112947069E+03  0.12699999809E+01 0.  1.
       -4    1    3    3    0  502 -0.19212585956E+02  0.20720845464E+03 -0.81730907026E+03  0.84338614902E+03  0.12699999809E+01 0. -1.
</event>
<event>
 5   0  0.5299877E-04  0.1802923E+04  0.7818609E-02  0.8704747E-01
        2   -1    0    0  501    0  0.00000000000E+00  0.00000000000E+00  0.12886942773E+04  0.12886942773E+04  0.25500000920E-02 0.  1.
       -2   -1    0    0    0  501  0.00000000000E+00  0.00000000000E+00 -0.63058612913E+03  0.63058612914E+03  0.25500000920E-02 0. -1.
    10030    2    1    2    0    0  0.00000000000E+00  0.00000000000E+00  0.65810814816E+03  0.19192804064E+04  0.18029228890E+04 0.  0.
        3    1    3    3  502    0  0.12775485811E+03 -0.19683485543E+03  0.12556106312E+04  0.12773501209E+04  0.10100000352E+00 0.  1.
       -3    1    3    3    0  502 -0.12775485811E+03  0.19683485543E+03 -0.59750248300E+03  0.64193028553E+03  0.10100000352E+00 0. -1.
</event>
<event>
 5   0  0.5342255E-04  0.1708437E+04  0.7818609E-02  0.8756567E-01
       -2   -1    0    0    0  501  0.00000000000E+00  0.00000000000E+00  0.80228047491E+03  0.80228047491E+03  0.25500000920E-02 0.  1.
        2   -1    0    0  501    0  0.00000000000E+00  0.00000000000E+00 -0.90951899245E+03  0.90951899245E+03  0.25500000920E-02 0. -1.
    10030    2    1    2    0    0  0.00000000000E+00  0.00000000000E+00 -0.10723851754E+03  0.17117994674E+04  0.17084370977E+04 0.  0.
        5    1    3    3  502    0  0.12346117300E+03  0.25383234336E+03  0.75418934374E+03  0.80529322361E+03  0.46999998093E+01 0.  1.
       -5    1    3    3    0  502 -0.12346117300E+03 -0.25383234336E+03 -0.86142786128E+03  0.90650624376E+03  0.46999998093E+01 0. -1.
</event>
<event>
 5   0  0.2561518E-04  0.1702867E+04  0.7818609E-02  0.8759731E-01
       -1   -1    0    0    0  501  0.00000000000E+00  0.00000000000E+00  0.69648562712E+03  0.69648562714E+03  0.50400001928E-02 0. -1.
        1   -1    0    0  501    0  0.00000000000E+00  0.00000000000E+00 -0.10408524300E+04  0.10408524301E+04  0.50400001928E-02 0.  1.
    10030    2    1    2    0    0  0.00000000000E+00  0.00000000000E+00 -0.34436680292E+03  0.17373380572E+04  0.17028667094E+04 0.  0.
        4    1    3    3  502    0  0.63355203403E+03 -0.49706189917E+03  0.10996212513E+03  0.81274349784E+03  0.12699999809E+01 0. -1.
       -4    1    3    3    0  502 -0.63355203403E+03  0.49706189917E+03 -0.45432892805E+03  0.92459455936E+03  0.12699999809E+01 0.  1.
</event>
<event>
 5   0  0.2583422E-04  0.1732965E+04  0.7818609E-02  0.8742783E-01
       -1   -1    0    0    0  501  0.00000000000E+00  0.00000000000E+00  0.66240315407E+03  0.66240315409E+03  0.50400001928E-02 0. -1.
        1   -1    0    0  501    0  0.00000000000E+00  0.00000000000E+00 -0.11334370847E+04  0.11334370847E+04  0.50400001928E-02 0.  1.
    10030    2    1    2    0    0  0.00000000000E+00  0.00000000000E+00 -0.47103393064E+03  0.17958402388E+04  0.17329654352E+04 0.  0.
        3    1    3    3  502    0  0.32372301591E+03 -0.35865882169E+03  0.50985667856E+03  0.70241482350E+03  0.10100000352E+00 0. -1.
       -3    1    3    3    0  502 -0.32372301591E+03  0.35865882169E+03 -0.98089060920E+03  0.10934254153E+04  0.10100000352E+00 0.  1.
</event>
<event>
 5   0  0.2785059E-04  0.1697554E+04  0.7818609E-02  0.8762760E-01
       -1   -1    0    0    0  501  0.00000000000E+00  0.00000000000E+00  0.88374597530E+03  0.88374597532E+03  0.50400001928E-02 0. -1.
        1   -1    0    0  501    0  0.00000000000E+00  0.00000000000E+00 -0.81519215607E+03  0.81519215609E+03  0.50400001928E-02 0.  1.
    10030    2    1    2    0    0  0.00000000000E+00  0.00000000000E+00  0.68553819230E+02  0.16989381314E+04  0.16975544610E+04 0.  0.
        5    1    3    3  502    0 -0.81304333950E+03 -0.82419370401E+02  0.26374151226E+03  0.85872818738E+03  0.46999998093E+01 0. -1.
       -5    1    3    3    0  502  0.81304333950E+03  0.82419370401E+02 -0.19518769303E+03  0.84020994402E+03  0.46999998093E+01 0.  1.
</event>
<event>
 5   0  0.5310003E-04  0.1716556E+04  0.7818609E-02  0.8751978E-01
        2   -1    0    0  501    0  0.00000000000E+00  0.00000000000E+00  0.79284456819E+03  0.79284456820E+03  0.25500000920E-02 0. -1.
       -2   -1    0    0    0  501  0.00000000000E+00  0.00000000000E+00 -0.92911126419E+03  0.92911126419E+03  0.25500000920E-02 0.  1.
    10030    2    1    2    0    0  0.00000000000E+00  0.00000000000E+00 -0.13626669600E+03  0.17219558324E+04  0.17165556432E+04 0.  0.
        1    1    3    3  502    0  0.57590845266E+03  0.51994176896E+03 -0.43620840124E+03  0.89010547594E+03  0.50400001928E-02 0.  1.
       -1    1    3    3    0  502 -0.57590845266E+03 -0.51994176896E+03  0.29994170524E+03  0.83185035645E+03  0.50400001928E-02 0. -1.
</event>
<event>
 5   0  0.5342255E-04  0.1701769E+04  0.7818609E-02  0.8760356E-01
       -2   -1    0    0    0  501  0.00000000000E+00  0.00000000000E+00  0.30268347849E+03  0.30268347850E+03  0.25500000920E-02 0.  1.
        2   -1    0    0  501    0  0.00000000000E+00  0.00000000000E+00 -0.23919510069E+04  0.23919510069E+04  0.25500000920E-02 0. -1.
    10030    2    1    2    0    0  0.00000000000E+00  0.00000000000E+00 -0.20892675284E+04  0.26946344854E+04  0.17017685520E+04 0.  0.
        5    1    3    3  502    0 -0.71230381329E+03  0.11401982401E+03 -0.33014847907E+03  0.79334566926E+03  0.46999998093E+01 0.  1.
       -5    1    3    3    0  502  0.71230381329E+03 -0.11401982401E+03 -0.17591190494E+04  0.19012888162E+04  0.46999998093E+01 0. -1.
</event>
<event>
 5   0  0.2785059E-04  0.1677486E+04  0.7818609E-02  0.8774310E-01
        1   -1    0    0  501    0  0.00000000000E+00  0.00000000000E+00  0.26510146919E+04  0.26510146919E+04  0.50400001928E-02 0. -1.
       -1   -1    0    0    0  501  0.00000000000E+00  0.00000000000E+00 -0.26536621013E+03  0.26536621017E+03  0.50400001928E-02 0.  1.
    10030    2    1    2    0    0  0.00000000000E+00  0.00000000000E+00  0.23856484818E+04  0.29163809021E+04  0.16774858829E+04 0.  0.
        5    1    3    3  502    0  0.50104382171E+03  0.47542913188E+03  0.36561789365E+03  0.78152178784E+03  0.46999998093E+01 0.  1.
       -5    1    3    3    0  502 -0.50104382171E+03 -0.47542913188E+03  0.20200305881E+04  0.21348591142E+04  0.46999998093E+01 0. -1.
</event>
<event>
 5   0  0.2630135E-04  0.1598513E+04  0.7818609E-02  0.8821462E-01
       -1   -1    0    0    0  501  0.00000000000E+00  0.00000000000E+00  0.32003872385E+03  0.32003872389E+03  0.50400001928E-02 0. -1.
        1   -1    0    0  501    0  0.00000000000E+00  0.00000000000E+00 -0.19960422913E+04  0.19960422913E+04  0.50400001928E-02 0.  1.
    10030    2    1    2    0    0  0.00000000000E+00  0.00000000000E+00 -0.16760035675E+04  0.23160810152E+04  0.15985128435E+04 0.  0.
        1    1    3    3  502    0  0.19662919030E+03  0.51292396105E+03  0.31786513510E+01  0.54933062189E+03  0.50400001928E-02 0. -1.
       -1    1    3    3    0  502 -0.19662919030E+03 -0.51292396105E+03 -0.16791822188E+04  0.17667503933E+04  0.50400001928E-02 0.  1.
</event>
<event>
 5   0  0.5021349E-04  0.1663050E+04  0.7818609E-02  0.8782724E-01
       -2   -1    0    0    0  501  0.00000000000E+00  0.00000000000E+00  0.60531983931E+03  0.60531983931E+03  0.25500000920E-02 0. -1.
        2   -1    0    0  501    0  0.00000000000E+00  0.00000000000E+00 -0.11422617440E+04  0.11422617440E+04  0.25500000920E-02 0.  1.
    10030    2    1    2    0    0  0.00000000000E+00  0.00000000000E+00 -0.53694190471E+03  0.17475815833E+04  0.16630498433E+04 0.  0.
        2    1    3    3  502    0 -0.31966413647E+03  0.14557905878E+03 -0.10604751646E+04  0.11171329362E+04  0.25500000920E-02 0.  1.
       -2    1    3    3    0  502  0.31966413647E+03 -0.14557905878E+03  0.52353325984E+03  0.63044864713E+03  0.25500000920E-02 0. -1.
</event>
<event>
 5   0  0.2630135E-04  0.1729331E+04  0.7818609E-02  0.8744810E-01
       -1   -1    0    0    0  501  0.00000000000E+00  0.00000000000E+00  0.80636808424E+03  0.80636808425E+03  0.50400001928E-02 0.  1.
        1   -1    0    0  501    0  0.00000000000E+00  0.00000000000E+00 -0.92717744641E+03  0.92717744643E+03  0.50400001928E-02 0. -1.
    10030    2    1    2    0    0  0.00000000000E+00  0.00000000000E+00 -0.12080936218E+03  0.17335455307E+04  0.17293308547E+04 0.  0.
        1    1    3    3  502    0 -0.66742325473E+03  0.47935309206E+03 -0.33015736388E+03  0.88557160793E+03  0.50400001928E-02 0. -1.
       -1    1    3    3    0  502  0.66742325473E+03 -0.47935309206E+03  0.20934800171E+03  0.84797392275E+03  0.50400001928E-02 0.  1.
</event>
<event>
 5   0  0.5198430E-04  0.1682450E+04  0.7818609E-02  0.8771437E-01
       -2   -1    0    0    0  501  0.00000000000E+00  0.00000000000E+00  0.34421258009E+03  0.34421258010E+03  0.25500000920E-02 0. -1.
        2   -1    0    0  501    0  0.00000000000E+00  0.00000000000E+00 -0.20558801961E+04  0.20558801961E+04  0.25500000920E-02 0.  1.
    10030    2    1    2    0    0  0.00000000000E+00  0.00000000000E+00 -0.17116676160E+04  0.24000927762E+04  0.16824503876E+04 0.  0.
        4    1    3    3  502    0 -0.18973403742E+03  0.39914593900E+03  0.16525996499E+03  0.47183572831E+03  0.12699999809E+01 0. -1.
       -4    1    3    3    0  502  0.18973403742E+03 -0.39914593900E+03 -0.18769275810E+04  0.19282570479E+04  0.12699999809E+01 0.  1.
</event>
<event>
 5   0  0.5310003E-04  0.1693845E+04  0.7818609E-02  0.8764883E-01
       -2   -1    0    0    0  501  0.00000000000E+00  0.00000000000E+00  0.44749160009E+03  0.44749160009E+03  0.25500000920E-02 0.  1.
        2   -1    0    0  501    0  0.00000000000E+00  0.00000000000E+00 -0.16028845132E+04  0.16028845133E+04  0.25500000920E-02 0. -1.
    10030    2    1    2    0    0  0.00000000000E+00  0.00000000000E+00 -0.11553929132E+04  0.20503761133E+04  0.16938445685E+04 0.  0.
        1    1    3    3  502    0  0.56510870632E+03 -0.50043179732E+03 -0.11280417087E+03  0.76321989932E+03  0.50400001928E-02 0.  1.
       -1    1    3    3    0  502 -0.56510870632E+03  0.50043179732E+03 -0.10425887423E+04  0.12871562140E+04  0.50400001928E-02 0. -1.
</event>
<event>
 5   0  0.1910750E-04  0.1751591E+04  0.7818609E-02  0.8732475E-01
       -4   -1    0    0    0  501  0.00000000000E+00  0.00000000000E+00  0.50318038701E+03  0.50318198971E+03  0.12699999809E+01 0. -1.
        4   -1    0    0  501    0  0.00000000000E+00  0.00000000000E+00 -0.15243348822E+04  0.15243354113E+04  0.12699999809E+01 0.  1.
    10030    2    1    2    0    0  0.00000000000E+00  0.00000000000E+00 -0.10211544952E+04  0.20275174010E+04  0.17515907936E+04 0.  0.
        1    1    3    3  502    0  0.56530127303E+03  0.63511173171E+03 -0.26753709532E+03  0.89135208444E+03  0.50400001928E-02 0. -1.
       -1    1    3    3    0  502 -0.56530127303E+03 -0.63511173171E+03 -0.75361739989E+03  0.11361653165E+04  0.50400001928E-02 0.  1.
</event>
<event>
 5   0  0.2630135E-04  0.1681310E+04  0.7818609E-02  0.8772096E-01
       -1   -1    0    0    0  501  0.00000000000E+00  0.00000000000E+00  0.17716784936E+04  0.17716784936E+04  0.50400001928E-02 0. -1.
        1   -1    0    0  501    0  0.00000000000E+00  0.00000000000E+00 -0.39888776675E+03  0.39888776679E+03  0.50400001928E-02 0.  1.
    10030    2    1    2    0    0  0.00000000000E+00  0.00000000000E+00  0.13727907268E+04  0.21705662604E+04  0.16813100580E+04 0.  0.
        1    1    3    3  502    0 -0.41630817939E+03  0.22925639108E+03  0.15815971970E+04  0.16514601680E+04  0.50400001928E-02 0. -1.
       -1    1    3    3    0  502  0.41630817939E+03 -0.22925639108E+03 -0.20880647017E+03  0.51910609232E+03  0.50400001928E-02 0.  1.
</event>
<event>
 5   0  0.2785059E-04  0.1700379E+04  0.7818609E-02  0.8761148E-01
       -1   -1    0    0    0  501  0.00000000000E+00  0.00000000000E+00  0.88246619314E+03  0.88246619315E+03  0.50400001928E-02 0.  1.
        1   -1    0    0  501    0  0.00000000000E+00  0.00000000000E+00 -0.81909306490E+03  0.81909306492E+03  0.50400001928E-02 0. -1.
    10030    2    1    2    0    0  0.00000000000E+00  0.00000000000E+00  0.63373128235E+02  0.17015592581E+04  0.17003787094E+04 0.  0.
        5    1    3    3  502    0 -0.20582765758E+03 -0.74164028189E+03  0.39305293684E+03  0.86423841242E+03  0.46999998093E+01 0.  1.
       -5    1    3    3    0  502  0.20582765758E+03  0.74164028189E+03 -0.32967980860E+03  0.83732084564E+03  0.46999998093E+01 0. -1.
</event>
<event>
 5   0  0.5198430E-04  0.1765165E+04  0.7818609E-02  0.8725047E-01
        2   -1    0    0  501    0  0.00000000000E+00  0.00000000000E+00  0.11907336436E+04  0.11907336436E+04  0.25500000920E-02 0. -1.
       -2   -1    0    0    0  501  0.00000000000E+00  0.00000000000E+00 -0.65417828424E+03  0.65417828425E+03  0.25500000920E-02 0.  1.
    10030    2    1    2    0    0  0.00000000000E+00  0.00000000000E+00  0.53655535932E+03  0.18449119278E+04  0.17651652523E+04 0.  0.
        4    1    3    3  502    0 -0.88928578699E+02  0.59168919901E+03 -0.40983755770E+03  0.72523984787E+03  0.12699999809E+01 0.  1.
       -4    1    3    3    0  502  0.88928578699E+02 -0.59168919901E+03  0.94639291702E+03  0.11196720799E+04  0.12699999809E+01 0. -1.
</event>
<event>
 5   0  0.2561518E-04  0.1686805E+04  0.7818609E-02  0.8768926E-01
        1   -1    0    0  501    0  0.00000000000E+00  0.00000000000E+00  0.12925136164E+04  0.12925136164E+04  0.50400001928E-02 0. -1.
       -1   -1    0    0    0  501  0.00000000000E+00  0.00000000000E+00 -0.55034455799E+03  0.55034455801E+03  0.50400001928E-02 0.  1.
    10030    2    1    2    0    0  0.00000000000E+00  0.00000000000E+00  0.74216905840E+03  0.18428581744E+04  0.16868050687E+04 0.  0.
        4    1    3    3  502    0 -0.23604631278E+03  0.92613263240E+02 -0.50771458121E+03  0.56751280794E+03  0.12699999809E+01 0.  1.
       -4    1    3    3    0  502  0.23604631278E+03 -0.92613263240E+02  0.12498836396E+04  0.12753453665E+04  0.12699999809E+01 0. -1.
</event>
<event>
 5   0  0.5198430E-04  0.1730980E+04  0.7818609E-02  0.8743890E-01
        2   -1    0    0  501    0  0.00000000000E+00  0.00000000000E+00  0.13041702424E+04  0.13041702424E+04  0.25500000920E-02 0.  1.
       -2   -1    0    0    0  501  0.00000000000E+00  0.00000000000E+00 -0.57436740773E+03  0.57436740774E+03  0.25500000920E-02 0. -1.
    10030    2    1    2    0    0  0.00000000000E+00  0.00000000000E+00  0.72980283466E+03  0.18785376501E+04  0.17309799321E+04 0.  0.
        4    1    3    3  502    0 -0.68292162223E+03  0.40642447631E+03  0.73691813719E+03  0.10837955300E+04  0.12699999809E+01 0.  1.
       -4    1    3    3    0  502  0.68292162223E+03 -0.40642447631E+03 -0.71153025306E+01  0.79474212012E+03  0.12699999809E+01 0. -1.
</event>
<event>
 5   0  0.2595644E-04  0.1654344E+04  0.7818609E-02  0.8787841E-01
        1   -1    0    0  501    0  0.00000000000E+00  0.00000000000E+00  0.17359197944E+04  0.17359197944E+04  0.50400001928E-02 0.  1.
       -1   -1    0    0    0  501  0.00000000000E+00  0.00000000000E+00 -0.39415055634E+03  0.39415055637E+03  0.50400001928E-02 0. -1.
    10030    2    1    2    0    0  0.00000000000E+00  0.00000000000E+00  0.13417692380E+04  0.21300703508E+04  0.16543442843E+04 0.  0.
        2    1    3    3  502    0 -0.27583440186E+03  0.23294698145E+03  0.16291150305E+04  0.16686415720E+04  0.25500000920E-02 0.  1.
       -2    1    3    3    0  502  0.27583440186E+03 -0.23294698145E+03 -0.28734579242E+03  0.46142877873E+03  0.25500000920E-02 0. -1.
</event>
<event>
 5   0  0.5310003E-04  0.1699816E+04  0.7818609E-02  0.8761469E-01
       -2   -1    0    0    0  501  0.00000000000E+00  0.00000000000E+00  0.82424128940E+03  0.82424128941E+03  0.25500000920E-02 0. -1.
        2   -1    0    0  501    0  0.00000000000E+00  0.00000000000E+00 -0.87637376476E+03  0.87637376476E+03  0.25500000920E-02 0.  1.
    10030    2    1    2    0    0  0.00000000000E+00  0.00000000000E+00 -0.52132475357E+02  0.17006150542E+04  0.16998158040E+04 0.  0.
        1    1    3    3  502    0 -0.76180010969E+02  0.70979762042E+03 -0.48750689570E+03  0.86445302325E+03  0.50400001928E-02 0. -1.
       -1    1    3    3    0  502  0.76180010969E+02 -0.70979762042E+03  0.43537442034E+03  0.83616203092E+03  0.50400001928E-02 0.  1.
</event>
<event>
 5   0  0.2630135E-04  0.1720274E+04  0.7818609E-02  0.8749885E-01
       -1   -1    0    0    0  501  0.00000000000E+00  0.00000000000E+00  0.55601784718E+03  0.55601784720E+03  0.50400001928E-02 0. -1.
        1   -1    0    0  501    0  0.00000000000E+00  0.00000000000E+00 -0.13305973000E+04  0.13305973000E+04  0.50400001928E-02 0.  1.
    10030    2    1    2    0    0  0.00000000000E+00  0.00000000000E+00 -0.77457945285E+03  0.18866151472E+04  0.17202742180E+04 0.  0.
        1    1    3    3  502    0  0.36704253547E+03  0.37918331197E+03  0.35760369629E+03  0.63747989030E+03  0.50400001928E-02 0. -1.
       -1    1    3    3    0  502 -0.36704253547E+03 -0.37918331197E+03 -0.11321831491E+04  0.12491352569E+04  0.50400001928E-02 0.  1.
</event>
<event>
 5   0  0.2630135E-04  0.1723554E+04  0.7818609E-02  0.8748043E-01
       -1   -1    0    0    0  501  0.00000000000E+00  0.00000000000E+00  0.91679365982E+03  0.91679365984E+03  0.50400001928E-02 0.  1.
        1   -1    0    0  501    0  0.00000000000E+00  0.00000000000E+00 -0.81006229803E+03  0.81006229805E+03  0.50400001928E-02 0. -1.
    10030    2    1    2    0    0  0.00000000000E+00  0.00000000000E+00  0.10673136179E+03  0.17268559579E+04  0.17235544423E+04 0.  0.
        1    1    3    3  502    0 -0.16221506353E+03  0.52882410570E+03  0.71545774993E+03  0.90434974074E+03  0.50400001928E-02 0.  1.
       -1    1    3    3    0  502  0.16221506353E+03 -0.52882410570E+03 -0.60872638814E+03  0.82250621715E+03  0.50400001928E-02 0. -1.
</event>
<event>
 5   0  0.2583422E-04  0.1689593E+04  0.7818609E-02  0.8767322E-01
        1   -1    0    0  501    0  0.00000000000E+00  0.00000000000E+00  0.15641927110E+04  0.15641927110E+04  0.50400001928E-02 0. -1.
       -1   -1    0    0    0  501  0.00000000000E+00  0.00000000000E+00 -0.45626161082E+03  0.45626161085E+03  0.50400001928E-02 0.  1.
    10030    2    1    2    0    0  0.00000000000E+00  0.00000000000E+00  0.11079311001E+04  0.20204543218E+04  0.16895929521E+04 0.  0.
        3    1    3    3  502    0  0.77342393107E+03  0.20098941557E+03  0.22625818447E+03  0.83052639847E+03  0.10100000352E+00 0.  1.
       -3    1    3    3    0  502 -0.77342393107E+03 -0.20098941557E+03  0.88167291567E+03  0.11899279233E+04  0.10100000352E+00 0. -1.
</event>
<event>
 5   0  0.5299877E-04  0.1596765E+04  0.7818609E-02  0.8822538E-01
        2   -1    0    0  501    0  0.00000000000E+00  0.00000000000E+00  0.19407939827E+04  0.19407939827E+04  0.25500000920E-02 0. -1.
       -2   -1    0    0    0  501  0.00000000000E+00  0.00000000000E+00 -0.32842974204E+03  0.32842974205E+03  0.25500000920E-02 0.  1.
    10030    2    1    2    0    0  0.00000000000E+00  0.00000000000E+00  0.16123642407E+04  0.22692237248E+04  0.15967648131E+04 0.  0.
        3    1    3    3  502    0  0.59712162582E+03  0.34913276369E+03  0.13727986171E+04  0.15372130548E+04  0.10100000352E+00 0. -1.
       -3    1    3    3    0  502 -0.59712162582E+03 -0.34913276369E+03  0.23956562362E+03  0.73201066995E+03  0.10100000352E+00 0.  1.
</event>
<event>
 5   0  0.5021349E-04  0.1751920E+04  0.7818609E-02  0.8732294E-01
       -2   -1    0    0    0  501  0.00000000000E+00  0.00000000000E+00  0.30588830026E+03  0.30588830027E+03  0.25500000920E-02 0. -1.
        2   -1    0    0  501    0  0.00000000000E+00  0.00000000000E+00 -0.25084505197E+04  0.25084505197E+04  0.25500000920E-02 0.  1.
    10030    2    1    2    0    0  0.00000000000E+00  0.00000000000E+00 -0.22025622195E+04  0.28143388200E+04  0.17519197079E+04 0.  0.
        2    1    3    3  502    0 -0.62861627646E+03 -0.55479933712E+03 -0.15087733822E+04  0.17260816453E+04  0.25500000920E-02 0.  1.
       -2    1    3    3    0  502  0.62861627646E+03  0.55479933712E+03 -0.69378883726E+03  0.10882571747E+04  0.25500000920E-02 0. -1.
</event>
<event>
 5   0  0.2561518E-04  0.1536733E+04  0.7818609E-02  0.8860387E-01
       -1   -1    0    0    0  501  0.00000000000E+00  0.00000000000E+00  0.51851887279E+03  0.51851887281E+03  0.50400001928E-02 0.  1.
        1   -1    0    0  501    0  0.00000000000E+00  0.00000000000E+00 -0.11386028731E+04  0.11386028732E+04  0.50400001928E-02 0. -1.
    10030    2    1    2    0    0  0.00000000000E+00  0.00000000000E+00 -0.62008400036E+03  0.16571217460E+04  0.15367330001E+04 0.  0.
        4    1    3    3  502    0  0.43763165255E+03 -0.56093059770E+03  0.29014398327E+01  0.71145950693E+03  0.12699999809E+01 0.  1.
       -4    1    3    3    0  502 -0.43763165255E+03  0.56093059770E+03 -0.62298544019E+03  0.94566223904E+03  0.12699999809E+01 0. -1.
</event>
<event>
 5   0  0.5198430E-04  0.1694221E+04  0.7818609E-02  0.8764667E-01
        2   -1    0    0  501    0  0.00000000000E+00  0.00000000000E+00  0.94615127121E+03  0.94615127122E+03  0.25500000920E-02 0.  1.
       -2   -1    0    0    0  501  0.00000000000E+00  0.00000000000E+00 -0.75843691983E+03  0.75843691984E+03  0.25500000920E-02 0. -1.
    10030    2    1    2    0    0  0.00000000000E+00  0.00000000000E+00  0.18771435138E+03  0.17045881911E+04  0.16942208308E+04 0.  0.
        4    1    3    3  502    0  0.88856339204E+02  0.80212225115E+03  0.35291849974E+03  0.88082270359E+03  0.12699999809E+01 0.  1.
       -4    1    3    3    0  502 -0.88856339204E+02 -0.80212225115E+03 -0.16520414836E+03  0.82376548747E+03  0.12699999809E+01 0. -1.
</event>
<event>
 5   0  0.5342255E-04  0.1673621E+04  0.7818609E-02  0.8776554E-01
        2   -1    0    0  501    0  0.00000000000E+00  0.00000000000E+00  0.56130915811E+03  0.56130915812E+03  0.25500000920E-02 0.  1.
       -2   -1    0    0    0  501  0.00000000000E+00  0.00000000000E+00 -0.12475326707E+04  0.12475326707E+04  0.25500000920E-02 0. -1.
    10030    2    1    2    0    0  0.00000000000E+00  0.00000000000E+00 -0.68622351255E+03  0.18088418288E+04  0.16736206417E+04 0.  0.
        5    1    3    3  502    0 -0.23928019157E+03  0.49922550104E+03  0.33508064784E+03  0.64713386677E+03  0.46999998093E+01 0.  1.
       -5    1    3    3    0  502  0.23928019157E+03 -0.49922550104E+03 -0.10213041604E+04  0.11617079620E+04  0.46999998093E+01 0. -1.
</event>
<event>
 5   0  0.2561518E-04  0.1687667E+04  0.7818609E-02  0.8768430E-01
       -1   -1    0    0    0  501  0.00000000000E+00  0.00000000000E+00  0.10341879736E+04  0.10341879736E+04  0.50400001928E-02 0.  1.
        1   -1    0    0  501    0  0.00000000000E+00  0.00000000000E+00 -0.68851604158E+03  0.68851604160E+03  0.50400001928E-02 0. -1.
    10030    2    1    2    0    0  0.00000000000E+00  0.00000000000E+00  0.34567193200E+03  0.17227040152E+04  0.16876670404E+04 0.  0.
        4    1    3    3  502    0 -0.34451272614E+03 -0.80335255428E+02 -0.60916966993E+03  0.70443741483E+03  0.12699999809E+01 0. -1.
       -4    1    3    3    0  502  0.34451272614E+03  0.80335255428E+02  0.95484160194E+03  0.10182666004E+04  0.12699999809E+01 0.  1.
</event>
<event>
 5   0  0.5310003E-04  0.1698139E+04  0.7818609E-02  0.8762426E-01
       -2   -1    0    0    0  501  0.00000000000E+00  0.00000000000E+00  0.35207978258E+03  0.35207978259E+03  0.25500000920E-02 0.  1.
        2   -1    0    0  501    0  0.00000000000E+00  0.00000000000E+00 -0.20476023618E+04  0.20476023618E+04  0.25500000920E-02 0. -1.
    10030    2    1    2    0    0  0.00000000000E+00  0.00000000000E+00 -0.16955225792E+04  0.23996821444E+04  0.16981394458E+04 0.  0.
        1    1    3    3  502    0 -0.33814748120E+03 -0.77459283058E+03 -0.73311847469E+03  0.11188388938E+04  0.50400001928E-02 0. -1.
       -1    1    3    3    0  502  0.33814748120E+03  0.77459283058E+03 -0.96240410451E+03  0.12808432506E+04  0.50400001928E-02 0.  1.
</event>
<event>
 5   0  0.2630135E-04  0.1707820E+04  0.7818609E-02  0.8756917E-01
        1   -1    0    0  501    0  0.00000000000E+00  0.00000000000E+00  0.13045697210E+04  0.13045697210E+04  0.50400001928E-02 0. -1.
       -1   -1    0    0    0  501  0.00000000000E+00  0.00000000000E+00 -0.55892914275E+03  0.55892914278E+03  0.50400001928E-02 0.  1.
    10030    2    1    2    0    0  0.00000000000E+00  0.00000000000E+00  0.74564057825E+03  0.18634988638E+04  0.17078197046E+04 0.  0.
        1    1    3    3  502    0 -0.40428008866E+03 -0.61859756391E+02  0.11907461304E+04  0.12590255624E+04  0.50400001928E-02 0. -1.
       -1    1    3    3    0  502  0.40428008866E+03  0.61859756391E+02 -0.44510555217E+03  0.60447330143E+03  0.50400001928E-02 0.  1.
</event>
<event>
 5   0  0.5310003E-04  0.1711313E+04  0.7818609E-02  0.8754938E-01
       -2   -1    0    0    0  501  0.00000000000E+00  0.00000000000E+00  0.90593328417E+03  0.90593328417E+03  0.25500000920E-02 0. -1.
        2   -1    0    0  501    0  0.00000000000E+00  0.00000000000E+00 -0.80817037892E+03  0.80817037893E+03  0.25500000920E-02 0.  1.
    10030    2    1    2    0    0  0.00000000000E+00  0.00000000000E+00  0.97762905244E+02  0.17141036631E+04  0.17113134670E+04 0.  0.
        1    1    3    3  502    0  0.70804706938E+03 -0.27212119332E+03 -0.34770330188E+03  0.83443285079E+03  0.50400001928E-02 0.  1.
       -1    1    3    3    0  502 -0.70804706938E+03  0.27212119332E+03  0.44546620713E+03  0.87967081231E+03  0.50400001928E-02 0. -1.
</event>
<event>
 5   0  0.2561518E-04  0.1694195E+04  0.7818609E-02  0.8764682E-01
        1   -1    0    0  501    0  0.00000000000E+00  0.00000000000E+00  0.66004020830E+03  0.66004020832E+03  0.50400001928E-02 0.  1.
       -1   -1    0    0    0  501  0.00000000000E+00  0.00000000000E+00 -0.10871674332E+04  0.10871674333E+04  0.50400001928E-02 0. -1.
    10030    2    1    2    0    0  0.00000000000E+00  0.00000000000E+00 -0.42712722494E+03  0.17472076416E+04  0.16941950527E+04 0.  0.
        4    1    3    3  502    0  0.47711150214E+03  0.69992222819E+03 -0.20656182140E+03  0.87189214353E+03  0.12699999809E+01 0.  1.
       -4    1    3    3    0  502 -0.47711150214E+03 -0.69992222819E+03 -0.22056540354E+03  0.87531549805E+03  0.12699999809E+01 0. -1.
</event>
<event>
 5   0  0.5021349E-04  0.1727079E+04  0.7818609E-02  0.8746069E-01
       -2   -1    0    0    0  501  0.00000000000E+00  0.00000000000E+00  0.36717059329E+03  0.36717059330E+03  0.25500000920E-02 0. -1.
        2   -1    0    0  501    0  0.00000000000E+00  0.00000000000E+00 -0.20309384784E+04  0.20309384784E+04  0.25500000920E-02 0.  1.
    10030    2    1    2    0    0  0.00000000000E+00  0.00000000000E+00 -0.16637678851E+04  0.23981090717E+04  0.17270794841E+04 0.  0.
        2    1    3    3  502    0  0.16228405103E+03  0.11091796585E+03  0.33569256623E+03  0.38900952095E+03  0.25500000920E-02 0. -1.
       -2    1    3    3    0  502 -0.16228405103E+03 -0.11091796585E+03 -0.19994604513E+04  0.20090995508E+04  0.25500000920E-02 0.  1.
</event>
<event>
 5   0  0.5021349E-04  0.1699417E+04  0.7818609E-02  0.8761697E-01
        2   -1    0    0  501    0  0.00000000000E+00  0.00000000000E+00  0.22978454802E+04  0.22978454802E+04  0.25500000920E-02 0.  1.
       -2   -1    0    0    0  501  0.00000000000E+00  0.00000000000E+00 -0.31420948743E+03  0.31420948744E+03  0.25500000920E-02 0. -1.
    10030    2    1    2    0    0  0.00000000000E+00  0.00000000000E+00  0.19836359928E+04  0.26120549677E+04  0.16994173714E+04 0.  0.
        2    1    3    3  502    0  0.15164148963E+03  0.81449640678E+03  0.70179017546E+03  0.10857757542E+04  0.25500000920E-02 0. -1.
       -2    1    3    3    0  502 -0.15164148963E+03 -0.81449640678E+03  0.12818458173E+04  0.15262792135E+04  0.25500000920E-02 0.  1.
</event>
<event>
 5   0  0.2561518E-04  0.1705464E+04  0.7818609E-02  0.8758254E-01
        1   -1    0    0  501    0  0.00000000000E+00  0.00000000000E+00  0.12812976283E+04  0.12812976283E+04  0.50400001928E-02 0.  1.
       -1   -1    0    0    0  501  0.00000000000E+00  0.00000000000E+00 -0.56751191378E+03  0.56751191381E+03  0.50400001928E-02 0. -1.
    10030    2    1    2    0    0  0.00000000000E+00  0.00000000000E+00  0.71378571452E+03  0.18488095421E+04  0.17054637718E+04 0.  0.
        4    1    3    3  502    0  0.19554141759E+03  0.27743312146E+03 -0.49112634050E+03  0.59700274548E+03  0.12699999809E+01 0. -1.
       -4    1    3    3    0  502 -0.19554141759E+03 -0.27743312146E+03  0.12049120550E+04  0.12518067966E+04  0.12699999809E+01 0.  1.
</event>
<event>
 5   0  0.2785059E-04  0.1688040E+04  0.7818609E-02  0.8768215E-01
        1   -1    0    0  501    0  0.00000000000E+00  0.00000000000E+00  0.93871572186E+03  0.93871572187E+03  0.50400001928E-02 0. -1.
       -1   -1    0    0    0  501  0.00000000000E+00  0.00000000000E+00 -0.75887670558E+03  0.75887670559E+03  0.50400001928E-02 0.  1.
    10030    2    1    2    0    0  0.00000000000E+00  0.00000000000E+00  0.17983901628E+03  0.16975924275E+04  0.16880396850E+04 0.  0.
        5    1    3    3  502    0  0.19138782001E+03 -0.72492075844E+03  0.47967954692E+03  0.89008649097E+03  0.46999998093E+01 0. -1.
       -5    1    3    3    0  502 -0.19138782001E+03  0.72492075844E+03 -0.29984053063E+03  0.80750593650E+03  0.46999998093E+01 0.  1.
</event>
<event>
 5   0  0.2595644E-04  0.1670102E+04  0.7818609E-02  0.8778603E-01
        1   -1    0    0  501    0  0.00000000000E+00  0.00000000000E+00  0.69135039085E+03  0.69135039087E+03  0.50400001928E-02 0.  1.
       -1   -1    0    0    0  501  0.00000000000E+00  0.00000000000E+00 -0.10086201196E+04  0.10086201196E+04  0.50400001928E-02 0. -1.
    10030    2    1    2    0    0  0.00000000000E+00  0.00000000000E+00 -0.31726972873E+03  0.16999705105E+04  0.16701016902E+04 0.  0.
        2    1    3    3  502    0  0.23589894075E+03  0.25646247801E+03  0.61381039701E+03  0.70582187297E+03  0.25500000920E-02 0.  1.
       -2    1    3    3    0  502 -0.23589894075E+03 -0.25646247801E+03 -0.93108012575E+03  0.99414863750E+03  0.25500000920E-02 0. -1.
</event>
<event>
 5   0  0.5299877E-04  0.1563439E+04  0.7818609E-02  0.8843329E-01
        2   -1    0    0  501    0  0.00000000000E+00  0.00000000000E+00  0.31906808583E+03  0.31906808584E+03  0.25500000920E-02 0.  1.
       -2   -1    0    0    0  501  0.00000000000E+00  0.00000000000E+00 -0.19152196466E+04  0.19152196466E+04  0.25500000920E-02 0. -1.
    10030    2    1    2    0    0  0.00000000000E+00  0.00000000000E+00 -0.15961515608E+04  0.22342877324E+04  0.15634391150E+04 0.  0.
        3    1    3    3  502    0  0.26529214111E+03  0.39763913748E+03 -0.16820185958E+04  0.17486232786E+04  0.10100000352E+00 0. -1.
       -3    1    3    3    0  502 -0.26529214111E+03 -0.39763913748E+03  0.85867035015E+02  0.48566445381E+03  0.10100000352E+00 0.  1.
</event>
<event>
 5   0  0.2595644E-04  0.1727275E+04  0.7818609E-02  0.8745960E-01
       -1   -1    0    0    0  501  0.00000000000E+00  0.00000000000E+00  0.83991864571E+03  0.83991864573E+03  0.50400001928E-02 0.  1.
        1   -1    0    0  501    0  0.00000000000E+00  0.00000000000E+00 -0.88802584507E+03  0.88802584508E+03  0.50400001928E-02 0. -1.
    10030    2    1    2    0    0  0.00000000000E+00  0.00000000000E+00 -0.48107199357E+02  0.17279444908E+04  0.17272746917E+04 0.  0.
        2    1    3    3  502    0 -0.71181377179E+03 -0.31603486969E+03  0.34933714238E+03  0.85357678250E+03  0.25500000920E-02 0.  1.
       -2    1    3    3    0  502  0.71181377179E+03  0.31603486969E+03 -0.39744434173E+03  0.87436770832E+03  0.25500000920E-02 0. -1.
</event>
<event>
 5   0  0.2630135E-04  0.1703237E+04  0.7818609E-02  0.8759520E-01
       -1   -1    0    0    0  501  0.00000000000E+00  0.00000000000E+00  0.30640136402E+03  0.30640136407E+03  0.50400001928E-02 0. -1.
        1   -1    0    0  501    0  0.00000000000E+00  0.00000000000E+00 -0.23670070666E+04  0.23670070666E+04  0.50400001928E-02 0.  1.
    10030    2    1    2    0    0  0.00000000000E+00  0.00000000000E+00 -0.20606057026E+04  0.26734084307E+04  0.17032371461E+04 0.  0.
        1    1    3    3  502    0 -0.58671777788E+03  0.55837619947E+03 -0.14432981272E+04  0.16550320888E+04  0.50400001928E-02 0. -1.
       -1    1    3    3    0  502  0.58671777788E+03 -0.55837619947E+03 -0.61730757538E+03  0.10183763419E+04  0.50400001928E-02 0.  1.
</event>
<event>
 5   0  0.5310003E-04  0.1650738E+04  0.7818609E-02  0.8789970E-01
       -2   -1    0    0    0  501  0.00000000000E+00  0.00000000000E+00  0.24815949912E+03  0.24815949914E+03  0.25500000920E-02 0. -1.
        2   -1    0    0  501    0  0.00000000000E+00  0.00000000000E+00 -0.27451456669E+04  0.27451456669E+04  0.25500000920E-02 0.  1.
    10030    2    1    2    0    0  0.00000000000E+00  0.00000000000E+00 -0.24969861677E+04  0.29933051660E+04  0.16507379849E+04 0.  0.
        1    1    3    3  502    0  0.14839204915E+03  0.44238925803E+03 -0.24830192649E+04  0.25264823621E+04  0.50400001928E-02 0.  1.
       -1    1    3    3    0  502 -0.14839204915E+03 -0.44238925803E+03 -0.13966902826E+02  0.46682280393E+03  0.50400001928E-02 0. -1.
</event>
<event>
 5   0  0.2785059E-04  0.1690327E+04  0.7818609E-02  0.8766900E-01
        1   -1    0    0  501    0  0.00000000000E+00  0.00000000000E+00  0.19675028657E+04  0.19675028657E+04  0.50400001928E-02 0.  1.
       -1   -1    0    0    0  501  0.00000000000E+00  0.00000000000E+00 -0.36304982474E+03  0.36304982478E+03  0.50400001928E-02 0. -1.
    10030    2    1    2    0    0  0.00000000000E+00  0.00000000000E+00  0.16044530409E+04  0.23305526905E+04  0.16903272708E+04 0.  0.
        5    1    3    3  502    0  0.60782603739E+02 -0.28866177477E+03  0.18941990040E+04  0.19170373241E+04  0.46999998093E+01 0.  1.
       -5    1    3    3    0  502 -0.60782603739E+02  0.28866177477E+03 -0.28974596306E+03  0.41351536639E+03  0.46999998093E+01 0. -1.
</event>
<event>
 5   0  0.2785059E-04  0.1584693E+04  0.7818609E-02  0.8830007E-01
        1   -1    0    0  501    0  0.00000000000E+00  0.00000000000E+00  0.10959476665E+04  0.10959476665E+04  0.50400001928E-02 0. -1.
       -1   -1    0    0    0  501  0.00000000000E+00  0.00000000000E+00 -0.57284975215E+03  0.57284975217E+03  0.50400001928E-02 0.  1.
    10030    2    1    2    0    0  0.00000000000E+00  0.00000000000E+00  0.52309791433E+03  0.16687974187E+04  0.15846934709E+04 0.  0.
        5    1    3    3  502    0 -0.25369761916E+03 -0.20172610733E+03 -0.49982722681E+03  0.59573924750E+03  0.46999998093E+01 0.  1.
       -5    1    3    3    0  502  0.25369761916E+03  0.20172610733E+03  0.10229251411E+04  0.10730581712E+04  0.46999998093E+01 0. -1.
</event>
<event>
 5   0  0.5021349E-04  0.1769850E+04  0.7818609E-02  0.8722499E-01
        2   -1    0    0  501    0  0.00000000000E+00  0.00000000000E+00  0.87840019618E+03  0.87840019618E+03  0.25500000920E-02 0. -1.
       -2   -1    0    0    0  501  0.00000000000E+00  0.00000000000E+00 -0.89149857704E+03  0.89149857705E+03  0.25500000920E-02 0.  1.
    10030    2    1    2    0    0  0.00000000000E+00  0.00000000000E+00 -0.13098380861E+02  0.17698987732E+04  0.17698503044E+04 0.  0.
        2    1    3    3  502    0 -0.54544587501E+03  0.20467930950E+03  0.65956791979E+03  0.88001969474E+03  0.25500000920E-02 0. -1.
       -2    1    3    3    0  502  0.54544587501E+03 -0.20467930950E+03 -0.67266630065E+03  0.88987907849E+03  0.25500000920E-02 0.  1.
</event>
<event>
 5   0  0.5021349E-04  0.1704013E+04  0.7818609E-02  0.8759079E-01
        2   -1    0    0  501    0  0.00000000000E+00  0.00000000000E+00  0.11666025109E+04  0.11666025109E+04  0.25500000920E-02 0. -1.
       -2   -1    0    0    0  501  0.00000000000E+00  0.00000000000E+00 -0.62224744810E+03  0.62224744810E+03  0.25500000920E-02 0.  1.
    10030    2    1    2    0    0  0.00000000000E+00  0.00000000000E+00  0.54435506283E+03  0.17888499590E+04  0.17040134218E+04 0.  0.
        2    1    3    3  502    0  0.39992638229E+03 -0.73491183291E+03  0.44105588828E+03  0.94581542067E+03  0.25500000920E-02 0. -1.
       -2    1    3    3    0  502 -0.39992638229E+03  0.73491183291E+03  0.10329917455E+03  0.84303453836E+03  0.25500000920E-02 0.  1.
</event>
<event>
 5   0  0.2583422E-04  0.1545411E+04  0.7818609E-02  0.8854804E-01
        1   -1    0    0  501    0  0.00000000000E+00  0.00000000000E+00  0.18222487555E+04  0.18222487555E+04  0.50400001928E-02 0.  1.
       -1   -1    0    0    0  501  0.00000000000E+00  0.00000000000E+00 -0.32765771509E+03  0.32765771513E+03  0.50400001928E-02 0. -1.
    10030    2    1    2    0    0  0.00000000000E+00  0.00000000000E+00  0.14945910404E+04  0.21499064706E+04  0.15454110956E+04 0.  0.
        3    1    3    3  502    0 -0.54453700092E+03  0.13269622559E+03  0.14872867419E+04  0.15893868932E+04  0.10100000352E+00 0.  1.
       -3    1    3    3    0  502  0.54453700092E+03 -0.13269622559E+03  0.73042985304E+01  0.56051957739E+03  0.10100000352E+00 0. -1.
</event>
<event>
 5   0  0.5342255E-04  0.1702056E+04  0.7818609E-02  0.8760193E-01
        2   -1    0    0  501    0  0.00000000000E+00  0.00000000000E+00  0.63342972330E+03  0.63342972330E+03  0.25500000920E-02 0.  1.
       -2   -1    0    0    0  501  0.00000000000E+00  0.00000000000E+00 -0.11433759545E+04  0.11433759545E+04  0.25500000920E-02 0. -1.
    10030    2    1    2    0    0  0.00000000000E+00  0.00000000000E+00 -0.50994623118E+03  0.17768056778E+04  0.17020555978E+04 0.  0.
        5    1    3    3  502    0 -0.23491409439E+03  0.57188785459E+03 -0.86545147746E+03  0.10636111601E+04  0.46999998093E+01 0. -1.
       -5    1    3    3    0  502  0.23491409439E+03 -0.57188785459E+03  0.35550524628E+03  0.71319451772E+03  0.46999998093E+01 0.  1.
</event>
<event>
 5   0  0.2561518E-04  0.1712642E+04  0.7818609E-02  0.8754187E-01
        1   -1    0    0  501    0  0.00000000000E+00  0.00000000000E+00  0.76312242379E+03  0.76312242380E+03  0.50400001928E-02 0.  1.
       -1   -1    0    0    0  501  0.00000000000E+00  0.00000000000E+00 -0.96090166107E+03  0.96090166108E+03  0.50400001928E-02 0. -1.
    10030    2    1    2    0    0  0.00000000000E+00  0.00000000000E+00 -0.19777923728E+03  0.17240240849E+04  0.17126419411E+04 0.  0.
        4    1    3    3  502    0 -0.55489584077E+03 -0.68575641538E+01  0.55761611222E+03  0.78669801182E+03  0.12699999809E+01 0.  1.
       -4    1    3    3    0  502  0.55489584077E+03  0.68575641538E+01 -0.75539534950E+03  0.93732607306E+03  0.12699999809E+01 0. -1.
</event>
<event>
 5   0  0.5021349E-04  0.1605729E+04  0.7818609E-02  0.8817036E-01
        2   -1    0    0  501    0  0.00000000000E+00  0.00000000000E+00  0.10494750327E+04  0.10494750327E+04  0.25500000920E-02 0.  1.
       -2   -1    0    0    0  501  0.00000000000E+00  0.00000000000E+00 -0.61420400699E+03  0.61420400700E+03  0.25500000920E-02 0. -1.
    10030    2    1    2    0    0  0.00000000000E+00  0.00000000000E+00  0.43527102571E+03  0.16636790397E+04  0.16057294546E+04 0.  0.
        2    1    3    3  502    0 -0.19739744139E+03 -0.65573334146E+03  0.65185433480E+03  0.94544488934E+03  0.25500000920E-02 0.  1.
       -2    1    3    3    0  502  0.19739744139E+03  0.65573334146E+03 -0.21658330909E+03  0.71823415037E+03  0.25500000920E-02 0. -1.
</event>
<event>
 5   0  0.2583422E-04  0.1713642E+04  0.7818609E-02  0.8753622E-01
        1   -1    0    0  501    0  0.00000000000E+00  0.00000000000E+00  0.69644290139E+03  0.69644290141E+03  0.50400001928E-02 0. -1.
       -1   -1    0    0    0  501  0.00000000000E+00  0.00000000000E+00 -0.10541309082E+04  0.10541309082E+04  0.50400001928E-02 0.  1.
    10030    2    1    2    0    0  0.00000000000E+00  0.00000000000E+00 -0.35768800682E+03  0.17505738096E+04  0.17136417224E+04 0.  0.
        3    1    3    3  502    0  0.18144507563E+03 -0.82442338089E+03 -0.32879219180E+03  0.90592524085E+03  0.10100000352E+00 0. -1.
       -3    1    3    3    0  502 -0.18144507563E+03  0.82442338089E+03 -0.28895815024E+02  0.84464856878E+03  0.10100000352E+00 0.  1.
</event>
<event>
 5   0  0.2785059E-04  0.1689011E+04  0.7818609E-02  0.8767657E-01
        1   -1    0    0  501    0  0.00000000000E+00  0.00000000000E+00  0.79131911037E+03  0.79131911038E+03  0.50400001928E-02 0.  1.
       -1   -1    0    0    0  501  0.00000000000E+00  0.00000000000E+00 -0.90126704648E+03  0.90126704649E+03  0.50400001928E-02 0. -1.
    10030    2    1    2    0    0  0.00000000000E+00  0.00000000000E+00 -0.10994793612E+03  0.16925861569E+04  0.16890113528E+04 0.  0.
        5    1    3    3  502    0 -0.69933613911E+03 -0.30913452866E+03 -0.41424713853E+03  0.86963094129E+03  0.46999998093E+01 0. -1.
       -5    1    3    3    0  502  0.69933613911E+03  0.30913452866E+03  0.30429920241E+03  0.82295521559E+03  0.46999998093E+01 0.  1.
</event>
<event>
 5   0  0.2595644E-04  0.1725586E+04  0.7818609E-02  0.8746905E-01
        1   -1    0    0  501    0  0.00000000000E+00  0.00000000000E+00  0.10951227258E+04  0.10951227258E+04  0.50400001928E-02 0.  1.
       -1   -1    0    0    0  501  0.00000000000E+00  0.00000000000E+00 -0.67975211518E+03  0.67975211520E+03  0.50400001928E-02 0. -1.
    10030    2    1    2    0    0  0.00000000000E+00  0.00000000000E+00  0.41537061059E+03  0.17748748410E+04  0.17255862647E+04 0.  0.
        2    1    3    3  502    0 -0.37906464917E+03  0.12289546916E+03  0.99480090640E+03  0.10716445997E+04  0.25500000920E-02 0.  1.
       -2    1    3    3    0  502  0.37906464917E+03 -0.12289546916E+03 -0.57943029581E+03  0.70323024132E+03  0.25500000920E-02 0. -1.
</event>
<event>
 5   0  0.2785059E-04  0.1700769E+04  0.7818609E-02  0.8760926E-01
        1   -1    0    0  501    0  0.00000000000E+00  0.00000000000E+00  0.14925960700E+04  0.14925960700E+04  0.50400001928E-02 0.  1.
       -1   -1    0    0    0  501  0.00000000000E+00  0.00000000000E+00 -0.48449402728E+03  0.48449402730E+03  0.50400001928E-02 0. -1.
    10030    2    1    2    0    0  0.00000000000E+00  0.00000000000E+00  0.10081020427E+04  0.19770900973E+04  0.17007690979E+04 0.  0.
        5    1    3    3  502    0  0.53677013940E+03 -0.58933822506E+02  0.12676930597E+04  0.13779198677E+04  0.46999998093E+01 0.  1.
       -5    1    3    3    0  502 -0.53677013940E+03  0.58933822506E+02 -0.25959101701E+03  0.59917022965E+03  0.46999998093E+01 0. -1.
</event>
<event>
 5   0  0.5021349E-04  0.1609607E+04  0.7818609E-02  0.8814668E-01
        2   -1    0    0  501    0  0.00000000000E+00  0.00000000000E+00  0.63233098308E+03  0.63233098309E+03  0.25500000920E-02 0. -1.
       -2   -1    0    0    0  501  0.00000000000E+00  0.00000000000E+00 -0.10243193286E+04  0.10243193286E+04  0.25500000920E-02 0.  1.
    10030    2    1    2    0    0  0.00000000000E+00  0.00000000000E+00 -0.39198834551E+03  0.16566503117E+04  0.16096072167E+04 0.  0.
        2    1    3    3  502    0  0.14511227551E+03  0.65068161342E+03  0.26803141775E+03  0.71852973178E+03  0.25500000920E-02 0. -1.
       -2    1    3    3    0  502 -0.14511227551E+03 -0.65068161342E+03 -0.66001976326E+03  0.93812057991E+03  0.25500000920E-02 0.  1.
</event>
<event>
 5   0  0.5021349E-04  0.1727229E+04  0.7818609E-02  0.8745986E-01
       -2   -1    0    0    0  501  0.00000000000E+00  0.00000000000E+00  0.80611009119E+03  0.80611009120E+03  0.25500000920E-02 0. -1.
        2   -1    0    0  501    0  0.00000000000E+00  0.00000000000E+00 -0.92522052300E+03  0.92522052301E+03  0.25500000920E-02 0.  1.
    10030    2    1    2    0    0  0.00000000000E+00  0.00000000000E+00 -0.11911043181E+03  0.17313306142E+04  0.17272285317E+04 0.  0.
        2    1    3    3  502    0 -0.74701290722E+03 -0.21547667636E+03  0.31733125878E+03  0.83973663099E+03  0.25500000920E-02 0. -1.
       -2    1    3    3    0  502  0.74701290722E+03  0.21547667636E+03 -0.43644169060E+03  0.89159398322E+03  0.25500000920E-02 0.  1.
</event>
<event>
 5   0  0.2561518E-04  0.1690258E+04  0.7818609E-02  0.8766940E-01
       -1   -1    0    0    0  501  0.00000000000E+00  0.00000000000E+00  0.10268729307E+04  0.10268729307E+04  0.50400001928E-02 0. -1.
        1   -1    0    0  501    0  0.00000000000E+00  0.00000000000E+00 -0.69555149107E+03  0.69555149109E+03  0.50400001928E-02 0.  1.
    10030    2    1    2    0    0  0.00000000000E+00  0.00000000000E+00  0.33132143967E+03  0.17224244218E+04  0.16902579663E+04 0.  0.
        4    1    3    3  502    0  0.61247776005E+03  0.18576533775E+03  0.72807289253E+03  0.96939647049E+03  0.12699999809E+01 0. -1.
       -4    1    3    3    0  502 -0.61247776005E+03 -0.18576533775E+03 -0.39675145286E+03  0.75302795135E+03  0.12699999809E+01 0.  1.
</event>
<event>
 5   0  0.5198430E-04  0.1736786E+04  0.7818609E-02  0.8740657E-01
        2   -1    0    0  501    0  0.00000000000E+00  0.00000000000E+00  0.15846017968E+04  0.15846017968E+04  0.25500000920E-02 0. -1.
       -2   -1    0    0    0  501  0.00000000000E+00  0.00000000000E+00 -0.47589671134E+03  0.47589671134E+03  0.25500000920E-02 0.  1.
    10030    2    1    2    0    0  0.00000000000E+00  0.00000000000E+00  0.11087050854E+04  0.20604985081E+04  0.17367864392E+04 0.  0.
        4    1    3    3  502    0 -0.66067869870E+03 -0.49998065072E+03  0.24582799444E+03  0.86423955577E+03  0.12699999809E+01 0.  1.
       -4    1    3    3    0  502  0.66067869870E+03  0.49998065072E+03  0.86287709101E+03  0.11962589524E+04  0.12699999809E+01 0. -1.
</event>
<event>
 5   0  0.1910750E-04  0.1712799E+04  0.7818609E-02  0.8754098E-01
        3   -1    0    0  501    0  0.00000000000E+00  0.00000000000E+00  0.42264980100E+03  0.42264981307E+03  0.10100000352E+00 0.  1.
       -3   -1    0    0    0  501  0.00000000000E+00  0.00000000000E+00 -0.17352903298E+04  0.17352903328E+04  0.10100000352E+00 0. -1.
    10030    2    1    2    0    0  0.00000000000E+00  0.00000000000E+00 -0.13126405288E+04  0.21579401459E+04  0.17127990294E+04 0.  0.
        2    1    3    3  502    0  0.43923871526E+03 -0.32199278736E+03 -0.14890025671E+04  0.15854774199E+04  0.25500000920E-02 0. -1.
       -2    1    3    3    0  502 -0.43923871526E+03  0.32199278736E+03  0.17636203825E+03  0.57246272598E+03  0.25500000920E-02 0.  1.
</event>
<event>
 5   0  0.2785059E-04  0.1702421E+04  0.7818609E-02  0.8759985E-01
        1   -1    0    0  501    0  0.00000000000E+00  0.00000000000E+00  0.11410061857E+04  0.11410061857E+04  0.50400001928E-02 0.  1.
       -1   -1    0    0    0  501  0.00000000000E+00  0.00000000000E+00 -0.63501814795E+03  0.63501814797E+03  0.50400001928E-02 0. -1.
    10030    2    1    2    0    0  0.00000000000E+00  0.00000000000E+00  0.50598803775E+03  0.17760243337E+04  0.17024213754E+04 0.  0.
        5    1    3    3  502    0  0.32534389801E+03 -0.76390930764E+03  0.57456561524E+02  0.83230368780E+03  0.46999998093E+01 0.  1.
       -5    1    3    3    0  502 -0.32534389801E+03  0.76390930764E+03  0.44853147622E+03  0.94372064586E+03  0.46999998093E+01 0. -1.
</event>
<event>
 5   0  0.2583422E-04  0.1689564E+04  0.7818609E-02  0.8767339E-01
       -1   -1    0    0    0  501  0.00000000000E+00  0.00000000000E+00  0.64470266714E+03  0.64470266716E+03  0.50400001928E-02 0. -1.
        1   -1    0    0  501    0  0.00000000000E+00  0.00000000000E+00 -0.11069542401E+04  0.11069542401E+04  0.50400001928E-02 0.  1.
    10030    2    1    2    0    0  0.00000000000E+00  0.00000000000E+00 -0.46225157299E+03  0.17516569073E+04  0.16895636727E+04 0.  0.
        3    1    3    3  502    0  0.46865745402E+03 -0.60745382445E+03 -0.59769665394E+03  0.97256426954E+03  0.10100000352E+00 0.  1.
       -3    1    3    3    0  502 -0.46865745402E+03  0.60745382445E+03  0.13544508095E+03  0.77909263775E+03  0.10100000352E+00 0. -1.
</event>
<event>
 5   0  0.5021349E-04  0.1687597E+04  0.7818609E-02  0.8768470E-01
       -2   -1    0    0    0  501  0.00000000000E+00  0.00000000000E+00  0.65853950822E+03  0.65853950822E+03  0.25500000920E-02 0. -1.
        2   -1    0    0  501    0  0.00000000000E+00  0.00000000000E+00 -0.10811746058E+04  0.10811746058E+04  0.25500000920E-02 0.  1.
    10030    2    1    2    0    0  0.00000000000E+00  0.00000000000E+00 -0.42263509756E+03  0.17397141140E+04  0.16875973373E+04 0.  0.
        2    1    3    3  502    0  0.22361732140E+03  0.80060384347E+03 -0.61839722238E+02  0.83354386319E+03  0.25500000920E-02 0.  1.
       -2    1    3    3    0  502 -0.22361732140E+03 -0.80060384347E+03 -0.36079537532E+03  0.90617025082E+03  0.25500000920E-02 0. -1.
</event>
<event>
 5   0  0.2630135E-04  0.1692516E+04  0.7818609E-02  0.8765644E-01
        1   -1    0    0  501    0  0.00000000000E+00  0.00000000000E+00  0.11774626750E+04  0.11774626750E+04  0.50400001928E-02 0. -1.
       -1   -1    0    0    0  501  0.00000000000E+00  0.00000000000E+00 -0.60821696309E+03  0.60821696311E+03  0.50400001928E-02 0.  1.
    10030    2    1    2    0    0  0.00000000000E+00  0.00000000000E+00  0.56924571191E+03  0.17856796381E+04  0.16925162007E+04 0.  0.
        1    1    3    3  502    0 -0.17866972331E+03  0.52012916987E+03 -0.39397289530E+03  0.67651449772E+03  0.50400001928E-02 0.  1.
       -1    1    3    3    0  502  0.17866972331E+03 -0.52012916987E+03  0.96321860721E+03  0.11091651404E+04  0.50400001928E-02 0. -1.
</event>
<event>
 5   0  0.5021349E-04  0.1700989E+04  0.7818609E-02  0.8760800E-01
        2   -1    0    0  501    0  0.00000000000E+00  0.00000000000E+00  0.97521734131E+03  0.97521734132E+03  0.25500000920E-02 0.  1.
       -2   -1    0    0    0  501  0.00000000000E+00  0.00000000000E+00 -0.74172291077E+03  0.74172291078E+03  0.25500000920E-02 0. -1.
    10030    2    1    2    0    0  0.00000000000E+00  0.00000000000E+00  0.23349443054E+03  0.17169402521E+04  0.17009891770E+04 0.  0.
        2    1    3    3  502    0  0.79148310412E+03 -0.99470739578E+02 -0.18097828668E+03  0.81798109537E+03  0.25500000920E-02 0.  1.
       -2    1    3    3    0  502 -0.79148310412E+03  0.99470739578E+02  0.41447271721E+03  0.89895915672E+03  0.25500000920E-02 0. -1.
</event>
<event>
 5   0  0.5021349E-04  0.1754119E+04  0.7818609E-02  0.8731086E-01
        2   -1    0    0  501    0  0.00000000000E+00  0.00000000000E+00  0.13327259953E+04  0.13327259953E+04  0.25500000920E-02 0. -1.
       -2   -1    0    0    0  501  0.00000000000E+00  0.00000000000E+00 -0.57718782385E+03  0.57718782386E+03  0.25500000920E-02 0.  1.
    10030    2    1    2    0    0  0.00000000000E+00  0.00000000000E+00  0.75553817145E+03  0.19099138192E+04  0.17541188295E+04 0.  0.
        2    1    3    3  502    0 -0.41956522377E+03 -0.74082589839E+03  0.60713298373E+03  0.10456904172E+04  0.25500000920E-02 0.  1.
       -2    1    3    3    0  502  0.41956522377E+03  0.74082589839E+03  0.14840518772E+03  0.86422340195E+03  0.25500000920E-02 0. -1.
</event>
<event>
 5   0  0.2583422E-04  0.1694441E+04  0.7818609E-02  0.8764541E-01
       -1   -1    0    0    0  501  0.00000000000E+00  0.00000000000E+00  0.58918145606E+03  0.58918145609E+03  0.50400001928E-02 0. -1.
        1   -1    0    0  501    0  0.00000000000E+00  0.00000000000E+00 -0.12182712940E+04  0.12182712940E+04  0.50400001928E-02 0.  1.
    10030    2    1    2    0    0  0.00000000000E+00  0.00000000000E+00 -0.62908983792E+03  0.18074527501E+04  0.16944413296E+04 0.  0.
        3    1    3    3  502    0  0.39384529482E+03  0.35566096334E+03 -0.10190275788E+04  0.11489238676E+04  0.10100000352E+00 0.  1.
       -3    1    3    3    0  502 -0.39384529482E+03 -0.35566096334E+03  0.38993774085E+03  0.65852888246E+03  0.10100000352E+00 0. -1.
</event>
<event>
 5   0  0.2630135E-04  0.1739896E+04  0.7818609E-02  0.8738931E-01
       -1   -1    0    0    0  501  0.00000000000E+00  0.00000000000E+00  0.13157304598E+04  0.13157304598E+04  0.50400001928E-02 0.  1.
        1   -1    0    0  501    0  0.00000000000E+00  0.00000000000E+00 -0.57520131463E+03  0.57520131465E+03  0.50400001928E-02 0. -1.
    10030    2    1    2    0    0  0.00000000000E+00  0.00000000000E+00  0.74052914514E+03  0.18909317744E+04  0.17398964224E+04 0.  0.
        1    1    3    3  502    0  0.50873066840E+03  0.26483976630E+03  0.10811584557E+04  0.12238670684E+04  0.50400001928E-02 0.  1.
       -1    1    3    3    0  502 -0.50873066840E+03 -0.26483976630E+03 -0.34062931056E+03  0.66706470602E+03  0.50400001928E-02 0. -1.
</event>
<event>
 5   0  0.2583422E-04  0.1706886E+04  0.7818609E-02  0.8757447E-01
        1   -1    0    0  501    0  0.00000000000E+00  0.00000000000E+00  0.65427384004E+03  0.65427384006E+03  0.50400001928E-02 0. -1.
       -1   -1    0    0    0  501  0.00000000000E+00  0.00000000000E+00 -0.11132417052E+04  0.11132417052E+04  0.50400001928E-02 0.  1.
    10030    2    1    2    0    0  0.00000000000E+00  0.00000000000E+00 -0.45896786512E+03  0.17675155452E+04  0.17068859661E+04 0.  0.
        3    1    3    3  502    0 -0.21944459154E+03 -0.13563153929E+03 -0.10718995409E+04  0.11025064531E+04  0.10100000352E+00 0.  1.
       -3    1    3    3    0  502  0.21944459154E+03  0.13563153929E+03  0.61293167578E+03  0.66500909210E+03  0.10100000352E+00 0. -1.
</event>
<event>
 5   0  0.2785059E-04  0.1699283E+04  0.7818609E-02  0.8761773E-01
       -1   -1    0    0    0  501  0.00000000000E+00  0.00000000000E+00  0.55099448674E+03  0.55099448676E+03  0.50400001928E-02 0.  1.
        1   -1    0    0  501    0  0.00000000000E+00  0.00000000000E+00 -0.13101600147E+04  0.13101600147E+04  0.50400001928E-02 0. -1.
    10030    2    1    2    0    0  0.00000000000E+00  0.00000000000E+00 -0.75916552792E+03  0.18611545014E+04  0.16992833135E+04 0.  0.
        5    1    3    3  502    0 -0.54726298758E+03  0.40387553202E+03 -0.93725827203E+03  0.11580532723E+04  0.46999998093E+01 0. -1.
       -5    1    3    3    0  502  0.54726298758E+03 -0.40387553202E+03  0.17809274411E+03  0.70310122916E+03  0.46999998093E+01 0.  1.
</event>
<event>
 5   0  0.2561518E-04  0.1699158E+04  0.7818609E-02  0.8761845E-01
       -1   -1    0    0    0  501  0.00000000000E+00  0.00000000000E+00  0.72666077702E+03  0.72666077703E+03  0.50400001928E-02 0. -1.
        1   -1    0    0  501    0  0.00000000000E+00  0.00000000000E+00 -0.99328928573E+03  0.99328928574E+03  0.50400001928E-02 0.  1.
    10030    2    1    2    0    0  0.00000000000E+00  0.00000000000E+00 -0.26662850872E+03  0.17199500628E+04  0.16991578669E+04 0.  0.
        4    1    3    3  502    0  0.82236378578E+03  0.17479055175E+03 -0.95527622658E+01  0.84078939177E+03  0.12699999809E+01 0. -1.
       -4    1    3    3    0  502 -0.82236378578E+03 -0.17479055175E+03 -0.25707574645E+03  0.87916067101E+03  0.12699999809E+01 0.  1.
</event>
<event>
 5   0  0.2561518E-04  0.1708194E+04  0.7818609E-02  0.8756705E-01
       -1   -1    0    0    0  501  0.00000000000E+00  0.00000000000E+00  0.11919969947E+04  0.11919969947E+04  0.50400001928E-02 0.  1.
        1   -1    0    0  501    0  0.00000000000E+00  0.00000000000E+00 -0.61198268235E+03  0.61198268237E+03  0.50400001928E-02 0. -1.
    10030    2    1    2    0    0  0.00000000000E+00  0.00000000000E+00  0.58001431235E+03  0.18039796771E+04  0.17081938042E+04 0.  0.
        4    1    3    3  502    0  0.50192965580E+03  0.61108762147E+03  0.63077478681E+03  0.10115532141E+04  0.12699999809E+01 0.  1.
       -4    1    3    3    0  502 -0.50192965580E+03 -0.61108762147E+03 -0.50760474456E+02  0.79242646293E+03  0.12699999809E+01 0. -1.
</event>
<event>
 5   0  0.5310003E-04  0.1689346E+04  0.7818609E-02  0.8767464E-01
       -2   -1    0    0    0  501  0.00000000000E+00  0.00000000000E+00  0.82558027433E+03  0.82558027433E+03  0.25500000920E-02 0. -1.
        2   -1    0    0  501    0  0.00000000000E+00  0.00000000000E+00 -0.86420677921E+03  0.86420677921E+03  0.25500000920E-02 0.  1.
    10030    2    1    2    0    0  0.00000000000E+00  0.00000000000E+00 -0.38626504879E+02  0.16897870535E+04  0.16893455181E+04 0.  0.
        1    1    3    3  502    0 -0.22123576339E+03 -0.76169732809E+03 -0.30980952105E+03  0.85153392298E+03  0.50400001928E-02 0. -1.
       -1    1    3    3    0  502  0.22123576339E+03  0.76169732809E+03  0.27118301617E+03  0.83825313057E+03  0.50400001928E-02 0.  1.
</event>
<event>
 5   0  0.5299877E-04  0.1745653E+04  0.7818609E-02  0.8735747E-01
       -2   -1    0    0    0  501  0.00000000000E+00  0.00000000000E+00  0.87477100544E+03  0.87477100544E+03  0.25500000920E-02 0.  1.
        2   -1    0    0  501    0  0.00000000000E+00  0.00000000000E+00 -0.87088667826E+03  0.87088667827E+03  0.25500000920E-02 0. -1.
    10030    2    1    2    0    0  0.00000000000E+00  0.00000000000E+00  0.38843271746E+01  0.17456576837E+04  0.17456533621E+04 0.  0.
        3    1    3    3  502    0 -0.76793993022E+03  0.40655322340E+03 -0.80575584830E+02  0.87264522857E+03  0.10100000352E+00 0. -1.
       -3    1    3    3    0  502  0.76793993022E+03 -0.40655322340E+03  0.84459912005E+02  0.87301245513E+03  0.10100000352E+00 0.  1.
</event>
<event>
 5   0  0.2785059E-04  0.1685657E+04  0.7818609E-02  0.8769587E-01
        1   -1    0    0  501    0  0.00000000000E+00  0.00000000000E+00  0.12278493082E+04  0.12278493082E+04  0.50400001928E-02 0.  1.
       -1   -1    0    0    0  501  0.00000000000E+00  0.00000000000E+00 -0.57854026915E+03  0.57854026918E+03  0.50400001928E-02 0. -1.
    10030    2    1    2    0    0  0.00000000000E+00  0.00000000000E+00  0.64930903905E+03  0.18063895774E+04  0.16856574614E+04 0.  0.
        5    1    3    3  502    0  0.60223157311E+03 -0.58850644271E+03  0.36352178375E+03  0.91716567643E+03  0.46999998093E+01 0. -1.
       -5    1    3    3    0  502 -0.60223157311E+03  0.58850644271E+03  0.28578725530E+03  0.88922390097E+03  0.46999998093E+01 0.  1.
</event>
<event>
 5   0  0.5021349E-04  0.1677775E+04  0.7818609E-02  0.8774143E-01
       -2   -1    0    0    0  501  0.00000000000E+00  0.00000000000E+00  0.69567438363E+03  0.69567438364E+03  0.25500000920E-02 0.  1.
        2   -1    0    0  501    0  0.00000000000E+00  0.00000000000E+00 -0.10115823512E+04  0.10115823512E+04  0.25500000920E-02 0. -1.
    10030    2    1    2    0    0  0.00000000000E+00  0.00000000000E+00 -0.31590796755E+03  0.17072567348E+04  0.16777746317E+04 0.  0.
        2    1    3    3  502    0  0.57914325513E+03  0.31715110279E+02  0.45876456195E+03  0.73951178591E+03  0.25500000920E-02 0.  1.
       -2    1    3    3    0  502 -0.57914325513E+03 -0.31715110279E+02 -0.77467252950E+03  0.96774494891E+03  0.25500000920E-02 0. -1.
</event>
<event>
 5   0  0.5198430E-04  0.1702372E+04  0.7818609E-02  0.8760012E-01
       -2   -1    0    0    0  501  0.00000000000E+00  0.00000000000E+00  0.35939295562E+03  0.35939295563E+03  0.25500000920E-02 0. -1.
        2   -1    0    0  501    0  0.00000000000E+00  0.00000000000E+00 -0.20159494010E+04  0.20159494010E+04  0.25500000920E-02 0.  1.
    10030    2    1    2    0    0  0.00000000000E+00  0.00000000000E+00 -0.16565564453E+04  0.23753423566E+04  0.17023724782E+04 0.  0.
        4    1    3    3  502    0  0.25309021889E+03 -0.36913890484E+03 -0.18385061975E+04  0.18922010572E+04  0.12699999809E+01 0.  1.
       -4    1    3    3    0  502 -0.25309021889E+03  0.36913890484E+03  0.18194975211E+03  0.48314129937E+03  0.12699999809E+01 0. -1.
</event>
<event>
 5   0  0.2561518E-04  0.1691428E+04  0.7818609E-02  0.8766268E-01
        1   -1    0    0  501    0  0.00000000000E+00  0.00000000000E+00  0.12750423445E+04  0.12750423446E+04  0.50400001928E-02 0.  1.
       -1   -1    0    0    0  501  0.00000000000E+00  0.00000000000E+00 -0.56094775021E+03  0.56094775023E+03  0.50400001928E-02 0. -1.
    10030    2    1    2    0    0  0.00000000000E+00  0.00000000000E+00  0.71409459434E+03  0.18359900948E+04  0.16914279584E+04 0.  0.
        4    1    3    3  502    0  0.52862308260E+03  0.34037276906E+03  0.97101763617E+03  0.11567942116E+04  0.12699999809E+01 0.  1.
       -4    1    3    3    0  502 -0.52862308260E+03 -0.34037276906E+03 -0.25692304183E+03  0.67919588316E+03  0.12699999809E+01 0. -1.
</event>
<event>
 5   0  0.5342255E-04  0.1621962E+04  0.7818609E-02  0.8807169E-01
        2   -1    0    0  501    0  0.00000000000E+00  0.00000000000E+00  0.15888742854E+04  0.15888742854E+04  0.25500000920E-02 0.  1.
       -2   -1    0    0    0  501  0.00000000000E+00  0.00000000000E+00 -0.41393449689E+03  0.41393449689E+03  0.25500000920E-02 0. -1.
    10030    2    1    2    0    0  0.00000000000E+00  0.00000000000E+00  0.11749397885E+04  0.20028087823E+04  0.16219616246E+04 0.  0.
        5    1    3    3  502    0 -0.77982739050E+03 -0.86410588594E+02  0.84074144119E+03  0.11499851346E+04  0.46999998093E+01 0.  1.
       -5    1    3    3    0  502  0.77982739050E+03  0.86410588594E+02  0.33419834733E+03  0.85282364774E+03  0.46999998093E+01 0. -1.
</event>
<event>
 5   0  0.5310003E-04  0.1681481E+04  0.7818609E-02  0.8771998E-01
        2   -1    0    0  501    0  0.00000000000E+00  0.00000000000E+00  0.18392608814E+04  0.18392608814E+04  0.25500000920E-02 0.  1.
       -2   -1    0    0    0  501  0.00000000000E+00  0.00000000000E+00 -0.38430899309E+03  0.38430899310E+03  0.25500000920E-02 0. -1.
    10030    2    1    2    0    0  0.00000000000E+00  0.00000000000E+00  0.14549518883E+04  0.22235698745E+04  0.16814808918E+04 0.  0.
        1    1    3    3  502    0 -0.78460491409E+03  0.46107090041E+02  0.11222342124E+04  0.13700877207E+04  0.50400001928E-02 0. -1.
       -1    1    3    3    0  502  0.78460491409E+03 -0.46107090041E+02  0.33271767593E+03  0.85348215381E+03  0.50400001928E-02 0.  1.
</event>
<event>
 5   0  0.2561518E-04  0.1706862E+04  0.7818609E-02  0.8757460E-01
        1   -1    0    0  501    0  0.00000000000E+00  0.00000000000E+00  0.95912270742E+03  0.95912270744E+03  0.50400001928E-02 0.  1.
       -1   -1    0    0    0  501  0.00000000000E+00  0.00000000000E+00 -0.75938645303E+03  0.75938645305E+03  0.50400001928E-02 0. -1.
    10030    2    1    2    0    0  0.00000000000E+00  0.00000000000E+00  0.19973625439E+03  0.17185091605E+04  0.17068623739E+04 0.  0.
        4    1    3    3  502    0  0.41694404731E+03  0.25376244485E+03 -0.60498416657E+03  0.77733208585E+03  0.12699999809E+01 0. -1.
       -4    1    3    3    0  502 -0.41694404731E+03 -0.25376244485E+03  0.80472042096E+03  0.94117707463E+03  0.12699999809E+01 0.  1.
</event>
<event>
 5   0  0.2630135E-04  0.1933952E+04  0.7818609E-02  0.8638139E-01
       -1   -1    0    0    0  501  0.00000000000E+00  0.00000000000E+00  0.95523154395E+03  0.95523154397E+03  0.50400001928E-02 0. -1.
        1   -1    0    0  501    0  0.00000000000E+00  0.00000000000E+00 -0.97886440254E+03  0.97886440255E+03  0.50400001928E-02 0.  1.
    10030    2    1    2    0    0  0.00000000000E+00  0.00000000000E+00 -0.23632858581E+02  0.19340959465E+04  0.19339515553E+04 0.  0.
        1    1    3    3  502    0 -0.29874343516E+03 -0.12140614023E+03  0.89987384895E+03  0.95590796366E+03  0.50400001928E-02 0. -1.
       -1    1    3    3    0  502  0.29874343516E+03  0.12140614023E+03 -0.92350670753E+03  0.97818798286E+03  0.50400001928E-02 0.  1.
</event>
<event>
 5   0  0.5198430E-04  0.1709744E+04  0.7818609E-02  0.8755826E-01
       -2   -1    0    0    0  501  0.00000000000E+00  0.00000000000E+00  0.44346061356E+03  0.44346061357E+03  0.25500000920E-02 0. -1.
        2   -1    0    0  501    0  0.00000000000E+00  0.00000000000E+00 -0.16479618003E+04  0.16479618003E+04  0.25500000920E-02 0.  1.
    10030    2    1    2    0    0  0.00000000000E+00  0.00000000000E+00 -0.12045011867E+04  0.20914224138E+04  0.17097440172E+04 0.  0.
        4    1    3    3  502    0  0.25635276281E+03 -0.24909025808E+03 -0.15521648130E+04  0.15927899784E+04  0.12699999809E+01 0.  1.
       -4    1    3    3    0  502 -0.25635276281E+03  0.24909025808E+03  0.34766362633E+03  0.49863243541E+03  0.12699999809E+01 0. -1.
</event>
<event>
 5   0  0.5299877E-04  0.1703211E+04  0.7818609E-02  0.8759535E-01
        2   -1    0    0  501    0  0.00000000000E+00  0.00000000000E+00  0.80565058164E+03  0.80565058164E+03  0.25500000920E-02 0. -1.
       -2   -1    0    0    0  501  0.00000000000E+00  0.00000000000E+00 -0.90018223925E+03  0.90018223926E+03  0.25500000920E-02 0.  1.
    10030    2    1    2    0    0  0.00000000000E+00  0.00000000000E+00 -0.94531657614E+02  0.17058328209E+04  0.17032114897E+04 0.  0.
        3    1    3    3  502    0  0.41768925937E+03 -0.45534590547E+03  0.53966350633E+03  0.82039071258E+03  0.10100000352E+00 0. -1.
       -3    1    3    3    0  502 -0.41768925937E+03  0.45534590547E+03 -0.63419516395E+03  0.88544210832E+03  0.10100000352E+00 0.  1.
</event>
<event>
 5   0  0.5021349E-04  0.1700028E+04  0.7818609E-02  0.8761348E-01
       -2   -1    0    0    0  501  0.00000000000E+00  0.00000000000E+00  0.38682009794E+03  0.38682009794E+03  0.25500000920E-02 0. -1.
        2   -1    0    0  501    0  0.00000000000E+00  0.00000000000E+00 -0.18678545226E+04  0.18678545226E+04  0.25500000920E-02 0.  1.
    10030    2    1    2    0    0  0.00000000000E+00  0.00000000000E+00 -0.14810344246E+04  0.22546746205E+04  0.17000278461E+04 0.  0.
        2    1    3    3  502    0  0.51312505466E+03 -0.67322431647E+03 -0.63782541839E+03  0.10598818643E+04  0.25500000920E-02 0. -1.
       -2    1    3    3    0  502 -0.51312505466E+03  0.67322431647E+03 -0.84320900624E+03  0.11947927562E+04  0.25500000920E-02 0.  1.
</event>
<event>
 5   0  0.5021349E-04  0.1697450E+04  0.7818609E-02  0.8762820E-01
        2   -1    0    0  501    0  0.00000000000E+00  0.00000000000E+00  0.10135194213E+04  0.10135194213E+04  0.25500000920E-02 0.  1.
       -2   -1    0    0    0  501  0.00000000000E+00  0.00000000000E+00 -0.71072526558E+03  0.71072526559E+03  0.25500000920E-02 0. -1.
    10030    2    1    2    0    0  0.00000000000E+00  0.00000000000E+00  0.30279415572E+03  0.17242446869E+04  0.16974496869E+04 0.  0.
        2    1    3    3  502    0 -0.75858609259E+03 -0.19608920087E+03  0.48278301051E+03  0.92031693987E+03  0.25500000920E-02 0.  1.
       -2    1    3    3    0  502  0.75858609259E+03  0.19608920087E+03 -0.17998885479E+03  0.80392774702E+03  0.25500000920E-02 0. -1.
</event>
<event>
 5   0  0.5198430E-04  0.1721231E+04  0.7818609E-02  0.8749347E-01
       -2   -1    0    0    0  501  0.00000000000E+00  0.00000000000E+00  0.31386611584E+03  0.31386611585E+03  0.25500000920E-02 0. -1.
        2   -1    0    0  501    0  0.00000000000E+00  0.00000000000E+00 -0.23597941217E+04  0.23597941217E+04  0.25500000920E-02 0.  1.
    10030    2    1    2    0    0  0.00000000000E+00  0.00000000000E+00 -0.20459280058E+04  0.26736602375E+04  0.17212314373E+04 0.  0.
        4    1    3    3  502    0 -0.81731077058E+02  0.82646284274E+03 -0.67238682438E+03  0.10685627983E+04  0.12699999809E+01 0. -1.
       -4    1    3    3    0  502  0.81731077058E+02 -0.82646284274E+03 -0.13735411814E+04  0.16050974392E+04  0.12699999809E+01 0.  1.
</event>
<event>
 5   0  0.5342255E-04  0.1694468E+04  0.7818609E-02  0.8764526E-01
        2   -1    0    0  501    0  0.00000000000E+00  0.00000000000E+00  0.63927335666E+03  0.63927335667E+03  0.25500000920E-02 0.  1.
       -2   -1    0    0    0  501  0.00000000000E+00  0.00000000000E+00 -0.11228456980E+04  0.11228456980E+04  0.25500000920E-02 0. -1.
    10030    2    1    2    0    0  0.00000000000E+00  0.00000000000E+00 -0.48357234133E+03  0.17621190547E+04  0.16944678674E+04 0.  0.
        5    1    3    3  502    0 -0.19048312148E+03  0.82549331740E+03 -0.23371674717E+03  0.87884506288E+03  0.46999998093E+01 0.  1.
       -5    1    3    3    0  502  0.19048312148E+03 -0.82549331740E+03 -0.24985559416E+03  0.88327399179E+03  0.46999998093E+01 0. -1.
</event>
<event>
 5   0  0.5342255E-04  0.1681008E+04  0.7818609E-02  0.8772271E-01
       -2   -1    0    0    0  501  0.00000000000E+00  0.00000000000E+00  0.38065626459E+03  0.38065626460E+03  0.25500000920E-02 0.  1.
        2   -1    0    0  501    0  0.00000000000E+00  0.00000000000E+00 -0.18558659092E+04  0.18558659092E+04  0.25500000920E-02 0. -1.
    10030    2    1    2    0    0  0.00000000000E+00  0.00000000000E+00 -0.14752096446E+04  0.22365221738E+04  0.16810080126E+04 0.  0.
        5    1    3    3  502    0  0.45963071737E+03 -0.25667443308E+03  0.13411141428E+03  0.54327720584E+03  0.46999998093E+01 0.  1.
       -5    1    3    3    0  502 -0.45963071737E+03  0.25667443308E+03 -0.16093210589E+04  0.16932449679E+04  0.46999998093E+01 0. -1.
</event>
<event>
 5   0  0.5299877E-04  0.1698767E+04  0.7818609E-02  0.8762068E-01
       -2   -1    0    0    0  501  0.00000000000E+00  0.00000000000E+00  0.14232399998E+04  0.14232399998E+04  0.25500000920E-02 0.  1.
        2   -1    0    0  501    0  0.00000000000E+00  0.00000000000E+00 -0.50690837903E+03  0.50690837904E+03  0.25500000920E-02 0. -1.
    10030    2    1    2    0    0  0.00000000000E+00  0.00000000000E+00  0.91633162074E+03  0.19301483788E+04  0.16987669425E+04 0.  0.
        3    1    3    3  502    0 -0.51107716142E+03 -0.12343187347E+03 -0.29979226734E+03  0.60523607467E+03  0.10100000352E+00 0. -1.
       -3    1    3    3    0  502  0.51107716142E+03  0.12343187347E+03  0.12161238881E+04  0.13249123041E+04  0.10100000352E+00 0.  1.
</event>
<event>
 5   0  0.2630135E-04  0.1686365E+04  0.7818609E-02  0.8769179E-01
        1   -1    0    0  501    0  0.00000000000E+00  0.00000000000E+00  0.99196815301E+03  0.99196815302E+03  0.50400001928E-02 0. -1.
       -1   -1    0    0    0  501  0.00000000000E+00  0.00000000000E+00 -0.71671306998E+03  0.71671307000E+03  0.50400001928E-02 0.  1.
    10030    2    1    2    0    0  0.00000000000E+00  0.00000000000E+00  0.27525508303E+03  0.17086812230E+04  0.16863647770E+04 0.  0.
        1    1    3    3  502    0  0.30924378686E+03 -0.66265143074E+03  0.56296588702E+03  0.92285926790E+03  0.50400001928E-02 0.  1.
       -1    1    3    3    0  502 -0.30924378686E+03  0.66265143074E+03 -0.28771080399E+03  0.78582195511E+03  0.50400001928E-02 0. -1.
</event>
<event>
 5   0  0.2630135E-04  0.1724259E+04  0.7818609E-02  0.8747648E-01
       -1   -1    0    0    0  501  0.00000000000E+00  0.00000000000E+00  0.24045631858E+04  0.24045631858E+04  0.50400001928E-02 0.  1.
        1   -1    0    0  501    0  0.00000000000E+00  0.00000000000E+00 -0.30910692604E+03  0.30910692608E+03  0.50400001928E-02 0. -1.
    10030    2    1    2    0    0  0.00000000000E+00  0.00000000000E+00  0.20954562597E+04  0.27136701118E+04  0.17242588377E+04 0.  0.
        1    1    3    3  502    0  0.55568971260E+03  0.58293408890E+03  0.56350353207E+03  0.98292392349E+03  0.50400001928E-02 0. -1.
       -1    1    3    3    0  502 -0.55568971260E+03 -0.58293408890E+03  0.15319527277E+04  0.17307461883E+04  0.50400001928E-02 0.  1.
</event>
<event>
 5   0  0.5021349E-04  0.1693735E+04  0.7818609E-02  0.8764946E-01
       -2   -1    0    0    0  501  0.00000000000E+00  0.00000000000E+00  0.36961077086E+03  0.36961077086E+03  0.25500000920E-02 0. -1.
        2   -1    0    0  501    0  0.00000000000E+00  0.00000000000E+00 -0.19403779223E+04  0.19403779223E+04  0.25500000920E-02 0.  1.
    10030    2    1    2    0    0  0.00000000000E+00  0.00000000000E+00 -0.15707671514E+04  0.23099886932E+04  0.16937350202E+04 0.  0.
        2    1    3    3  502    0 -0.68388495796E+03 -0.14063808324E+03 -0.14390427820E+04  0.15994754873E+04  0.25500000920E-02 0.  1.
       -2    1    3    3    0  502  0.68388495796E+03  0.14063808324E+03 -0.13172436948E+03  0.71051320586E+03  0.25500000920E-02 0. -1.
</event>
<event>
 5   0  0.5198430E-04  0.1679766E+04  0.7818609E-02  0.8772990E-01
       -2   -1    0    0    0  501  0.00000000000E+00  0.00000000000E+00  0.43052709994E+03  0.43052709994E+03  0.25500000920E-02 0.  1.
        2   -1    0    0  501    0  0.00000000000E+00  0.00000000000E+00 -0.16384642616E+04  0.16384642616E+04  0.25500000920E-02 0. -1.
    10030    2    1    2    0    0  0.00000000000E+00  0.00000000000E+00 -0.12079371617E+04  0.20689913616E+04  0.16797657776E+04 0.  0.
        4    1    3    3  502    0  0.79752392924E+03 -0.37466273566E+02 -0.92505054454E+03  0.12219526432E+04  0.12699999809E+01 0. -1.
       -4    1    3    3    0  502 -0.79752392924E+03  0.37466273566E+02 -0.28288661715E+03  0.84703871837E+03  0.12699999809E+01 0.  1.
</event>
<event>
 5   0  0.2785059E-04  0.1701657E+04  0.7818609E-02  0.8760420E-01
        1   -1    0    0  501    0  0.00000000000E+00  0.00000000000E+00  0.89858424366E+03  0.89858424367E+03  0.50400001928E-02 0. -1.
       -1   -1    0    0    0  501  0.00000000000E+00  0.00000000000E+00 -0.80561099242E+03  0.80561099244E+03  0.50400001928E-02 0.  1.
    10030    2    1    2    0    0  0.00000000000E+00  0.00000000000E+00  0.92973251236E+02  0.17041952361E+04  0.17016572444E+04 0.  0.
        5    1    3    3  502    0 -0.77303545067E+03  0.57807137785E+02  0.39766869427E+03  0.87125653718E+03  0.46999998093E+01 0. -1.
       -5    1    3    3    0  502  0.77303545067E+03 -0.57807137785E+02 -0.30469544304E+03  0.83293869893E+03  0.46999998093E+01 0.  1.
</event>
<event>
 5   0  0.1910750E-04  0.1681850E+04  0.7818609E-02  0.8771784E-01
        3   -1    0    0  501    0  0.00000000000E+00  0.00000000000E+00  0.54333107851E+03  0.54333108790E+03  0.10100000352E+00 0.  1.
       -3   -1    0    0    0  501  0.00000000000E+00  0.00000000000E+00 -0.13015170053E+04  0.13015170092E+04  0.10100000352E+00 0. -1.
    10030    2    1    2    0    0  0.00000000000E+00  0.00000000000E+00 -0.75818592676E+03  0.18448480971E+04  0.16818497560E+04 0.  0.
        3    1    3    3  502    0  0.63166316946E+03 -0.29642593522E+03  0.13574288837E+03  0.71083952947E+03  0.10100000352E+00 0.  1.
       -3    1    3    3    0  502 -0.63166316946E+03  0.29642593522E+03 -0.89392881512E+03  0.11340085676E+04  0.10100000352E+00 0. -1.
</event>
<event>
 5   0  0.5198430E-04  0.1702899E+04  0.7818609E-02  0.8759713E-01
       -2   -1    0    0    0  501  0.00000000000E+00  0.00000000000E+00  0.41552002323E+03  0.41552002324E+03  0.25500000920E-02 0. -1.
        2   -1    0    0  501    0  0.00000000000E+00  0.00000000000E+00 -0.17447203235E+04  0.17447203235E+04  0.25500000920E-02 0.  1.
    10030    2    1    2    0    0  0.00000000000E+00  0.00000000000E+00 -0.13292003003E+04  0.21602403468E+04  0.17028989745E+04 0.  0.
        4    1    3    3  502    0  0.46411608505E+03  0.41625846656E+03  0.71047774478E+02  0.62747450191E+03  0.12699999809E+01 0. -1.
       -4    1    3    3    0  502 -0.46411608505E+03 -0.41625846656E+03 -0.14002480748E+04  0.15327658449E+04  0.12699999809E+01 0.  1.
</event>
<event>
 5   0  0.2785059E-04  0.1691114E+04  0.7818609E-02  0.8766449E-01
       -1   -1    0    0    0  501  0.00000000000E+00  0.00000000000E+00  0.58828931503E+03  0.58828931505E+03  0.50400001928E-02 0.  1.
        1   -1    0    0  501    0  0.00000000000E+00  0.00000000000E+00 -0.12153312672E+04  0.12153312672E+04  0.50400001928E-02 0. -1.
    10030    2    1    2    0    0  0.00000000000E+00  0.00000000000E+00 -0.62704195215E+03  0.18036205822E+04  0.16911137144E+04 0.  0.
        5    1    3    3  502    0 -0.55573598189E+03  0.63721833509E+03 -0.30563871948E+03  0.89906996668E+03  0.46999998093E+01 0. -1.
       -5    1    3    3    0  502  0.55573598189E+03 -0.63721833509E+03 -0.32140323267E+03  0.90455061556E+03  0.46999998093E+01 0.  1.
</event>
<event>
 5   0  0.2561518E-04  0.1677189E+04  0.7818609E-02  0.8774483E-01
        1   -1    0    0  501    0  0.00000000000E+00  0.00000000000E+00  0.14114633944E+04  0.14114633944E+04  0.50400001928E-02 0.  1.
       -1   -1    0    0    0  501  0.00000000000E+00  0.00000000000E+00 -0.49823495368E+03  0.49823495371E+03  0.50400001928E-02 0. -1.
    10030    2    1    2    0    0  0.00000000000E+00  0.00000000000E+00  0.91322844073E+03  0.19096983481E+04  0.16771885988E+04 0.  0.
        4    1    3    3  502    0 -0.77761537901E+03 -0.18232836557E+03  0.74759946616E+03  0.10939999476E+04  0.12699999809E+01 0.  1.
       -4    1    3    3    0  502  0.77761537901E+03  0.18232836557E+03  0.16562897457E+03  0.81569840056E+03  0.12699999809E+01 0. -1.
</event>
<event>
 5   0  0.2630135E-04  0.1699692E+04  0.7818609E-02  0.8761540E-01
        1   -1    0    0  501    0  0.00000000000E+00  0.00000000000E+00  0.13766587698E+04  0.13766587698E+04  0.50400001928E-02 0. -1.
       -1   -1    0    0    0  501  0.00000000000E+00  0.00000000000E+00 -0.52463136566E+03  0.52463136569E+03  0.50400001928E-02 0.  1.
    10030    2    1    2    0    0  0.00000000000E+00  0.00000000000E+00  0.85202740415E+03  0.19012901355E+04  0.16996921727E+04 0.  0.
        1    1    3    3  502    0  0.62826056868E+03 -0.36998473794E+03 -0.62394809503E+02  0.73177398201E+03  0.50400001928E-02 0.  1.
       -1    1    3    3    0  502 -0.62826056868E+03  0.36998473794E+03  0.91442221365E+03  0.11695161535E+04  0.50400001928E-02 0. -1.
</event>
<event>
 5   0  0.2630135E-04  0.1688612E+04  0.7818609E-02  0.8767886E-01
       -1   -1    0    0    0  501  0.00000000000E+00  0.00000000000E+00  0.33034681699E+03  0.33034681703E+03  0.50400001928E-02 0.  1.
        1   -1    0    0  501    0  0.00000000000E+00  0.00000000000E+00 -0.21578915086E+04  0.21578915086E+04  0.50400001928E-02 0. -1.
    10030    2    1    2    0    0  0.00000000000E+00  0.00000000000E+00 -0.18275446916E+04  0.24882383257E+04  0.16886119641E+04 0.  0.
        1    1    3    3  502    0  0.34142303663E+03  0.73899365410E+03 -0.12438299221E+04  0.14865376504E+04  0.50400001928E-02 0. -1.
       -1    1    3    3    0  502 -0.34142303663E+03 -0.73899365410E+03 -0.58371476951E+03  0.10017006753E+04  0.50400001928E-02 0.  1.
</event>
<event>
 5   0  0.2630135E-04  0.1493853E+04  0.7818609E-02  0.8888551E-01
        1   -1    0    0  501    0  0.00000000000E+00  0.00000000000E+00  0.79508147764E+03  0.79508147766E+03  0.50400001928E-02 0. -1.
       -1   -1    0    0    0  501  0.00000000000E+00  0.00000000000E+00 -0.70168832764E+03  0.70168832766E+03  0.50400001928E-02 0.  1.
    10030    2    1    2    0    0  0.00000000000E+00  0.00000000000E+00  0.93393150005E+02  0.14967698053E+04  0.14938532624E+04 0.  0.
        1    1    3    3  502    0  0.55402221570E+03  0.43601457814E+03 -0.20046308844E+03  0.73296301250E+03  0.50400001928E-02 0.  1.
       -1    1    3    3    0  502 -0.55402221570E+03 -0.43601457814E+03  0.29385623845E+03  0.76380679281E+03  0.50400001928E-02 0. -1.
</event>
<event>
 5   0  0.2595644E-04  0.1709023E+04  0.7818609E-02  0.8756235E-01
       -1   -1    0    0    0  501  0.00000000000E+00  0.00000000000E+00  0.12660380223E+04  0.12660380223E+04  0.50400001928E-02 0.  1.
        1   -1    0    0  501    0  0.00000000000E+00  0.00000000000E+00 -0.57675200226E+03  0.57675200228E+03  0.50400001928E-02 0. -1.
    10030    2    1    2    0    0  0.00000000000E+00  0.00000000000E+00  0.68928602001E+03  0.18427900246E+04  0.17090230710E+04 0.  0.
        2    1    3    3  502    0  0.72678787965E+03  0.30284747085E+03 -0.13389650603E+02  0.78747475855E+03  0.25500000920E-02 0.  1.
       -2    1    3    3    0  502 -0.72678787965E+03 -0.30284747085E+03  0.70267567061E+03  0.10553152660E+04  0.25500000920E-02 0. -1.
</event>
<event>
 5   0  0.2785059E-04  0.1608330E+04  0.7818609E-02  0.8815447E-01
       -1   -1    0    0    0  501  0.00000000000E+00  0.00000000000E+00  0.26972961159E+03  0.26972961163E+03  0.50400001928E-02 0.  1.
        1   -1    0    0  501    0  0.00000000000E+00  0.00000000000E+00 -0.23975158940E+04  0.23975158940E+04  0.50400001928E-02 0. -1.
    10030    2    1    2    0    0  0.00000000000E+00  0.00000000000E+00 -0.21277862824E+04  0.26672455057E+04  0.16083296067E+04 0.  0.
        5    1    3    3  502    0  0.54809285665E+03 -0.49119251749E+03 -0.52655511688E+03  0.90496312072E+03  0.46999998093E+01 0.  1.
       -5    1    3    3    0  502 -0.54809285665E+03  0.49119251749E+03 -0.16012311656E+04  0.17622823849E+04  0.46999998093E+01 0. -1.
</event>
<event>
 5   0  0.5299877E-04  0.1690166E+04  0.7818609E-02  0.8766993E-01
        2   -1    0    0  501    0  0.00000000000E+00  0.00000000000E+00  0.15467278260E+04  0.15467278260E+04  0.25500000920E-02 0.  1.
       -2   -1    0    0    0  501  0.00000000000E+00  0.00000000000E+00 -0.46172662415E+03  0.46172662416E+03  0.25500000920E-02 0. -1.
    10030    2    1    2    0    0  0.00000000000E+00  0.00000000000E+00  0.10850012018E+04  0.20084544502E+04  0.16901661665E+04 0.  0.
        3    1    3    3  502    0  0.40747412417E+03 -0.69787202607E+03  0.24875556678E+03  0.84554116921E+03  0.10100000352E+00 0.  1.
       -3    1    3    3    0  502 -0.40747412417E+03  0.69787202607E+03  0.83624563507E+03  0.11629132809E+04  0.10100000352E+00 0. -1.
</event>
<event>
 5   0  0.2583422E-04  0.1706668E+04  0.7818609E-02  0.8757570E-01
        1   -1    0    0  501    0  0.00000000000E+00  0.00000000000E+00  0.71953439735E+03  0.71953439736E+03  0.50400001928E-02 0. -1.
       -1   -1    0    0    0  501  0.00000000000E+00  0.00000000000E+00 -0.10120140203E+04  0.10120140203E+04  0.50400001928E-02 0.  1.
    10030    2    1    2    0    0  0.00000000000E+00  0.00000000000E+00 -0.29247962290E+03  0.17315484176E+04  0.17066679797E+04 0.  0.
        3    1    3    3  502    0 -0.43439937763E+03 -0.44967752449E+03  0.44297276008E+03  0.76624902720E+03  0.10100000352E+00 0. -1.
       -3    1    3    3    0  502  0.43439937763E+03  0.44967752449E+03 -0.73545238299E+03  0.96529939042E+03  0.10100000352E+00 0.  1.
</event>
<event>
 5   0  0.2595644E-04  0.1736503E+04  0.7818609E-02  0.8740815E-01
       -1   -1    0    0    0  501  0.00000000000E+00  0.00000000000E+00  0.72707371526E+03  0.72707371527E+03  0.50400001928E-02 0. -1.
        1   -1    0    0  501    0  0.00000000000E+00  0.00000000000E+00 -0.10368424147E+04  0.10368424148E+04  0.50400001928E-02 0.  1.
    10030    2    1    2    0    0  0.00000000000E+00  0.00000000000E+00 -0.30976869949E+03  0.17639161300E+04  0.17365032297E+04 0.  0.
        2    1    3    3  502    0  0.31400918200E+03  0.87789243422E+02  0.66252520660E+03  0.73840934923E+03  0.25500000920E-02 0. -1.
       -2    1    3    3    0  502 -0.31400918200E+03 -0.87789243422E+02 -0.97229390609E+03  0.10255067808E+04  0.25500000920E-02 0.  1.
</event>
<event>
 5   0  0.5342255E-04  0.1903409E+04  0.7818609E-02  0.8653161E-01
       -2   -1    0    0    0  501  0.00000000000E+00  0.00000000000E+00  0.10288118522E+04  0.10288118522E+04  0.25500000920E-02 0.  1.
        2   -1    0    0  501    0  0.00000000000E+00  0.00000000000E+00 -0.88037597979E+03  0.88037597980E+03  0.25500000920E-02 0. -1.
    10030    2    1    2    0    0  0.00000000000E+00  0.00000000000E+00  0.14843587243E+03  0.19091878320E+04  0.19034087763E+04 0.  0.
        5    1    3    3  502    0 -0.29687016460E+02  0.50126435180E+02 -0.87857411931E+03  0.88051607116E+03  0.46999998093E+01 0. -1.
       -5    1    3    3    0  502  0.29687016460E+02 -0.50126435180E+02  0.10270099917E+04  0.10286717609E+04  0.46999998093E+01 0.  1.
</event>
<event>
 5   0  0.5299877E-04  0.1695305E+04  0.7818609E-02  0.8764047E-01
        2   -1    0    0  501    0  0.00000000000E+00  0.00000000000E+00  0.10233533156E+04  0.10233533156E+04  0.25500000920E-02 0.  1.
       -2   -1    0    0    0  501  0.00000000000E+00  0.00000000000E+00 -0.70211785283E+03  0.70211785284E+03  0.25500000920E-02 0. -1.
    10030    2    1    2    0    0  0.00000000000E+00  0.00000000000E+00  0.32123546279E+03  0.17254711685E+04  0.16953048489E+04 0.  0.
        3    1    3    3  502    0 -0.11965596888E+03  0.62326334799E+03 -0.41128822015E+03  0.75626236325E+03  0.10100000352E+00 0. -1.
       -3    1    3    3    0  502  0.11965596888E+03 -0.62326334799E+03  0.73252368293E+03  0.96920880521E+03  0.10100000352E+00 0.  1.
</event>
<event>
 5   0  0.2630135E-04  0.1690893E+04  0.7818609E-02  0.8766576E-01
        1   -1    0    0  501    0  0.00000000000E+00  0.00000000000E+00  0.85293482127E+03  0.85293482128E+03  0.50400001928E-02 0. -1.
       -1   -1    0    0    0  501  0.00000000000E+00  0.00000000000E+00 -0.83802393843E+03  0.83802393844E+03  0.50400001928E-02 0.  1.
    10030    2    1    2    0    0  0.00000000000E+00  0.00000000000E+00  0.14910882838E+02  0.16909587597E+04  0.16908930163E+04 0.  0.
        1    1    3    3  502    0  0.10326267657E+03  0.30354492921E+03  0.78977550575E+03  0.85237788212E+03  0.50400001928E-02 0. -1.
       -1    1    3    3    0  502 -0.10326267657E+03 -0.30354492921E+03 -0.77486462291E+03  0.83858087760E+03  0.50400001928E-02 0.  1.
</event>
<event>
 5   0  0.5198430E-04  0.1822959E+04  0.7818609E-02  0.8694185E-01
        2   -1    0    0  501    0  0.00000000000E+00  0.00000000000E+00  0.71552141899E+03  0.71552141899E+03  0.25500000920E-02 0. -1.
       -2   -1    0    0    0  501  0.00000000000E+00  0.00000000000E+00 -0.11611036454E+04  0.11611036454E+04  0.25500000920E-02 0.  1.
    10030    2    1    2    0    0  0.00000000000E+00  0.00000000000E+00 -0.44558222639E+03  0.18766250644E+04  0.18229586149E+04 0.  0.
        4    1    3    3  502    0  0.74530101401E+03 -0.25486087348E+03  0.24936726698E+03  0.82620415942E+03  0.12699999809E+01 0. -1.
       -4    1    3    3    0  502 -0.74530101401E+03  0.25486087348E+03 -0.69494949337E+03  0.10504209049E+04  0.12699999809E+01 0.  1.
</event>
<event>
 5   0  0.5310003E-04  0.1696599E+04  0.7818609E-02  0.8763306E-01
       -2   -1    0    0    0  501  0.00000000000E+00  0.00000000000E+00  0.62622348683E+03  0.62622348683E+03  0.25500000920E-02 0. -1.
        2   -1    0    0  501    0  0.00000000000E+00  0.00000000000E+00 -0.11491303172E+04  0.11491303172E+04  0.25500000920E-02 0.  1.
    10030    2    1    2    0    0  0.00000000000E+00  0.00000000000E+00 -0.52290683034E+03  0.17753538040E+04  0.16965994153E+04 0.  0.
        1    1    3    3  502    0  0.32997230701E+03  0.66375171909E+03  0.17020465125E+03  0.76053776455E+03  0.50400001928E-02 0. -1.
       -1    1    3    3    0  502 -0.32997230701E+03 -0.66375171909E+03 -0.69311148159E+03  0.10148160394E+04  0.50400001928E-02 0.  1.
</event>
<event>
 5   0  0.5299877E-04  0.1697578E+04  0.7818609E-02  0.8762747E-01
        2   -1    0    0  501    0  0.00000000000E+00  0.00000000000E+00  0.80190341915E+03  0.80190341915E+03  0.25500000920E-02 0. -1.
       -2   -1    0    0    0  501  0.00000000000E+00  0.00000000000E+00 -0.89841635966E+03  0.89841635966E+03  0.25500000920E-02 0.  1.
    10030    2    1    2    0    0  0.00000000000E+00  0.00000000000E+00 -0.96512940512E+02  0.17003197788E+04  0.16975784525E+04 0.  0.
        3    1    3    3  502    0 -0.32506612561E+03 -0.54943813732E+03 -0.60852805682E+03  0.88196182395E+03  0.10100000352E+00 0.  1.
       -3    1    3    3    0  502  0.32506612561E+03  0.54943813732E+03  0.51201511631E+03  0.81835795487E+03  0.10100000352E+00 0. -1.
</event>
<event>
 5   0  0.2785059E-04  0.1437146E+04  0.7818609E-02  0.8927361E-01
       -1   -1    0    0    0  501  0.00000000000E+00  0.00000000000E+00  0.55889959041E+03  0.55889959043E+03  0.50400001928E-02 0.  1.
        1   -1    0    0  501    0  0.00000000000E+00  0.00000000000E+00 -0.92386383193E+03  0.92386383194E+03  0.50400001928E-02 0. -1.
    10030    2    1    2    0    0  0.00000000000E+00  0.00000000000E+00 -0.36496424152E+03  0.14827634224E+04  0.14371459457E+04 0.  0.
        5    1    3    3  502    0  0.65293457758E+02 -0.62272045571E+03 -0.54620733175E+03  0.83090826259E+03  0.46999998093E+01 0. -1.
       -5    1    3    3    0  502 -0.65293457758E+02  0.62272045571E+03  0.18124309023E+03  0.65185515978E+03  0.46999998093E+01 0.  1.
</event>
<event>
 5   0  0.2595644E-04  0.1739207E+04  0.7818609E-02  0.8739314E-01
       -1   -1    0    0    0  501  0.00000000000E+00  0.00000000000E+00  0.43369736306E+03  0.43369736308E+03  0.50400001928E-02 0. -1.
        1   -1    0    0  501    0  0.00000000000E+00  0.00000000000E+00 -0.17436356096E+04  0.17436356096E+04  0.50400001928E-02 0.  1.
    10030    2    1    2    0    0  0.00000000000E+00  0.00000000000E+00 -0.13099382466E+04  0.21773329727E+04  0.17392069067E+04 0.  0.
        2    1    3    3  502    0 -0.59181581993E+02 -0.75378412911E+03 -0.11927334851E+04  0.14121990439E+04  0.25500000920E-02 0.  1.
       -2    1    3    3    0  502  0.59181581993E+02  0.75378412911E+03 -0.11720476143E+03  0.76513392883E+03  0.25500000920E-02 0. -1.
</event>
<event>
 5   0  0.2630135E-04  0.1740954E+04  0.7818609E-02  0.8738345E-01
       -1   -1    0    0    0  501  0.00000000000E+00  0.00000000000E+00  0.10630727192E+04  0.10630727192E+04  0.50400001928E-02 0. -1.
        1   -1    0    0  501    0  0.00000000000E+00  0.00000000000E+00 -0.71277364132E+03  0.71277364134E+03  0.50400001928E-02 0.  1.
    10030    2    1    2    0    0  0.00000000000E+00  0.00000000000E+00  0.35029907784E+03  0.17758463605E+04  0.17409540063E+04 0.  0.
        1    1    3    3  502    0 -0.49722935935E+02  0.58799479287E+03  0.82791269285E+03  0.10166856318E+04  0.50400001928E-02 0. -1.
       -1    1    3    3    0  502  0.49722935935E+02 -0.58799479287E+03 -0.47761361502E+03  0.75916072875E+03  0.50400001928E-02 0.  1.
</event>
<event>
 5   0  0.5021349E-04  0.1697199E+04  0.7818609E-02  0.8762963E-01
       -2   -1    0    0    0  501  0.00000000000E+00  0.00000000000E+00  0.55001922126E+03  0.55001922126E+03  0.25500000920E-02 0.  1.
        2   -1    0    0  501    0  0.00000000000E+00  0.00000000000E+00 -0.13092659644E+04  0.13092659644E+04  0.25500000920E-02 0. -1.
    10030    2    1    2    0    0  0.00000000000E+00  0.00000000000E+00 -0.75924674314E+03  0.18592851857E+04  0.16971993945E+04 0.  0.
        2    1    3    3  502    0  0.23674205674E+03  0.70172503176E+03  0.74259114450E+02  0.74429781521E+03  0.25500000920E-02 0.  1.
       -2    1    3    3    0  502 -0.23674205674E+03 -0.70172503176E+03 -0.83350585759E+03  0.11149873705E+04  0.25500000920E-02 0. -1.
</event>
<event>
 5   0  0.5198430E-04  0.1607672E+04  0.7818609E-02  0.8815849E-01
        2   -1    0    0  501    0  0.00000000000E+00  0.00000000000E+00  0.86852921461E+03  0.86852921461E+03  0.25500000920E-02 0.  1.
       -2   -1    0    0    0  501  0.00000000000E+00  0.00000000000E+00 -0.74396157586E+03  0.74396157587E+03  0.25500000920E-02 0. -1.
    10030    2    1    2    0    0  0.00000000000E+00  0.00000000000E+00  0.12456763875E+03  0.16124907905E+04  0.16076720601E+04 0.  0.
        4    1    3    3  502    0  0.17356368369E+03 -0.13185585829E+03  0.83832148576E+03  0.86619561651E+03  0.12699999809E+01 0.  1.
       -4    1    3    3    0  502 -0.17356368369E+03  0.13185585829E+03 -0.71375384702E+03  0.74629517397E+03  0.12699999809E+01 0. -1.
</event>
<event>
 5   0  0.2595644E-04  0.1615965E+04  0.7818609E-02  0.8810800E-01
        1   -1    0    0  501    0  0.00000000000E+00  0.00000000000E+00  0.75103510833E+03  0.75103510835E+03  0.50400001928E-02 0.  1.
       -1   -1    0    0    0  501  0.00000000000E+00  0.00000000000E+00 -0.86924750767E+03  0.86924750769E+03  0.50400001928E-02 0. -1.
    10030    2    1    2    0    0  0.00000000000E+00  0.00000000000E+00 -0.11821239934E+03  0.16202826160E+04  0.16159645988E+04 0.  0.
        2    1    3    3  502    0  0.56131688484E+03 -0.48135847891E+03 -0.38563382466E+03  0.83396407426E+03  0.25500000920E-02 0. -1.
       -2    1    3    3    0  502 -0.56131688484E+03  0.48135847891E+03  0.26742142533E+03  0.78631854178E+03  0.25500000920E-02 0.  1.
</event>
<event>
 5   0  0.2785059E-04  0.1765606E+04  0.7818609E-02  0.8724806E-01
        1   -1    0    0  501    0  0.00000000000E+00  0.00000000000E+00  0.19053012054E+04  0.19053012054E+04  0.50400001928E-02 0. -1.
       -1   -1    0    0    0  501  0.00000000000E+00  0.00000000000E+00 -0.40903847046E+03  0.40903847049E+03  0.50400001928E-02 0.  1.
    10030    2    1    2    0    0  0.00000000000E+00  0.00000000000E+00  0.14962627350E+04  0.23143396759E+04  0.17656064011E+04 0.  0.
        5    1    3    3  502    0 -0.32860695880E+03  0.79176381740E+03  0.47178480541E+03  0.97850675446E+03  0.46999998093E+01 0. -1.
       -5    1    3    3    0  502  0.32860695880E+03 -0.79176381740E+03  0.10244779296E+04  0.13358329215E+04  0.46999998093E+01 0.  1.
</event>
<event>
 5   0  0.2595644E-04  0.1694609E+04  0.7818609E-02  0.8764445E-01
        1   -1    0    0  501    0  0.00000000000E+00  0.00000000000E+00  0.18172164058E+04  0.18172164058E+04  0.50400001928E-02 0. -1.
       -1   -1    0    0    0  501  0.00000000000E+00  0.00000000000E+00 -0.39506856076E+03  0.39506856079E+03  0.50400001928E-02 0.  1.
    10030    2    1    2    0    0  0.00000000000E+00  0.00000000000E+00  0.14221478451E+04  0.22122849666E+04  0.16946091822E+04 0.  0.
        2    1    3    3  502    0  0.12747294865E+03  0.50493962228E+03 -0.16146573339E+03  0.54523807447E+03  0.25500000920E-02 0.  1.
       -2    1    3    3    0  502 -0.12747294865E+03 -0.50493962228E+03  0.15836135785E+04  0.16670468922E+04  0.25500000920E-02 0. -1.
</event>
<event>
 5   0  0.1910750E-04  0.1752372E+04  0.7818609E-02  0.8732046E-01
       -3   -1    0    0    0  501  0.00000000000E+00  0.00000000000E+00  0.58257237623E+03  0.58257238499E+03  0.10100000352E+00 0.  1.
        3   -1    0    0  501    0  0.00000000000E+00  0.00000000000E+00 -0.13177797352E+04  0.13177797390E+04  0.10100000352E+00 0. -1.
    10030    2    1    2    0    0  0.00000000000E+00  0.00000000000E+00 -0.73520735894E+03  0.19003521240E+04  0.17523722021E+04 0.  0.
        1    1    3    3  502    0 -0.37132844959E+03 -0.68408359138E+03  0.68670917760E+02  0.78139034576E+03  0.50400001928E-02 0.  1.
       -1    1    3    3    0  502  0.37132844959E+03  0.68408359138E+03 -0.80387827670E+03  0.11189617783E+04  0.50400001928E-02 0. -1.
</event>
<event>
 5   0  0.5021349E-04  0.1614887E+04  0.7818609E-02  0.8811454E-01
       -2   -1    0    0    0  501  0.00000000000E+00  0.00000000000E+00  0.96698890930E+03  0.96698890930E+03  0.25500000920E-02 0. -1.
        2   -1    0    0  501    0  0.00000000000E+00  0.00000000000E+00 -0.67422193137E+03  0.67422193138E+03  0.25500000920E-02 0.  1.
    10030    2    1    2    0    0  0.00000000000E+00  0.00000000000E+00  0.29276697793E+03  0.16412108407E+04  0.16148871540E+04 0.  0.
        2    1    3    3  502    0  0.76786132948E+03 -0.10367965722E+03 -0.84486011114E+02  0.77942182335E+03  0.25500000920E-02 0.  1.
       -2    1    3    3    0  502 -0.76786132948E+03  0.10367965722E+03  0.37725298904E+03  0.86178901732E+03  0.25500000920E-02 0. -1.
</event>
<event>
 5   0  0.5299877E-04  0.1702644E+04  0.7818609E-02  0.8759858E-01
       -2   -1    0    0    0  501  0.00000000000E+00  0.00000000000E+00  0.46729668067E+03  0.46729668068E+03  0.25500000920E-02 0.  1.
        2   -1    0    0  501    0  0.00000000000E+00  0.00000000000E+00 -0.15509409820E+04  0.15509409820E+04  0.25500000920E-02 0. -1.
    10030    2    1    2    0    0  0.00000000000E+00  0.00000000000E+00 -0.10836443013E+04  0.20182376627E+04  0.17026444994E+04 0.  0.
        3    1    3    3  502    0 -0.62304419276E+03 -0.12976816651E+03  0.12842829792E+03  0.64924393033E+03  0.10100000352E+00 0.  1.
       -3    1    3    3    0  502  0.62304419276E+03  0.12976816651E+03 -0.12120725993E+04  0.13689937324E+04  0.10100000352E+00 0. -1.
</event>
<event>
 5   0  0.5021349E-04  0.1691161E+04  0.7818609E-02  0.8766422E-01
        2   -1    0    0  501    0  0.00000000000E+00  0.00000000000E+00  0.12833982994E+04  0.12833982994E+04  0.25500000920E-02 0.  1.
       -2   -1    0    0    0  501  0.00000000000E+00  0.00000000000E+00 -0.55711947287E+03  0.55711947287E+03  0.25500000920E-02 0. -1.
    10030    2    1    2    0    0  0.00000000000E+00  0.00000000000E+00  0.72627882655E+03  0.18405177723E+04  0.16911607659E+04 0.  0.
        2    1    3    3  502    0  0.65799610571E+03 -0.52092993955E+03  0.25067201299E+03  0.87587860755E+03  0.25500000920E-02 0.  1.
       -2    1    3    3    0  502 -0.65799610571E+03  0.52092993955E+03  0.47560681356E+03  0.96463916474E+03  0.25500000920E-02 0. -1.
</event>
<event>
 5   0  0.2583422E-04  0.1676487E+04  0.7818609E-02  0.8774889E-01
        1   -1    0    0  501    0  0.00000000000E+00  0.00000000000E+00  0.83289839455E+03  0.83289839456E+03  0.50400001928E-02 0. -1.
       -1   -1    0    0    0  501  0.00000000000E+00  0.00000000000E+00 -0.84362311816E+03  0.84362311818E+03  0.50400001928E-02 0.  1.
    10030    2    1    2    0    0  0.00000000000E+00  0.00000000000E+00 -0.10724723615E+02  0.16765215127E+04  0.16764872093E+04 0.  0.
        3    1    3    3  502    0  0.56719234727E+03  0.35505403061E+03 -0.51023089690E+03  0.84149040506E+03  0.10100000352E+00 0.  1.
       -3    1    3    3    0  502 -0.56719234727E+03 -0.35505403061E+03  0.49950617329E+03  0.83503110768E+03  0.10100000352E+00 0. -1.
</event>
<event>
 5   0  0.2785059E-04  0.1704895E+04  0.7818609E-02  0.8758577E-01
        1   -1    0    0  501    0  0.00000000000E+00  0.00000000000E+00  0.14196808391E+04  0.14196808391E+04  0.50400001928E-02 0.  1.
       -1   -1    0    0    0  501  0.00000000000E+00  0.00000000000E+00 -0.51185228070E+03  0.51185228072E+03  0.50400001928E-02 0. -1.
    10030    2    1    2    0    0  0.00000000000E+00  0.00000000000E+00  0.90782855838E+03  0.19315331198E+04  0.17048951585E+04 0.  0.
        5    1    3    3  502    0 -0.72522605412E+03 -0.34747477287E+03  0.13356591525E+03  0.81520150335E+03  0.46999998093E+01 0. -1.
       -5    1    3    3    0  502  0.72522605412E+03  0.34747477287E+03  0.77426264313E+03  0.11163316165E+04  0.46999998093E+01 0.  1.
</event>
<event>
 5   0  0.5342255E-04  0.1692381E+04  0.7818609E-02  0.8765722E-01
       -2   -1    0    0    0  501  0.00000000000E+00  0.00000000000E+00  0.11179741967E+04  0.11179741967E+04  0.25500000920E-02 0. -1.
        2   -1    0    0  501    0  0.00000000000E+00  0.00000000000E+00 -0.64047842137E+03  0.64047842138E+03  0.25500000920E-02 0.  1.
    10030    2    1    2    0    0  0.00000000000E+00  0.00000000000E+00  0.47749577529E+03  0.17584526180E+04  0.16923809838E+04 0.  0.
        5    1    3    3  502    0 -0.53458623221E+03 -0.29822240241E+03 -0.36826639202E+03  0.71439573519E+03  0.46999998093E+01 0. -1.
       -5    1    3    3    0  502  0.53458623221E+03  0.29822240241E+03  0.84576216731E+03  0.10440568828E+04  0.46999998093E+01 0.  1.
</event>
<event>
 5   0  0.2785059E-04  0.1696642E+04  0.7818609E-02  0.8763282E-01
       -1   -1    0    0    0  501  0.00000000000E+00  0.00000000000E+00  0.44989321352E+03  0.44989321355E+03  0.50400001928E-02 0. -1.
        1   -1    0    0  501    0  0.00000000000E+00  0.00000000000E+00 -0.15995977475E+04  0.15995977476E+04  0.50400001928E-02 0.  1.
    10030    2    1    2    0    0  0.00000000000E+00  0.00000000000E+00 -0.11497045340E+04  0.20494909611E+04  0.16966415898E+04 0.  0.
        5    1    3    3  502    0 -0.34630854816E+03  0.81778562300E+02  0.35536938654E+03  0.50291831809E+03  0.46999998093E+01 0. -1.
       -5    1    3    3    0  502  0.34630854816E+03 -0.81778562300E+02 -0.15050739206E+04  0.15465726430E+04  0.46999998093E+01 0.  1.
</event>
<event>
 5   0  0.2595644E-04  0.1689753E+04  0.7818609E-02  0.8767230E-01
       -1   -1    0    0    0  501  0.00000000000E+00  0.00000000000E+00  0.13233256100E+04  0.13233256100E+04  0.50400001928E-02 0. -1.
        1   -1    0    0  501    0  0.00000000000E+00  0.00000000000E+00 -0.53941089371E+03  0.53941089373E+03  0.50400001928E-02 0.  1.
    10030    2    1    2    0    0  0.00000000000E+00  0.00000000000E+00  0.78391471630E+03  0.18627365038E+04  0.16897529405E+04 0.  0.
        2    1    3    3  502    0 -0.62480456670E+03 -0.52565032521E+03  0.15264550317E+03  0.83065616269E+03  0.25500000920E-02 0.  1.
       -2    1    3    3    0  502  0.62480456670E+03  0.52565032521E+03  0.63126921312E+03  0.10320803411E+04  0.25500000920E-02 0. -1.
</event>
<event>
 5   0  0.5342255E-04  0.1704383E+04  0.7818609E-02  0.8758868E-01
        2   -1    0    0  501    0  0.00000000000E+00  0.00000000000E+00  0.69741221209E+03  0.69741221209E+03  0.25500000920E-02 0. -1.
       -2   -1    0    0    0  501  0.00000000000E+00  0.00000000000E+00 -0.10413219664E+04  0.10413219664E+04  0.25500000920E-02 0.  1.
    10030    2    1    2    0    0  0.00000000000E+00  0.00000000000E+00 -0.34390975428E+03  0.17387341785E+04  0.17043833560E+04 0.  0.
        5    1    3    3  502    0 -0.36456656539E+02  0.17977903167E+03  0.67701892428E+03  0.70144586524E+03  0.46999998093E+01 0. -1.
       -5    1    3    3    0  502  0.36456656539E+02 -0.17977903167E+03 -0.10209286786E+04  0.10372883132E+04  0.46999998093E+01 0.  1.
</event>
<event>
 5   0  0.2630135E-04  0.1542483E+04  0.7818609E-02  0.8856684E-01
        1   -1    0    0  501    0  0.00000000000E+00  0.00000000000E+00  0.12409396035E+04  0.12409396036E+04  0.50400001928E-02 0. -1.
       -1   -1    0    0    0  501  0.00000000000E+00  0.00000000000E+00 -0.47932489068E+03  0.47932489070E+03  0.50400001928E-02 0.  1.
    10030    2    1    2    0    0  0.00000000000E+00  0.00000000000E+00  0.76161471287E+03  0.17202644943E+04  0.15424827258E+04 0.  0.
        1    1    3    3  502    0 -0.56477216447E+02 -0.10166141660E+03 -0.46948992342E+03  0.48367913727E+03  0.50400001928E-02 0.  1.
       -1    1    3    3    0  502  0.56477216447E+02  0.10166141660E+03  0.12311046363E+04  0.12365853570E+04  0.50400001928E-02 0. -1.
</event>
<event>
 5   0  0.5299877E-04  0.1705130E+04  0.7818609E-02  0.8758444E-01
        2   -1    0    0  501    0  0.00000000000E+00  0.00000000000E+00  0.80098174788E+03  0.80098174788E+03  0.25500000920E-02 0. -1.
       -2   -1    0    0    0  501  0.00000000000E+00  0.00000000000E+00 -0.90747051371E+03  0.90747051371E+03  0.25500000920E-02 0.  1.
    10030    2    1    2    0    0  0.00000000000E+00  0.00000000000E+00 -0.10648876583E+03  0.17084522616E+04  0.17051302803E+04 0.  0.
        3    1    3    3  502    0  0.44202114081E+03 -0.68193118740E+02  0.67400323877E+03  0.80889638795E+03  0.10100000352E+00 0. -1.
       -3    1    3    3    0  502 -0.44202114081E+03  0.68193118740E+02 -0.78049200460E+03  0.89955587365E+03  0.10100000352E+00 0.  1.
</event>
<event>
 5   0  0.5198430E-04  0.1762882E+04  0.7818609E-02  0.8726291E-01
       -2   -1    0    0    0  501  0.00000000000E+00  0.00000000000E+00  0.49229032588E+03  0.49229032588E+03  0.25500000920E-02 0. -1.
        2   -1    0    0  501    0  0.00000000000E+00  0.00000000000E+00 -0.15782113130E+04  0.15782113130E+04  0.25500000920E-02 0.  1.
    10030    2    1    2    0    0  0.00000000000E+00  0.00000000000E+00 -0.10859209871E+04  0.20705016389E+04  0.17628819150E+04 0.  0.
        4    1    3    3  502    0 -0.75949373121E+03  0.40710946779E+03 -0.32522581513E+03  0.92105498762E+03  0.12699999809E+01 0. -1.
       -4    1    3    3    0  502  0.75949373121E+03 -0.40710946779E+03 -0.76069517201E+03  0.11494466513E+04  0.12699999809E+01 0.  1.
</event>
<event>
 5   0  0.5299877E-04  0.1685168E+04  0.7818609E-02  0.8769869E-01
       -2   -1    0    0    0  501  0.00000000000E+00  0.00000000000E+00  0.44873692669E+03  0.44873692670E+03  0.25500000920E-02 0.  1.
        2   -1    0    0  501    0  0.00000000000E+00  0.00000000000E+00 -0.15821024553E+04  0.15821024553E+04  0.25500000920E-02 0. -1.
    10030    2    1    2    0    0  0.00000000000E+00  0.00000000000E+00 -0.11333655286E+04  0.20308393820E+04  0.16851679958E+04 0.  0.
        3    1    3    3  502    0 -0.71550185813E+03  0.28650929798E+03 -0.15637806038E+03  0.78643791540E+03  0.10100000352E+00 0.  1.
       -3    1    3    3    0  502  0.71550185813E+03 -0.28650929798E+03 -0.97698746825E+03  0.12444014666E+04  0.10100000352E+00 0. -1.
</event>
<event>
 5   0  0.2595644E-04  0.1704825E+04  0.7818609E-02  0.8758617E-01
        1   -1    0    0  501    0  0.00000000000E+00  0.00000000000E+00  0.13354871472E+04  0.13354871472E+04  0.50400001928E-02 0. -1.
       -1   -1    0    0    0  501  0.00000000000E+00  0.00000000000E+00 -0.54407657804E+03  0.54407657807E+03  0.50400001928E-02 0.  1.
    10030    2    1    2    0    0  0.00000000000E+00  0.00000000000E+00  0.79141056911E+03  0.18795637252E+04  0.17048252427E+04 0.  0.
        2    1    3    3  502    0  0.83415520221E+03 -0.12215491174E+03  0.25681456732E+03  0.88130042881E+03  0.25500000920E-02 0. -1.
       -2    1    3    3    0  502 -0.83415520221E+03  0.12215491174E+03  0.53459600179E+03  0.99826329642E+03  0.25500000920E-02 0.  1.
</event>
<event>
 5   0  0.5198430E-04  0.1654241E+04  0.7818609E-02  0.8787902E-01
        2   -1    0    0  501    0  0.00000000000E+00  0.00000000000E+00  0.16867857546E+04  0.16867857546E+04  0.25500000920E-02 0.  1.
       -2   -1    0    0    0  501  0.00000000000E+00  0.00000000000E+00 -0.40558102725E+03  0.40558102726E+03  0.25500000920E-02 0. -1.
    10030    2    1    2    0    0  0.00000000000E+00  0.00000000000E+00  0.12812047273E+04  0.20923667818E+04  0.16542409729E+04 0.  0.
        4    1    3    3  502    0  0.71979284229E+03 -0.26139418318E+03  0.24525217569E+03  0.80410129796E+03  0.12699999809E+01 0. -1.
       -4    1    3    3    0  502 -0.71979284229E+03  0.26139418318E+03  0.10359525516E+04  0.12882654839E+04  0.12699999809E+01 0.  1.
</event>
<event>
 5   0  0.2785059E-04  0.1697120E+04  0.7818609E-02  0.8763008E-01
        1   -1    0    0  501    0  0.00000000000E+00  0.00000000000E+00  0.94241281667E+03  0.94241281668E+03  0.50400001928E-02 0. -1.
       -1   -1    0    0    0  501  0.00000000000E+00  0.00000000000E+00 -0.76405405468E+03  0.76405405470E+03  0.50400001928E-02 0.  1.
    10030    2    1    2    0    0  0.00000000000E+00  0.00000000000E+00  0.17835876199E+03  0.17064668714E+04  0.16971203066E+04 0.  0.
        5    1    3    3  502    0  0.68102140203E+03 -0.22621813038E+03 -0.36615830731E+03  0.80564184881E+03  0.46999998093E+01 0.  1.
       -5    1    3    3    0  502 -0.68102140203E+03  0.22621813038E+03  0.54451706930E+03  0.90082502257E+03  0.46999998093E+01 0. -1.
</event>
<event>
 5   0  0.1910750E-04  0.1705329E+04  0.7818609E-02  0.8758331E-01
        4   -1    0    0  501    0  0.00000000000E+00  0.00000000000E+00  0.76112960184E+03  0.76113066138E+03  0.12699999809E+01 0. -1.
       -4   -1    0    0    0  501  0.00000000000E+00  0.00000000000E+00 -0.95520580844E+03  0.95520665271E+03  0.12699999809E+01 0.  1.
    10030    2    1    2    0    0  0.00000000000E+00  0.00000000000E+00 -0.19407620660E+03  0.17163373141E+04  0.17053293529E+04 0.  0.
        5    1    3    3  502    0 -0.59387542195E+03 -0.44214056908E+03 -0.52266109648E+03  0.90629631545E+03  0.46999998093E+01 0. -1.
       -5    1    3    3    0  502  0.59387542195E+03  0.44214056908E+03  0.32858488987E+03  0.81004099864E+03  0.46999998093E+01 0.  1.
</event>
<event>
 5   0  0.1910750E-04  0.1684970E+04  0.7818609E-02  0.8769983E-01
       -3   -1    0    0    0  501  0.00000000000E+00  0.00000000000E+00  0.29655582387E+03  0.29655584107E+03  0.10100000352E+00 0.  1.
        3   -1    0    0  501    0  0.00000000000E+00  0.00000000000E+00 -0.23934133992E+04  0.23934134014E+04  0.10100000352E+00 0. -1.
    10030    2    1    2    0    0  0.00000000000E+00  0.00000000000E+00 -0.20968575754E+04  0.26899692424E+04  0.16849696834E+04 0.  0.
        4    1    3    3  502    0  0.67457987509E+03 -0.49170502779E+03 -0.12300824031E+04  0.14865854074E+04  0.12699999809E+01 0.  1.
       -4    1    3    3    0  502 -0.67457987509E+03  0.49170502779E+03 -0.86677517231E+03  0.12033838351E+04  0.12699999809E+01 0. -1.
</event>
<event>
 5   0  0.2595644E-04  0.1705273E+04  0.7818609E-02  0.8758363E-01
        1   -1    0    0  501    0  0.00000000000E+00  0.00000000000E+00  0.26802281953E+04  0.26802281953E+04  0.50400001928E-02 0.  1.
       -1   -1    0    0    0  501  0.00000000000E+00  0.00000000000E+00 -0.27124138489E+03  0.27124138493E+03  0.50400001928E-02 0. -1.
    10030    2    1    2    0    0  0.00000000000E+00  0.00000000000E+00  0.24089868104E+04  0.29514695803E+04  0.17052727730E+04 0.  0.
        2    1    3    3  502    0 -0.77218497956E+03  0.35016699203E+02  0.58166617412E+03  0.96738376563E+03  0.25500000920E-02 0. -1.
       -2    1    3    3    0  502  0.77218497956E+03 -0.35016699203E+02  0.18273206363E+04  0.19840858146E+04  0.25500000920E-02 0.  1.
</event>
<event>
 5   0  0.2583422E-04  0.1695719E+04  0.7818609E-02  0.8763810E-01
       -1   -1    0    0    0  501  0.00000000000E+00  0.00000000000E+00  0.38171170488E+03  0.38171170491E+03  0.50400001928E-02 0. -1.
        1   -1    0    0  501    0  0.00000000000E+00  0.00000000000E+00 -0.18832691003E+04  0.18832691003E+04  0.50400001928E-02 0.  1.
    10030    2    1    2    0    0  0.00000000000E+00  0.00000000000E+00 -0.15015573954E+04  0.22649808052E+04  0.16957191502E+04 0.  0.
        3    1    3    3  502    0  0.60789981872E+03  0.48744886820E+03 -0.11972265511E+04  0.14284607148E+04  0.10100000352E+00 0.  1.
       -3    1    3    3    0  502 -0.60789981872E+03 -0.48744886820E+03 -0.30433084426E+03  0.83652009042E+03  0.10100000352E+00 0. -1.
</event>
<event>
 5   0  0.2785059E-04  0.1692497E+04  0.7818609E-02  0.8765655E-01
        1   -1    0    0  501    0  0.00000000000E+00  0.00000000000E+00  0.13175189086E+04  0.13175189086E+04  0.50400001928E-02 0. -1.
       -1   -1    0    0    0  501  0.00000000000E+00  0.00000000000E+00 -0.54354905688E+03  0.54354905690E+03  0.50400001928E-02 0.  1.
    10030    2    1    2    0    0  0.00000000000E+00  0.00000000000E+00  0.77396985170E+03  0.18610679655E+04  0.16924965704E+04 0.  0.
        5    1    3    3  502    0  0.82283323080E+03 -0.48801327677E+02  0.17639523311E+03  0.84295519665E+03  0.46999998093E+01 0.  1.
       -5    1    3    3    0  502 -0.82283323080E+03  0.48801327677E+02  0.59757461860E+03  0.10181127688E+04  0.46999998093E+01 0. -1.
</event>
<event>
 5   0  0.5342255E-04  0.1696658E+04  0.7818609E-02  0.8763273E-01
        2   -1    0    0  501    0  0.00000000000E+00  0.00000000000E+00  0.12985914174E+04  0.12985914174E+04  0.25500000920E-02 0. -1.
       -2   -1    0    0    0  501  0.00000000000E+00  0.00000000000E+00 -0.55418666119E+03  0.55418666119E+03  0.25500000920E-02 0.  1.
    10030    2    1    2    0    0  0.00000000000E+00  0.00000000000E+00  0.74440475622E+03  0.18527780786E+04  0.16966579406E+04 0.  0.
        5    1    3    3  502    0  0.77086407949E+03  0.31908755255E+03  0.20447331201E+03  0.85899925528E+03  0.46999998093E+01 0.  1.
       -5    1    3    3    0  502 -0.77086407949E+03 -0.31908755255E+03  0.53993144421E+03  0.99377882333E+03  0.46999998093E+01 0. -1.
</event>
<event>
 5   0  0.2630135E-04  0.1675997E+04  0.7818609E-02  0.8775174E-01
       -1   -1    0    0    0  501  0.00000000000E+00  0.00000000000E+00  0.51776250525E+03  0.51776250528E+03  0.50400001928E-02 0. -1.
        1   -1    0    0  501    0  0.00000000000E+00  0.00000000000E+00 -0.13562998591E+04  0.13562998591E+04  0.50400001928E-02 0.  1.
    10030    2    1    2    0    0  0.00000000000E+00  0.00000000000E+00 -0.83853735387E+03  0.18740623644E+04  0.16759966742E+04 0.  0.
        1    1    3    3  502    0  0.47460858641E+03 -0.13034567016E+02 -0.11913929558E+04  0.12825133081E+04  0.50400001928E-02 0.  1.
       -1    1    3    3    0  502 -0.47460858641E+03  0.13034567016E+02  0.35285560192E+03  0.59154905635E+03  0.50400001928E-02 0. -1.
</event>
<event>
 5   0  0.2785059E-04  0.1696801E+04  0.7818609E-02  0.8763191E-01
       -1   -1    0    0    0  501  0.00000000000E+00  0.00000000000E+00  0.77349467981E+03  0.77349467983E+03  0.50400001928E-02 0. -1.
        1   -1    0    0  501    0  0.00000000000E+00  0.00000000000E+00 -0.93056006105E+03  0.93056006106E+03  0.50400001928E-02 0.  1.
    10030    2    1    2    0    0  0.00000000000E+00  0.00000000000E+00 -0.15706538124E+03  0.17040547409E+04  0.16968008209E+04 0.  0.
        5    1    3    3  502    0  0.17258265871E+03 -0.18601567756E+03 -0.89154564549E+03  0.92696404158E+03  0.46999998093E+01 0.  1.
       -5    1    3    3    0  502 -0.17258265871E+03  0.18601567756E+03  0.73448026425E+03  0.77709069931E+03  0.46999998093E+01 0. -1.
</event>
<event>
 5   0  0.2561518E-04  0.1706403E+04  0.7818609E-02  0.8757721E-01
        1   -1    0    0  501    0  0.00000000000E+00  0.00000000000E+00  0.89755158782E+03  0.89755158783E+03  0.50400001928E-02 0. -1.
       -1   -1    0    0    0  501  0.00000000000E+00  0.00000000000E+00 -0.81104301933E+03  0.81104301935E+03  0.50400001928E-02 0.  1.
    10030    2    1    2    0    0  0.00000000000E+00  0.00000000000E+00  0.86508568485E+02  0.17085946072E+04  0.17064031761E+04 0.  0.
        4    1    3    3  502    0  0.22139971938E+03 -0.12892247972E+03 -0.77161670190E+03  0.81303922972E+03  0.12699999809E+01 0.  1.
       -4    1    3    3    0  502 -0.22139971938E+03  0.12892247972E+03  0.85812527038E+03  0.89555537745E+03  0.12699999809E+01 0. -1.
</event>
<event>
 5   0  0.2595644E-04  0.1666675E+04  0.7818609E-02  0.8780603E-01
       -1   -1    0    0    0  501  0.00000000000E+00  0.00000000000E+00  0.13403823499E+04  0.13403823499E+04  0.50400001928E-02 0. -1.
        1   -1    0    0  501    0  0.00000000000E+00  0.00000000000E+00 -0.51809923210E+03  0.51809923213E+03  0.50400001928E-02 0.  1.
    10030    2    1    2    0    0  0.00000000000E+00  0.00000000000E+00  0.82228311779E+03  0.18584815820E+04  0.16666746128E+04 0.  0.
        2    1    3    3  502    0  0.64494770120E+03 -0.90331718842E+02  0.99091396725E+03  0.11857604510E+04  0.25500000920E-02 0. -1.
       -2    1    3    3    0  502 -0.64494770120E+03  0.90331718842E+02 -0.16863084946E+03  0.67272113101E+03  0.25500000920E-02 0.  1.
</event>
<event>
 5   0  0.5021349E-04  0.1700955E+04  0.7818609E-02  0.8760820E-01
       -2   -1    0    0    0  501  0.00000000000E+00  0.00000000000E+00  0.29861060160E+03  0.29861060161E+03  0.25500000920E-02 0.  1.
        2   -1    0    0  501    0  0.00000000000E+00  0.00000000000E+00 -0.24222589364E+04  0.24222589364E+04  0.25500000920E-02 0. -1.
    10030    2    1    2    0    0  0.00000000000E+00  0.00000000000E+00 -0.21236483348E+04  0.27208695380E+04  0.17009552590E+04 0.  0.
        2    1    3    3  502    0 -0.80498894419E+02  0.54819418149E+03 -0.20939341918E+04  0.21660003075E+04  0.25500000920E-02 0. -1.
       -2    1    3    3    0  502  0.80498894419E+02 -0.54819418149E+03 -0.29714142988E+02  0.55486923047E+03  0.25500000920E-02 0.  1.
</event>
<event>
 5   0  0.5299877E-04  0.1721040E+04  0.7818609E-02  0.8749455E-01
       -2   -1    0    0    0  501  0.00000000000E+00  0.00000000000E+00  0.79895801706E+03  0.79895801706E+03  0.25500000920E-02 0.  1.
        2   -1    0    0  501    0  0.00000000000E+00  0.00000000000E+00 -0.92682521377E+03  0.92682521378E+03  0.25500000920E-02 0. -1.
    10030    2    1    2    0    0  0.00000000000E+00  0.00000000000E+00 -0.12786719672E+03  0.17257832308E+04  0.17210397264E+04 0.  0.
        3    1    3    3  502    0  0.29716701491E+03 -0.40788044806E+03  0.63499518133E+03  0.81110639572E+03  0.10100000352E+00 0.  1.
       -3    1    3    3    0  502 -0.29716701491E+03  0.40788044806E+03 -0.76286237805E+03  0.91467683512E+03  0.10100000352E+00 0. -1.
</event>
<event>
 5   0  0.5198430E-04  0.1723664E+04  0.7818609E-02  0.8747982E-01
       -2   -1    0    0    0  501  0.00000000000E+00  0.00000000000E+00  0.79618189803E+03  0.79618189804E+03  0.25500000920E-02 0. -1.
        2   -1    0    0  501    0  0.00000000000E+00  0.00000000000E+00 -0.93289497097E+03  0.93289497098E+03  0.25500000920E-02 0.  1.
    10030    2    1    2    0    0  0.00000000000E+00  0.00000000000E+00 -0.13671307294E+03  0.17290768690E+04  0.17236636431E+04 0.  0.
        4    1    3    3  502    0  0.68792259682E+03  0.47331254873E+03  0.14559762592E+03  0.84762170193E+03  0.12699999809E+01 0.  1.
       -4    1    3    3    0  502 -0.68792259682E+03 -0.47331254873E+03 -0.28231069886E+03  0.88145516709E+03  0.12699999809E+01 0. -1.
</event>
<event>
 5   0  0.2583422E-04  0.1670145E+04  0.7818609E-02  0.8778577E-01
        1   -1    0    0  501    0  0.00000000000E+00  0.00000000000E+00  0.14091130442E+04  0.14091130442E+04  0.50400001928E-02 0.  1.
       -1   -1    0    0    0  501  0.00000000000E+00  0.00000000000E+00 -0.49488316001E+03  0.49488316003E+03  0.50400001928E-02 0. -1.
    10030    2    1    2    0    0  0.00000000000E+00  0.00000000000E+00  0.91422988416E+03  0.19039962042E+04  0.16701452825E+04 0.  0.
        3    1    3    3  502    0 -0.13821265830E+03 -0.68026261001E+03  0.98631722374E+03  0.12061018338E+04  0.10100000352E+00 0.  1.
       -3    1    3    3    0  502  0.13821265830E+03  0.68026261001E+03 -0.72087339581E+02  0.69789437039E+03  0.10100000352E+00 0. -1.
</event>
<event>
 5   0  0.5310003E-04  0.1695799E+04  0.7818609E-02  0.8763764E-01
       -2   -1    0    0    0  501  0.00000000000E+00  0.00000000000E+00  0.14431387367E+04  0.14431387367E+04  0.25500000920E-02 0.  1.
        2   -1    0    0  501    0  0.00000000000E+00  0.00000000000E+00 -0.49817368869E+03  0.49817368869E+03  0.25500000920E-02 0. -1.
    10030    2    1    2    0    0  0.00000000000E+00  0.00000000000E+00  0.94496504802E+03  0.19413124254E+04  0.16957992190E+04 0.  0.
        1    1    3    3  502    0  0.83167583479E+03 -0.13716556686E+03  0.36734570935E+03  0.91947917710E+03  0.50400001928E-02 0. -1.
       -1    1    3    3    0  502 -0.83167583479E+03  0.13716556686E+03  0.57761933867E+03  0.10218332483E+04  0.50400001928E-02 0.  1.
</event>
<event>
 5   0  0.5342255E-04  0.1704515E+04  0.7818609E-02  0.8758793E-01
        2   -1    0    0  501    0  0.00000000000E+00  0.00000000000E+00  0.12668278117E+04  0.12668278117E+04  0.25500000920E-02 0. -1.
       -2   -1    0    0    0  501  0.00000000000E+00  0.00000000000E+00 -0.57335559191E+03  0.57335559191E+03  0.25500000920E-02 0.  1.
    10030    2    1    2    0    0  0.00000000000E+00  0.00000000000E+00  0.69347221982E+03  0.18401834036E+04  0.17045149572E+04 0.  0.
        5    1    3    3  502    0 -0.51265385390E+03 -0.26587890332E+03  0.10233710345E+04  0.11750812438E+04  0.46999998093E+01 0. -1.
       -5    1    3    3    0  502  0.51265385390E+03  0.26587890332E+03 -0.32989881469E+03  0.66510215989E+03  0.46999998093E+01 0.  1.
</event>
<event>
 5   0  0.2561518E-04  0.1709185E+04  0.7818609E-02  0.8756143E-01
        1   -1    0    0  501    0  0.00000000000E+00  0.00000000000E+00  0.10320443120E+04  0.10320443121E+04  0.50400001928E-02 0.  1.
       -1   -1    0    0    0  501  0.00000000000E+00  0.00000000000E+00 -0.70765196366E+03  0.70765196368E+03  0.50400001928E-02 0. -1.
    10030    2    1    2    0    0  0.00000000000E+00  0.00000000000E+00  0.32439234839E+03  0.17396962757E+04  0.17091848163E+04 0.  0.
        4    1    3    3  502    0  0.81432147930E+03 -0.17728961391E+03  0.35471677880E+03  0.90574647938E+03  0.12699999809E+01 0.  1.
       -4    1    3    3    0  502 -0.81432147930E+03  0.17728961391E+03 -0.30324430407E+02  0.83394979635E+03  0.12699999809E+01 0. -1.
</event>
<event>
 5   0  0.2595644E-04  0.1701238E+04  0.7818609E-02  0.8760659E-01
       -1   -1    0    0    0  501  0.00000000000E+00  0.00000000000E+00  0.95936590608E+03  0.95936590610E+03  0.50400001928E-02 0. -1.
        1   -1    0    0  501    0  0.00000000000E+00  0.00000000000E+00 -0.75419844982E+03  0.75419844984E+03  0.50400001928E-02 0.  1.
    10030    2    1    2    0    0  0.00000000000E+00  0.00000000000E+00  0.20516745626E+03  0.17135643559E+04  0.17012375251E+04 0.  0.
        2    1    3    3  502    0  0.17664151157E+02 -0.54971840058E+03  0.75616901872E+03  0.93503685866E+03  0.25500000920E-02 0. -1.
       -2    1    3    3    0  502 -0.17664151157E+02  0.54971840058E+03 -0.55100156246E+03  0.77852749728E+03  0.25500000920E-02 0.  1.
</event>
<event>
 5   0  0.2595644E-04  0.1643796E+04  0.7818609E-02  0.8794085E-01
       -1   -1    0    0    0  501  0.00000000000E+00  0.00000000000E+00  0.70930893140E+03  0.70930893142E+03  0.50400001928E-02 0. -1.
        1   -1    0    0  501    0  0.00000000000E+00  0.00000000000E+00 -0.95235864741E+03  0.95235864742E+03  0.50400001928E-02 0.  1.
    10030    2    1    2    0    0  0.00000000000E+00  0.00000000000E+00 -0.24304971601E+03  0.16616675788E+04  0.16437962094E+04 0.  0.
        2    1    3    3  502    0  0.47062042966E+02  0.82012299872E+03 -0.94781119850E+02  0.82692202148E+03  0.25500000920E-02 0. -1.
       -2    1    3    3    0  502 -0.47062042966E+02 -0.82012299872E+03 -0.14826859616E+03  0.83474555736E+03  0.25500000920E-02 0.  1.
</event>
<event>
 5   0  0.2583422E-04  0.1688540E+04  0.7818609E-02  0.8767928E-01
        1   -1    0    0  501    0  0.00000000000E+00  0.00000000000E+00  0.10023549334E+04  0.10023549334E+04  0.50400001928E-02 0. -1.
       -1   -1    0    0    0  501  0.00000000000E+00  0.00000000000E+00 -0.71111716237E+03  0.71111716238E+03  0.50400001928E-02 0.  1.
    10030    2    1    2    0    0  0.00000000000E+00  0.00000000000E+00  0.29123777104E+03  0.17134720958E+04  0.16885399562E+04 0.  0.
        3    1    3    3  502    0  0.11288603995E+03  0.53302824711E+03 -0.50882966818E+03  0.74549984014E+03  0.10100000352E+00 0.  1.
       -3    1    3    3    0  502 -0.11288603995E+03 -0.53302824711E+03  0.80006743921E+03  0.96797225566E+03  0.10100000352E+00 0. -1.
</event>
<event>
 5   0  0.2595644E-04  0.1722919E+04  0.7818609E-02  0.8748400E-01
        1   -1    0    0  501    0  0.00000000000E+00  0.00000000000E+00  0.14740717488E+04  0.14740717488E+04  0.50400001928E-02 0.  1.
       -1   -1    0    0    0  501  0.00000000000E+00  0.00000000000E+00 -0.50344372873E+03  0.50344372876E+03  0.50400001928E-02 0. -1.
    10030    2    1    2    0    0  0.00000000000E+00  0.00000000000E+00  0.97062802007E+03  0.19775154776E+04  0.17229186605E+04 0.  0.
        2    1    3    3  502    0  0.54001651490E+03  0.21407302622E+03  0.12154505018E+04  0.13471321462E+04  0.25500000920E-02 0.  1.
       -2    1    3    3    0  502 -0.54001651490E+03 -0.21407302622E+03 -0.24482248174E+03  0.63038333138E+03  0.25500000920E-02 0. -1.
</event>
<event>
 5   0  0.5021349E-04  0.1704402E+04  0.7818609E-02  0.8758858E-01
       -2   -1    0    0    0  501  0.00000000000E+00  0.00000000000E+00  0.53935714570E+03  0.53935714571E+03  0.25500000920E-02 0.  1.
        2   -1    0    0  501    0  0.00000000000E+00  0.00000000000E+00 -0.13465041295E+04  0.13465041295E+04  0.25500000920E-02 0. -1.
    10030    2    1    2    0    0  0.00000000000E+00  0.00000000000E+00 -0.80714698384E+03  0.18858612752E+04  0.17044020934E+04 0.  0.
        2    1    3    3  502    0 -0.27137713823E+03  0.25130819875E+03 -0.12530657483E+04  0.13065125837E+04  0.25500000920E-02 0. -1.
       -2    1    3    3    0  502  0.27137713823E+03 -0.25130819875E+03  0.44591876443E+03  0.57934869154E+03  0.25500000920E-02 0.  1.
</event>
<event>
 5   0  0.5021349E-04  0.1686537E+04  0.7818609E-02  0.8769080E-01
        2   -1    0    0  501    0  0.00000000000E+00  0.00000000000E+00  0.80984641052E+03  0.80984641052E+03  0.25500000920E-02 0. -1.
       -2   -1    0    0    0  501  0.00000000000E+00  0.00000000000E+00 -0.87806995447E+03  0.87806995447E+03  0.25500000920E-02 0.  1.
    10030    2    1    2    0    0  0.00000000000E+00  0.00000000000E+00 -0.68223543949E+02  0.16879163650E+04  0.16865370447E+04 0.  0.
        2    1    3    3  502    0  0.15872231300E+01  0.80433470830E+02  0.80599700712E+03  0.81000199876E+03  0.25500000920E-02 0. -1.
       -2    1    3    3    0  502 -0.15872231300E+01 -0.80433470830E+02 -0.87422055107E+03  0.87791436623E+03  0.25500000920E-02 0.  1.
</event>
<event>
 5   0  0.5299877E-04  0.1678947E+04  0.7818609E-02  0.8773464E-01
       -2   -1    0    0    0  501  0.00000000000E+00  0.00000000000E+00  0.48177076595E+03  0.48177076595E+03  0.25500000920E-02 0. -1.
        2   -1    0    0  501    0  0.00000000000E+00  0.00000000000E+00 -0.14627617416E+04  0.14627617416E+04  0.25500000920E-02 0.  1.
    10030    2    1    2    0    0  0.00000000000E+00  0.00000000000E+00 -0.98099097562E+03  0.19445325075E+04  0.16789471042E+04 0.  0.
        3    1    3    3  502    0 -0.14859346740E+03  0.20797013537E+03 -0.14165982025E+04  0.14394728456E+04  0.10100000352E+00 0.  1.
       -3    1    3    3    0  502  0.14859346740E+03 -0.20797013537E+03  0.43560722688E+03  0.50505966190E+03  0.10100000352E+00 0. -1.
</event>
<event>
 5   0  0.2630135E-04  0.1706374E+04  0.7818609E-02  0.8757738E-01
       -1   -1    0    0    0  501  0.00000000000E+00  0.00000000000E+00  0.88354343137E+03  0.88354343138E+03  0.50400001928E-02 0.  1.
        1   -1    0    0  501    0  0.00000000000E+00  0.00000000000E+00 -0.82387317976E+03  0.82387317978E+03  0.50400001928E-02 0. -1.
    10030    2    1    2    0    0  0.00000000000E+00  0.00000000000E+00  0.59670251607E+02  0.17074166112E+04  0.17063736241E+04 0.  0.
        1    1    3    3  502    0  0.15448650543E+03  0.54335608950E+03  0.66962082585E+03  0.87606733234E+03  0.50400001928E-02 0.  1.
       -1    1    3    3    0  502 -0.15448650543E+03 -0.54335608950E+03 -0.60995057424E+03  0.83134927882E+03  0.50400001928E-02 0. -1.
</event>
<event>
 5   0  0.2595644E-04  0.1680176E+04  0.7818609E-02  0.8772752E-01
        1   -1    0    0  501    0  0.00000000000E+00  0.00000000000E+00  0.11435474891E+04  0.11435474891E+04  0.50400001928E-02 0.  1.
       -1   -1    0    0    0  501  0.00000000000E+00  0.00000000000E+00 -0.61715656895E+03  0.61715656897E+03  0.50400001928E-02 0. -1.
    10030    2    1    2    0    0  0.00000000000E+00  0.00000000000E+00  0.52639092019E+03  0.17607040581E+04  0.16801759966E+04 0.  0.
        2    1    3    3  502    0 -0.24481333306E+03 -0.24436397673E+03  0.10654600871E+04  0.11202019989E+04  0.25500000920E-02 0.  1.
       -2    1    3    3    0  502  0.24481333306E+03  0.24436397673E+03 -0.53906916689E+03  0.64050205922E+03  0.25500000920E-02 0. -1.
</event>
<event>
 5   0  0.2595644E-04  0.1646940E+04  0.7818609E-02  0.8792219E-01
        1   -1    0    0  501    0  0.00000000000E+00  0.00000000000E+00  0.20245469692E+04  0.20245469692E+04  0.50400001928E-02 0. -1.
       -1   -1    0    0    0  501  0.00000000000E+00  0.00000000000E+00 -0.33494038246E+03  0.33494038250E+03  0.50400001928E-02 0.  1.
    10030    2    1    2    0    0  0.00000000000E+00  0.00000000000E+00  0.16896065868E+04  0.23594873517E+04  0.16469396300E+04 0.  0.
        2    1    3    3  502    0 -0.74368337271E+03  0.11013303570E+03  0.13261997532E+04  0.15244671298E+04  0.25500000920E-02 0. -1.
       -2    1    3    3    0  502  0.74368337271E+03 -0.11013303570E+03  0.36340683360E+03  0.83502022197E+03  0.25500000920E-02 0.  1.
</event>
<event>
 5   0  0.5299877E-04  0.1700054E+04  0.7818609E-02  0.8761334E-01
        2   -1    0    0  501    0  0.00000000000E+00  0.00000000000E+00  0.89991957842E+03  0.89991957842E+03  0.25500000920E-02 0. -1.
       -2   -1    0    0    0  501  0.00000000000E+00  0.00000000000E+00 -0.80290042186E+03  0.80290042186E+03  0.25500000920E-02 0.  1.
    10030    2    1    2    0    0  0.00000000000E+00  0.00000000000E+00  0.97019156557E+02  0.17028200003E+04  0.17000538923E+04 0.  0.
        3    1    3    3  502    0  0.33581787044E+03 -0.58816099371E+03 -0.46597858448E+03  0.82209673885E+03  0.10100000352E+00 0.  1.
       -3    1    3    3    0  502 -0.33581787044E+03  0.58816099371E+03  0.56299774104E+03  0.88072326144E+03  0.10100000352E+00 0. -1.
</event>
<event>
 5   0  0.5021349E-04  0.1653472E+04  0.7818609E-02  0.8788355E-01
       -2   -1    0    0    0  501  0.00000000000E+00  0.00000000000E+00  0.29255874230E+03  0.29255874231E+03  0.25500000920E-02 0.  1.
        2   -1    0    0  501    0  0.00000000000E+00  0.00000000000E+00 -0.23362568859E+04  0.23362568859E+04  0.25500000920E-02 0. -1.
    10030    2    1    2    0    0  0.00000000000E+00  0.00000000000E+00 -0.20436981436E+04  0.26288156282E+04  0.16534719547E+04 0.  0.
        2    1    3    3  502    0 -0.15822592958E+03  0.37566365234E+03  0.12168392738E+03  0.42540052029E+03  0.25500000920E-02 0.  1.
       -2    1    3    3    0  502  0.15822592958E+03 -0.37566365234E+03 -0.21653820710E+04  0.22034151079E+04  0.25500000920E-02 0. -1.
</event>
<event>
 5   0  0.5021349E-04  0.1524766E+04  0.7818609E-02  0.8868149E-01
        2   -1    0    0  501    0  0.00000000000E+00  0.00000000000E+00  0.49391434741E+03  0.49391434741E+03  0.25500000920E-02 0. -1.
       -2   -1    0    0    0  501  0.00000000000E+00  0.00000000000E+00 -0.11767780350E+04  0.11767780350E+04  0.25500000920E-02 0.  1.
    10030    2    1    2    0    0  0.00000000000E+00  0.00000000000E+00 -0.68286368761E+03  0.16706923824E+04  0.15247656282E+04 0.  0.
        2    1    3    3  502    0 -0.44812929450E+01 -0.26513348700E+02 -0.11762582933E+04  0.11765656005E+04  0.25500000920E-02 0.  1.
       -2    1    3    3    0  502  0.44812929450E+01  0.26513348700E+02  0.49339460573E+03  0.49412678192E+03  0.25500000920E-02 0. -1.
</event>
<event>
 5   0  0.2561518E-04  0.1695935E+04  0.7818609E-02  0.8763686E-01
       -1   -1    0    0    0  501  0.00000000000E+00  0.00000000000E+00  0.11436407559E+04  0.11436407559E+04  0.50400001928E-02 0. -1.
        1   -1    0    0  501    0  0.00000000000E+00  0.00000000000E+00 -0.62873667176E+03  0.62873667178E+03  0.50400001928E-02 0.  1.
    10030    2    1    2    0    0  0.00000000000E+00  0.00000000000E+00  0.51490408410E+03  0.17723774276E+04  0.16959350018E+04 0.  0.
        4    1    3    3  502    0  0.56753663191E+02  0.23269745795E+03 -0.59264873851E+03  0.63922079549E+03  0.12699999809E+01 0.  1.
       -4    1    3    3    0  502 -0.56753663191E+02 -0.23269745795E+03  0.11075528226E+04  0.11331566322E+04  0.12699999809E+01 0. -1.
</event>
<event>
 5   0  0.2785059E-04  0.1565239E+04  0.7818609E-02  0.8842192E-01
       -1   -1    0    0    0  501  0.00000000000E+00  0.00000000000E+00  0.45806405468E+03  0.45806405471E+03  0.50400001928E-02 0. -1.
        1   -1    0    0  501    0  0.00000000000E+00  0.00000000000E+00 -0.13371354062E+04  0.13371354063E+04  0.50400001928E-02 0.  1.
    10030    2    1    2    0    0  0.00000000000E+00  0.00000000000E+00 -0.87907135156E+03  0.17951994610E+04  0.15652394908E+04 0.  0.
        5    1    3    3  502    0 -0.29121549099E+03  0.72538932396E+03 -0.39548089561E+03  0.87602703286E+03  0.46999998093E+01 0.  1.
       -5    1    3    3    0  502  0.29121549099E+03 -0.72538932396E+03 -0.48359045595E+03  0.91917242810E+03  0.46999998093E+01 0. -1.
</event>
<event>
 5   0  0.5310003E-04  0.1720774E+04  0.7818609E-02  0.8749604E-01
       -2   -1    0    0    0  501  0.00000000000E+00  0.00000000000E+00  0.51499288518E+03  0.51499288519E+03  0.25500000920E-02 0.  1.
        2   -1    0    0  501    0  0.00000000000E+00  0.00000000000E+00 -0.14374284568E+04  0.14374284568E+04  0.25500000920E-02 0. -1.
    10030    2    1    2    0    0  0.00000000000E+00  0.00000000000E+00 -0.92243557161E+03  0.19524213420E+04  0.17207735798E+04 0.  0.
        1    1    3    3  502    0  0.40307727765E+03 -0.40919384030E+02  0.39998652505E+03  0.56932847109E+03  0.50400001928E-02 0.  1.
       -1    1    3    3    0  502 -0.40307727765E+03  0.40919384030E+02 -0.13224220967E+04  0.13830928709E+04  0.50400001928E-02 0. -1.
</event>
<event>
 5   0  0.5299877E-04  0.1694583E+04  0.7818609E-02  0.8764460E-01
       -2   -1    0    0    0  501  0.00000000000E+00  0.00000000000E+00  0.95037094213E+03  0.95037094213E+03  0.25500000920E-02 0.  1.
        2   -1    0    0  501    0  0.00000000000E+00  0.00000000000E+00 -0.75539188392E+03  0.75539188392E+03  0.25500000920E-02 0. -1.
    10030    2    1    2    0    0  0.00000000000E+00  0.00000000000E+00  0.19497905821E+03  0.17057628260E+04  0.16945825402E+04 0.  0.
        3    1    3    3  502    0  0.67488940838E+03  0.51182323483E+03  0.75812618655E+02  0.85040361041E+03  0.10100000352E+00 0.  1.
       -3    1    3    3    0  502 -0.67488940838E+03 -0.51182323483E+03  0.11916643955E+03  0.85535921564E+03  0.10100000352E+00 0. -1.
</event>
<event>
 5   0  0.2595644E-04  0.1689142E+04  0.7818609E-02  0.8767582E-01
        1   -1    0    0  501    0  0.00000000000E+00  0.00000000000E+00  0.67697210678E+03  0.67697210680E+03  0.50400001928E-02 0. -1.
       -1   -1    0    0    0  501  0.00000000000E+00  0.00000000000E+00 -0.10536620343E+04  0.10536620343E+04  0.50400001928E-02 0.  1.
    10030    2    1    2    0    0  0.00000000000E+00  0.00000000000E+00 -0.37668992752E+03  0.17306341411E+04  0.16891415657E+04 0.  0.
        2    1    3    3  502    0 -0.53245612474E+03 -0.19196850760E+03 -0.83059101117E+03  0.10051083825E+04  0.25500000920E-02 0.  1.
       -2    1    3    3    0  502  0.53245612474E+03  0.19196850760E+03  0.45390108365E+03  0.72552575863E+03  0.25500000920E-02 0. -1.
</event>
<event>
 5   0  0.5299877E-04  0.1483851E+04  0.7818609E-02  0.8895264E-01
       -2   -1    0    0    0  501  0.00000000000E+00  0.00000000000E+00  0.56692672075E+03  0.56692672076E+03  0.25500000920E-02 0.  1.
        2   -1    0    0  501    0  0.00000000000E+00  0.00000000000E+00 -0.97094239513E+03  0.97094239514E+03  0.25500000920E-02 0. -1.
    10030    2    1    2    0    0  0.00000000000E+00  0.00000000000E+00 -0.40401567438E+03  0.15378691159E+04  0.14838506503E+04 0.  0.
        3    1    3    3  502    0  0.35869537140E+03 -0.48149778579E+01 -0.87508646976E+03  0.94575995540E+03  0.10100000352E+00 0. -1.
       -3    1    3    3    0  502 -0.35869537140E+03  0.48149778579E+01  0.47107079538E+03  0.59210916049E+03  0.10100000352E+00 0.  1.
</event>
<event>
 5   0  0.5021349E-04  0.1699670E+04  0.7818609E-02  0.8761553E-01
        2   -1    0    0  501    0  0.00000000000E+00  0.00000000000E+00  0.66036585261E+03  0.66036585261E+03  0.25500000920E-02 0. -1.
       -2   -1    0    0    0  501  0.00000000000E+00  0.00000000000E+00 -0.10936654450E+04  0.10936654450E+04  0.25500000920E-02 0.  1.
    10030    2    1    2    0    0  0.00000000000E+00  0.00000000000E+00 -0.43329959240E+03  0.17540312976E+04  0.16996697492E+04 0.  0.
        2    1    3    3  502    0 -0.53140047956E+03 -0.34974450341E+03 -0.79815366698E+03  0.10206649614E+04  0.25500000920E-02 0.  1.
       -2    1    3    3    0  502  0.53140047956E+03  0.34974450341E+03  0.36485407458E+03  0.73336633621E+03  0.25500000920E-02 0. -1.
</event>
<event>
 5   0  0.5342255E-04  0.1677937E+04  0.7818609E-02  0.8774048E-01
       -2   -1    0    0    0  501  0.00000000000E+00  0.00000000000E+00  0.78292072711E+03  0.78292072711E+03  0.25500000920E-02 0. -1.
        2   -1    0    0  501    0  0.00000000000E+00  0.00000000000E+00 -0.89902909182E+03  0.89902909182E+03  0.25500000920E-02 0.  1.
    10030    2    1    2    0    0  0.00000000000E+00  0.00000000000E+00 -0.11610836471E+03  0.16819498189E+04  0.16779374366E+04 0.  0.
        5    1    3    3  502    0  0.10575412738E+03 -0.60700698458E+03 -0.62880577049E+03  0.88037503473E+03  0.46999998093E+01 0.  1.
       -5    1    3    3    0  502 -0.10575412738E+03  0.60700698458E+03  0.51269740578E+03  0.80157478420E+03  0.46999998093E+01 0. -1.
</event>
<event>
 5   0  0.2583422E-04  0.1715683E+04  0.7818609E-02  0.8752470E-01
       -1   -1    0    0    0  501  0.00000000000E+00  0.00000000000E+00  0.14270890069E+04  0.14270890069E+04  0.50400001928E-02 0.  1.
        1   -1    0    0  501    0  0.00000000000E+00  0.00000000000E+00 -0.51565980884E+03  0.51565980886E+03  0.50400001928E-02 0. -1.
    10030    2    1    2    0    0  0.00000000000E+00  0.00000000000E+00  0.91142919808E+03  0.19427488158E+04  0.17156834726E+04 0.  0.
        3    1    3    3  502    0 -0.73266477676E+03 -0.44455580046E+03  0.41237514843E+03  0.95104195915E+03  0.10100000352E+00 0. -1.
       -3    1    3    3    0  502  0.73266477676E+03  0.44455580046E+03  0.49905404965E+03  0.99170685663E+03  0.10100000352E+00 0.  1.
</event>
<event>
 5   0  0.2785059E-04  0.1784709E+04  0.7818609E-02  0.8714474E-01
        1   -1    0    0  501    0  0.00000000000E+00  0.00000000000E+00  0.84750669710E+03  0.84750669712E+03  0.50400001928E-02 0.  1.
       -1   -1    0    0    0  501  0.00000000000E+00  0.00000000000E+00 -0.93957546316E+03  0.93957546317E+03  0.50400001928E-02 0. -1.
    10030    2    1    2    0    0  0.00000000000E+00  0.00000000000E+00 -0.92068766053E+02  0.17870821603E+04  0.17847089370E+04 0.  0.
        5    1    3    3  502    0 -0.28659557796E+03  0.23694892924E+02  0.79982314424E+03  0.84996330822E+03  0.46999998093E+01 0.  1.
       -5    1    3    3    0  502  0.28659557796E+03 -0.23694892924E+02 -0.89189191029E+03  0.93711885207E+03  0.46999998093E+01 0. -1.
</event>
<event>
 5   0  0.5310003E-04  0.1732958E+04  0.7818609E-02  0.8742787E-01
        2   -1    0    0  501    0  0.00000000000E+00  0.00000000000E+00  0.15678338030E+04  0.15678338030E+04  0.25500000920E-02 0.  1.
       -2   -1    0    0    0  501  0.00000000000E+00  0.00000000000E+00 -0.47886810786E+03  0.47886810786E+03  0.25500000920E-02 0. -1.
    10030    2    1    2    0    0  0.00000000000E+00  0.00000000000E+00  0.10889656951E+04  0.20467019109E+04  0.17329577106E+04 0.  0.
        1    1    3    3  502    0 -0.30873342486E+03  0.15479315694E+03  0.14830301841E+04  0.15227132941E+04  0.50400001928E-02 0.  1.
       -1    1    3    3    0  502  0.30873342486E+03 -0.15479315694E+03 -0.39406448893E+03  0.52398861679E+03  0.50400001928E-02 0. -1.
</event>
<event>
 5   0  0.2595644E-04  0.1673013E+04  0.7818609E-02  0.8776908E-01
       -1   -1    0    0    0  501  0.00000000000E+00  0.00000000000E+00  0.43676914353E+03  0.43676914356E+03  0.50400001928E-02 0. -1.
        1   -1    0    0  501    0  0.00000000000E+00  0.00000000000E+00 -0.16020883317E+04  0.16020883317E+04  0.50400001928E-02 0.  1.
    10030    2    1    2    0    0  0.00000000000E+00  0.00000000000E+00 -0.11653191882E+04  0.20388574753E+04  0.16730125505E+04 0.  0.
        2    1    3    3  502    0  0.33322035867E+03 -0.42604992579E+03 -0.13603117288E+04  0.14638997050E+04  0.25500000920E-02 0.  1.
       -2    1    3    3    0  502 -0.33322035867E+03  0.42604992579E+03  0.19499254065E+03  0.57495777029E+03  0.25500000920E-02 0. -1.
</event>
<event>
 5   0  0.5021349E-04  0.1690064E+04  0.7818609E-02  0.8767052E-01
        2   -1    0    0  501    0  0.00000000000E+00  0.00000000000E+00  0.18526867749E+04  0.18526867749E+04  0.25500000920E-02 0.  1.
       -2   -1    0    0    0  501  0.00000000000E+00  0.00000000000E+00 -0.38542884750E+03  0.38542884751E+03  0.25500000920E-02 0. -1.
    10030    2    1    2    0    0  0.00000000000E+00  0.00000000000E+00  0.14672579274E+04  0.22381156224E+04  0.16900638194E+04 0.  0.
        2    1    3    3  502    0 -0.54885851670E+03 -0.16398312280E+03  0.15563277973E+04  0.16584005392E+04  0.25500000920E-02 0.  1.
       -2    1    3    3    0  502  0.54885851670E+03  0.16398312280E+03 -0.89069869902E+02  0.57971508316E+03  0.25500000920E-02 0. -1.
</event>
<event>
 5   0  0.2630135E-04  0.1702593E+04  0.7818609E-02  0.8759887E-01
       -1   -1    0    0    0  501  0.00000000000E+00  0.00000000000E+00  0.10758943405E+04  0.10758943405E+04  0.50400001928E-02 0. -1.
        1   -1    0    0  501    0  0.00000000000E+00  0.00000000000E+00 -0.67358452340E+03  0.67358452342E+03  0.50400001928E-02 0.  1.
    10030    2    1    2    0    0  0.00000000000E+00  0.00000000000E+00  0.40230981709E+03  0.17494788639E+04  0.17025930537E+04 0.  0.
        1    1    3    3  502    0  0.74368714236E+03 -0.12696068893E+03 -0.20406022147E+03  0.78155623998E+03  0.50400001928E-02 0.  1.
       -1    1    3    3    0  502 -0.74368714236E+03  0.12696068893E+03  0.60637003856E+03  0.96792262394E+03  0.50400001928E-02 0. -1.
</event>
<event>
 5   0  0.5198430E-04  0.1739017E+04  0.7818609E-02  0.8739419E-01
        2   -1    0    0  501    0  0.00000000000E+00  0.00000000000E+00  0.11738877213E+04  0.11738877213E+04  0.25500000920E-02 0. -1.
       -2   -1    0    0    0  501  0.00000000000E+00  0.00000000000E+00 -0.64405208501E+03  0.64405208501E+03  0.25500000920E-02 0.  1.
    10030    2    1    2    0    0  0.00000000000E+00  0.00000000000E+00  0.52983563627E+03  0.18179398063E+04  0.17390167733E+04 0.  0.
        4    1    3    3  502    0 -0.50397742720E+03 -0.14684392260E+02 -0.47563479337E+03  0.69313703412E+03  0.12699999809E+01 0.  1.
       -4    1    3    3    0  502  0.50397742720E+03  0.14684392260E+02  0.10054704296E+04  0.11248027722E+04  0.12699999809E+01 0. -1.
</event>
<event>
 5   0  0.2561518E-04  0.1696061E+04  0.7818609E-02  0.8763614E-01
        1   -1    0    0  501    0  0.00000000000E+00  0.00000000000E+00  0.18394025629E+04  0.18394025629E+04  0.50400001928E-02 0.  1.
       -1   -1    0    0    0  501  0.00000000000E+00  0.00000000000E+00 -0.39097264145E+03  0.39097264149E+03  0.50400001928E-02 0. -1.
    10030    2    1    2    0    0  0.00000000000E+00  0.00000000000E+00  0.14484299214E+04  0.22303752043E+04  0.16960614125E+04 0.  0.
        4    1    3    3  502    0  0.83601647579E+03 -0.14215165181E+03  0.71779604906E+03  0.11110190911E+04  0.12699999809E+01 0.  1.
       -4    1    3    3    0  502 -0.83601647579E+03  0.14215165181E+03  0.73063387234E+03  0.11193561132E+04  0.12699999809E+01 0. -1.
</event>
<event>
 5   0  0.5342255E-04  0.1684671E+04  0.7818609E-02  0.8770155E-01
       -2   -1    0    0    0  501  0.00000000000E+00  0.00000000000E+00  0.41479173311E+03  0.41479173312E+03  0.25500000920E-02 0. -1.
        2   -1    0    0  501    0  0.00000000000E+00  0.00000000000E+00 -0.17105677820E+04  0.17105677820E+04  0.25500000920E-02 0.  1.
    10030    2    1    2    0    0  0.00000000000E+00  0.00000000000E+00 -0.12957760489E+04  0.21253595151E+04  0.16846713328E+04 0.  0.
        5    1    3    3  502    0  0.14270487794E+02  0.33911175550E+03  0.32468582450E+03  0.46972694639E+03  0.46999998093E+01 0. -1.
       -5    1    3    3    0  502 -0.14270487794E+02 -0.33911175550E+03 -0.16204618734E+04  0.16556325687E+04  0.46999998093E+01 0.  1.
</event>
<event>
 5   0  0.2595644E-04  0.1694932E+04  0.7818609E-02  0.8764260E-01
       -1   -1    0    0    0  501  0.00000000000E+00  0.00000000000E+00  0.47296571472E+03  0.47296571475E+03  0.50400001928E-02 0.  1.
        1   -1    0    0  501    0  0.00000000000E+00  0.00000000000E+00 -0.15185002678E+04  0.15185002678E+04  0.50400001928E-02 0. -1.
    10030    2    1    2    0    0  0.00000000000E+00  0.00000000000E+00 -0.10455345531E+04  0.19914659825E+04  0.16949319331E+04 0.  0.
        2    1    3    3  502    0  0.40426676377E+02 -0.22928964650E+03 -0.14801852260E+04  0.14983845840E+04  0.25500000920E-02 0. -1.
       -2    1    3    3    0  502 -0.40426676377E+02  0.22928964650E+03  0.43465067293E+03  0.49308139859E+03  0.25500000920E-02 0.  1.
</event>
<event>
 5   0  0.2583422E-04  0.1704937E+04  0.7818609E-02  0.8758554E-01
       -1   -1    0    0    0  501  0.00000000000E+00  0.00000000000E+00  0.53910029017E+03  0.53910029019E+03  0.50400001928E-02 0. -1.
        1   -1    0    0  501    0  0.00000000000E+00  0.00000000000E+00 -0.13479910580E+04  0.13479910580E+04  0.50400001928E-02 0.  1.
    10030    2    1    2    0    0  0.00000000000E+00  0.00000000000E+00 -0.80889076786E+03  0.18870913482E+04  0.17049367971E+04 0.  0.
        3    1    3    3  502    0  0.16938845654E+02 -0.52403026797E+02 -0.13460199777E+04  0.13471461659E+04  0.10100000352E+00 0.  1.
       -3    1    3    3    0  502 -0.16938845654E+02  0.52403026797E+02  0.53712920982E+03  0.53994518236E+03  0.10100000352E+00 0. -1.
</event>
<event>
 5   0  0.5310003E-04  0.1722874E+04  0.7818609E-02  0.8748425E-01
       -2   -1    0    0    0  501  0.00000000000E+00  0.00000000000E+00  0.60845600582E+03  0.60845600583E+03  0.25500000920E-02 0. -1.
        2   -1    0    0  501    0  0.00000000000E+00  0.00000000000E+00 -0.12196012207E+04  0.12196012207E+04  0.25500000920E-02 0.  1.
    10030    2    1    2    0    0  0.00000000000E+00  0.00000000000E+00 -0.61114521484E+03  0.18280572265E+04  0.17228739796E+04 0.  0.
        1    1    3    3  502    0 -0.73150984848E+03 -0.45331935704E+03 -0.34623439680E+03  0.92762242073E+03  0.50400001928E-02 0.  1.
       -1    1    3    3    0  502  0.73150984848E+03  0.45331935704E+03 -0.26491081803E+03  0.90043480576E+03  0.50400001928E-02 0. -1.
</event>
<event>
 5   0  0.2583422E-04  0.1681848E+04  0.7818609E-02  0.8771785E-01
        1   -1    0    0  501    0  0.00000000000E+00  0.00000000000E+00  0.84662841933E+03  0.84662841935E+03  0.50400001928E-02 0.  1.
       -1   -1    0    0    0  501  0.00000000000E+00  0.00000000000E+00 -0.83525785992E+03  0.83525785994E+03  0.50400001928E-02 0. -1.
    10030    2    1    2    0    0  0.00000000000E+00  0.00000000000E+00  0.11370559411E+02  0.16818862793E+04  0.16818478429E+04 0.  0.
        3    1    3    3  502    0 -0.42436429392E+03  0.52044834661E+03  0.51186035462E+03  0.84436518656E+03  0.10100000352E+00 0.  1.
       -3    1    3    3    0  502  0.42436429392E+03 -0.52044834661E+03 -0.50048979521E+03  0.83752109272E+03  0.10100000352E+00 0. -1.
</event>
<event>
 5   0  0.5310003E-04  0.1683879E+04  0.7818609E-02  0.8770612E-01
        2   -1    0    0  501    0  0.00000000000E+00  0.00000000000E+00  0.15798584007E+04  0.15798584007E+04  0.25500000920E-02 0. -1.
       -2   -1    0    0    0  501  0.00000000000E+00  0.00000000000E+00 -0.44868735851E+03  0.44868735852E+03  0.25500000920E-02 0.  1.
    10030    2    1    2    0    0  0.00000000000E+00  0.00000000000E+00  0.11311710422E+04  0.20285457592E+04  0.16838794406E+04 0.  0.
        1    1    3    3  502    0  0.30653793649E+03 -0.52819382315E+03  0.12637924644E+04  0.14036116323E+04  0.50400001928E-02 0. -1.
       -1    1    3    3    0  502 -0.30653793649E+03  0.52819382315E+03 -0.13262142219E+03  0.62493412691E+03  0.50400001928E-02 0.  1.
</event>
<event>
 5   0  0.2583422E-04  0.1697865E+04  0.7818609E-02  0.8762583E-01
        1   -1    0    0  501    0  0.00000000000E+00  0.00000000000E+00  0.78333356487E+03  0.78333356488E+03  0.50400001928E-02 0. -1.
       -1   -1    0    0    0  501  0.00000000000E+00  0.00000000000E+00 -0.92002501012E+03  0.92002501013E+03  0.50400001928E-02 0.  1.
    10030    2    1    2    0    0  0.00000000000E+00  0.00000000000E+00 -0.13669144525E+03  0.17033585750E+04  0.16978650959E+04 0.  0.
        3    1    3    3  502    0  0.34119211315E+03 -0.27297408739E+02  0.71103931450E+03  0.78913504774E+03  0.10100000352E+00 0. -1.
       -3    1    3    3    0  502 -0.34119211315E+03  0.27297408739E+02 -0.84773075975E+03  0.91422352728E+03  0.10100000352E+00 0.  1.
</event>
<event>
 5   0  0.2785059E-04  0.1691263E+04  0.7818609E-02  0.8766363E-01
       -1   -1    0    0    0  501  0.00000000000E+00  0.00000000000E+00  0.36471503861E+03  0.36471503865E+03  0.50400001928E-02 0.  1.
        1   -1    0    0  501    0  0.00000000000E+00  0.00000000000E+00 -0.19606877306E+04  0.19606877306E+04  0.50400001928E-02 0. -1.
    10030    2    1    2    0    0  0.00000000000E+00  0.00000000000E+00 -0.15959726920E+04  0.23254027693E+04  0.16912626070E+04 0.  0.
        5    1    3    3  502    0  0.24303575972E+03 -0.64746395494E+03 -0.14670581402E+04  0.16218993897E+04  0.46999998093E+01 0. -1.
       -5    1    3    3    0  502 -0.24303575972E+03  0.64746395494E+03 -0.12891455180E+03  0.70350337961E+03  0.46999998093E+01 0.  1.
</event>
<event>
 5   0  0.5198430E-04  0.1813659E+04  0.7818609E-02  0.8699070E-01
       -2   -1    0    0    0  501  0.00000000000E+00  0.00000000000E+00  0.39226326496E+03  0.39226326497E+03  0.25500000920E-02 0.  1.
        2   -1    0    0  501    0  0.00000000000E+00  0.00000000000E+00 -0.20963967190E+04  0.20963967190E+04  0.25500000920E-02 0. -1.
    10030    2    1    2    0    0  0.00000000000E+00  0.00000000000E+00 -0.17041334540E+04  0.24886599839E+04  0.18136586467E+04 0.  0.
        4    1    3    3  502    0  0.11045237102E+01 -0.16787979699E+03 -0.20748854905E+04  0.20816667019E+04  0.12699999809E+01 0. -1.
       -4    1    3    3    0  502 -0.11045237102E+01  0.16787979699E+03  0.37075203646E+03  0.40699328207E+03  0.12699999809E+01 0.  1.
</event>
<event>
 5   0  0.5021349E-04  0.1678284E+04  0.7818609E-02  0.8773847E-01
       -2   -1    0    0    0  501  0.00000000000E+00  0.00000000000E+00  0.85129189326E+03  0.85129189327E+03  0.25500000920E-02 0. -1.
        2   -1    0    0  501    0  0.00000000000E+00  0.00000000000E+00 -0.82716593874E+03  0.82716593875E+03  0.25500000920E-02 0.  1.
    10030    2    1    2    0    0  0.00000000000E+00  0.00000000000E+00  0.24125954520E+02  0.16784578320E+04  0.16782844313E+04 0.  0.
        2    1    3    3  502    0  0.63347321630E+03  0.47526988966E+03  0.28956213815E+03  0.84321765615E+03  0.25500000920E-02 0. -1.
       -2    1    3    3    0  502 -0.63347321630E+03 -0.47526988966E+03 -0.26543618363E+03  0.83524017586E+03  0.25500000920E-02 0.  1.
</event>
<event>
 5   0  0.2561518E-04  0.1715157E+04  0.7818609E-02  0.8752767E-01
        1   -1    0    0  501    0  0.00000000000E+00  0.00000000000E+00  0.89555970795E+03  0.89555970796E+03  0.50400001928E-02 0.  1.
       -1   -1    0    0    0  501  0.00000000000E+00  0.00000000000E+00 -0.82120810102E+03  0.82120810104E+03  0.50400001928E-02 0. -1.
    10030    2    1    2    0    0  0.00000000000E+00  0.00000000000E+00  0.74351606923E+02  0.17167678090E+04  0.17151570041E+04 0.  0.
        4    1    3    3  502    0 -0.23286229150E+03  0.32237196888E+03  0.79768588608E+03  0.89132088434E+03  0.12699999809E+01 0.  1.
       -4    1    3    3    0  502  0.23286229150E+03 -0.32237196888E+03 -0.72333427915E+03  0.82544692465E+03  0.12699999809E+01 0. -1.
</event>
<event>
 5   0  0.5342255E-04  0.1690117E+04  0.7818609E-02  0.8767021E-01
        2   -1    0    0  501    0  0.00000000000E+00  0.00000000000E+00  0.14039888067E+04  0.14039888067E+04  0.25500000920E-02 0. -1.
       -2   -1    0    0    0  501  0.00000000000E+00  0.00000000000E+00 -0.50863938501E+03  0.50863938502E+03  0.25500000920E-02 0.  1.
    10030    2    1    2    0    0  0.00000000000E+00  0.00000000000E+00  0.89534942167E+03  0.19126281917E+04  0.16901171595E+04 0.  0.
        5    1    3    3  502    0 -0.18190025836E+03  0.61222147902E+03  0.10738784771E+04  0.12494558483E+04  0.46999998093E+01 0. -1.
       -5    1    3    3    0  502  0.18190025836E+03 -0.61222147902E+03 -0.17852905543E+03  0.66317234336E+03  0.46999998093E+01 0.  1.
</event>
<event>
 5   0  0.2630135E-04  0.1705938E+04  0.7818609E-02  0.8757985E-01
        1   -1    0    0  501    0  0.00000000000E+00  0.00000000000E+00  0.69507172627E+03  0.69507172629E+03  0.50400001928E-02 0.  1.
       -1   -1    0    0    0  501  0.00000000000E+00  0.00000000000E+00 -0.10467357988E+04  0.10467357988E+04  0.50400001928E-02 0. -1.
    10030    2    1    2    0    0  0.00000000000E+00  0.00000000000E+00 -0.35166407254E+03  0.17418075251E+04  0.17059384029E+04 0.  0.
        1    1    3    3  502    0  0.74681375530E+03 -0.37846348033E+03 -0.34232838106E+03  0.90451871819E+03  0.50400001928E-02 0. -1.
       -1    1    3    3    0  502 -0.74681375530E+03  0.37846348033E+03 -0.93356914798E+01  0.83728880693E+03  0.50400001928E-02 0.  1.
</event>
<event>
 5   0  0.5198430E-04  0.1725784E+04  0.7818609E-02  0.8746794E-01
       -2   -1    0    0    0  501  0.00000000000E+00  0.00000000000E+00  0.12703329444E+04  0.12703329444E+04  0.25500000920E-02 0. -1.
        2   -1    0    0  501    0  0.00000000000E+00  0.00000000000E+00 -0.58613182691E+03  0.58613182692E+03  0.25500000920E-02 0.  1.
    10030    2    1    2    0    0  0.00000000000E+00  0.00000000000E+00  0.68420111749E+03  0.18564647713E+04  0.17257839604E+04 0.  0.
        4    1    3    3  502    0 -0.41837608829E+03  0.44213227820E+03 -0.31581743280E+03  0.68575634627E+03  0.12699999809E+01 0.  1.
       -4    1    3    3    0  502  0.41837608829E+03 -0.44213227820E+03  0.10000185503E+04  0.11707084251E+04  0.12699999809E+01 0. -1.
</event>
<event>
 5   0  0.2595644E-04  0.1670579E+04  0.7818609E-02  0.8778324E-01
        1   -1    0    0  501    0  0.00000000000E+00  0.00000000000E+00  0.96340241400E+03  0.96340241401E+03  0.50400001928E-02 0. -1.
       -1   -1    0    0    0  501  0.00000000000E+00  0.00000000000E+00 -0.72421292565E+03  0.72421292567E+03  0.50400001928E-02 0.  1.
    10030    2    1    2    0    0  0.00000000000E+00  0.00000000000E+00  0.23918948834E+03  0.16876153397E+04  0.16705789186E+04 0.  0.
        2    1    3    3  502    0 -0.63793078274E+03  0.39836274628E+03  0.48670116620E+03  0.89583848230E+03  0.25500000920E-02 0.  1.
       -2    1    3    3    0  502  0.63793078274E+03 -0.39836274628E+03 -0.24751167786E+03  0.79177685737E+03  0.25500000920E-02 0. -1.
</event>
<event>
 5   0  0.2595644E-04  0.1588307E+04  0.7818609E-02  0.8827764E-01
        1   -1    0    0  501    0  0.00000000000E+00  0.00000000000E+00  0.18471281737E+04  0.18471281737E+04  0.50400001928E-02 0. -1.
       -1   -1    0    0    0  501  0.00000000000E+00  0.00000000000E+00 -0.34143815825E+03  0.34143815829E+03  0.50400001928E-02 0.  1.
    10030    2    1    2    0    0  0.00000000000E+00  0.00000000000E+00  0.15056900154E+04  0.21885663320E+04  0.15883073276E+04 0.  0.
        2    1    3    3  502    0  0.69800331241E+02  0.20878291010E+03  0.18042447316E+04  0.18176252202E+04  0.25500000920E-02 0. -1.
       -2    1    3    3    0  502 -0.69800331241E+02 -0.20878291010E+03 -0.29855471619E+03  0.37094111170E+03  0.25500000920E-02 0.  1.
</event>
<event>
 5   0  0.5021349E-04  0.1350318E+04  0.7818609E-02  0.8990587E-01
       -2   -1    0    0    0  501  0.00000000000E+00  0.00000000000E+00  0.25450480832E+03  0.25450480833E+03  0.25500000920E-02 0.  1.
        2   -1    0    0  501    0  0.00000000000E+00  0.00000000000E+00 -0.17910847493E+04  0.17910847493E+04  0.25500000920E-02 0. -1.
    10030    2    1    2    0    0  0.00000000000E+00  0.00000000000E+00 -0.15365799410E+04  0.20455895576E+04  0.13503180082E+04 0.  0.
        2    1    3    3  502    0  0.33922825335E+03 -0.18866188802E+03  0.68571858632E+02  0.39417155613E+03  0.25500000920E-02 0.  1.
       -2    1    3    3    0  502 -0.33922825335E+03  0.18866188802E+03 -0.16051517996E+04  0.16514180015E+04  0.25500000920E-02 0. -1.
</event>
<event>
 5   0  0.2785059E-04  0.1629712E+04  0.7818609E-02  0.8802500E-01
       -1   -1    0    0    0  501  0.00000000000E+00  0.00000000000E+00  0.31112644711E+04  0.31112644711E+04  0.50400001928E-02 0.  1.
        1   -1    0    0  501    0  0.00000000000E+00  0.00000000000E+00 -0.21341496045E+03  0.21341496051E+03  0.50400001928E-02 0. -1.
    10030    2    1    2    0    0  0.00000000000E+00  0.00000000000E+00  0.28978495107E+04  0.33246794317E+04  0.16297121024E+04 0.  0.
        5    1    3    3  502    0 -0.74274518481E+03 -0.33142472296E+03  0.13478338278E+04  0.15742270719E+04  0.46999998093E+01 0.  1.
       -5    1    3    3    0  502  0.74274518481E+03  0.33142472296E+03  0.15500156829E+04  0.17504523598E+04  0.46999998093E+01 0. -1.
</event>
<event>
 5   0  0.2561518E-04  0.1706854E+04  0.7818609E-02  0.8757465E-01
       -1   -1    0    0    0  501  0.00000000000E+00  0.00000000000E+00  0.33215523334E+03  0.33215523338E+03  0.50400001928E-02 0. -1.
        1   -1    0    0  501    0  0.00000000000E+00  0.00000000000E+00 -0.21927624694E+04  0.21927624695E+04  0.50400001928E-02 0.  1.
    10030    2    1    2    0    0  0.00000000000E+00  0.00000000000E+00 -0.18606072361E+04  0.25249177028E+04  0.17068538658E+04 0.  0.
        4    1    3    3  502    0 -0.30115947718E+03  0.33233511122E+03  0.14377334028E+03  0.47097350575E+03  0.12699999809E+01 0. -1.
       -4    1    3    3    0  502  0.30115947718E+03 -0.33233511122E+03 -0.20043805764E+04  0.20539441971E+04  0.12699999809E+01 0.  1.
</event>
<event>
 5   0  0.2785059E-04  0.1586399E+04  0.7818609E-02  0.8828947E-01
        1   -1    0    0  501    0  0.00000000000E+00  0.00000000000E+00  0.86436036987E+03  0.86436036988E+03  0.50400001928E-02 0.  1.
       -1   -1    0    0    0  501  0.00000000000E+00  0.00000000000E+00 -0.72789745568E+03  0.72789745570E+03  0.50400001928E-02 0. -1.
    10030    2    1    2    0    0  0.00000000000E+00  0.00000000000E+00  0.13646291419E+03  0.15922578256E+04  0.15863993369E+04 0.  0.
        5    1    3    3  502    0 -0.60281664475E+03  0.26019405640E+03  0.51490839007E+03  0.83441092654E+03  0.46999998093E+01 0.  1.
       -5    1    3    3    0  502  0.60281664475E+03 -0.26019405640E+03 -0.37844547588E+03  0.75784689904E+03  0.46999998093E+01 0. -1.
</event>
<event>
 5   0  0.5021349E-04  0.1710954E+04  0.7818609E-02  0.8755142E-01
       -2   -1    0    0    0  501  0.00000000000E+00  0.00000000000E+00  0.77166310080E+03  0.77166310080E+03  0.25500000920E-02 0. -1.
        2   -1    0    0  501    0  0.00000000000E+00  0.00000000000E+00 -0.94839395957E+03  0.94839395958E+03  0.25500000920E-02 0.  1.
    10030    2    1    2    0    0  0.00000000000E+00  0.00000000000E+00 -0.17673085878E+03  0.17200570604E+04  0.17109536798E+04 0.  0.
        2    1    3    3  502    0  0.63625602811E+03  0.53862442578E+03  0.10475721186E+03  0.84018574065E+03  0.25500000920E-02 0. -1.
       -2    1    3    3    0  502 -0.63625602811E+03 -0.53862442578E+03 -0.28148807064E+03  0.87987131972E+03  0.25500000920E-02 0.  1.
</event>
<event>
 5   0  0.5021349E-04  0.1729420E+04  0.7818609E-02  0.8744761E-01
        2   -1    0    0  501    0  0.00000000000E+00  0.00000000000E+00  0.96471098174E+03  0.96471098175E+03  0.25500000920E-02 0.  1.
       -2   -1    0    0    0  501  0.00000000000E+00  0.00000000000E+00 -0.77507479161E+03  0.77507479162E+03  0.25500000920E-02 0. -1.
    10030    2    1    2    0    0  0.00000000000E+00  0.00000000000E+00  0.18963619013E+03  0.17397857734E+04  0.17294197445E+04 0.  0.
        2    1    3    3  502    0 -0.85770301091E+03 -0.30810766442E+02  0.20089873584E+03  0.88145564853E+03  0.25500000920E-02 0. -1.
       -2    1    3    3    0  502  0.85770301091E+03  0.30810766442E+02 -0.11262545708E+02  0.85833012484E+03  0.25500000920E-02 0.  1.
</event>
<event>
 5   0  0.2630135E-04  0.1690328E+04  0.7818609E-02  0.8766900E-01
        1   -1    0    0  501    0  0.00000000000E+00  0.00000000000E+00  0.96898814989E+03  0.96898814990E+03  0.50400001928E-02 0.  1.
       -1   -1    0    0    0  501  0.00000000000E+00  0.00000000000E+00 -0.73716315059E+03  0.73716315061E+03  0.50400001928E-02 0. -1.
    10030    2    1    2    0    0  0.00000000000E+00  0.00000000000E+00  0.23182499930E+03  0.17061513005E+04  0.16903282018E+04 0.  0.
        1    1    3    3  502    0  0.35528907037E+03 -0.44505259264E+03  0.74625839940E+03  0.93872452426E+03  0.50400001928E-02 0.  1.
       -1    1    3    3    0  502 -0.35528907037E+03  0.44505259264E+03 -0.51443340010E+03  0.76742677625E+03  0.50400001928E-02 0. -1.
</event>
<event>
 5   0  0.5299877E-04  0.1691129E+04  0.7818609E-02  0.8766440E-01
        2   -1    0    0  501    0  0.00000000000E+00  0.00000000000E+00  0.15532325637E+04  0.15532325637E+04  0.25500000920E-02 0. -1.
       -2   -1    0    0    0  501  0.00000000000E+00  0.00000000000E+00 -0.46031680142E+03  0.46031680143E+03  0.25500000920E-02 0.  1.
    10030    2    1    2    0    0  0.00000000000E+00  0.00000000000E+00  0.10929157623E+04  0.20135493652E+04  0.16911286712E+04 0.  0.
        3    1    3    3  502    0 -0.31074841719E+03 -0.78525122462E+03  0.49601332225E+03  0.97939434887E+03  0.10100000352E+00 0.  1.
       -3    1    3    3    0  502  0.31074841719E+03  0.78525122462E+03  0.59690244005E+03  0.10341550163E+04  0.10100000352E+00 0. -1.
</event>
<event>
 5   0  0.5299877E-04  0.1691767E+04  0.7818609E-02  0.8766074E-01
       -2   -1    0    0    0  501  0.00000000000E+00  0.00000000000E+00  0.14035568240E+04  0.14035568240E+04  0.25500000920E-02 0.  1.
        2   -1    0    0  501    0  0.00000000000E+00  0.00000000000E+00 -0.50978971242E+03  0.50978971243E+03  0.25500000920E-02 0. -1.
    10030    2    1    2    0    0  0.00000000000E+00  0.00000000000E+00  0.89376711154E+03  0.19133465364E+04  0.16917669221E+04 0.  0.
        3    1    3    3  502    0 -0.78991942404E+03 -0.24875256729E+03  0.64168820324E+03  0.10476708913E+04  0.10100000352E+00 0.  1.
       -3    1    3    3    0  502  0.78991942404E+03  0.24875256729E+03  0.25207890830E+03  0.86567564504E+03  0.10100000352E+00 0. -1.
</event>
<event>
 5   0  0.5198430E-04  0.1633985E+04  0.7818609E-02  0.8799938E-01
        2   -1    0    0  501    0  0.00000000000E+00  0.00000000000E+00  0.17918975211E+04  0.17918975211E+04  0.25500000920E-02 0.  1.
       -2   -1    0    0    0  501  0.00000000000E+00  0.00000000000E+00 -0.37249696177E+03  0.37249696177E+03  0.25500000920E-02 0. -1.
    10030    2    1    2    0    0  0.00000000000E+00  0.00000000000E+00  0.14194005593E+04  0.21643944828E+04  0.16339845561E+04 0.  0.
        4    1    3    3  502    0 -0.75509997738E+03 -0.30399861309E+03  0.61713243450E+03  0.10214916481E+04  0.12699999809E+01 0. -1.
       -4    1    3    3    0  502  0.75509997738E+03  0.30399861309E+03  0.80226812479E+03  0.11429028347E+04  0.12699999809E+01 0.  1.
</event>
<event>
 5   0  0.2561518E-04  0.1758965E+04  0.7818609E-02  0.8728431E-01
       -1   -1    0    0    0  501  0.00000000000E+00  0.00000000000E+00  0.75207567832E+03  0.75207567834E+03  0.50400001928E-02 0.  1.
        1   -1    0    0  501    0  0.00000000000E+00  0.00000000000E+00 -0.10284729102E+04  0.10284729102E+04  0.50400001928E-02 0. -1.
    10030    2    1    2    0    0  0.00000000000E+00  0.00000000000E+00 -0.27639723185E+03  0.17805485885E+04  0.17589649929E+04 0.  0.
        4    1    3    3  502    0  0.19503297497E+01 -0.26029780275E+03 -0.98858372280E+03  0.10222808517E+04  0.12699999809E+01 0. -1.
       -4    1    3    3    0  502 -0.19503297497E+01  0.26029780275E+03  0.71218649094E+03  0.75826773681E+03  0.12699999809E+01 0.  1.
</event>
<event>
 5   0  0.2561518E-04  0.1724229E+04  0.7818609E-02  0.8747665E-01
        1   -1    0    0  501    0  0.00000000000E+00  0.00000000000E+00  0.10002553193E+04  0.10002553193E+04  0.50400001928E-02 0. -1.
       -1   -1    0    0    0  501  0.00000000000E+00  0.00000000000E+00 -0.74305173538E+03  0.74305173540E+03  0.50400001928E-02 0.  1.
    10030    2    1    2    0    0  0.00000000000E+00  0.00000000000E+00  0.25720358389E+03  0.17433070547E+04  0.17242290461E+04 0.  0.
        4    1    3    3  502    0 -0.73494654449E+03  0.43860440375E+03  0.23920746245E+02  0.85620912238E+03  0.12699999809E+01 0.  1.
       -4    1    3    3    0  502  0.73494654449E+03 -0.43860440375E+03  0.23328283765E+03  0.88709793230E+03  0.12699999809E+01 0. -1.
</event>
<event>
 5   0  0.5342255E-04  0.1683730E+04  0.7818609E-02  0.8770699E-01
        2   -1    0    0  501    0  0.00000000000E+00  0.00000000000E+00  0.11297213956E+04  0.11297213956E+04  0.25500000920E-02 0. -1.
       -2   -1    0    0    0  501  0.00000000000E+00  0.00000000000E+00 -0.62735490531E+03  0.62735490531E+03  0.25500000920E-02 0.  1.
    10030    2    1    2    0    0  0.00000000000E+00  0.00000000000E+00  0.50236649032E+03  0.17570763009E+04  0.16837295022E+04 0.  0.
        5    1    3    3  502    0 -0.19047836141E+03 -0.75876731121E+03  0.57570309075E+03  0.97132176822E+03  0.46999998093E+01 0. -1.
       -5    1    3    3    0  502  0.19047836141E+03  0.75876731121E+03 -0.73336600428E+02  0.78575453272E+03  0.46999998093E+01 0.  1.
</event>
<event>
 5   0  0.2561518E-04  0.1491986E+04  0.7818609E-02  0.8889800E-01
        1   -1    0    0  501    0  0.00000000000E+00  0.00000000000E+00  0.75658987696E+03  0.75658987698E+03  0.50400001928E-02 0. -1.
       -1   -1    0    0    0  501  0.00000000000E+00  0.00000000000E+00 -0.73554473198E+03  0.73554473200E+03  0.50400001928E-02 0.  1.
    10030    2    1    2    0    0  0.00000000000E+00  0.00000000000E+00  0.21045144975E+02  0.14921346090E+04  0.14919861907E+04 0.  0.
        4    1    3    3  502    0 -0.46955407555E+03  0.35197934824E+03  0.47114801780E+03  0.75256398999E+03  0.12699999809E+01 0. -1.
       -4    1    3    3    0  502  0.46955407555E+03 -0.35197934824E+03 -0.45010287282E+03  0.73957061899E+03  0.12699999809E+01 0.  1.
</event>
<event>
 5   0  0.5299877E-04  0.1699392E+04  0.7818609E-02  0.8761711E-01
        2   -1    0    0  501    0  0.00000000000E+00  0.00000000000E+00  0.78829630493E+03  0.78829630494E+03  0.25500000920E-02 0.  1.
       -2   -1    0    0    0  501  0.00000000000E+00  0.00000000000E+00 -0.91587758646E+03  0.91587758646E+03  0.25500000920E-02 0. -1.
    10030    2    1    2    0    0  0.00000000000E+00  0.00000000000E+00 -0.12758128153E+03  0.17041738914E+04  0.16993915584E+04 0.  0.
        3    1    3    3  502    0 -0.12393837577E+03  0.72833103891E+03  0.35710000544E+03  0.82057738655E+03  0.10100000352E+00 0.  1.
       -3    1    3    3    0  502  0.12393837577E+03 -0.72833103891E+03 -0.48468128697E+03  0.88359650485E+03  0.10100000352E+00 0. -1.
</event>
<event>
 5   0  0.5299877E-04  0.1675808E+04  0.7818609E-02  0.8775283E-01
       -2   -1    0    0    0  501  0.00000000000E+00  0.00000000000E+00  0.66311727512E+03  0.66311727513E+03  0.25500000920E-02 0.  1.
        2   -1    0    0  501    0  0.00000000000E+00  0.00000000000E+00 -0.10587617284E+04  0.10587617284E+04  0.25500000920E-02 0. -1.
    10030    2    1    2    0    0  0.00000000000E+00  0.00000000000E+00 -0.39564445324E+03  0.17218790035E+04  0.16758080944E+04 0.  0.
        3    1    3    3  502    0  0.97444689072E+02 -0.80613743030E+03 -0.41021786626E+03  0.90974267348E+03  0.10100000352E+00 0.  1.
       -3    1    3    3    0  502 -0.97444689072E+02  0.80613743030E+03  0.14573413014E+02  0.81213633001E+03  0.10100000352E+00 0. -1.
</event>
<event>
 5   0  0.2561518E-04  0.1676836E+04  0.7818609E-02  0.8774687E-01
       -1   -1    0    0    0  501  0.00000000000E+00  0.00000000000E+00  0.63827041550E+03  0.63827041552E+03  0.50400001928E-02 0.  1.
        1   -1    0    0  501    0  0.00000000000E+00  0.00000000000E+00 -0.11013272329E+04  0.11013272329E+04  0.50400001928E-02 0. -1.
    10030    2    1    2    0    0  0.00000000000E+00  0.00000000000E+00 -0.46305681742E+03  0.17395976485E+04  0.16768358185E+04 0.  0.
        4    1    3    3  502    0  0.28747986730E+03 -0.66250206968E+03 -0.67336747813E+03  0.98741026931E+03  0.12699999809E+01 0. -1.
       -4    1    3    3    0  502 -0.28747986730E+03  0.66250206968E+03  0.21031066071E+03  0.75218737915E+03  0.12699999809E+01 0.  1.
</event>
<event>
 5   0  0.2583422E-04  0.1655304E+04  0.7818609E-02  0.8787275E-01
        1   -1    0    0  501    0  0.00000000000E+00  0.00000000000E+00  0.97089689151E+03  0.97089689153E+03  0.50400001928E-02 0.  1.
       -1   -1    0    0    0  501  0.00000000000E+00  0.00000000000E+00 -0.70554146599E+03  0.70554146601E+03  0.50400001928E-02 0. -1.
    10030    2    1    2    0    0  0.00000000000E+00  0.00000000000E+00  0.26535542552E+03  0.16764383575E+04  0.16553042212E+04 0.  0.
        3    1    3    3  502    0  0.19281708774E+03  0.89589950386E+01  0.94778213076E+03  0.96723816638E+03  0.10100000352E+00 0.  1.
       -3    1    3    3    0  502 -0.19281708774E+03 -0.89589950386E+01 -0.68242670524E+03  0.70920019116E+03  0.10100000352E+00 0. -1.
</event>
<event>
 5   0  0.2561518E-04  0.1689424E+04  0.7818609E-02  0.8767419E-01
        1   -1    0    0  501    0  0.00000000000E+00  0.00000000000E+00  0.93159137502E+03  0.93159137503E+03  0.50400001928E-02 0. -1.
       -1   -1    0    0    0  501  0.00000000000E+00  0.00000000000E+00 -0.76593530823E+03  0.76593530825E+03  0.50400001928E-02 0.  1.
    10030    2    1    2    0    0  0.00000000000E+00  0.00000000000E+00  0.16565606679E+03  0.16975266833E+04  0.16894244310E+04 0.  0.
        4    1    3    3  502    0 -0.25082883401E+03  0.69089560704E+03 -0.33544384183E+03  0.80794555988E+03  0.12699999809E+01 0.  1.
       -4    1    3    3    0  502  0.25082883401E+03 -0.69089560704E+03  0.50109990862E+03  0.88958112341E+03  0.12699999809E+01 0. -1.
</event>
<event>
 5   0  0.5342255E-04  0.1687917E+04  0.7818609E-02  0.8768286E-01
       -2   -1    0    0    0  501  0.00000000000E+00  0.00000000000E+00  0.41189550739E+03  0.41189550740E+03  0.25500000920E-02 0. -1.
        2   -1    0    0  501    0  0.00000000000E+00  0.00000000000E+00 -0.17292392825E+04  0.17292392825E+04  0.25500000920E-02 0.  1.
    10030    2    1    2    0    0  0.00000000000E+00  0.00000000000E+00 -0.13173437752E+04  0.21411347899E+04  0.16879169312E+04 0.  0.
        5    1    3    3  502    0  0.29653571656E+03 -0.78804054083E+03 -0.73156941653E+03  0.11154179604E+04  0.46999998093E+01 0. -1.
       -5    1    3    3    0  502 -0.29653571656E+03  0.78804054083E+03 -0.58577435862E+03  0.10257168295E+04  0.46999998093E+01 0.  1.
</event>
<event>
 5   0  0.2561518E-04  0.1710909E+04  0.7818609E-02  0.8755167E-01
       -1   -1    0    0    0  501  0.00000000000E+00  0.00000000000E+00  0.65558862344E+03  0.65558862346E+03  0.50400001928E-02 0.  1.
        1   -1    0    0  501    0  0.00000000000E+00  0.00000000000E+00 -0.11162524803E+04  0.11162524803E+04  0.50400001928E-02 0. -1.
    10030    2    1    2    0    0  0.00000000000E+00  0.00000000000E+00 -0.46066385686E+03  0.17718411038E+04  0.17109090297E+04 0.  0.
        4    1    3    3  502    0  0.70064171897E+03 -0.45040616070E+03 -0.28357258554E+02  0.83340882823E+03  0.12699999809E+01 0.  1.
       -4    1    3    3    0  502 -0.70064171897E+03  0.45040616070E+03 -0.43230659831E+03  0.93843227555E+03  0.12699999809E+01 0. -1.
</event>
<event>
 5   0  0.1910750E-04  0.1631339E+04  0.7818609E-02  0.8801523E-01
        3   -1    0    0  501    0  0.00000000000E+00  0.00000000000E+00  0.24216491122E+03  0.24216493228E+03  0.10100000352E+00 0.  1.
       -3   -1    0    0    0  501  0.00000000000E+00  0.00000000000E+00 -0.27473711662E+04  0.27473711681E+04  0.10100000352E+00 0. -1.
    10030    2    1    2    0    0  0.00000000000E+00  0.00000000000E+00 -0.25052062550E+04  0.29895361004E+04  0.16313392398E+04 0.  0.
        3    1    3    3  502    0 -0.29720463350E+03 -0.13303581225E+03 -0.26230972940E+04  0.26432307023E+04  0.10100000352E+00 0. -1.
       -3    1    3    3    0  502  0.29720463350E+03  0.13303581225E+03  0.11789103894E+03  0.34630539813E+03  0.10100000352E+00 0.  1.
</event>
<event>
 5   0  0.2595644E-04  0.1665350E+04  0.7818609E-02  0.8781377E-01
        1   -1    0    0  501    0  0.00000000000E+00  0.00000000000E+00  0.84131698057E+03  0.84131698059E+03  0.50400001928E-02 0.  1.
       -1   -1    0    0    0  501  0.00000000000E+00  0.00000000000E+00 -0.82412222018E+03  0.82412222020E+03  0.50400001928E-02 0. -1.
    10030    2    1    2    0    0  0.00000000000E+00  0.00000000000E+00  0.17194760392E+02  0.16654392008E+04  0.16653504351E+04 0.  0.
        2    1    3    3  502    0 -0.34401257397E+03  0.62555101650E+03 -0.42001535292E+03  0.82829440538E+03  0.25500000920E-02 0. -1.
       -2    1    3    3    0  502  0.34401257397E+03 -0.62555101650E+03  0.43721011331E+03  0.83714479541E+03  0.25500000920E-02 0.  1.
</event>
<event>
 5   0  0.2785059E-04  0.1717855E+04  0.7818609E-02  0.8751246E-01
       -1   -1    0    0    0  501  0.00000000000E+00  0.00000000000E+00  0.56463738626E+03  0.56463738629E+03  0.50400001928E-02 0.  1.
        1   -1    0    0  501    0  0.00000000000E+00  0.00000000000E+00 -0.13066019375E+04  0.13066019375E+04  0.50400001928E-02 0. -1.
    10030    2    1    2    0    0  0.00000000000E+00  0.00000000000E+00 -0.74196455126E+03  0.18712393238E+04  0.17178548285E+04 0.  0.
        5    1    3    3  502    0  0.32651809314E+03 -0.75658642345E+03 -0.10707502935E+03  0.83097787768E+03  0.46999998093E+01 0.  1.
       -5    1    3    3    0  502 -0.32651809314E+03  0.75658642345E+03 -0.63488952192E+03  0.10402614461E+04  0.46999998093E+01 0. -1.
</event>
<event>
 5   0  0.5021349E-04  0.1663126E+04  0.7818609E-02  0.8782679E-01
       -2   -1    0    0    0  501  0.00000000000E+00  0.00000000000E+00  0.46573245529E+03  0.46573245529E+03  0.25500000920E-02 0. -1.
        2   -1    0    0  501    0  0.00000000000E+00  0.00000000000E+00 -0.14847512691E+04  0.14847512691E+04  0.25500000920E-02 0.  1.
    10030    2    1    2    0    0  0.00000000000E+00  0.00000000000E+00 -0.10190188138E+04  0.19504837244E+04  0.16631257969E+04 0.  0.
        2    1    3    3  502    0  0.52000788292E+03  0.63425866744E+03 -0.34868599793E+03  0.89122061280E+03  0.25500000920E-02 0.  1.
       -2    1    3    3    0  502 -0.52000788292E+03 -0.63425866744E+03 -0.67033281587E+03  0.10592631116E+04  0.25500000920E-02 0. -1.
</event>
<event>
 5   0  0.5198430E-04  0.1675758E+04  0.7818609E-02  0.8775313E-01
       -2   -1    0    0    0  501  0.00000000000E+00  0.00000000000E+00  0.97196736932E+03  0.97196736933E+03  0.25500000920E-02 0. -1.
        2   -1    0    0  501    0  0.00000000000E+00  0.00000000000E+00 -0.72228848562E+03  0.72228848563E+03  0.25500000920E-02 0.  1.
    10030    2    1    2    0    0  0.00000000000E+00  0.00000000000E+00  0.24967888370E+03  0.16942558550E+04  0.16757575472E+04 0.  0.
        4    1    3    3  502    0 -0.31968609859E+02  0.66455283053E+03 -0.39008288311E+03  0.77124491907E+03  0.12699999809E+01 0.  1.
       -4    1    3    3    0  502  0.31968609859E+02 -0.66455283053E+03  0.63976176681E+03  0.92301093589E+03  0.12699999809E+01 0. -1.
</event>
<event>
 5   0  0.5299877E-04  0.1712005E+04  0.7818609E-02  0.8754547E-01
        2   -1    0    0  501    0  0.00000000000E+00  0.00000000000E+00  0.12891053201E+04  0.12891053201E+04  0.25500000920E-02 0.  1.
       -2   -1    0    0    0  501  0.00000000000E+00  0.00000000000E+00 -0.56840994502E+03  0.56840994503E+03  0.25500000920E-02 0. -1.
    10030    2    1    2    0    0  0.00000000000E+00  0.00000000000E+00  0.72069537504E+03  0.18575152651E+04  0.17120050048E+04 0.  0.
        3    1    3    3  502    0  0.13516972996E+03 -0.82292323694E+03  0.56980146817E+03  0.10100233825E+04  0.10100000352E+00 0.  1.
       -3    1    3    3    0  502 -0.13516972996E+03  0.82292323694E+03  0.15089390688E+03  0.84749188263E+03  0.10100000352E+00 0. -1.
</event>
<event>
 5   0  0.2561518E-04  0.1701748E+04  0.7818609E-02  0.8760368E-01
       -1   -1    0    0    0  501  0.00000000000E+00  0.00000000000E+00  0.51032521336E+03  0.51032521338E+03  0.50400001928E-02 0. -1.
        1   -1    0    0  501    0  0.00000000000E+00  0.00000000000E+00 -0.14186769920E+04  0.14186769920E+04  0.50400001928E-02 0.  1.
    10030    2    1    2    0    0  0.00000000000E+00  0.00000000000E+00 -0.90835177861E+03  0.19290022054E+04  0.17017480879E+04 0.  0.
        4    1    3    3  502    0 -0.67659843058E+03  0.19023157463E+03 -0.99781696528E+03  0.12204973566E+04  0.12699999809E+01 0.  1.
       -4    1    3    3    0  502  0.67659843058E+03 -0.19023157463E+03  0.89465186671E+02  0.70850484880E+03  0.12699999809E+01 0. -1.
</event>
<event>
 5   0  0.2583422E-04  0.1656424E+04  0.7818609E-02  0.8786615E-01
       -1   -1    0    0    0  501  0.00000000000E+00  0.00000000000E+00  0.91486874528E+03  0.91486874529E+03  0.50400001928E-02 0.  1.
        1   -1    0    0  501    0  0.00000000000E+00  0.00000000000E+00 -0.74976318278E+03  0.74976318280E+03  0.50400001928E-02 0. -1.
    10030    2    1    2    0    0  0.00000000000E+00  0.00000000000E+00  0.16510556250E+03  0.16646319281E+04  0.16564237409E+04 0.  0.
        3    1    3    3  502    0  0.63448302139E+03  0.51209477411E+03 -0.63512321674E+02  0.81782858064E+03  0.10100000352E+00 0.  1.
       -3    1    3    3    0  502 -0.63448302139E+03 -0.51209477411E+03  0.22861788417E+03  0.84680334746E+03  0.10100000352E+00 0. -1.
</event>
<event>
 5   0  0.2785059E-04  0.1661177E+04  0.7818609E-02  0.8783821E-01
       -1   -1    0    0    0  501  0.00000000000E+00  0.00000000000E+00  0.12477817296E+04  0.12477817296E+04  0.50400001928E-02 0.  1.
        1   -1    0    0  501    0  0.00000000000E+00  0.00000000000E+00 -0.55288322408E+03  0.55288322410E+03  0.50400001928E-02 0. -1.
    10030    2    1    2    0    0  0.00000000000E+00  0.00000000000E+00  0.69489850554E+03  0.18006649537E+04  0.16611773965E+04 0.  0.
        5    1    3    3  502    0  0.13748886838E+03  0.51002969979E+03 -0.34732505721E+03  0.63221062072E+03  0.46999998093E+01 0. -1.
       -5    1    3    3    0  502 -0.13748886838E+03 -0.51002969979E+03  0.10422235628E+04  0.11684543330E+04  0.46999998093E+01 0.  1.
</event>
<event>
 5   0  0.2785059E-04  0.1617311E+04  0.7818609E-02  0.8809983E-01
       -1   -1    0    0    0  501  0.00000000000E+00  0.00000000000E+00  0.78286152403E+03  0.78286152405E+03  0.50400001928E-02 0.  1.
        1   -1    0    0  501    0  0.00000000000E+00  0.00000000000E+00 -0.83529982518E+03  0.83529982519E+03  0.50400001928E-02 0. -1.
    10030    2    1    2    0    0  0.00000000000E+00  0.00000000000E+00 -0.52438301144E+02  0.16181613492E+04  0.16173114656E+04 0.  0.
        5    1    3    3  502    0  0.43591440485E+03  0.67302455566E+03  0.78327784206E+02  0.80569271603E+03  0.46999998093E+01 0.  1.
       -5    1    3    3    0  502 -0.43591440485E+03 -0.67302455566E+03 -0.13076608535E+03  0.81246863322E+03  0.46999998093E+01 0. -1.
</event>
<event>
 5   0  0.5021349E-04  0.1685007E+04  0.7818609E-02  0.8769962E-01
       -2   -1    0    0    0  501  0.00000000000E+00  0.00000000000E+00  0.50036871566E+03  0.50036871567E+03  0.25500000920E-02 0.  1.
        2   -1    0    0  501    0  0.00000000000E+00  0.00000000000E+00 -0.14185779521E+04  0.14185779521E+04  0.25500000920E-02 0. -1.
    10030    2    1    2    0    0  0.00000000000E+00  0.00000000000E+00 -0.91820923647E+03  0.19189466678E+04  0.16850068581E+04 0.  0.
        2    1    3    3  502    0 -0.16663261879E+03 -0.62511024433E+03  0.15553229337E+03  0.66537173181E+03  0.25500000920E-02 0.  1.
       -2    1    3    3    0  502  0.16663261879E+03  0.62511024433E+03 -0.10737415298E+04  0.12535749360E+04  0.25500000920E-02 0. -1.
</event>
<event>
 5   0  0.5021349E-04  0.1665395E+04  0.7818609E-02  0.8781351E-01
       -2   -1    0    0    0  501  0.00000000000E+00  0.00000000000E+00  0.26068784626E+03  0.26068784627E+03  0.25500000920E-02 0.  1.
        2   -1    0    0  501    0  0.00000000000E+00  0.00000000000E+00 -0.26598285908E+04  0.26598285908E+04  0.25500000920E-02 0. -1.
    10030    2    1    2    0    0  0.00000000000E+00  0.00000000000E+00 -0.23991407445E+04  0.29205164370E+04  0.16653948322E+04 0.  0.
        2    1    3    3  502    0  0.97345773710E+02  0.55998736571E+03 -0.13240248433E+03  0.58360300486E+03  0.25500000920E-02 0.  1.
       -2    1    3    3    0  502 -0.97345773710E+02 -0.55998736571E+03 -0.22667382602E+04  0.23369134322E+04  0.25500000920E-02 0. -1.
</event>
<event>
 5   0  0.2583422E-04  0.1687292E+04  0.7818609E-02  0.8768645E-01
       -1   -1    0    0    0  501  0.00000000000E+00  0.00000000000E+00  0.33225665503E+03  0.33225665507E+03  0.50400001928E-02 0. -1.
        1   -1    0    0  501    0  0.00000000000E+00  0.00000000000E+00 -0.21421352913E+04  0.21421352913E+04  0.50400001928E-02 0.  1.
    10030    2    1    2    0    0  0.00000000000E+00  0.00000000000E+00 -0.18098786362E+04  0.24743919463E+04  0.16872921579E+04 0.  0.
        3    1    3    3  502    0  0.20753602127E+03 -0.12292101111E+03  0.28061169720E+03  0.37003203903E+03  0.10100000352E+00 0. -1.
       -3    1    3    3    0  502 -0.20753602127E+03  0.12292101111E+03 -0.20904903334E+04  0.21043599073E+04  0.10100000352E+00 0.  1.
</event>
<event>
 5   0  0.2630135E-04  0.1621603E+04  0.7818609E-02  0.8807386E-01
        1   -1    0    0  501    0  0.00000000000E+00  0.00000000000E+00  0.57747889894E+03  0.57747889896E+03  0.50400001928E-02 0. -1.
       -1   -1    0    0    0  501  0.00000000000E+00  0.00000000000E+00 -0.11383942917E+04  0.11383942917E+04  0.50400001928E-02 0.  1.
    10030    2    1    2    0    0  0.00000000000E+00  0.00000000000E+00 -0.56091539280E+03  0.17158731907E+04  0.16216025187E+04 0.  0.
        1    1    3    3  502    0  0.12234231476E+03 -0.32133151516E+03  0.49651632254E+03  0.60394539753E+03  0.50400001928E-02 0. -1.
       -1    1    3    3    0  502 -0.12234231476E+03  0.32133151516E+03 -0.10574317153E+04  0.11119277932E+04  0.50400001928E-02 0.  1.
</event>
<event>
 5   0  0.5310003E-04  0.1695025E+04  0.7818609E-02  0.8764207E-01
       -2   -1    0    0    0  501  0.00000000000E+00  0.00000000000E+00  0.45522217626E+03  0.45522217626E+03  0.25500000920E-02 0. -1.
        2   -1    0    0  501    0  0.00000000000E+00  0.00000000000E+00 -0.15778617567E+04  0.15778617567E+04  0.25500000920E-02 0.  1.
    10030    2    1    2    0    0  0.00000000000E+00  0.00000000000E+00 -0.11226395805E+04  0.20330839330E+04  0.16950252656E+04 0.  0.
        1    1    3    3  502    0  0.63273771155E+03 -0.24385277141E+03 -0.11710993217E+04  0.13532534157E+04  0.50400001928E-02 0.  1.
       -1    1    3    3    0  502 -0.63273771155E+03  0.24385277141E+03  0.48459741209E+02  0.67983051733E+03  0.50400001928E-02 0. -1.
</event>
<event>
 5   0  0.5342255E-04  0.1704272E+04  0.7818609E-02  0.8758932E-01
       -2   -1    0    0    0  501  0.00000000000E+00  0.00000000000E+00  0.48764675994E+03  0.48764675995E+03  0.25500000920E-02 0.  1.
        2   -1    0    0  501    0  0.00000000000E+00  0.00000000000E+00 -0.14890604599E+04  0.14890604599E+04  0.25500000920E-02 0. -1.
    10030    2    1    2    0    0  0.00000000000E+00  0.00000000000E+00 -0.10014136999E+04  0.19767072198E+04  0.17042717021E+04 0.  0.
        5    1    3    3  502    0  0.53496526967E+03 -0.35141314806E+03  0.15174031094E+03  0.65781931588E+03  0.46999998093E+01 0.  1.
       -5    1    3    3    0  502 -0.53496526967E+03  0.35141314806E+03 -0.11531540109E+04  0.13188879040E+04  0.46999998093E+01 0. -1.
</event>
<event>
 5   0  0.2595644E-04  0.1476000E+04  0.7818609E-02  0.8900571E-01
        1   -1    0    0  501    0  0.00000000000E+00  0.00000000000E+00  0.86999128593E+03  0.86999128594E+03  0.50400001928E-02 0.  1.
       -1   -1    0    0    0  501  0.00000000000E+00  0.00000000000E+00 -0.62603381123E+03  0.62603381125E+03  0.50400001928E-02 0. -1.
    10030    2    1    2    0    0  0.00000000000E+00  0.00000000000E+00  0.24395747469E+03  0.14960250972E+04  0.14759999465E+04 0.  0.
        2    1    3    3  502    0 -0.71449571330E+00  0.69636347568E+03  0.36967381783E+03  0.78840429500E+03  0.25500000920E-02 0.  1.
       -2    1    3    3    0  502  0.71449571330E+00 -0.69636347568E+03 -0.12571634314E+03  0.70762080220E+03  0.25500000920E-02 0. -1.
</event>
<event>
 5   0  0.2595644E-04  0.1688091E+04  0.7818609E-02  0.8768186E-01
        1   -1    0    0  501    0  0.00000000000E+00  0.00000000000E+00  0.11821477131E+04  0.11821477131E+04  0.50400001928E-02 0. -1.
       -1   -1    0    0    0  501  0.00000000000E+00  0.00000000000E+00 -0.60264312520E+03  0.60264312522E+03  0.50400001928E-02 0.  1.
    10030    2    1    2    0    0  0.00000000000E+00  0.00000000000E+00  0.57950458790E+03  0.17847908383E+04  0.16880914576E+04 0.  0.
        2    1    3    3  502    0 -0.15898420597E+03  0.77392027555E+02  0.11623458458E+04  0.11757182354E+04  0.25500000920E-02 0. -1.
       -2    1    3    3    0  502  0.15898420597E+03 -0.77392027555E+02 -0.58284125795E+03  0.60907260294E+03  0.25500000920E-02 0.  1.
</event>
<event>
 5   0  0.2583422E-04  0.1802579E+04  0.7818609E-02  0.8704929E-01
       -1   -1    0    0    0  501  0.00000000000E+00  0.00000000000E+00  0.17102891213E+04  0.17102891213E+04  0.50400001928E-02 0.  1.
        1   -1    0    0  501    0  0.00000000000E+00  0.00000000000E+00 -0.47496205651E+03  0.47496205654E+03  0.50400001928E-02 0. -1.
    10030    2    1    2    0    0  0.00000000000E+00  0.00000000000E+00  0.12353270648E+04  0.21852511778E+04  0.18025786400E+04 0.  0.
        3    1    3    3  502    0 -0.46054184454E+03  0.76921480620E+03  0.50568412852E+03  0.10293233975E+04  0.10100000352E+00 0.  1.
       -3    1    3    3    0  502  0.46054184454E+03 -0.76921480620E+03  0.72964293627E+03  0.11559277803E+04  0.10100000352E+00 0. -1.
</event>
<event>
 5   0  0.5299877E-04  0.1713176E+04  0.7818609E-02  0.8753885E-01
       -2   -1    0    0    0  501  0.00000000000E+00  0.00000000000E+00  0.10919239588E+04  0.10919239588E+04  0.25500000920E-02 0. -1.
        2   -1    0    0  501    0  0.00000000000E+00  0.00000000000E+00 -0.67197230666E+03  0.67197230667E+03  0.25500000920E-02 0.  1.
    10030    2    1    2    0    0  0.00000000000E+00  0.00000000000E+00  0.41995165211E+03  0.17638962654E+04  0.17131756025E+04 0.  0.
        3    1    3    3  502    0 -0.79305473641E+03  0.29192643088E+03  0.35406845432E+03  0.91625396946E+03  0.10100000352E+00 0. -1.
       -3    1    3    3    0  502  0.79305473641E+03 -0.29192643088E+03  0.65883197782E+02  0.84764229599E+03  0.10100000352E+00 0.  1.
</event>
<event>
 5   0  0.2785059E-04  0.1709285E+04  0.7818609E-02  0.8756087E-01
       -1   -1    0    0    0  501  0.00000000000E+00  0.00000000000E+00  0.16017584941E+04  0.16017584941E+04  0.50400001928E-02 0.  1.
        1   -1    0    0  501    0  0.00000000000E+00  0.00000000000E+00 -0.45600721582E+03  0.45600721585E+03  0.50400001928E-02 0. -1.
    10030    2    1    2    0    0  0.00000000000E+00  0.00000000000E+00  0.11457512783E+04  0.20577657099E+04  0.17092845654E+04 0.  0.
        5    1    3    3  502    0 -0.10686002458E+03  0.47212543204E+03  0.14207919165E+04  0.15009974178E+04  0.46999998093E+01 0.  1.
       -5    1    3    3    0  502  0.10686002458E+03 -0.47212543204E+03 -0.27504063821E+03  0.55676829211E+03  0.46999998093E+01 0. -1.
</event>
<event>
 5   0  0.2595644E-04  0.1834839E+04  0.7818609E-02  0.8687989E-01
        1   -1    0    0  501    0  0.00000000000E+00  0.00000000000E+00  0.11595176018E+04  0.11595176018E+04  0.50400001928E-02 0.  1.
       -1   -1    0    0    0  501  0.00000000000E+00  0.00000000000E+00 -0.72586923217E+03  0.72586923219E+03  0.50400001928E-02 0. -1.
    10030    2    1    2    0    0  0.00000000000E+00  0.00000000000E+00  0.43364836961E+03  0.18853868340E+04  0.18348385774E+04 0.  0.
        2    1    3    3  502    0 -0.81283766868E+03  0.42320471954E+03  0.17261757920E+03  0.93252567735E+03  0.25500000920E-02 0. -1.
       -2    1    3    3    0  502  0.81283766868E+03 -0.42320471954E+03  0.26103079042E+03  0.95286115663E+03  0.25500000920E-02 0.  1.
</event>
<event>
 5   0  0.5299877E-04  0.1689517E+04  0.7818609E-02  0.8767366E-01
       -2   -1    0    0    0  501  0.00000000000E+00  0.00000000000E+00  0.53831129960E+03  0.53831129961E+03  0.25500000920E-02 0. -1.
        2   -1    0    0  501    0  0.00000000000E+00  0.00000000000E+00 -0.13256590342E+04  0.13256590342E+04  0.25500000920E-02 0.  1.
    10030    2    1    2    0    0  0.00000000000E+00  0.00000000000E+00 -0.78734773461E+03  0.18639703338E+04  0.16895173720E+04 0.  0.
        3    1    3    3  502    0  0.94456658347E+02 -0.61510755114E+03  0.23657209212E+03  0.66576701988E+03  0.10100000352E+00 0. -1.
       -3    1    3    3    0  502 -0.94456658347E+02  0.61510755114E+03 -0.10239198267E+04  0.11982033139E+04  0.10100000352E+00 0.  1.
</event>
<event>
 5   0  0.5342255E-04  0.1694870E+04  0.7818609E-02  0.8764296E-01
       -2   -1    0    0    0  501  0.00000000000E+00  0.00000000000E+00  0.30512405124E+03  0.30512405125E+03  0.25500000920E-02 0. -1.
        2   -1    0    0  501    0  0.00000000000E+00  0.00000000000E+00 -0.23536187910E+04  0.23536187910E+04  0.25500000920E-02 0.  1.
    10030    2    1    2    0    0  0.00000000000E+00  0.00000000000E+00 -0.20484947397E+04  0.26587428422E+04  0.16948695532E+04 0.  0.
        5    1    3    3  502    0  0.51431312990E+03  0.57833418200E+03 -0.48279521730E+03  0.91219610474E+03  0.46999998093E+01 0.  1.
       -5    1    3    3    0  502 -0.51431312990E+03 -0.57833418200E+03 -0.15656995224E+04  0.17465467375E+04  0.46999998093E+01 0. -1.
</event>
<event>
 5   0  0.5342255E-04  0.1711267E+04  0.7818609E-02  0.8754964E-01
        2   -1    0    0  501    0  0.00000000000E+00  0.00000000000E+00  0.13179202283E+04  0.13179202283E+04  0.25500000920E-02 0.  1.
       -2   -1    0    0    0  501  0.00000000000E+00  0.00000000000E+00 -0.55550309151E+03  0.55550309152E+03  0.25500000920E-02 0. -1.
    10030    2    1    2    0    0  0.00000000000E+00  0.00000000000E+00  0.76241713681E+03  0.18734233198E+04  0.17112670875E+04 0.  0.
        5    1    3    3  502    0  0.24333029022E+03 -0.64479461311E+03  0.93632422485E+03  0.11626241298E+04  0.46999998093E+01 0.  1.
       -5    1    3    3    0  502 -0.24333029022E+03  0.64479461311E+03 -0.17390708804E+03  0.71079919000E+03  0.46999998093E+01 0. -1.
</event>
<event>
 5   0  0.5342255E-04  0.1663859E+04  0.7818609E-02  0.8782249E-01
       -2   -1    0    0    0  501  0.00000000000E+00  0.00000000000E+00  0.48586114219E+03  0.48586114220E+03  0.25500000920E-02 0. -1.
        2   -1    0    0  501    0  0.00000000000E+00  0.00000000000E+00 -0.14244952445E+04  0.14244952445E+04  0.25500000920E-02 0.  1.
    10030    2    1    2    0    0  0.00000000000E+00  0.00000000000E+00 -0.93863410229E+03  0.19103563867E+04  0.16638592327E+04 0.  0.
        5    1    3    3  502    0  0.44580298615E+03  0.62649467756E+03 -0.83393112207E+03  0.11343275937E+04  0.46999998093E+01 0.  1.
       -5    1    3    3    0  502 -0.44580298615E+03 -0.62649467756E+03 -0.10470298022E+03  0.77602879298E+03  0.46999998093E+01 0. -1.
</event>
<event>
 5   0  0.5021349E-04  0.1708018E+04  0.7818609E-02  0.8756805E-01
       -2   -1    0    0    0  501  0.00000000000E+00  0.00000000000E+00  0.68921666964E+03  0.68921666964E+03  0.25500000920E-02 0.  1.
        2   -1    0    0  501    0  0.00000000000E+00  0.00000000000E+00 -0.10582031943E+04  0.10582031943E+04  0.25500000920E-02 0. -1.
    10030    2    1    2    0    0  0.00000000000E+00  0.00000000000E+00 -0.36898652464E+03  0.17474198639E+04  0.17080178938E+04 0.  0.
        2    1    3    3  502    0  0.20695988401E+03 -0.63167124778E+03 -0.73304357520E+03  0.98954223862E+03  0.25500000920E-02 0. -1.
       -2    1    3    3    0  502 -0.20695988401E+03  0.63167124778E+03  0.36405705056E+03  0.75787762530E+03  0.25500000920E-02 0.  1.
</event>
<event>
 5   0  0.5198430E-04  0.1702547E+04  0.7818609E-02  0.8759913E-01
        2   -1    0    0  501    0  0.00000000000E+00  0.00000000000E+00  0.72905570752E+03  0.72905570753E+03  0.25500000920E-02 0. -1.
       -2   -1    0    0    0  501  0.00000000000E+00  0.00000000000E+00 -0.99397924995E+03  0.99397924996E+03  0.25500000920E-02 0.  1.
    10030    2    1    2    0    0  0.00000000000E+00  0.00000000000E+00 -0.26492354243E+03  0.17230349575E+04  0.17025466165E+04 0.  0.
        4    1    3    3  502    0 -0.31038547623E+03 -0.32738202040E+03 -0.86305390175E+03  0.97384895202E+03  0.12699999809E+01 0.  1.
       -4    1    3    3    0  502  0.31038547623E+03  0.32738202040E+03  0.59813035932E+03  0.74918600546E+03  0.12699999809E+01 0. -1.
</event>
<event>
 5   0  0.5299877E-04  0.1691237E+04  0.7818609E-02  0.8766378E-01
        2   -1    0    0  501    0  0.00000000000E+00  0.00000000000E+00  0.97691957400E+03  0.97691957400E+03  0.25500000920E-02 0.  1.
       -2   -1    0    0    0  501  0.00000000000E+00  0.00000000000E+00 -0.73196429856E+03  0.73196429856E+03  0.25500000920E-02 0. -1.
    10030    2    1    2    0    0  0.00000000000E+00  0.00000000000E+00  0.24495527544E+03  0.17088838726E+04  0.16912365308E+04 0.  0.
        3    1    3    3  502    0 -0.76337418480E+03  0.36049147410E+03  0.17173040689E+03  0.86150193950E+03  0.10100000352E+00 0.  1.
       -3    1    3    3    0  502  0.76337418480E+03 -0.36049147410E+03  0.73224868550E+02  0.84738193307E+03  0.10100000352E+00 0. -1.
</event>
<event>
 5   0  0.5342255E-04  0.1709415E+04  0.7818609E-02  0.8756013E-01
       -2   -1    0    0    0  501  0.00000000000E+00  0.00000000000E+00  0.43034559030E+03  0.43034559031E+03  0.25500000920E-02 0. -1.
        2   -1    0    0  501    0  0.00000000000E+00  0.00000000000E+00 -0.16975302294E+04  0.16975302294E+04  0.25500000920E-02 0.  1.
    10030    2    1    2    0    0  0.00000000000E+00  0.00000000000E+00 -0.12671846391E+04  0.21278758197E+04  0.17094146936E+04 0.  0.
        5    1    3    3  502    0  0.31630182269E+03 -0.30378104481E+03 -0.15467793100E+04  0.16077556065E+04  0.46999998093E+01 0.  1.
       -5    1    3    3    0  502 -0.31630182269E+03  0.30378104481E+03  0.27959467092E+03  0.52012021324E+03  0.46999998093E+01 0. -1.
</event>
<event>
 5   0  0.5198430E-04  0.1581916E+04  0.7818609E-02  0.8831735E-01
       -2   -1    0    0    0  501  0.00000000000E+00  0.00000000000E+00  0.41716126101E+03  0.41716126101E+03  0.25500000920E-02 0. -1.
        2   -1    0    0  501    0  0.00000000000E+00  0.00000000000E+00 -0.14996947791E+04  0.14996947791E+04  0.25500000920E-02 0.  1.
    10030    2    1    2    0    0  0.00000000000E+00  0.00000000000E+00 -0.10825335180E+04  0.19168560401E+04  0.15819160094E+04 0.  0.
        4    1    3    3  502    0 -0.26418334709E+03 -0.62463775754E+03 -0.48094214858E+02  0.67991163796E+03  0.12699999809E+01 0. -1.
       -4    1    3    3    0  502  0.26418334709E+03  0.62463775754E+03 -0.10344393032E+04  0.12369444021E+04  0.12699999809E+01 0.  1.
</event>
<event>
 5   0  0.1910750E-04  0.1324252E+04  0.7818609E-02  0.9010551E-01
       -3   -1    0    0    0  501  0.00000000000E+00  0.00000000000E+00  0.85425481430E+03  0.85425482027E+03  0.10100000352E+00 0.  1.
        3   -1    0    0  501    0  0.00000000000E+00  0.00000000000E+00 -0.51320849078E+03  0.51320850072E+03  0.10100000352E+00 0. -1.
    10030    2    1    2    0    0  0.00000000000E+00  0.00000000000E+00  0.34104632352E+03  0.13674633210E+04  0.13242519924E+04 0.  0.
        4    1    3    3  502    0 -0.24637452586E+02  0.18068359644E+03  0.82781161678E+03  0.84765986803E+03  0.12699999809E+01 0.  1.
       -4    1    3    3    0  502  0.24637452586E+02 -0.18068359644E+03 -0.48676529326E+03  0.51980345296E+03  0.12699999809E+01 0. -1.
</event>
<event>
 5   0  0.5310003E-04  0.1721128E+04  0.7818609E-02  0.8749405E-01
       -2   -1    0    0    0  501  0.00000000000E+00  0.00000000000E+00  0.14686529713E+04  0.14686529713E+04  0.25500000920E-02 0.  1.
        2   -1    0    0  501    0  0.00000000000E+00  0.00000000000E+00 -0.50425119668E+03  0.50425119669E+03  0.25500000920E-02 0. -1.
    10030    2    1    2    0    0  0.00000000000E+00  0.00000000000E+00  0.96440177458E+03  0.19729041680E+04  0.17211275586E+04 0.  0.
        1    1    3    3  502    0  0.53684548733E+03  0.52458803852E+03  0.96469645958E+03  0.12223072227E+04  0.50400001928E-02 0. -1.
       -1    1    3    3    0  502 -0.53684548733E+03 -0.52458803852E+03 -0.29468499722E+00  0.75059694529E+03  0.50400001928E-02 0.  1.
</event>
<event>
 5   0  0.2595644E-04  0.1669332E+04  0.7818609E-02  0.8779051E-01
       -1   -1    0    0    0  501  0.00000000000E+00  0.00000000000E+00  0.56242500659E+03  0.56242500661E+03  0.50400001928E-02 0. -1.
        1   -1    0    0  501    0  0.00000000000E+00  0.00000000000E+00 -0.12386847214E+04  0.12386847214E+04  0.50400001928E-02 0.  1.
    10030    2    1    2    0    0  0.00000000000E+00  0.00000000000E+00 -0.67625971481E+03  0.18011097280E+04  0.16693319174E+04 0.  0.
        2    1    3    3  502    0  0.23438506819E+03  0.78566099146E+03 -0.16936029376E+03  0.83718723282E+03  0.25500000920E-02 0.  1.
       -2    1    3    3    0  502 -0.23438506819E+03 -0.78566099146E+03 -0.50689942105E+03  0.96392249520E+03  0.25500000920E-02 0. -1.
</event>
<event>
 5   0  0.5299877E-04  0.1766248E+04  0.7818609E-02  0.8724457E-01
       -2   -1    0    0    0  501  0.00000000000E+00  0.00000000000E+00  0.46147766732E+03  0.46147766732E+03  0.25500000920E-02 0. -1.
        2   -1    0    0  501    0  0.00000000000E+00  0.00000000000E+00 -0.16900238939E+04  0.16900238939E+04  0.25500000920E-02 0.  1.
    10030    2    1    2    0    0  0.00000000000E+00  0.00000000000E+00 -0.12285462266E+04  0.21515015613E+04  0.17662483226E+04 0.  0.
        3    1    3    3  502    0  0.50899110017E+03  0.63970095054E+03 -0.10212399506E+04  0.13081361906E+04  0.10100000352E+00 0.  1.
       -3    1    3    3    0  502 -0.50899110017E+03 -0.63970095054E+03 -0.20730627601E+03  0.84336537068E+03  0.10100000352E+00 0. -1.
</event>
<event>
 5   0  0.2561518E-04  0.1719253E+04  0.7818609E-02  0.8750459E-01
        1   -1    0    0  501    0  0.00000000000E+00  0.00000000000E+00  0.15848971067E+04  0.15848971067E+04  0.50400001928E-02 0. -1.
       -1   -1    0    0    0  501  0.00000000000E+00  0.00000000000E+00 -0.46624954309E+03  0.46624954312E+03  0.50400001928E-02 0.  1.
    10030    2    1    2    0    0  0.00000000000E+00  0.00000000000E+00  0.11186475636E+04  0.20511466498E+04  0.17192528050E+04 0.  0.
        4    1    3    3  502    0 -0.43969839123E+03 -0.56991710305E+03  0.11199481915E+04  0.13313248079E+04  0.12699999809E+01 0. -1.
       -4    1    3    3    0  502  0.43969839123E+03  0.56991710305E+03 -0.13006278691E+01  0.71982184194E+03  0.12699999809E+01 0.  1.
</event>
<event>
 5   0  0.2630135E-04  0.1709974E+04  0.7818609E-02  0.8755696E-01
       -1   -1    0    0    0  501  0.00000000000E+00  0.00000000000E+00  0.96222907294E+03  0.96222907295E+03  0.50400001928E-02 0.  1.
        1   -1    0    0  501    0  0.00000000000E+00  0.00000000000E+00 -0.75969700913E+03  0.75969700914E+03  0.50400001928E-02 0. -1.
    10030    2    1    2    0    0  0.00000000000E+00  0.00000000000E+00  0.20253206381E+03  0.17219260821E+04  0.17099737411E+04 0.  0.
        1    1    3    3  502    0  0.36965832810E+03 -0.59314935413E+03  0.59718075512E+03  0.91929227679E+03  0.50400001928E-02 0.  1.
       -1    1    3    3    0  502 -0.36965832810E+03  0.59314935413E+03 -0.39464869131E+03  0.80263380531E+03  0.50400001928E-02 0. -1.
</event>
<event>
 5   0  0.2785059E-04  0.1694133E+04  0.7818609E-02  0.8764717E-01
        1   -1    0    0  501    0  0.00000000000E+00  0.00000000000E+00  0.13960924656E+04  0.13960924656E+04  0.50400001928E-02 0. -1.
       -1   -1    0    0    0  501  0.00000000000E+00  0.00000000000E+00 -0.51395009700E+03  0.51395009703E+03  0.50400001928E-02 0.  1.
    10030    2    1    2    0    0  0.00000000000E+00  0.00000000000E+00  0.88214236862E+03  0.19100425627E+04  0.16941332393E+04 0.  0.
        5    1    3    3  502    0 -0.23186362045E+03 -0.33770726846E+03 -0.39483111108E+03  0.56896452783E+03  0.46999998093E+01 0.  1.
       -5    1    3    3    0  502  0.23186362045E+03  0.33770726846E+03  0.12769734797E+04  0.13410780348E+04  0.46999998093E+01 0. -1.
</event>
<event>
 5   0  0.5198430E-04  0.1717348E+04  0.7818609E-02  0.8751531E-01
       -2   -1    0    0    0  501  0.00000000000E+00  0.00000000000E+00  0.61114066141E+03  0.61114066142E+03  0.25500000920E-02 0. -1.
        2   -1    0    0  501    0  0.00000000000E+00  0.00000000000E+00 -0.12064672018E+04  0.12064672018E+04  0.25500000920E-02 0.  1.
    10030    2    1    2    0    0  0.00000000000E+00  0.00000000000E+00 -0.59532654036E+03  0.18176078632E+04  0.17173481460E+04 0.  0.
        4    1    3    3  502    0  0.15577272723E+03 -0.97253603966E+02  0.59011308271E+03  0.61802788717E+03  0.12699999809E+01 0. -1.
       -4    1    3    3    0  502 -0.15577272723E+03  0.97253603966E+02 -0.11854396231E+04  0.11995799760E+04  0.12699999809E+01 0.  1.
</event>
<event>
 5   0  0.2595644E-04  0.1747919E+04  0.7818609E-02  0.8734497E-01
       -1   -1    0    0    0  501  0.00000000000E+00  0.00000000000E+00  0.98099373881E+03  0.98099373883E+03  0.50400001928E-02 0. -1.
        1   -1    0    0  501    0  0.00000000000E+00  0.00000000000E+00 -0.77860344868E+03  0.77860344869E+03  0.50400001928E-02 0.  1.
    10030    2    1    2    0    0  0.00000000000E+00  0.00000000000E+00  0.20239029014E+03  0.17595971875E+04  0.17479188862E+04 0.  0.
        2    1    3    3  502    0 -0.49257317946E+03 -0.70648763107E+03  0.25068645878E+03  0.89699320544E+03  0.25500000920E-02 0. -1.
       -2    1    3    3    0  502  0.49257317946E+03  0.70648763107E+03 -0.48296168640E+02  0.86260398208E+03  0.25500000920E-02 0.  1.
</event>
<event>
 5   0  0.5021349E-04  0.1688447E+04  0.7818609E-02  0.8767981E-01
       -2   -1    0    0    0  501  0.00000000000E+00  0.00000000000E+00  0.53503989268E+03  0.53503989269E+03  0.25500000920E-02 0. -1.
        2   -1    0    0  501    0  0.00000000000E+00  0.00000000000E+00 -0.13320746809E+04  0.13320746809E+04  0.25500000920E-02 0.  1.
    10030    2    1    2    0    0  0.00000000000E+00  0.00000000000E+00 -0.79703478820E+03  0.18671145736E+04  0.16884467351E+04 0.  0.
        2    1    3    3  502    0  0.39030279720E+03  0.61136691992E+03  0.79174564411E+02  0.72963990840E+03  0.25500000920E-02 0. -1.
       -2    1    3    3    0  502 -0.39030279720E+03 -0.61136691992E+03 -0.87620935261E+03  0.11374746652E+04  0.25500000920E-02 0.  1.
</event>
<event>
 5   0  0.5310003E-04  0.1689045E+04  0.7818609E-02  0.8767637E-01
       -2   -1    0    0    0  501  0.00000000000E+00  0.00000000000E+00  0.53391870082E+03  0.53391870082E+03  0.25500000920E-02 0.  1.
        2   -1    0    0  501    0  0.00000000000E+00  0.00000000000E+00 -0.13358176426E+04  0.13358176426E+04  0.25500000920E-02 0. -1.
    10030    2    1    2    0    0  0.00000000000E+00  0.00000000000E+00 -0.80189894174E+03  0.18697363434E+04  0.16890447244E+04 0.  0.
        1    1    3    3  502    0 -0.48993075916E+03 -0.60657866824E+03 -0.41823726071E+02  0.78084508938E+03  0.50400001928E-02 0. -1.
       -1    1    3    3    0  502  0.48993075916E+03  0.60657866824E+03 -0.76007521567E+03  0.10888912540E+04  0.50400001928E-02 0.  1.
</event>
<event>
 5   0  0.5342255E-04  0.1692267E+04  0.7818609E-02  0.8765787E-01
       -2   -1    0    0    0  501  0.00000000000E+00  0.00000000000E+00  0.12466820542E+04  0.12466820542E+04  0.25500000920E-02 0.  1.
        2   -1    0    0  501    0  0.00000000000E+00  0.00000000000E+00 -0.57427765124E+03  0.57427765125E+03  0.25500000920E-02 0. -1.
    10030    2    1    2    0    0  0.00000000000E+00  0.00000000000E+00  0.67240440291E+03  0.18209597054E+04  0.16922666952E+04 0.  0.
        5    1    3    3  502    0  0.46522151219E+03  0.23966114120E+03 -0.37922876443E+03  0.64630106280E+03  0.46999998093E+01 0. -1.
       -5    1    3    3    0  502 -0.46522151219E+03 -0.23966114120E+03  0.10516331673E+04  0.11746586426E+04  0.46999998093E+01 0.  1.
</event>
<event>
 5   0  0.2595644E-04  0.1695976E+04  0.7818609E-02  0.8763663E-01
       -1   -1    0    0    0  501  0.00000000000E+00  0.00000000000E+00  0.36036573194E+03  0.36036573198E+03  0.50400001928E-02 0. -1.
        1   -1    0    0  501    0  0.00000000000E+00  0.00000000000E+00 -0.19954269482E+04  0.19954269482E+04  0.50400001928E-02 0.  1.
    10030    2    1    2    0    0  0.00000000000E+00  0.00000000000E+00 -0.16350612162E+04  0.23557926802E+04  0.16959758168E+04 0.  0.
        2    1    3    3  502    0 -0.45435242166E+03 -0.26667539532E+03  0.10546218472E+03  0.53728406077E+03  0.25500000920E-02 0. -1.
       -2    1    3    3    0  502  0.45435242166E+03  0.26667539532E+03 -0.17405234009E+04  0.18185086194E+04  0.25500000920E-02 0.  1.
</event>
<event>
 5   0  0.2561518E-04  0.1709222E+04  0.7818609E-02  0.8756122E-01
       -1   -1    0    0    0  501  0.00000000000E+00  0.00000000000E+00  0.49012769683E+03  0.49012769685E+03  0.50400001928E-02 0.  1.
        1   -1    0    0  501    0  0.00000000000E+00  0.00000000000E+00 -0.14901427206E+04  0.14901427206E+04  0.50400001928E-02 0. -1.
    10030    2    1    2    0    0  0.00000000000E+00  0.00000000000E+00 -0.10000150238E+04  0.19802704174E+04  0.17092223022E+04 0.  0.
        4    1    3    3  502    0  0.47945096986E+03 -0.46292848414E+03 -0.11198017804E+04  0.13031245736E+04  0.12699999809E+01 0. -1.
       -4    1    3    3    0  502 -0.47945096986E+03  0.46292848414E+03  0.11978675664E+03  0.67714584389E+03  0.12699999809E+01 0.  1.
</event>
<event>
 5   0  0.5198430E-04  0.1733256E+04  0.7818609E-02  0.8742621E-01
        2   -1    0    0  501    0  0.00000000000E+00  0.00000000000E+00  0.63695336327E+03  0.63695336327E+03  0.25500000920E-02 0.  1.
       -2   -1    0    0    0  501  0.00000000000E+00  0.00000000000E+00 -0.11791200875E+04  0.11791200875E+04  0.25500000920E-02 0. -1.
    10030    2    1    2    0    0  0.00000000000E+00  0.00000000000E+00 -0.54216672428E+03  0.18160734508E+04  0.17332564790E+04 0.  0.
        4    1    3    3  502    0 -0.17725632433E+03  0.12830493146E+03  0.60753028354E+03  0.64573726722E+03  0.12699999809E+01 0.  1.
       -4    1    3    3    0  502  0.17725632433E+03 -0.12830493146E+03 -0.11496970078E+04  0.11703361836E+04  0.12699999809E+01 0. -1.
</event>
<event>
 5   0  0.5299877E-04  0.1709240E+04  0.7818609E-02  0.8756112E-01
        2   -1    0    0  501    0  0.00000000000E+00  0.00000000000E+00  0.12245311348E+04  0.12245311348E+04  0.25500000920E-02 0.  1.
       -2   -1    0    0    0  501  0.00000000000E+00  0.00000000000E+00 -0.59645304220E+03  0.59645304220E+03  0.25500000920E-02 0. -1.
    10030    2    1    2    0    0  0.00000000000E+00  0.00000000000E+00  0.62807809264E+03  0.18209841770E+04  0.17092399722E+04 0.  0.
        3    1    3    3  502    0  0.77628405331E+03  0.35706002916E+03  0.33143161103E+03  0.91649098132E+03  0.10100000352E+00 0.  1.
       -3    1    3    3    0  502 -0.77628405331E+03 -0.35706002916E+03  0.29664648161E+03  0.90449319572E+03  0.10100000352E+00 0. -1.
</event>
<event>
 5   0  0.2630135E-04  0.1857222E+04  0.7818609E-02  0.8676448E-01
       -1   -1    0    0    0  501  0.00000000000E+00  0.00000000000E+00  0.64485206598E+03  0.64485206600E+03  0.50400001928E-02 0. -1.
        1   -1    0    0  501    0  0.00000000000E+00  0.00000000000E+00 -0.13372339049E+04  0.13372339049E+04  0.50400001928E-02 0.  1.
    10030    2    1    2    0    0  0.00000000000E+00  0.00000000000E+00 -0.69238183893E+03  0.19820859709E+04  0.18572216306E+04 0.  0.
        1    1    3    3  502    0 -0.46042496642E+03 -0.50750352046E+03  0.32265532177E+03  0.75740176239E+03  0.50400001928E-02 0. -1.
       -1    1    3    3    0  502  0.46042496642E+03  0.50750352046E+03 -0.10150371607E+04  0.12246842085E+04  0.50400001928E-02 0.  1.
</event>
<event>
 5   0  0.2630135E-04  0.1755541E+04  0.7818609E-02  0.8730306E-01
        1   -1    0    0  501    0  0.00000000000E+00  0.00000000000E+00  0.61559131433E+03  0.61559131435E+03  0.50400001928E-02 0. -1.
       -1   -1    0    0    0  501  0.00000000000E+00  0.00000000000E+00 -0.12516117284E+04  0.12516117284E+04  0.50400001928E-02 0.  1.
    10030    2    1    2    0    0  0.00000000000E+00  0.00000000000E+00 -0.63602041407E+03  0.18672030428E+04  0.17555412942E+04 0.  0.
        1    1    3    3  502    0 -0.31747494763E+03 -0.21811726288E+03  0.52090124253E+03  0.64784534206E+03  0.50400001928E-02 0. -1.
       -1    1    3    3    0  502  0.31747494763E+03  0.21811726288E+03 -0.11569216566E+04  0.12193577007E+04  0.50400001928E-02 0.  1.
</event>
<event>
 5   0  0.2595644E-04  0.1745268E+04  0.7818609E-02  0.8735959E-01
       -1   -1    0    0    0  501  0.00000000000E+00  0.00000000000E+00  0.48760688651E+03  0.48760688654E+03  0.50400001928E-02 0. -1.
        1   -1    0    0  501    0  0.00000000000E+00  0.00000000000E+00 -0.15616887335E+04  0.15616887336E+04  0.50400001928E-02 0.  1.
    10030    2    1    2    0    0  0.00000000000E+00  0.00000000000E+00 -0.10740818470E+04  0.20492956201E+04  0.17452680953E+04 0.  0.
        2    1    3    3  502    0 -0.56902039566E+03 -0.54074518788E+03 -0.98462660461E+03  0.12592375151E+04  0.25500000920E-02 0.  1.
       -2    1    3    3    0  502  0.56902039566E+03  0.54074518788E+03 -0.89455242431E+02  0.79005810501E+03  0.25500000920E-02 0. -1.
</event>
<event>
 5   0  0.2595644E-04  0.1725918E+04  0.7818609E-02  0.8746719E-01
       -1   -1    0    0    0  501  0.00000000000E+00  0.00000000000E+00  0.12061301979E+04  0.12061301979E+04  0.50400001928E-02 0.  1.
        1   -1    0    0  501    0  0.00000000000E+00  0.00000000000E+00 -0.61742748124E+03  0.61742748126E+03  0.50400001928E-02 0. -1.
    10030    2    1    2    0    0  0.00000000000E+00  0.00000000000E+00  0.58870271666E+03  0.18235576792E+04  0.17259176460E+04 0.  0.
        2    1    3    3  502    0 -0.33022737349E+03 -0.46499805403E+03 -0.38991690284E+03  0.69087516932E+03  0.25500000920E-02 0. -1.
       -2    1    3    3    0  502  0.33022737349E+03  0.46499805403E+03  0.97861961950E+03  0.11326825099E+04  0.25500000920E-02 0.  1.
</event>
<event>
 5   0  0.5342255E-04  0.1694290E+04  0.7818609E-02  0.8764628E-01
        2   -1    0    0  501    0  0.00000000000E+00  0.00000000000E+00  0.13368161390E+04  0.13368161390E+04  0.25500000920E-02 0. -1.
       -2   -1    0    0    0  501  0.00000000000E+00  0.00000000000E+00 -0.53683847482E+03  0.53683847483E+03  0.25500000920E-02 0.  1.
    10030    2    1    2    0    0  0.00000000000E+00  0.00000000000E+00  0.79997766418E+03  0.18736546138E+04  0.16942896295E+04 0.  0.
        5    1    3    3  502    0  0.71284208145E+03 -0.10672104961E+03 -0.92212812629E+02  0.72667634359E+03  0.46999998093E+01 0.  1.
       -5    1    3    3    0  502 -0.71284208145E+03  0.10672104961E+03  0.89219047681E+03  0.11469782703E+04  0.46999998093E+01 0. -1.
</event>
<event>
 5   0  0.2785059E-04  0.1694031E+04  0.7818609E-02  0.8764776E-01
       -1   -1    0    0    0  501  0.00000000000E+00  0.00000000000E+00  0.41991801522E+03  0.41991801525E+03  0.50400001928E-02 0.  1.
        1   -1    0    0  501    0  0.00000000000E+00  0.00000000000E+00 -0.17085127220E+04  0.17085127220E+04  0.50400001928E-02 0. -1.
    10030    2    1    2    0    0  0.00000000000E+00  0.00000000000E+00 -0.12885947068E+04  0.21284307372E+04  0.16940310165E+04 0.  0.
        5    1    3    3  502    0  0.30462024202E+03  0.54838330019E+02  0.34630194349E+03  0.46448666326E+03  0.46999998093E+01 0.  1.
       -5    1    3    3    0  502 -0.30462024202E+03 -0.54838330019E+02 -0.16348966502E+04  0.16639440740E+04  0.46999998093E+01 0. -1.
</event>
<event>
 5   0  0.2583422E-04  0.1714077E+04  0.7818609E-02  0.8753376E-01
        1   -1    0    0  501    0  0.00000000000E+00  0.00000000000E+00  0.11016623775E+04  0.11016623775E+04  0.50400001928E-02 0. -1.
       -1   -1    0    0    0  501  0.00000000000E+00  0.00000000000E+00 -0.66673332510E+03  0.66673332512E+03  0.50400001928E-02 0.  1.
    10030    2    1    2    0    0  0.00000000000E+00  0.00000000000E+00  0.43492905235E+03  0.17683957026E+04  0.17140770345E+04 0.  0.
        3    1    3    3  502    0 -0.88535948990E+02  0.79984292236E+03 -0.86713751862E+02  0.80938655763E+03  0.10100000352E+00 0.  1.
       -3    1    3    3    0  502  0.88535948990E+02 -0.79984292236E+03  0.52164280421E+03  0.95900914495E+03  0.10100000352E+00 0. -1.
</event>
<event>
 5   0  0.2785059E-04  0.1701307E+04  0.7818609E-02  0.8760619E-01
        1   -1    0    0  501    0  0.00000000000E+00  0.00000000000E+00  0.15608661903E+04  0.15608661903E+04  0.50400001928E-02 0.  1.
       -1   -1    0    0    0  501  0.00000000000E+00  0.00000000000E+00 -0.46359610307E+03  0.46359610309E+03  0.50400001928E-02 0. -1.
    10030    2    1    2    0    0  0.00000000000E+00  0.00000000000E+00  0.10972700872E+04  0.20244622934E+04  0.17013071248E+04 0.  0.
        5    1    3    3  502    0 -0.57996482371E+03  0.22064074471E+03 -0.14373298741E+03  0.63696373259E+03  0.46999998093E+01 0. -1.
       -5    1    3    3    0  502  0.57996482371E+03 -0.22064074471E+03  0.12410030746E+04  0.13874985608E+04  0.46999998093E+01 0.  1.
</event>
<event>
 5   0  0.2561518E-04  0.1639123E+04  0.7818609E-02  0.8796867E-01
       -1   -1    0    0    0  501  0.00000000000E+00  0.00000000000E+00  0.26657305809E+03  0.26657305814E+03  0.50400001928E-02 0.  1.
        1   -1    0    0  501    0  0.00000000000E+00  0.00000000000E+00 -0.25196878645E+04  0.25196878645E+04  0.50400001928E-02 0. -1.
    10030    2    1    2    0    0  0.00000000000E+00  0.00000000000E+00 -0.22531148064E+04  0.27862609226E+04  0.16391228136E+04 0.  0.
        4    1    3    3  502    0  0.12714515826E+03  0.29445112064E+03 -0.24085769251E+04  0.24298378075E+04  0.12699999809E+01 0. -1.
       -4    1    3    3    0  502 -0.12714515826E+03 -0.29445112064E+03  0.15546211874E+03  0.35642311510E+03  0.12699999809E+01 0.  1.
</event>
<event>
 5   0  0.5021349E-04  0.1697827E+04  0.7818609E-02  0.8762605E-01
        2   -1    0    0  501    0  0.00000000000E+00  0.00000000000E+00  0.21284272441E+04  0.21284272441E+04  0.25500000920E-02 0. -1.
       -2   -1    0    0    0  501  0.00000000000E+00  0.00000000000E+00 -0.33858513585E+03  0.33858513586E+03  0.25500000920E-02 0.  1.
    10030    2    1    2    0    0  0.00000000000E+00  0.00000000000E+00  0.17898421082E+04  0.24670123800E+04  0.16978266432E+04 0.  0.
        2    1    3    3  502    0 -0.61256045351E+03  0.53438004963E+03  0.12504309653E+04  0.14914321794E+04  0.25500000920E-02 0. -1.
       -2    1    3    3    0  502  0.61256045351E+03 -0.53438004963E+03  0.53941114293E+03  0.97558020058E+03  0.25500000920E-02 0.  1.
</event>
<event>
 5   0  0.5310003E-04  0.1758492E+04  0.7818609E-02  0.8728690E-01
       -2   -1    0    0    0  501  0.00000000000E+00  0.00000000000E+00  0.70119292299E+03  0.70119292299E+03  0.25500000920E-02 0. -1.
        2   -1    0    0  501    0  0.00000000000E+00  0.00000000000E+00 -0.11025117682E+04  0.11025117682E+04  0.25500000920E-02 0.  1.
    10030    2    1    2    0    0  0.00000000000E+00  0.00000000000E+00 -0.40131884523E+03  0.18037046912E+04  0.17584919100E+04 0.  0.
        1    1    3    3  502    0 -0.22765923181E+03 -0.39511318548E+03 -0.97173927303E+03  0.10734152831E+04  0.50400001928E-02 0.  1.
       -1    1    3    3    0  502  0.22765923181E+03  0.39511318548E+03  0.57042042780E+03  0.73028940814E+03  0.50400001928E-02 0. -1.
</event>
<event>
 5   0  0.2785059E-04  0.1713755E+04  0.7818609E-02  0.8753558E-01
        1   -1    0    0  501    0  0.00000000000E+00  0.00000000000E+00  0.82306692739E+03  0.82306692740E+03  0.50400001928E-02 0. -1.
       -1   -1    0    0    0  501  0.00000000000E+00  0.00000000000E+00 -0.89207700399E+03  0.89207700400E+03  0.50400001928E-02 0.  1.
    10030    2    1    2    0    0  0.00000000000E+00  0.00000000000E+00 -0.69010076603E+02  0.17151439314E+04  0.17137550335E+04 0.  0.
        5    1    3    3  502    0 -0.84178279809E+03 -0.14257455210E+03  0.38294594423E+02  0.85464281898E+03  0.46999998093E+01 0.  1.
       -5    1    3    3    0  502  0.84178279809E+03  0.14257455210E+03 -0.10730467103E+03  0.86050111243E+03  0.46999998093E+01 0. -1.
</event>
<event>
 5   0  0.2595644E-04  0.1705848E+04  0.7818609E-02  0.8758036E-01
        1   -1    0    0  501    0  0.00000000000E+00  0.00000000000E+00  0.98111311029E+03  0.98111311031E+03  0.50400001928E-02 0.  1.
       -1   -1    0    0    0  501  0.00000000000E+00  0.00000000000E+00 -0.74148375273E+03  0.74148375274E+03  0.50400001928E-02 0. -1.
    10030    2    1    2    0    0  0.00000000000E+00  0.00000000000E+00  0.23962935757E+03  0.17225968630E+04  0.17058480951E+04 0.  0.
        2    1    3    3  502    0 -0.35954284723E+03 -0.30925039667E+03  0.83569872702E+03  0.96088460764E+03  0.25500000920E-02 0.  1.
       -2    1    3    3    0  502  0.35954284723E+03  0.30925039667E+03 -0.59606936946E+03  0.76171225541E+03  0.25500000920E-02 0. -1.
</event>
<event>
 5   0  0.2583422E-04  0.1670812E+04  0.7818609E-02  0.8778189E-01
        1   -1    0    0  501    0  0.00000000000E+00  0.00000000000E+00  0.82929262331E+03  0.82929262332E+03  0.50400001928E-02 0. -1.
       -1   -1    0    0    0  501  0.00000000000E+00  0.00000000000E+00 -0.84156441377E+03  0.84156441379E+03  0.50400001928E-02 0.  1.
    10030    2    1    2    0    0  0.00000000000E+00  0.00000000000E+00 -0.12271790464E+02  0.16708570371E+04  0.16708119708E+04 0.  0.
        3    1    3    3  502    0  0.34881233104E+03  0.71322913254E+03 -0.26602232387E+03  0.83733728258E+03  0.10100000352E+00 0.  1.
       -3    1    3    3    0  502 -0.34881233104E+03 -0.71322913254E+03  0.25375053341E+03  0.83351975454E+03  0.10100000352E+00 0. -1.
</event>
<event>
 5   0  0.5021349E-04  0.1555052E+04  0.7818609E-02  0.8848648E-01
       -2   -1    0    0    0  501  0.00000000000E+00  0.00000000000E+00  0.42591799221E+03  0.42591799222E+03  0.25500000920E-02 0.  1.
        2   -1    0    0  501    0  0.00000000000E+00  0.00000000000E+00 -0.14193960741E+04  0.14193960741E+04  0.25500000920E-02 0. -1.
    10030    2    1    2    0    0  0.00000000000E+00  0.00000000000E+00 -0.99347808192E+03  0.18453140664E+04  0.15550515439E+04 0.  0.
        2    1    3    3  502    0  0.99206990565E+02  0.62661212268E+03  0.36678557863E+02  0.63547627484E+03  0.25500000920E-02 0.  1.
       -2    1    3    3    0  502 -0.99206990565E+02 -0.62661212268E+03 -0.10301566398E+04  0.12098377915E+04  0.25500000920E-02 0. -1.
</event>
<event>
 5   0  0.5310003E-04  0.1725671E+04  0.7818609E-02  0.8746857E-01
       -2   -1    0    0    0  501  0.00000000000E+00  0.00000000000E+00  0.47192643527E+03  0.47192643527E+03  0.25500000920E-02 0.  1.
        2   -1    0    0  501    0  0.00000000000E+00  0.00000000000E+00 -0.15775440950E+04  0.15775440950E+04  0.25500000920E-02 0. -1.
    10030    2    1    2    0    0  0.00000000000E+00  0.00000000000E+00 -0.11056176598E+04  0.20494705303E+04  0.17256706073E+04 0.  0.
        1    1    3    3  502    0 -0.82793635436E+03  0.28719069105E+02 -0.26634107428E+03  0.87019593177E+03  0.50400001928E-02 0.  1.
       -1    1    3    3    0  502  0.82793635436E+03 -0.28719069105E+02 -0.83927658549E+03  0.11792745985E+04  0.50400001928E-02 0. -1.
</event>
<event>
 5   0  0.2630135E-04  0.1609024E+04  0.7818609E-02  0.8815023E-01
        1   -1    0    0  501    0  0.00000000000E+00  0.00000000000E+00  0.21681353033E+04  0.21681353033E+04  0.50400001928E-02 0. -1.
       -1   -1    0    0    0  501  0.00000000000E+00  0.00000000000E+00 -0.29852351326E+03  0.29852351330E+03  0.50400001928E-02 0.  1.
    10030    2    1    2    0    0  0.00000000000E+00  0.00000000000E+00  0.18696117901E+04  0.24666588166E+04  0.16090237637E+04 0.  0.
        1    1    3    3  502    0 -0.39456636110E+03  0.64097670003E+03  0.13703162910E+04  0.15634258795E+04  0.50400001928E-02 0. -1.
       -1    1    3    3    0  502  0.39456636110E+03 -0.64097670003E+03  0.49929549903E+03  0.90323293710E+03  0.50400001928E-02 0.  1.
</event>
<event>
 5   0  0.5021349E-04  0.1701385E+04  0.7818609E-02  0.8760575E-01
        2   -1    0    0  501    0  0.00000000000E+00  0.00000000000E+00  0.13282099051E+04  0.13282099051E+04  0.25500000920E-02 0.  1.
       -2   -1    0    0    0  501  0.00000000000E+00  0.00000000000E+00 -0.54485205571E+03  0.54485205572E+03  0.25500000920E-02 0. -1.
    10030    2    1    2    0    0  0.00000000000E+00  0.00000000000E+00  0.78335784941E+03  0.18730619608E+04  0.17013851971E+04 0.  0.
        2    1    3    3  502    0 -0.64070809252E+03 -0.84793383571E+02  0.10006502014E+04  0.11912168582E+04  0.25500000920E-02 0.  1.
       -2    1    3    3    0  502  0.64070809252E+03  0.84793383571E+02 -0.21729235200E+03  0.68184510262E+03  0.25500000920E-02 0. -1.
</event>
<event>
 5   0  0.2561518E-04  0.1641925E+04  0.7818609E-02  0.8795198E-01
        1   -1    0    0  501    0  0.00000000000E+00  0.00000000000E+00  0.13023000899E+04  0.13023000899E+04  0.50400001928E-02 0.  1.
       -1   -1    0    0    0  501  0.00000000000E+00  0.00000000000E+00 -0.51753031193E+03  0.51753031196E+03  0.50400001928E-02 0. -1.
    10030    2    1    2    0    0  0.00000000000E+00  0.00000000000E+00  0.78476977793E+03  0.18198304018E+04  0.16419254207E+04 0.  0.
        4    1    3    3  502    0  0.13530686365E+03 -0.79697264442E+03  0.55109530240E+03  0.97835626871E+03  0.12699999809E+01 0. -1.
       -4    1    3    3    0  502 -0.13530686365E+03  0.79697264442E+03  0.23367447553E+03  0.84147413312E+03  0.12699999809E+01 0.  1.
</event>
<event>
 5   0  0.1910750E-04  0.1424275E+04  0.7818609E-02  0.8936432E-01
       -3   -1    0    0    0  501  0.00000000000E+00  0.00000000000E+00  0.59423801834E+03  0.59423802693E+03  0.10100000352E+00 0.  1.
        3   -1    0    0  501    0  0.00000000000E+00  0.00000000000E+00 -0.85342902281E+03  0.85342902879E+03  0.10100000352E+00 0. -1.
    10030    2    1    2    0    0  0.00000000000E+00  0.00000000000E+00 -0.25919100447E+03  0.14476670557E+04  0.14242752288E+04 0.  0.
        5    1    3    3  502    0  0.23773725447E+03 -0.30715494994E+03  0.47707808536E+03  0.61521439756E+03  0.46999998093E+01 0.  1.
       -5    1    3    3    0  502 -0.23773725447E+03  0.30715494994E+03 -0.73626908983E+03  0.83245265816E+03  0.46999998093E+01 0. -1.
</event>
<event>
 5   0  0.2583422E-04  0.1725859E+04  0.7818609E-02  0.8746752E-01
       -1   -1    0    0    0  501  0.00000000000E+00  0.00000000000E+00  0.57446070950E+03  0.57446070952E+03  0.50400001928E-02 0.  1.
        1   -1    0    0  501    0  0.00000000000E+00  0.00000000000E+00 -0.12962544169E+04  0.12962544169E+04  0.50400001928E-02 0. -1.
    10030    2    1    2    0    0  0.00000000000E+00  0.00000000000E+00 -0.72179370736E+03  0.18707151264E+04  0.17258588958E+04 0.  0.
        3    1    3    3  502    0  0.22884781254E+03  0.67573281231E+03 -0.88709133901E+03  0.11383835948E+04  0.10100000352E+00 0. -1.
       -3    1    3    3    0  502 -0.22884781254E+03 -0.67573281231E+03  0.16529763166E+03  0.73233153159E+03  0.10100000352E+00 0.  1.
</event>
<event>
 5   0  0.5342255E-04  0.1729324E+04  0.7818609E-02  0.8744814E-01
        2   -1    0    0  501    0  0.00000000000E+00  0.00000000000E+00  0.83803785144E+03  0.83803785144E+03  0.25500000920E-02 0. -1.
       -2   -1    0    0    0  501  0.00000000000E+00  0.00000000000E+00 -0.89213194123E+03  0.89213194124E+03  0.25500000920E-02 0.  1.
    10030    2    1    2    0    0  0.00000000000E+00  0.00000000000E+00 -0.54094089797E+02  0.17301697927E+04  0.17293239549E+04 0.  0.
        5    1    3    3  502    0  0.33690545340E+03 -0.37794908368E+03 -0.72829460508E+03  0.88700953556E+03  0.46999998093E+01 0.  1.
       -5    1    3    3    0  502 -0.33690545340E+03  0.37794908368E+03  0.67420051528E+03  0.84316025712E+03  0.46999998093E+01 0. -1.
</event>
<event>
 5   0  0.5021349E-04  0.1661900E+04  0.7818609E-02  0.8783397E-01
        2   -1    0    0  501    0  0.00000000000E+00  0.00000000000E+00  0.23213573304E+04  0.23213573304E+04  0.25500000920E-02 0. -1.
       -2   -1    0    0    0  501  0.00000000000E+00  0.00000000000E+00 -0.29744587133E+03  0.29744587134E+03  0.25500000920E-02 0.  1.
    10030    2    1    2    0    0  0.00000000000E+00  0.00000000000E+00  0.20239114591E+04  0.26188032018E+04  0.16619003025E+04 0.  0.
        2    1    3    3  502    0  0.23267959403E+03  0.54975997560E+03  0.10112505478E+03  0.60547675509E+03  0.25500000920E-02 0.  1.
       -2    1    3    3    0  502 -0.23267959403E+03 -0.54975997560E+03  0.19227864043E+04  0.20133264467E+04  0.25500000920E-02 0. -1.
</event>
<event>
 5   0  0.1910750E-04  0.1705051E+04  0.7818609E-02  0.8758489E-01
        3   -1    0    0  501    0  0.00000000000E+00  0.00000000000E+00  0.10095252274E+04  0.10095252324E+04  0.10100000352E+00 0. -1.
       -3   -1    0    0    0  501  0.00000000000E+00  0.00000000000E+00 -0.71994252478E+03  0.71994253186E+03  0.10100000352E+00 0.  1.
    10030    2    1    2    0    0  0.00000000000E+00  0.00000000000E+00  0.28958270257E+03  0.17294677643E+04  0.17050514966E+04 0.  0.
        2    1    3    3  502    0 -0.53315045080E+03 -0.44855278858E+03 -0.35351870575E+03  0.78129666751E+03  0.25500000920E-02 0.  1.
       -2    1    3    3    0  502  0.53315045080E+03  0.44855278858E+03  0.64310140833E+03  0.94817109676E+03  0.25500000920E-02 0. -1.
</event>
<event>
 5   0  0.2785059E-04  0.1624190E+04  0.7818609E-02  0.8805823E-01
       -1   -1    0    0    0  501  0.00000000000E+00  0.00000000000E+00  0.49003105131E+03  0.49003105134E+03  0.50400001928E-02 0. -1.
        1   -1    0    0  501    0  0.00000000000E+00  0.00000000000E+00 -0.13458300910E+04  0.13458300910E+04  0.50400001928E-02 0.  1.
    10030    2    1    2    0    0  0.00000000000E+00  0.00000000000E+00 -0.85579903966E+03  0.18358611423E+04  0.16241903022E+04 0.  0.
        5    1    3    3  502    0  0.52301547122E+03 -0.49592237700E+03 -0.49827321863E+01  0.72078506142E+03  0.46999998093E+01 0. -1.
       -5    1    3    3    0  502 -0.52301547122E+03  0.49592237700E+03 -0.85081630748E+03  0.11150760809E+04  0.46999998093E+01 0.  1.
</event>
<event>
 5   0  0.2595644E-04  0.1681409E+04  0.7818609E-02  0.8772039E-01
        1   -1    0    0  501    0  0.00000000000E+00  0.00000000000E+00  0.85299439683E+03  0.85299439685E+03  0.50400001928E-02 0.  1.
       -1   -1    0    0    0  501  0.00000000000E+00  0.00000000000E+00 -0.82859127732E+03  0.82859127733E+03  0.50400001928E-02 0. -1.
    10030    2    1    2    0    0  0.00000000000E+00  0.00000000000E+00  0.24403119516E+02  0.16815856742E+04  0.16814085962E+04 0.  0.
        2    1    3    3  502    0 -0.46100989266E+03  0.56545951004E+03 -0.40558534417E+03  0.83472992641E+03  0.25500000920E-02 0.  1.
       -2    1    3    3    0  502  0.46100989266E+03 -0.56545951004E+03  0.42998846369E+03  0.84685574777E+03  0.25500000920E-02 0. -1.
</event>
<event>
 5   0  0.2630135E-04  0.1642713E+04  0.7818609E-02  0.8794729E-01
       -1   -1    0    0    0  501  0.00000000000E+00  0.00000000000E+00  0.37036487598E+03  0.37036487602E+03  0.50400001928E-02 0. -1.
        1   -1    0    0  501    0  0.00000000000E+00  0.00000000000E+00 -0.18215195111E+04  0.18215195111E+04  0.50400001928E-02 0.  1.
    10030    2    1    2    0    0  0.00000000000E+00  0.00000000000E+00 -0.14511546351E+04  0.21918843871E+04  0.16427134234E+04 0.  0.
        1    1    3    3  502    0 -0.77128823848E+03 -0.22765285019E+03 -0.94851238785E+03  0.12435381446E+04  0.50400001928E-02 0.  1.
       -1    1    3    3    0  502  0.77128823848E+03  0.22765285019E+03 -0.50264224723E+03  0.94834624254E+03  0.50400001928E-02 0. -1.
</event>
<event>
 5   0  0.5021349E-04  0.1695169E+04  0.7818609E-02  0.8764125E-01
        2   -1    0    0  501    0  0.00000000000E+00  0.00000000000E+00  0.98269124682E+03  0.98269124682E+03  0.25500000920E-02 0. -1.
       -2   -1    0    0    0  501  0.00000000000E+00  0.00000000000E+00 -0.73105300145E+03  0.73105300146E+03  0.25500000920E-02 0.  1.
    10030    2    1    2    0    0  0.00000000000E+00  0.00000000000E+00  0.25163824537E+03  0.17137442483E+04  0.16951688830E+04 0.  0.
        2    1    3    3  502    0 -0.26925994855E+03  0.63681657575E+03 -0.36982156375E+03  0.78409454791E+03  0.25500000920E-02 0.  1.
       -2    1    3    3    0  502  0.26925994855E+03 -0.63681657575E+03  0.62145980912E+03  0.92964970037E+03  0.25500000920E-02 0. -1.
</event>
<event>
 5   0  0.2630135E-04  0.1726345E+04  0.7818609E-02  0.8746480E-01
       -1   -1    0    0    0  501  0.00000000000E+00  0.00000000000E+00  0.10433114969E+04  0.10433114969E+04  0.50400001928E-02 0.  1.
        1   -1    0    0  501    0  0.00000000000E+00  0.00000000000E+00 -0.71413664181E+03  0.71413664183E+03  0.50400001928E-02 0. -1.
    10030    2    1    2    0    0  0.00000000000E+00  0.00000000000E+00  0.32917485508E+03  0.17574481387E+04  0.17263452364E+04 0.  0.
        1    1    3    3  502    0  0.97926168763E+02 -0.59778741878E+03  0.79058705858E+03  0.99597551667E+03  0.50400001928E-02 0.  1.
       -1    1    3    3    0  502 -0.97926168763E+02  0.59778741878E+03 -0.46141220350E+03  0.76147262206E+03  0.50400001928E-02 0. -1.
</event>
<event>
 5   0  0.5342255E-04  0.1704660E+04  0.7818609E-02  0.8758711E-01
       -2   -1    0    0    0  501  0.00000000000E+00  0.00000000000E+00  0.15029409659E+04  0.15029409659E+04  0.25500000920E-02 0. -1.
        2   -1    0    0  501    0  0.00000000000E+00  0.00000000000E+00 -0.48336350342E+03  0.48336350343E+03  0.25500000920E-02 0.  1.
    10030    2    1    2    0    0  0.00000000000E+00  0.00000000000E+00  0.10195774625E+04  0.19863044693E+04  0.17046604480E+04 0.  0.
        5    1    3    3  502    0  0.47747386833E+03  0.10999151181E+03 -0.30283448038E+03  0.57602972155E+03  0.46999998093E+01 0.  1.
       -5    1    3    3    0  502 -0.47747386833E+03 -0.10999151181E+03  0.13224119428E+04  0.14102747478E+04  0.46999998093E+01 0. -1.
</event>
<event>
 5   0  0.2583422E-04  0.1673825E+04  0.7818609E-02  0.8776435E-01
        1   -1    0    0  501    0  0.00000000000E+00  0.00000000000E+00  0.15643969001E+04  0.15643969001E+04  0.50400001928E-02 0.  1.
       -1   -1    0    0    0  501  0.00000000000E+00  0.00000000000E+00 -0.44772713862E+03  0.44772713865E+03  0.50400001928E-02 0. -1.
    10030    2    1    2    0    0  0.00000000000E+00  0.00000000000E+00  0.11166697615E+04  0.20121240388E+04  0.16738254960E+04 0.  0.
        3    1    3    3  502    0  0.18756465884E+03 -0.42855742608E+03 -0.27588249001E+03  0.54309587293E+03  0.10100000352E+00 0. -1.
       -3    1    3    3    0  502 -0.18756465884E+03  0.42855742608E+03  0.13925522515E+04  0.14690281659E+04  0.10100000352E+00 0.  1.
</event>
<event>
 5   0  0.2785059E-04  0.1734091E+04  0.7818609E-02  0.8742156E-01
       -1   -1    0    0    0  501  0.00000000000E+00  0.00000000000E+00  0.42290750276E+03  0.42290750279E+03  0.50400001928E-02 0. -1.
        1   -1    0    0  501    0  0.00000000000E+00  0.00000000000E+00 -0.17776174135E+04  0.17776174135E+04  0.50400001928E-02 0.  1.
    10030    2    1    2    0    0  0.00000000000E+00  0.00000000000E+00 -0.13547099108E+04  0.22005249163E+04  0.17340908180E+04 0.  0.
        5    1    3    3  502    0  0.65582668930E+03  0.12694599900E+03 -0.13787706764E+04  0.15320752597E+04  0.46999998093E+01 0.  1.
       -5    1    3    3    0  502 -0.65582668930E+03 -0.12694599900E+03  0.24060765657E+02  0.66844965667E+03  0.46999998093E+01 0. -1.
</event>
<event>
 5   0  0.2785059E-04  0.1717884E+04  0.7818609E-02  0.8751230E-01
        1   -1    0    0  501    0  0.00000000000E+00  0.00000000000E+00  0.15095771339E+04  0.15095771339E+04  0.50400001928E-02 0. -1.
       -1   -1    0    0    0  501  0.00000000000E+00  0.00000000000E+00 -0.48873388804E+03  0.48873388807E+03  0.50400001928E-02 0.  1.
    10030    2    1    2    0    0  0.00000000000E+00  0.00000000000E+00  0.10208432458E+04  0.19983110219E+04  0.17178841660E+04 0.  0.
        5    1    3    3  502    0 -0.85191592215E+03  0.27442619663E+02  0.63377756178E+03  0.10621722664E+04  0.46999998093E+01 0. -1.
       -5    1    3    3    0  502  0.85191592215E+03 -0.27442619663E+02  0.38706568403E+03  0.93613875549E+03  0.46999998093E+01 0.  1.
</event>
<event>
 5   0  0.5021349E-04  0.1739280E+04  0.7818609E-02  0.8739273E-01
       -2   -1    0    0    0  501  0.00000000000E+00  0.00000000000E+00  0.97416830628E+03  0.97416830628E+03  0.25500000920E-02 0. -1.
        2   -1    0    0  501    0  0.00000000000E+00  0.00000000000E+00 -0.77632783554E+03  0.77632783555E+03  0.25500000920E-02 0.  1.
    10030    2    1    2    0    0  0.00000000000E+00  0.00000000000E+00  0.19784047074E+03  0.17504961418E+04  0.17392802795E+04 0.  0.
        2    1    3    3  502    0  0.38607433073E+02  0.85000220645E+03  0.27974430862E+03  0.89568474536E+03  0.25500000920E-02 0.  1.
       -2    1    3    3    0  502 -0.38607433073E+02 -0.85000220645E+03 -0.81903837884E+02  0.85481139647E+03  0.25500000920E-02 0. -1.
</event>
<event>
 5   0  0.1910750E-04  0.1683638E+04  0.7818609E-02  0.8770752E-01
        3   -1    0    0  501    0  0.00000000000E+00  0.00000000000E+00  0.72230178089E+03  0.72230178795E+03  0.10100000352E+00 0. -1.
       -3   -1    0    0    0  501  0.00000000000E+00  0.00000000000E+00 -0.98111221723E+03  0.98111222243E+03  0.10100000352E+00 0.  1.
    10030    2    1    2    0    0  0.00000000000E+00  0.00000000000E+00 -0.25881043634E+03  0.17034140104E+04  0.16836378615E+04 0.  0.
        2    1    3    3  502    0  0.69218845993E+03  0.43434656964E+03  0.75150988839E+02  0.82062749025E+03  0.25500000920E-02 0. -1.
       -2    1    3    3    0  502 -0.69218845993E+03 -0.43434656964E+03 -0.33396142518E+03  0.88278652013E+03  0.25500000920E-02 0.  1.
</event>
<event>
 5   0  0.2630135E-04  0.1709347E+04  0.7818609E-02  0.8756051E-01
       -1   -1    0    0    0  501  0.00000000000E+00  0.00000000000E+00  0.17924328018E+04  0.17924328018E+04  0.50400001928E-02 0.  1.
        1   -1    0    0  501    0  0.00000000000E+00  0.00000000000E+00 -0.40752804418E+03  0.40752804421E+03  0.50400001928E-02 0. -1.
    10030    2    1    2    0    0  0.00000000000E+00  0.00000000000E+00  0.13849047576E+04  0.21999608460E+04  0.17093468157E+04 0.  0.
        1    1    3    3  502    0 -0.10195397246E+03  0.74386237072E+03  0.12179922837E+04  0.14308148176E+04  0.50400001928E-02 0.  1.
       -1    1    3    3    0  502  0.10195397246E+03 -0.74386237072E+03  0.16691247395E+03  0.76914602843E+03  0.50400001928E-02 0. -1.
</event>
<event>
 5   0  0.5021349E-04  0.1680873E+04  0.7818609E-02  0.8772349E-01
        2   -1    0    0  501    0  0.00000000000E+00  0.00000000000E+00  0.73397348747E+03  0.73397348747E+03  0.25500000920E-02 0. -1.
       -2   -1    0    0    0  501  0.00000000000E+00  0.00000000000E+00 -0.96234150175E+03  0.96234150175E+03  0.25500000920E-02 0.  1.
    10030    2    1    2    0    0  0.00000000000E+00  0.00000000000E+00 -0.22836801428E+03  0.16963149892E+04  0.16808725688E+04 0.  0.
        2    1    3    3  502    0 -0.73524970041E+02 -0.43979114951E+03  0.60475894019E+03  0.75136911845E+03  0.25500000920E-02 0. -1.
       -2    1    3    3    0  502  0.73524970041E+02  0.43979114951E+03 -0.83312695447E+03  0.94494587077E+03  0.25500000920E-02 0.  1.
</event>
<event>
 5   0  0.2595644E-04  0.1690147E+04  0.7818609E-02  0.8767004E-01
        1   -1    0    0  501    0  0.00000000000E+00  0.00000000000E+00  0.99102958250E+03  0.99102958251E+03  0.50400001928E-02 0.  1.
       -1   -1    0    0    0  501  0.00000000000E+00  0.00000000000E+00 -0.72061331918E+03  0.72061331920E+03  0.50400001928E-02 0. -1.
    10030    2    1    2    0    0  0.00000000000E+00  0.00000000000E+00  0.27041626332E+03  0.17116429017E+04  0.16901468775E+04 0.  0.
        2    1    3    3  502    0  0.72886116240E+02 -0.42282828224E+03 -0.60209886311E+03  0.73933698891E+03  0.25500000920E-02 0. -1.
       -2    1    3    3    0  502 -0.72886116240E+02  0.42282828224E+03  0.87251512643E+03  0.97230591280E+03  0.25500000920E-02 0.  1.
</event>
<event>
 5   0  0.2595644E-04  0.1687408E+04  0.7818609E-02  0.8768579E-01
       -1   -1    0    0    0  501  0.00000000000E+00  0.00000000000E+00  0.94487516702E+03  0.94487516703E+03  0.50400001928E-02 0. -1.
        1   -1    0    0  501    0  0.00000000000E+00  0.00000000000E+00 -0.75336533732E+03  0.75336533734E+03  0.50400001928E-02 0.  1.
    10030    2    1    2    0    0  0.00000000000E+00  0.00000000000E+00  0.19150982970E+03  0.16982405044E+04  0.16874077148E+04 0.  0.
        2    1    3    3  502    0 -0.81297218000E+03 -0.79674952047E+02 -0.11670298405E+03  0.82516146900E+03  0.25500000920E-02 0.  1.
       -2    1    3    3    0  502  0.81297218000E+03  0.79674952047E+02  0.30821281375E+03  0.87307903537E+03  0.25500000920E-02 0. -1.
</event>
<event>
 5   0  0.2561518E-04  0.1720119E+04  0.7818609E-02  0.8749972E-01
       -1   -1    0    0    0  501  0.00000000000E+00  0.00000000000E+00  0.10227868093E+04  0.10227868093E+04  0.50400001928E-02 0. -1.
        1   -1    0    0  501    0  0.00000000000E+00  0.00000000000E+00 -0.72322253577E+03  0.72322253579E+03  0.50400001928E-02 0.  1.
    10030    2    1    2    0    0  0.00000000000E+00  0.00000000000E+00  0.29956427353E+03  0.17460093451E+04  0.17201191468E+04 0.  0.
        4    1    3    3  502    0  0.26049096181E+03 -0.73704375488E+03 -0.21424056973E+03  0.81054899445E+03  0.12699999809E+01 0.  1.
       -4    1    3    3    0  502 -0.26049096181E+03  0.73704375488E+03  0.51380484326E+03  0.93546035065E+03  0.12699999809E+01 0. -1.
</event>
<event>
 5   0  0.2561518E-04  0.1676930E+04  0.7818609E-02  0.8774633E-01
       -1   -1    0    0    0  501  0.00000000000E+00  0.00000000000E+00  0.61980573446E+03  0.61980573448E+03  0.50400001928E-02 0.  1.
        1   -1    0    0  501    0  0.00000000000E+00  0.00000000000E+00 -0.11342640539E+04  0.11342640539E+04  0.50400001928E-02 0. -1.
    10030    2    1    2    0    0  0.00000000000E+00  0.00000000000E+00 -0.51445831945E+03  0.17540697884E+04  0.16769297720E+04 0.  0.
        4    1    3    3  502    0  0.56281778094E+03  0.62077807603E+03 -0.22598054784E+03  0.86786986071E+03  0.12699999809E+01 0. -1.
       -4    1    3    3    0  502 -0.56281778094E+03 -0.62077807603E+03 -0.28847777161E+03  0.88619992769E+03  0.12699999809E+01 0.  1.
</event>
<event>
 5   0  0.2785059E-04  0.1688121E+04  0.7818609E-02  0.8768169E-01
        1   -1    0    0  501    0  0.00000000000E+00  0.00000000000E+00  0.48768800223E+03  0.48768800225E+03  0.50400001928E-02 0.  1.
       -1   -1    0    0    0  501  0.00000000000E+00  0.00000000000E+00 -0.14608479908E+04  0.14608479908E+04  0.50400001928E-02 0. -1.
    10030    2    1    2    0    0  0.00000000000E+00  0.00000000000E+00 -0.97315998855E+03  0.19485359930E+04  0.16881208940E+04 0.  0.
        5    1    3    3  502    0  0.19159575316E+03 -0.46816871226E+03 -0.12664769125E+04  0.13637729781E+04  0.46999998093E+01 0. -1.
       -5    1    3    3    0  502 -0.19159575316E+03  0.46816871226E+03  0.29331692399E+03  0.58476301496E+03  0.46999998093E+01 0.  1.
</event>
<event>
 5   0  0.2583422E-04  0.1697617E+04  0.7818609E-02  0.8762724E-01
       -1   -1    0    0    0  501  0.00000000000E+00  0.00000000000E+00  0.30038462991E+03  0.30038462996E+03  0.50400001928E-02 0.  1.
        1   -1    0    0  501    0  0.00000000000E+00  0.00000000000E+00 -0.23985118073E+04  0.23985118074E+04  0.50400001928E-02 0. -1.
    10030    2    1    2    0    0  0.00000000000E+00  0.00000000000E+00 -0.20981271774E+04  0.26988964373E+04  0.16976172497E+04 0.  0.
        3    1    3    3  502    0 -0.99027681590E+02  0.63004352842E+03 -0.19395225405E+04  0.20416926862E+04  0.10100000352E+00 0. -1.
       -3    1    3    3    0  502  0.99027681590E+02 -0.63004352842E+03 -0.15860463689E+03  0.65720375110E+03  0.10100000352E+00 0.  1.
</event>
<event>
 5   0  0.5342255E-04  0.1682968E+04  0.7818609E-02  0.8771138E-01
       -2   -1    0    0    0  501  0.00000000000E+00  0.00000000000E+00  0.33114787089E+03  0.33114787090E+03  0.25500000920E-02 0. -1.
        2   -1    0    0  501    0  0.00000000000E+00  0.00000000000E+00 -0.21383057213E+04  0.21383057213E+04  0.25500000920E-02 0.  1.
    10030    2    1    2    0    0  0.00000000000E+00  0.00000000000E+00 -0.18071578505E+04  0.24694535922E+04  0.16829680769E+04 0.  0.
        5    1    3    3  502    0  0.82278826072E+03  0.11399699252E+03 -0.70618498710E+03  0.10902729760E+04  0.46999998093E+01 0. -1.
       -5    1    3    3    0  502 -0.82278826072E+03 -0.11399699252E+03 -0.11009728634E+04  0.13791806162E+04  0.46999998093E+01 0.  1.
</event>
<event>
 5   0  0.2785059E-04  0.1679388E+04  0.7818609E-02  0.8773208E-01
        1   -1    0    0  501    0  0.00000000000E+00  0.00000000000E+00  0.14710406202E+04  0.14710406202E+04  0.50400001928E-02 0. -1.
       -1   -1    0    0    0  501  0.00000000000E+00  0.00000000000E+00 -0.47931108058E+03  0.47931108061E+03  0.50400001928E-02 0.  1.
    10030    2    1    2    0    0  0.00000000000E+00  0.00000000000E+00  0.99172953964E+03  0.19503517008E+04  0.16793880663E+04 0.  0.
        5    1    3    3  502    0  0.64281235558E+03 -0.32862913780E+03  0.99383627027E+03  0.12283881540E+04  0.46999998093E+01 0. -1.
       -5    1    3    3    0  502 -0.64281235558E+03  0.32862913780E+03 -0.21067306298E+01  0.72196354687E+03  0.46999998093E+01 0.  1.
</event>
<event>
 5   0  0.5310003E-04  0.1710017E+04  0.7818609E-02  0.8755672E-01
        2   -1    0    0  501    0  0.00000000000E+00  0.00000000000E+00  0.41565360167E+03  0.41565360168E+03  0.25500000920E-02 0.  1.
       -2   -1    0    0    0  501  0.00000000000E+00  0.00000000000E+00 -0.17587706354E+04  0.17587706354E+04  0.25500000920E-02 0. -1.
    10030    2    1    2    0    0  0.00000000000E+00  0.00000000000E+00 -0.13431170337E+04  0.21744242371E+04  0.17100167825E+04 0.  0.
        1    1    3    3  502    0  0.40974955388E+03  0.20429348933E+03  0.24663261775E+03  0.52005593435E+03  0.50400001928E-02 0.  1.
       -1    1    3    3    0  502 -0.40974955388E+03 -0.20429348933E+03 -0.15897496515E+04  0.16543683027E+04  0.50400001928E-02 0. -1.
</event>
<event>
 5   0  0.2583422E-04  0.1706517E+04  0.7818609E-02  0.8757656E-01
       -1   -1    0    0    0  501  0.00000000000E+00  0.00000000000E+00  0.51553332814E+03  0.51553332816E+03  0.50400001928E-02 0. -1.
        1   -1    0    0  501    0  0.00000000000E+00  0.00000000000E+00 -0.14122266067E+04  0.14122266067E+04  0.50400001928E-02 0.  1.
    10030    2    1    2    0    0  0.00000000000E+00  0.00000000000E+00 -0.89669327858E+03  0.19277599349E+04  0.17065167830E+04 0.  0.
        3    1    3    3  502    0 -0.13622349975E+03 -0.54560416524E+03 -0.11732671192E+04  0.13010751285E+04  0.10100000352E+00 0.  1.
       -3    1    3    3    0  502  0.13622349975E+03  0.54560416524E+03  0.27657384058E+03  0.62668480635E+03  0.10100000352E+00 0. -1.
</event>
<event>
 5   0  0.2595644E-04  0.1670181E+04  0.7818609E-02  0.8778556E-01
       -1   -1    0    0    0  501  0.00000000000E+00  0.00000000000E+00  0.71501605169E+03  0.71501605171E+03  0.50400001928E-02 0. -1.
        1   -1    0    0  501    0  0.00000000000E+00  0.00000000000E+00 -0.97532965509E+03  0.97532965510E+03  0.50400001928E-02 0.  1.
    10030    2    1    2    0    0  0.00000000000E+00  0.00000000000E+00 -0.26031360340E+03  0.16903457068E+04  0.16701812585E+04 0.  0.
        2    1    3    3  502    0 -0.45592417340E+03  0.65658026221E+03 -0.37476019117E+03  0.88284182813E+03  0.25500000920E-02 0. -1.
       -2    1    3    3    0  502  0.45592417340E+03 -0.65658026221E+03  0.11444658777E+03  0.80750387867E+03  0.25500000920E-02 0.  1.
</event>
<event>
 5   0  0.1910750E-04  0.1423417E+04  0.7818609E-02  0.8937040E-01
       -3   -1    0    0    0  501  0.00000000000E+00  0.00000000000E+00  0.52006226015E+03  0.52006226996E+03  0.10100000352E+00 0.  1.
        3   -1    0    0  501    0  0.00000000000E+00  0.00000000000E+00 -0.97397741235E+03  0.97397741758E+03  0.10100000352E+00 0. -1.
    10030    2    1    2    0    0  0.00000000000E+00  0.00000000000E+00 -0.45391515220E+03  0.14940396875E+04  0.14234168829E+04 0.  0.
        5    1    3    3  502    0 -0.25211603223E+03 -0.40191714905E+03  0.32984009947E+03  0.57785505936E+03  0.46999998093E+01 0.  1.
       -5    1    3    3    0  502  0.25211603223E+03  0.40191714905E+03 -0.78375525167E+03  0.91618462818E+03  0.46999998093E+01 0. -1.
</event>
<event>
 5   0  0.5310003E-04  0.1711566E+04  0.7818609E-02  0.8754795E-01
       -2   -1    0    0    0  501  0.00000000000E+00  0.00000000000E+00  0.10657061239E+04  0.10657061239E+04  0.25500000920E-02 0. -1.
        2   -1    0    0  501    0  0.00000000000E+00  0.00000000000E+00 -0.68721047382E+03  0.68721047382E+03  0.25500000920E-02 0.  1.
    10030    2    1    2    0    0  0.00000000000E+00  0.00000000000E+00  0.37849565007E+03  0.17529165977E+04  0.17115658449E+04 0.  0.
        1    1    3    3  502    0 -0.69991852737E+03  0.49222567254E+03  0.20345202350E+03  0.87952531718E+03  0.50400001928E-02 0.  1.
       -1    1    3    3    0  502  0.69991852737E+03 -0.49222567254E+03  0.17504362657E+03  0.87339128053E+03  0.50400001928E-02 0. -1.
</event>
<event>
 5   0  0.5299877E-04  0.1697365E+04  0.7818609E-02  0.8762869E-01
        2   -1    0    0  501    0  0.00000000000E+00  0.00000000000E+00  0.16076398432E+04  0.16076398432E+04  0.25500000920E-02 0.  1.
       -2   -1    0    0    0  501  0.00000000000E+00  0.00000000000E+00 -0.44802440168E+03  0.44802440169E+03  0.25500000920E-02 0. -1.
    10030    2    1    2    0    0  0.00000000000E+00  0.00000000000E+00  0.11596154416E+04  0.20556642449E+04  0.16973648740E+04 0.  0.
        3    1    3    3  502    0  0.45702833634E+03  0.32444076770E+03  0.13516115298E+04  0.14632123734E+04  0.10100000352E+00 0.  1.
       -3    1    3    3    0  502 -0.45702833634E+03 -0.32444076770E+03 -0.19199608825E+03  0.59245187152E+03  0.10100000352E+00 0. -1.
</event>
<event>
 5   0  0.5310003E-04  0.1694116E+04  0.7818609E-02  0.8764728E-01
       -2   -1    0    0    0  501  0.00000000000E+00  0.00000000000E+00  0.51305171147E+03  0.51305171148E+03  0.25500000920E-02 0.  1.
        2   -1    0    0  501    0  0.00000000000E+00  0.00000000000E+00 -0.13985081046E+04  0.13985081046E+04  0.25500000920E-02 0. -1.
    10030    2    1    2    0    0  0.00000000000E+00  0.00000000000E+00 -0.88545639309E+03  0.19115598160E+04  0.16941156709E+04 0.  0.
        1    1    3    3  502    0 -0.41328350451E+03 -0.26449757190E+03 -0.12218184924E+04  0.13166634532E+04  0.50400001928E-02 0. -1.
       -1    1    3    3    0  502  0.41328350451E+03  0.26449757190E+03  0.33636209930E+03  0.59489636283E+03  0.50400001928E-02 0.  1.
</event>
<event>
 5   0  0.5299877E-04  0.1364874E+04  0.7818609E-02  0.8979644E-01
       -2   -1    0    0    0  501  0.00000000000E+00  0.00000000000E+00  0.41272401491E+03  0.41272401492E+03  0.25500000920E-02 0. -1.
        2   -1    0    0  501    0  0.00000000000E+00  0.00000000000E+00 -0.11284068084E+04  0.11284068084E+04  0.25500000920E-02 0.  1.
    10030    2    1    2    0    0  0.00000000000E+00  0.00000000000E+00 -0.71568279348E+03  0.15411308233E+04  0.13648744828E+04 0.  0.
        3    1    3    3  502    0  0.48571869325E+03 -0.23278122646E+02 -0.89848018709E+03  0.10216316248E+04  0.10100000352E+00 0.  1.
       -3    1    3    3    0  502 -0.48571869325E+03  0.23278122646E+02  0.18279739361E+03  0.51949919853E+03  0.10100000352E+00 0. -1.
</event>
<event>
 5   0  0.5021349E-04  0.1471088E+04  0.7818609E-02  0.8903910E-01
       -2   -1    0    0    0  501  0.00000000000E+00  0.00000000000E+00  0.10968844117E+04  0.10968844117E+04  0.25500000920E-02 0.  1.
        2   -1    0    0  501    0  0.00000000000E+00  0.00000000000E+00 -0.49323798775E+03  0.49323798776E+03  0.25500000920E-02 0. -1.
    10030    2    1    2    0    0  0.00000000000E+00  0.00000000000E+00  0.60364642394E+03  0.15901223995E+04  0.14710881143E+04 0.  0.
        2    1    3    3  502    0  0.11471541992E+03 -0.72516714151E+03  0.35013965688E+03  0.81340321490E+03  0.25500000920E-02 0. -1.
       -2    1    3    3    0  502 -0.11471541992E+03  0.72516714151E+03  0.25350676706E+03  0.77671918455E+03  0.25500000920E-02 0.  1.
</event>
<event>
 5   0  0.5310003E-04  0.1644250E+04  0.7818609E-02  0.8793816E-01
        2   -1    0    0  501    0  0.00000000000E+00  0.00000000000E+00  0.52826254329E+03  0.52826254329E+03  0.25500000920E-02 0.  1.
       -2   -1    0    0    0  501  0.00000000000E+00  0.00000000000E+00 -0.12794568281E+04  0.12794568281E+04  0.25500000920E-02 0. -1.
    10030    2    1    2    0    0  0.00000000000E+00  0.00000000000E+00 -0.75119428481E+03  0.18077193714E+04  0.16442495164E+04 0.  0.
        1    1    3    3  502    0  0.24958888344E+03 -0.75196016995E+03 -0.13434938534E+03  0.80360964733E+03  0.50400001928E-02 0.  1.
       -1    1    3    3    0  502 -0.24958888344E+03  0.75196016995E+03 -0.61684489947E+03  0.10041097241E+04  0.50400001928E-02 0. -1.
</event>
<event>
 5   0  0.2785059E-04  0.1602640E+04  0.7818609E-02  0.8818928E-01
       -1   -1    0    0    0  501  0.00000000000E+00  0.00000000000E+00  0.60274978591E+03  0.60274978593E+03  0.50400001928E-02 0. -1.
        1   -1    0    0  501    0  0.00000000000E+00  0.00000000000E+00 -0.10653067352E+04  0.10653067352E+04  0.50400001928E-02 0.  1.
    10030    2    1    2    0    0  0.00000000000E+00  0.00000000000E+00 -0.46255694926E+03  0.16680565211E+04  0.16026395809E+04 0.  0.
        5    1    3    3  502    0 -0.10078842460E+03  0.31334332996E+03  0.52912382556E+03  0.62316647995E+03  0.46999998093E+01 0. -1.
       -5    1    3    3    0  502  0.10078842460E+03 -0.31334332996E+03 -0.99168077482E+03  0.10448900412E+04  0.46999998093E+01 0.  1.
</event>
<event>
 5   0  0.2785059E-04  0.1407657E+04  0.7818609E-02  0.8948294E-01
       -1   -1    0    0    0  501  0.00000000000E+00  0.00000000000E+00  0.83733631336E+03  0.83733631337E+03  0.50400001928E-02 0.  1.
        1   -1    0    0  501    0  0.00000000000E+00  0.00000000000E+00 -0.59160777994E+03  0.59160777996E+03  0.50400001928E-02 0. -1.
    10030    2    1    2    0    0  0.00000000000E+00  0.00000000000E+00  0.24572853342E+03  0.14289440933E+04  0.14076571705E+04 0.  0.
        5    1    3    3  502    0  0.14170180656E+03  0.33521675783E+03 -0.48865981820E+03  0.60931123790E+03  0.46999998093E+01 0. -1.
       -5    1    3    3    0  502 -0.14170180656E+03 -0.33521675783E+03  0.73438835162E+03  0.81963285543E+03  0.46999998093E+01 0.  1.
</event>
<event>
 5   0  0.5021349E-04  0.1699869E+04  0.7818609E-02  0.8761439E-01
       -2   -1    0    0    0  501  0.00000000000E+00  0.00000000000E+00  0.57125852458E+03  0.57125852458E+03  0.25500000920E-02 0.  1.
        2   -1    0    0  501    0  0.00000000000E+00  0.00000000000E+00 -0.12645561392E+04  0.12645561392E+04  0.25500000920E-02 0. -1.
    10030    2    1    2    0    0  0.00000000000E+00  0.00000000000E+00 -0.69329761466E+03  0.18358146638E+04  0.16998687883E+04 0.  0.
        2    1    3    3  502    0 -0.46715620664E+03 -0.34159320855E+03 -0.10188993314E+04  0.11717835505E+04  0.25500000920E-02 0. -1.
       -2    1    3    3    0  502  0.46715620664E+03  0.34159320855E+03  0.32560171678E+03  0.66403111336E+03  0.25500000920E-02 0.  1.
</event>
<event>
 5   0  0.2583422E-04  0.1796456E+04  0.7818609E-02  0.8708187E-01
        1   -1    0    0  501    0  0.00000000000E+00  0.00000000000E+00  0.94047186915E+03  0.94047186917E+03  0.50400001928E-02 0.  1.
       -1   -1    0    0    0  501  0.00000000000E+00  0.00000000000E+00 -0.85788140446E+03  0.85788140447E+03  0.50400001928E-02 0. -1.
    10030    2    1    2    0    0  0.00000000000E+00  0.00000000000E+00  0.82590464693E+02  0.17983532736E+04  0.17964557640E+04 0.  0.
        3    1    3    3  502    0 -0.61491398611E+03  0.32005647684E+03 -0.53049803819E+03  0.87291668411E+03  0.10100000352E+00 0. -1.
       -3    1    3    3    0  502  0.61491398611E+03 -0.32005647684E+03  0.61308850288E+03  0.92543658953E+03  0.10100000352E+00 0.  1.
</event>
<event>
 5   0  0.2785059E-04  0.1700768E+04  0.7818609E-02  0.8760926E-01
        1   -1    0    0  501    0  0.00000000000E+00  0.00000000000E+00  0.19109634805E+04  0.19109634805E+04  0.50400001928E-02 0.  1.
       -1   -1    0    0    0  501  0.00000000000E+00  0.00000000000E+00 -0.37842330268E+03  0.37842330272E+03  0.50400001928E-02 0. -1.
    10030    2    1    2    0    0  0.00000000000E+00  0.00000000000E+00  0.15325401778E+04  0.22893867832E+04  0.17007681931E+04 0.  0.
        5    1    3    3  502    0  0.64030140915E+03 -0.47166954251E+03  0.11716040250E+04  0.14160282954E+04  0.46999998093E+01 0.  1.
       -5    1    3    3    0  502 -0.64030140915E+03  0.47166954251E+03  0.36093615280E+03  0.87335848784E+03  0.46999998093E+01 0. -1.
</event>
<event>
 5   0  0.1910750E-04  0.1712548E+04  0.7818609E-02  0.8754240E-01
        4   -1    0    0  501    0  0.00000000000E+00  0.00000000000E+00  0.83322869126E+03  0.83322965912E+03  0.12699999809E+01 0.  1.
       -4   -1    0    0    0  501  0.00000000000E+00  0.00000000000E+00 -0.87995487038E+03  0.87995578685E+03  0.12699999809E+01 0. -1.
    10030    2    1    2    0    0  0.00000000000E+00  0.00000000000E+00 -0.46726179124E+02  0.17131854460E+04  0.17125481122E+04 0.  0.
        2    1    3    3  502    0 -0.40777380458E+03 -0.71436528336E+03  0.21464986624E+03  0.85010105214E+03  0.25500000920E-02 0. -1.
       -2    1    3    3    0  502  0.40777380458E+03  0.71436528336E+03 -0.26137604537E+03  0.86308439383E+03  0.25500000920E-02 0.  1.
</event>
<event>
 5   0  0.5299877E-04  0.1327471E+04  0.7818609E-02  0.9008060E-01
        2   -1    0    0  501    0  0.00000000000E+00  0.00000000000E+00  0.15120301583E+04  0.15120301583E+04  0.25500000920E-02 0. -1.
       -2   -1    0    0    0  501  0.00000000000E+00  0.00000000000E+00 -0.29135958900E+03  0.29135958901E+03  0.25500000920E-02 0.  1.
    10030    2    1    2    0    0  0.00000000000E+00  0.00000000000E+00  0.12206705693E+04  0.18033897473E+04  0.13274705051E+04 0.  0.
        3    1    3    3  502    0 -0.66369205040E+03 -0.12139327709E+01  0.62048912482E+03  0.90856776061E+03  0.10100000352E+00 0. -1.
       -3    1    3    3    0  502  0.66369205040E+03  0.12139327709E+01  0.60018144449E+03  0.89482198671E+03  0.10100000352E+00 0.  1.
</event>
<event>
 5   0  0.2785059E-04  0.1763200E+04  0.7818609E-02  0.8726118E-01
       -1   -1    0    0    0  501  0.00000000000E+00  0.00000000000E+00  0.75217919644E+03  0.75217919645E+03  0.50400001928E-02 0.  1.
        1   -1    0    0  501    0  0.00000000000E+00  0.00000000000E+00 -0.10332890942E+04  0.10332890942E+04  0.50400001928E-02 0. -1.
    10030    2    1    2    0    0  0.00000000000E+00  0.00000000000E+00 -0.28110989772E+03  0.17854682906E+04  0.17632000006E+04 0.  0.
        5    1    3    3  502    0 -0.71597360871E+03  0.51226470195E+03 -0.18765188007E+03  0.90014923837E+03  0.46999998093E+01 0. -1.
       -5    1    3    3    0  502  0.71597360871E+03 -0.51226470195E+03 -0.93458017653E+02  0.88531905226E+03  0.46999998093E+01 0.  1.
</event>
<event>
 5   0  0.5021349E-04  0.1687322E+04  0.7818609E-02  0.8768628E-01
       -2   -1    0    0    0  501  0.00000000000E+00  0.00000000000E+00  0.75851887634E+03  0.75851887635E+03  0.25500000920E-02 0. -1.
        2   -1    0    0  501    0  0.00000000000E+00  0.00000000000E+00 -0.93836046112E+03  0.93836046112E+03  0.25500000920E-02 0.  1.
    10030    2    1    2    0    0  0.00000000000E+00  0.00000000000E+00 -0.17984158478E+03  0.16968793375E+04  0.16873222841E+04 0.  0.
        2    1    3    3  502    0 -0.12899372881E+03  0.81800469052E+03 -0.25205762346E+03  0.86562353326E+03  0.25500000920E-02 0.  1.
       -2    1    3    3    0  502  0.12899372881E+03 -0.81800469052E+03  0.72216038687E+02  0.83125580421E+03  0.25500000920E-02 0. -1.
</event>
<event>
 5   0  0.2630135E-04  0.1689772E+04  0.7818609E-02  0.8767219E-01
       -1   -1    0    0    0  501  0.00000000000E+00  0.00000000000E+00  0.41251868733E+03  0.41251868736E+03  0.50400001928E-02 0.  1.
        1   -1    0    0  501    0  0.00000000000E+00  0.00000000000E+00 -0.17304248998E+04  0.17304248998E+04  0.50400001928E-02 0. -1.
    10030    2    1    2    0    0  0.00000000000E+00  0.00000000000E+00 -0.13179062125E+04  0.21429435872E+04  0.16897723021E+04 0.  0.
        1    1    3    3  502    0 -0.48091161642E+02 -0.37878207468E+03 -0.16147674317E+04  0.16592957779E+04  0.50400001928E-02 0. -1.
       -1    1    3    3    0  502  0.48091161642E+02  0.37878207468E+03  0.29686121924E+03  0.48364780930E+03  0.50400001928E-02 0.  1.
</event>
<event>
 5   0  0.1910750E-04  0.1697800E+04  0.7818609E-02  0.8762620E-01
       -3   -1    0    0    0  501  0.00000000000E+00  0.00000000000E+00  0.27095964383E+04  0.27095964402E+04  0.10100000352E+00 0.  1.
        3   -1    0    0  501    0  0.00000000000E+00  0.00000000000E+00 -0.26595508335E+03  0.26595510253E+03  0.10100000352E+00 0. -1.
    10030    2    1    2    0    0  0.00000000000E+00  0.00000000000E+00  0.24436413549E+04  0.29755515427E+04  0.16977997266E+04 0.  0.
        1    1    3    3  502    0  0.80084386156E+03  0.22219544818E+03  0.91872208075E+03  0.12388591403E+04  0.50400001928E-02 0. -1.
       -1    1    3    3    0  502 -0.80084386156E+03 -0.22219544818E+03  0.15249192742E+04  0.17366924024E+04  0.50400001928E-02 0.  1.
</event>
<event>
 5   0  0.5310003E-04  0.1611395E+04  0.7818609E-02  0.8813578E-01
        2   -1    0    0  501    0  0.00000000000E+00  0.00000000000E+00  0.19649449133E+04  0.19649449133E+04  0.25500000920E-02 0. -1.
       -2   -1    0    0    0  501  0.00000000000E+00  0.00000000000E+00 -0.33036471032E+03  0.33036471033E+03  0.25500000920E-02 0.  1.
    10030    2    1    2    0    0  0.00000000000E+00  0.00000000000E+00  0.16345802030E+04  0.22953096236E+04  0.16113949945E+04 0.  0.
        1    1    3    3  502    0 -0.96706994003E+02  0.43535082699E+03  0.17731049712E+04  0.18283281500E+04  0.50400001928E-02 0.  1.
       -1    1    3    3    0  502  0.96706994003E+02 -0.43535082699E+03 -0.13852476823E+03  0.46698147360E+03  0.50400001928E-02 0. -1.
</event>
<event>
 5   0  0.2595644E-04  0.1681868E+04  0.7818609E-02  0.8771774E-01
        1   -1    0    0  501    0  0.00000000000E+00  0.00000000000E+00  0.65521287181E+03  0.65521287183E+03  0.50400001928E-02 0. -1.
       -1   -1    0    0    0  501  0.00000000000E+00  0.00000000000E+00 -0.10792977560E+04  0.10792977560E+04  0.50400001928E-02 0.  1.
    10030    2    1    2    0    0  0.00000000000E+00  0.00000000000E+00 -0.42408488414E+03  0.17345106278E+04  0.16818677502E+04 0.  0.
        2    1    3    3  502    0  0.68160716852E+03 -0.22062077145E+03 -0.66617527531E+03  0.97829001549E+03  0.25500000920E-02 0.  1.
       -2    1    3    3    0  502 -0.68160716852E+03  0.22062077145E+03  0.24209039117E+03  0.75622061231E+03  0.25500000920E-02 0. -1.
</event>
<event>
 5   0  0.2583422E-04  0.1697707E+04  0.7818609E-02  0.8762673E-01
        1   -1    0    0  501    0  0.00000000000E+00  0.00000000000E+00  0.13349561246E+04  0.13349561246E+04  0.50400001928E-02 0. -1.
       -1   -1    0    0    0  501  0.00000000000E+00  0.00000000000E+00 -0.53975746080E+03  0.53975746083E+03  0.50400001928E-02 0.  1.
    10030    2    1    2    0    0  0.00000000000E+00  0.00000000000E+00  0.79519866378E+03  0.18747135854E+04  0.16977073106E+04 0.  0.
        3    1    3    3  502    0 -0.42970740954E+03 -0.13013848962E+03 -0.39790474866E+03  0.59992723184E+03  0.10100000352E+00 0.  1.
       -3    1    3    3    0  502  0.42970740954E+03  0.13013848962E+03  0.11931034124E+04  0.12747863536E+04  0.10100000352E+00 0. -1.
</event>
<event>
 5   0  0.2785059E-04  0.1728303E+04  0.7818609E-02  0.8745385E-01
       -1   -1    0    0    0  501  0.00000000000E+00  0.00000000000E+00  0.43448053405E+03  0.43448053408E+03  0.50400001928E-02 0.  1.
        1   -1    0    0  501    0  0.00000000000E+00  0.00000000000E+00 -0.17187367341E+04  0.17187367341E+04  0.50400001928E-02 0. -1.
    10030    2    1    2    0    0  0.00000000000E+00  0.00000000000E+00 -0.12842562001E+04  0.21532172682E+04  0.17283028139E+04 0.  0.
        5    1    3    3  502    0  0.56747075210E+03  0.65062415773E+03 -0.59550051560E+03  0.10487982662E+04  0.46999998093E+01 0.  1.
       -5    1    3    3    0  502 -0.56747075210E+03 -0.65062415773E+03 -0.68875568446E+03  0.11044190020E+04  0.46999998093E+01 0. -1.
</event>
<event>
 5   0  0.2595644E-04  0.1637202E+04  0.7818609E-02  0.8798014E-01
       -1   -1    0    0    0  501  0.00000000000E+00  0.00000000000E+00  0.36121942740E+03  0.36121942744E+03  0.50400001928E-02 0.  1.
        1   -1    0    0  501    0  0.00000000000E+00  0.00000000000E+00 -0.18551259298E+04  0.18551259298E+04  0.50400001928E-02 0. -1.
    10030    2    1    2    0    0  0.00000000000E+00  0.00000000000E+00 -0.14939065024E+04  0.22163453572E+04  0.16372019132E+04 0.  0.
        2    1    3    3  502    0 -0.34900008494E+03  0.62896563328E+03 -0.21793935598E+03  0.75159589543E+03  0.25500000920E-02 0.  1.
       -2    1    3    3    0  502  0.34900008494E+03 -0.62896563328E+03 -0.12759671464E+04  0.14647494618E+04  0.25500000920E-02 0. -1.
</event>
<event>
 5   0  0.5198430E-04  0.1692806E+04  0.7818609E-02  0.8765478E-01
        2   -1    0    0  501    0  0.00000000000E+00  0.00000000000E+00  0.10009663290E+04  0.10009663290E+04  0.25500000920E-02 0. -1.
       -2   -1    0    0    0  501  0.00000000000E+00  0.00000000000E+00 -0.71570653517E+03  0.71570653518E+03  0.25500000920E-02 0.  1.
    10030    2    1    2    0    0  0.00000000000E+00  0.00000000000E+00  0.28525979380E+03  0.17166728642E+04  0.16928061237E+04 0.  0.
        4    1    3    3  502    0  0.56048590016E+03  0.19028830334E+03  0.75617436693E+03  0.96028921100E+03  0.12699999809E+01 0. -1.
       -4    1    3    3    0  502 -0.56048590016E+03 -0.19028830334E+03 -0.47091457313E+03  0.75638365315E+03  0.12699999809E+01 0.  1.
</event>
<event>
 5   0  0.2561518E-04  0.1677329E+04  0.7818609E-02  0.8774401E-01
        1   -1    0    0  501    0  0.00000000000E+00  0.00000000000E+00  0.18984765557E+04  0.18984765557E+04  0.50400001928E-02 0. -1.
       -1   -1    0    0    0  501  0.00000000000E+00  0.00000000000E+00 -0.37048566643E+03  0.37048566646E+03  0.50400001928E-02 0.  1.
    10030    2    1    2    0    0  0.00000000000E+00  0.00000000000E+00  0.15279908893E+04  0.22689622222E+04  0.16773292485E+04 0.  0.
        4    1    3    3  502    0 -0.66166772649E+03 -0.41858431999E+03  0.11705776144E+04  0.14082863975E+04  0.12699999809E+01 0. -1.
       -4    1    3    3    0  502  0.66166772649E+03  0.41858431999E+03  0.35741327493E+03  0.86067582469E+03  0.12699999809E+01 0.  1.
</event>
<event>
 5   0  0.2583422E-04  0.1686382E+04  0.7818609E-02  0.8769170E-01
        1   -1    0    0  501    0  0.00000000000E+00  0.00000000000E+00  0.65653080567E+03  0.65653080569E+03  0.50400001928E-02 0.  1.
       -1   -1    0    0    0  501  0.00000000000E+00  0.00000000000E+00 -0.10829209930E+04  0.10829209930E+04  0.50400001928E-02 0. -1.
    10030    2    1    2    0    0  0.00000000000E+00  0.00000000000E+00 -0.42639018729E+03  0.17394517987E+04  0.16863819164E+04 0.  0.
        3    1    3    3  502    0  0.44104170292E+03 -0.71272675216E+03 -0.30814508350E+03  0.89300090125E+03  0.10100000352E+00 0. -1.
       -3    1    3    3    0  502 -0.44104170292E+03  0.71272675216E+03 -0.11824510379E+03  0.84645089741E+03  0.10100000352E+00 0.  1.
</event>
<event>
 5   0  0.1910750E-04  0.1777571E+04  0.7818609E-02  0.8718319E-01
       -4   -1    0    0    0  501  0.00000000000E+00  0.00000000000E+00  0.11348492734E+04  0.11348499840E+04  0.12699999809E+01 0.  1.
        4   -1    0    0  501    0  0.00000000000E+00  0.00000000000E+00 -0.69607318730E+03  0.69607434587E+03  0.12699999809E+01 0. -1.
    10030    2    1    2    0    0  0.00000000000E+00  0.00000000000E+00  0.43877608610E+03  0.18309243299E+04  0.17775712217E+04 0.  0.
        5    1    3    3  502    0  0.86957893404E+02 -0.31022852968E+03 -0.63379386682E+03  0.71099941735E+03  0.46999998093E+01 0. -1.
       -5    1    3    3    0  502 -0.86957893404E+02  0.31022852968E+03  0.10725699529E+04  0.11199249125E+04  0.46999998093E+01 0.  1.
</event>
<event>
 5   0  0.5310003E-04  0.1705394E+04  0.7818609E-02  0.8758294E-01
        2   -1    0    0  501    0  0.00000000000E+00  0.00000000000E+00  0.51567783991E+03  0.51567783992E+03  0.25500000920E-02 0. -1.
       -2   -1    0    0    0  501  0.00000000000E+00  0.00000000000E+00 -0.14099732596E+04  0.14099732596E+04  0.25500000920E-02 0.  1.
    10030    2    1    2    0    0  0.00000000000E+00  0.00000000000E+00 -0.89429541965E+03  0.19256510995E+04  0.17053937549E+04 0.  0.
        1    1    3    3  502    0 -0.32521383095E+03 -0.46039360766E+03 -0.11695991071E+04  0.12983406260E+04  0.50400001928E-02 0.  1.
       -1    1    3    3    0  502  0.32521383095E+03  0.46039360766E+03  0.27530368742E+03  0.62731047349E+03  0.50400001928E-02 0. -1.
</event>
<event>
 5   0  0.5299877E-04  0.1705733E+04  0.7818609E-02  0.8758101E-01
       -2   -1    0    0    0  501  0.00000000000E+00  0.00000000000E+00  0.88196750289E+03  0.88196750289E+03  0.25500000920E-02 0.  1.
        2   -1    0    0  501    0  0.00000000000E+00  0.00000000000E+00 -0.82472610903E+03  0.82472610903E+03  0.25500000920E-02 0. -1.
    10030    2    1    2    0    0  0.00000000000E+00  0.00000000000E+00  0.57241393860E+02  0.17066936119E+04  0.17057334223E+04 0.  0.
        3    1    3    3  502    0 -0.78032223692E+03 -0.15865412561E+03 -0.27701433157E+03  0.84309600586E+03  0.10100000352E+00 0. -1.
       -3    1    3    3    0  502  0.78032223692E+03  0.15865412561E+03  0.33425572543E+03  0.86359760606E+03  0.10100000352E+00 0.  1.
</event>
<event>
 5   0  0.5299877E-04  0.1693497E+04  0.7818609E-02  0.8765082E-01
        2   -1    0    0  501    0  0.00000000000E+00  0.00000000000E+00  0.24560476528E+04  0.24560476528E+04  0.25500000920E-02 0. -1.
       -2   -1    0    0    0  501  0.00000000000E+00  0.00000000000E+00 -0.29192552926E+03  0.29192552928E+03  0.25500000920E-02 0.  1.
    10030    2    1    2    0    0  0.00000000000E+00  0.00000000000E+00  0.21641221235E+04  0.27479731821E+04  0.16934969867E+04 0.  0.
        3    1    3    3  502    0 -0.73782806388E+03 -0.15658373836E+03  0.17064682287E+04  0.18657284221E+04  0.10100000352E+00 0. -1.
       -3    1    3    3    0  502  0.73782806388E+03  0.15658373836E+03  0.45765389480E+03  0.88224476002E+03  0.10100000352E+00 0.  1.
</event>
<event>
 5   0  0.2561518E-04  0.1705780E+04  0.7818609E-02  0.8758075E-01
        1   -1    0    0  501    0  0.00000000000E+00  0.00000000000E+00  0.15524623388E+04  0.15524623388E+04  0.50400001928E-02 0.  1.
       -1   -1    0    0    0  501  0.00000000000E+00  0.00000000000E+00 -0.46855976227E+03  0.46855976230E+03  0.50400001928E-02 0. -1.
    10030    2    1    2    0    0  0.00000000000E+00  0.00000000000E+00  0.10839025765E+04  0.20210221011E+04  0.17057800379E+04 0.  0.
        4    1    3    3  502    0 -0.10852667942E+03 -0.64317414403E+03  0.11930233161E+04  0.13596901358E+04  0.12699999809E+01 0.  1.
       -4    1    3    3    0  502  0.10852667942E+03  0.64317414403E+03 -0.10912073954E+03  0.66133196535E+03  0.12699999809E+01 0. -1.
</event>
<event>
 5   0  0.5310003E-04  0.1677272E+04  0.7818609E-02  0.8774434E-01
       -2   -1    0    0    0  501  0.00000000000E+00  0.00000000000E+00  0.72433220461E+03  0.72433220462E+03  0.25500000920E-02 0. -1.
        2   -1    0    0  501    0  0.00000000000E+00  0.00000000000E+00 -0.97097744187E+03  0.97097744187E+03  0.25500000920E-02 0.  1.
    10030    2    1    2    0    0  0.00000000000E+00  0.00000000000E+00 -0.24664523726E+03  0.16953096465E+04  0.16772718696E+04 0.  0.
        1    1    3    3  502    0  0.63218815542E+03 -0.17058554078E+03 -0.65293173966E+03  0.92470597882E+03  0.50400001928E-02 0.  1.
       -1    1    3    3    0  502 -0.63218815542E+03  0.17058554078E+03  0.40628650241E+03  0.77060366768E+03  0.50400001928E-02 0. -1.
</event>
<event>
 5   0  0.2595644E-04  0.1700782E+04  0.7818609E-02  0.8760918E-01
        1   -1    0    0  501    0  0.00000000000E+00  0.00000000000E+00  0.46220818598E+03  0.46220818601E+03  0.50400001928E-02 0.  1.
       -1   -1    0    0    0  501  0.00000000000E+00  0.00000000000E+00 -0.15645869894E+04  0.15645869894E+04  0.50400001928E-02 0. -1.
    10030    2    1    2    0    0  0.00000000000E+00  0.00000000000E+00 -0.11023788034E+04  0.20267951754E+04  0.17007820721E+04 0.  0.
        2    1    3    3  502    0  0.24639624131E+03  0.70923470911E+03 -0.10270280852E+04  0.12722073998E+04  0.25500000920E-02 0. -1.
       -2    1    3    3    0  502 -0.24639624131E+03 -0.70923470911E+03 -0.75350718206E+02  0.75458777559E+03  0.25500000920E-02 0.  1.
</event>
<event>
 5   0  0.2630135E-04  0.1705299E+04  0.7818609E-02  0.8758348E-01
       -1   -1    0    0    0  501  0.00000000000E+00  0.00000000000E+00  0.32149296352E+03  0.32149296356E+03  0.50400001928E-02 0.  1.
        1   -1    0    0  501    0  0.00000000000E+00  0.00000000000E+00 -0.22613582172E+04  0.22613582172E+04  0.50400001928E-02 0. -1.
    10030    2    1    2    0    0  0.00000000000E+00  0.00000000000E+00 -0.19398652537E+04  0.25828511808E+04  0.17052985133E+04 0.  0.
        1    1    3    3  502    0 -0.90017656389E+02  0.84535074133E+03 -0.10691328062E+04  0.13659304563E+04  0.50400001928E-02 0. -1.
       -1    1    3    3    0  502  0.90017656389E+02 -0.84535074133E+03 -0.87073244752E+03  0.12169207244E+04  0.50400001928E-02 0.  1.
</event>
<event>
 5   0  0.2785059E-04  0.1630362E+04  0.7818609E-02  0.8802109E-01
        1   -1    0    0  501    0  0.00000000000E+00  0.00000000000E+00  0.55564764871E+03  0.55564764873E+03  0.50400001928E-02 0.  1.
       -1   -1    0    0    0  501  0.00000000000E+00  0.00000000000E+00 -0.11959383296E+04  0.11959383296E+04  0.50400001928E-02 0. -1.
    10030    2    1    2    0    0  0.00000000000E+00  0.00000000000E+00 -0.64029068090E+03  0.17515859784E+04  0.16303623166E+04 0.  0.
        5    1    3    3  502    0  0.20624271841E+03 -0.70364443116E+03  0.62491599510E+02  0.73592039951E+03  0.46999998093E+01 0.  1.
       -5    1    3    3    0  502 -0.20624271841E+03  0.70364443116E+03 -0.70278228041E+03  0.10156655789E+04  0.46999998093E+01 0. -1.
</event>
<event>
 5   0  0.5021349E-04  0.1719949E+04  0.7818609E-02  0.8750068E-01
       -2   -1    0    0    0  501  0.00000000000E+00  0.00000000000E+00  0.10675799383E+04  0.10675799383E+04  0.25500000920E-02 0.  1.
        2   -1    0    0  501    0  0.00000000000E+00  0.00000000000E+00 -0.69274045365E+03  0.69274045365E+03  0.25500000920E-02 0. -1.
    10030    2    1    2    0    0  0.00000000000E+00  0.00000000000E+00  0.37483948469E+03  0.17603203920E+04  0.17199486164E+04 0.  0.
        2    1    3    3  502    0  0.55981619289E+03  0.59675540968E+03  0.45829144982E+03  0.93783913428E+03  0.25500000920E-02 0.  1.
       -2    1    3    3    0  502 -0.55981619289E+03 -0.59675540968E+03 -0.83451965136E+02  0.82248125771E+03  0.25500000920E-02 0. -1.
</event>
<event>
 5   0  0.5310003E-04  0.1702095E+04  0.7818609E-02  0.8760170E-01
        2   -1    0    0  501    0  0.00000000000E+00  0.00000000000E+00  0.10336114911E+04  0.10336114911E+04  0.25500000920E-02 0.  1.
       -2   -1    0    0    0  501  0.00000000000E+00  0.00000000000E+00 -0.70072966673E+03  0.70072966673E+03  0.25500000920E-02 0. -1.
    10030    2    1    2    0    0  0.00000000000E+00  0.00000000000E+00  0.33288182437E+03  0.17343411578E+04  0.17020954564E+04 0.  0.
        1    1    3    3  502    0 -0.44020620781E+03  0.55154466045E+03  0.65116225713E+03  0.96020586490E+03  0.50400001928E-02 0.  1.
       -1    1    3    3    0  502  0.44020620781E+03 -0.55154466045E+03 -0.31828043276E+03  0.77413529293E+03  0.50400001928E-02 0. -1.
</event>
<event>
 5   0  0.5342255E-04  0.1941376E+04  0.7818609E-02  0.8634531E-01
       -2   -1    0    0    0  501  0.00000000000E+00  0.00000000000E+00  0.47908360982E+03  0.47908360982E+03  0.25500000920E-02 0.  1.
        2   -1    0    0  501    0  0.00000000000E+00  0.00000000000E+00 -0.19667452553E+04  0.19667452553E+04  0.25500000920E-02 0. -1.
    10030    2    1    2    0    0  0.00000000000E+00  0.00000000000E+00 -0.14876616455E+04  0.24458288651E+04  0.19413762299E+04 0.  0.
        5    1    3    3  502    0  0.80600442585E+02  0.60522421756E+02 -0.19601201046E+04  0.19627155447E+04  0.46999998093E+01 0. -1.
       -5    1    3    3    0  502 -0.80600442585E+02 -0.60522421756E+02  0.47245845908E+03  0.48311332049E+03  0.46999998093E+01 0.  1.
</event>
<event>
 5   0  0.1910750E-04  0.1827188E+04  0.7818609E-02  0.8691973E-01
        3   -1    0    0  501    0  0.00000000000E+00  0.00000000000E+00  0.12558936292E+04  0.12558936333E+04  0.10100000352E+00 0.  1.
       -3   -1    0    0    0  501  0.00000000000E+00  0.00000000000E+00 -0.66458978067E+03  0.66458978835E+03  0.10100000352E+00 0. -1.
    10030    2    1    2    0    0  0.00000000000E+00  0.00000000000E+00  0.59130384857E+03  0.19204834216E+04  0.18271880942E+04 0.  0.
        4    1    3    3  502    0  0.66673063404E+03  0.29128701825E+03  0.87637976153E+03  0.11390438818E+04  0.12699999809E+01 0.  1.
       -4    1    3    3    0  502 -0.66673063404E+03 -0.29128701825E+03 -0.28507591296E+03  0.78143953984E+03  0.12699999809E+01 0. -1.
</event>
<event>
 5   0  0.1910750E-04  0.1674381E+04  0.7818609E-02  0.8776112E-01
        4   -1    0    0  501    0  0.00000000000E+00  0.00000000000E+00  0.47017245235E+03  0.47017416757E+03  0.12699999809E+01 0.  1.
       -4   -1    0    0    0  501  0.00000000000E+00  0.00000000000E+00 -0.14906987972E+04  0.14906993382E+04  0.12699999809E+01 0. -1.
    10030    2    1    2    0    0  0.00000000000E+00  0.00000000000E+00 -0.10205263448E+04  0.19608735057E+04  0.16743807467E+04 0.  0.
        3    1    3    3  502    0 -0.12410420571E+03  0.77588485520E+03 -0.17187995707E+03  0.80432698093E+03  0.10100000352E+00 0.  1.
       -3    1    3    3    0  502  0.12410420571E+03 -0.77588485520E+03 -0.84864638776E+03  0.11565465248E+04  0.10100000352E+00 0. -1.
</event>
<event>
 5   0  0.5198430E-04  0.1677345E+04  0.7818609E-02  0.8774392E-01
        2   -1    0    0  501    0  0.00000000000E+00  0.00000000000E+00  0.12955444820E+04  0.12955444820E+04  0.25500000920E-02 0.  1.
       -2   -1    0    0    0  501  0.00000000000E+00  0.00000000000E+00 -0.54291591553E+03  0.54291591553E+03  0.25500000920E-02 0. -1.
    10030    2    1    2    0    0  0.00000000000E+00  0.00000000000E+00  0.75262856643E+03  0.18384603975E+04  0.16773451863E+04 0.  0.
        4    1    3    3  502    0  0.11161345386E+03 -0.80005225012E+03  0.62342259707E+03  0.10203913531E+04  0.12699999809E+01 0.  1.
       -4    1    3    3    0  502 -0.11161345386E+03  0.80005225012E+03  0.12920596936E+03  0.81806904441E+03  0.12699999809E+01 0. -1.
</event>
<event>
 5   0  0.5310003E-04  0.1668104E+04  0.7818609E-02  0.8779768E-01
       -2   -1    0    0    0  501  0.00000000000E+00  0.00000000000E+00  0.45675867576E+03  0.45675867577E+03  0.25500000920E-02 0.  1.
        2   -1    0    0  501    0  0.00000000000E+00  0.00000000000E+00 -0.15229990266E+04  0.15229990266E+04  0.25500000920E-02 0. -1.
    10030    2    1    2    0    0  0.00000000000E+00  0.00000000000E+00 -0.10662403508E+04  0.19797577023E+04  0.16681043356E+04 0.  0.
        1    1    3    3  502    0 -0.81985365398E+03 -0.12783146594E+03 -0.43281982977E+03  0.93585998028E+03  0.50400001928E-02 0.  1.
       -1    1    3    3    0  502  0.81985365398E+03  0.12783146594E+03 -0.63342052104E+03  0.10438977221E+04  0.50400001928E-02 0. -1.
</event>
<event>
 5   0  0.2630135E-04  0.1698082E+04  0.7818609E-02  0.8762459E-01
       -1   -1    0    0    0  501  0.00000000000E+00  0.00000000000E+00  0.36412240319E+03  0.36412240323E+03  0.50400001928E-02 0. -1.
        1   -1    0    0  501    0  0.00000000000E+00  0.00000000000E+00 -0.19797479537E+04  0.19797479537E+04  0.50400001928E-02 0.  1.
    10030    2    1    2    0    0  0.00000000000E+00  0.00000000000E+00 -0.16156255505E+04  0.23438703569E+04  0.16980819564E+04 0.  0.
        1    1    3    3  502    0  0.63008017881E+03  0.33629807634E+03 -0.14415111411E+04  0.16087423031E+04  0.50400001928E-02 0.  1.
       -1    1    3    3    0  502 -0.63008017881E+03 -0.33629807634E+03 -0.17411440937E+03  0.73512805378E+03  0.50400001928E-02 0. -1.
</event>
<event>
 5   0  0.2785059E-04  0.1560032E+04  0.7818609E-02  0.8845485E-01
       -1   -1    0    0    0  501  0.00000000000E+00  0.00000000000E+00  0.15795423830E+04  0.15795423830E+04  0.50400001928E-02 0.  1.
        1   -1    0    0  501    0  0.00000000000E+00  0.00000000000E+00 -0.38519054634E+03  0.38519054638E+03  0.50400001928E-02 0. -1.
    10030    2    1    2    0    0  0.00000000000E+00  0.00000000000E+00  0.11943518366E+04  0.19647329294E+04  0.15600317862E+04 0.  0.
        5    1    3    3  502    0 -0.36242784290E+03  0.15552813932E+03  0.14446997963E+04  0.14975722136E+04  0.46999998093E+01 0.  1.
       -5    1    3    3    0  502  0.36242784290E+03 -0.15552813932E+03 -0.25034795970E+03  0.46716071576E+03  0.46999998093E+01 0. -1.
</event>
<event>
 5   0  0.5342255E-04  0.1721382E+04  0.7818609E-02  0.8749263E-01
        2   -1    0    0  501    0  0.00000000000E+00  0.00000000000E+00  0.19001122631E+04  0.19001122631E+04  0.25500000920E-02 0. -1.
       -2   -1    0    0    0  501  0.00000000000E+00  0.00000000000E+00 -0.38986570486E+03  0.38986570487E+03  0.25500000920E-02 0.  1.
    10030    2    1    2    0    0  0.00000000000E+00  0.00000000000E+00  0.15102465582E+04  0.22899779680E+04  0.17213815461E+04 0.  0.
        5    1    3    3  502    0 -0.71645588095E+02  0.18909611023E+03 -0.35779874985E+03  0.41101394696E+03  0.46999998093E+01 0.  1.
       -5    1    3    3    0  502  0.71645588095E+02 -0.18909611023E+03  0.18680453081E+04  0.18789640210E+04  0.46999998093E+01 0. -1.
</event>
<event>
 5   0  0.5342255E-04  0.1668823E+04  0.7818609E-02  0.8779348E-01
        2   -1    0    0  501    0  0.00000000000E+00  0.00000000000E+00  0.16962721607E+04  0.16962721607E+04  0.25500000920E-02 0. -1.
       -2   -1    0    0    0  501  0.00000000000E+00  0.00000000000E+00 -0.41045431567E+03  0.41045431567E+03  0.25500000920E-02 0.  1.
    10030    2    1    2    0    0  0.00000000000E+00  0.00000000000E+00  0.12858178450E+04  0.21067264764E+04  0.16688226136E+04 0.  0.
        5    1    3    3  502    0 -0.28155130703E+03  0.55637077424E+03  0.13428319883E+04  0.14805537530E+04  0.46999998093E+01 0. -1.
       -5    1    3    3    0  502  0.28155130703E+03 -0.55637077424E+03 -0.57014143242E+02  0.62617272333E+03  0.46999998093E+01 0.  1.
</event>
<event>
 5   0  0.5342255E-04  0.1708608E+04  0.7818609E-02  0.8756470E-01
        2   -1    0    0  501    0  0.00000000000E+00  0.00000000000E+00  0.19108599076E+04  0.19108599076E+04  0.25500000920E-02 0.  1.
       -2   -1    0    0    0  501  0.00000000000E+00  0.00000000000E+00 -0.38194094001E+03  0.38194094002E+03  0.25500000920E-02 0. -1.
    10030    2    1    2    0    0  0.00000000000E+00  0.00000000000E+00  0.15289189676E+04  0.22928008476E+04  0.17086083569E+04 0.  0.
        5    1    3    3  502    0  0.33632647604E+03 -0.77060561676E+03  0.56154659164E+03  0.10110910838E+04  0.46999998093E+01 0.  1.
       -5    1    3    3    0  502 -0.33632647604E+03  0.77060561676E+03  0.96737237596E+03  0.12817097639E+04  0.46999998093E+01 0. -1.
</event>
<event>
 5   0  0.5198430E-04  0.1721501E+04  0.7818609E-02  0.8749196E-01
        2   -1    0    0  501    0  0.00000000000E+00  0.00000000000E+00  0.88241996762E+03  0.88241996762E+03  0.25500000920E-02 0.  1.
       -2   -1    0    0    0  501  0.00000000000E+00  0.00000000000E+00 -0.83961333396E+03  0.83961333396E+03  0.25500000920E-02 0. -1.
    10030    2    1    2    0    0  0.00000000000E+00  0.00000000000E+00  0.42806633664E+02  0.17220333016E+04  0.17215011716E+04 0.  0.
        4    1    3    3  502    0 -0.81035465991E+02  0.62039041787E+03 -0.56991301386E+03  0.84631759618E+03  0.12699999809E+01 0. -1.
       -4    1    3    3    0  502  0.81035465991E+02 -0.62039041787E+03  0.61271964752E+03  0.87571570541E+03  0.12699999809E+01 0.  1.
</event>
<event>
 5   0  0.5198430E-04  0.1695264E+04  0.7818609E-02  0.8764070E-01
        2   -1    0    0  501    0  0.00000000000E+00  0.00000000000E+00  0.20691372208E+04  0.20691372208E+04  0.25500000920E-02 0.  1.
       -2   -1    0    0    0  501  0.00000000000E+00  0.00000000000E+00 -0.34723659742E+03  0.34723659742E+03  0.25500000920E-02 0. -1.
    10030    2    1    2    0    0  0.00000000000E+00  0.00000000000E+00  0.17219006234E+04  0.24163738183E+04  0.16952641896E+04 0.  0.
        4    1    3    3  502    0  0.72116080374E+03 -0.15591804610E+02  0.14954589222E+04  0.16603358125E+04  0.12699999809E+01 0.  1.
       -4    1    3    3    0  502 -0.72116080374E+03  0.15591804610E+02  0.22644170117E+03  0.75603800576E+03  0.12699999809E+01 0. -1.
</event>
<event>
 5   0  0.2785059E-04  0.1680364E+04  0.7818609E-02  0.8772643E-01
       -1   -1    0    0    0  501  0.00000000000E+00  0.00000000000E+00  0.43655795796E+03  0.43655795799E+03  0.50400001928E-02 0. -1.
        1   -1    0    0  501    0  0.00000000000E+00  0.00000000000E+00 -0.16169804404E+04  0.16169804404E+04  0.50400001928E-02 0.  1.
    10030    2    1    2    0    0  0.00000000000E+00  0.00000000000E+00 -0.11804224824E+04  0.20535383984E+04  0.16803638644E+04 0.  0.
        5    1    3    3  502    0  0.19891446074E+03 -0.56657390972E+03  0.12792107255E+03  0.61396974573E+03  0.46999998093E+01 0. -1.
       -5    1    3    3    0  502 -0.19891446074E+03  0.56657390972E+03 -0.13083435550E+04  0.14395686527E+04  0.46999998093E+01 0.  1.
</event>
<event>
 5   0  0.5299877E-04  0.1696802E+04  0.7818609E-02  0.8763190E-01
        2   -1    0    0  501    0  0.00000000000E+00  0.00000000000E+00  0.69290718961E+03  0.69290718961E+03  0.25500000920E-02 0.  1.
       -2   -1    0    0    0  501  0.00000000000E+00  0.00000000000E+00 -0.10387892942E+04  0.10387892942E+04  0.25500000920E-02 0. -1.
    10030    2    1    2    0    0  0.00000000000E+00  0.00000000000E+00 -0.34588210462E+03  0.17316964838E+04  0.16968023697E+04 0.  0.
        3    1    3    3  502    0 -0.52669929771E+03 -0.28624987653E+02 -0.85110069745E+03  0.10013011273E+04  0.10100000352E+00 0. -1.
       -3    1    3    3    0  502  0.52669929771E+03  0.28624987653E+02  0.50521859283E+03  0.73039535655E+03  0.10100000352E+00 0.  1.
</event>
<event>
 5   0  0.5021349E-04  0.1599056E+04  0.7818609E-02  0.8821128E-01
       -2   -1    0    0    0  501  0.00000000000E+00  0.00000000000E+00  0.39846616615E+03  0.39846616615E+03  0.25500000920E-02 0. -1.
        2   -1    0    0  501    0  0.00000000000E+00  0.00000000000E+00 -0.16042644394E+04  0.16042644394E+04  0.25500000920E-02 0.  1.
    10030    2    1    2    0    0  0.00000000000E+00  0.00000000000E+00 -0.12057982732E+04  0.20027306056E+04  0.15990560974E+04 0.  0.
        2    1    3    3  502    0 -0.77866725740E+03  0.16706270339E+03 -0.51422762272E+03  0.94797821314E+03  0.25500000920E-02 0.  1.
       -2    1    3    3    0  502  0.77866725740E+03 -0.16706270339E+03 -0.69157065053E+03  0.10547523924E+04  0.25500000920E-02 0. -1.
</event>
<event>
 5   0  0.2630135E-04  0.1702625E+04  0.7818609E-02  0.8759869E-01
       -1   -1    0    0    0  501  0.00000000000E+00  0.00000000000E+00  0.71491532538E+03  0.71491532540E+03  0.50400001928E-02 0.  1.
        1   -1    0    0  501    0  0.00000000000E+00  0.00000000000E+00 -0.10137321481E+04  0.10137321481E+04  0.50400001928E-02 0. -1.
    10030    2    1    2    0    0  0.00000000000E+00  0.00000000000E+00 -0.29881682270E+03  0.17286474735E+04  0.17026246193E+04 0.  0.
        1    1    3    3  502    0  0.65031661328E+03  0.60180679027E+02  0.40501401711E+03  0.76848537118E+03  0.50400001928E-02 0.  1.
       -1    1    3    3    0  502 -0.65031661328E+03 -0.60180679027E+02 -0.70383083981E+03  0.96016210232E+03  0.50400001928E-02 0. -1.
</event>
<event>
 5   0  0.5342255E-04  0.1698857E+04  0.7818609E-02  0.8762017E-01
        2   -1    0    0  501    0  0.00000000000E+00  0.00000000000E+00  0.14566874642E+04  0.14566874642E+04  0.25500000920E-02 0.  1.
       -2   -1    0    0    0  501  0.00000000000E+00  0.00000000000E+00 -0.49532134335E+03  0.49532134336E+03  0.25500000920E-02 0. -1.
    10030    2    1    2    0    0  0.00000000000E+00  0.00000000000E+00  0.96136612084E+03  0.19520088076E+04  0.16988565468E+04 0.  0.
        5    1    3    3  502    0 -0.26790459743E+03  0.14402346139E+03 -0.43058713626E+03  0.52720299949E+03  0.46999998093E+01 0. -1.
       -5    1    3    3    0  502  0.26790459743E+03 -0.14402346139E+03  0.13919532571E+04  0.14248058081E+04  0.46999998093E+01 0.  1.
</event>
<event>
 5   0  0.5021349E-04  0.1476932E+04  0.7818609E-02  0.8899940E-01
       -2   -1    0    0    0  501  0.00000000000E+00  0.00000000000E+00  0.20122775509E+03  0.20122775510E+03  0.25500000920E-02 0.  1.
        2   -1    0    0  501    0  0.00000000000E+00  0.00000000000E+00 -0.27100234409E+04  0.27100234409E+04  0.25500000920E-02 0. -1.
    10030    2    1    2    0    0  0.00000000000E+00  0.00000000000E+00 -0.25087956858E+04  0.29112511960E+04  0.14769318647E+04 0.  0.
        2    1    3    3  502    0 -0.40861028163E+03  0.54464649840E+02 -0.24621232118E+04  0.24963932924E+04  0.25500000920E-02 0. -1.
       -2    1    3    3    0  502  0.40861028163E+03 -0.54464649840E+02 -0.46672474011E+02  0.41485790359E+03  0.25500000920E-02 0.  1.
</event>
<event>
 5   0  0.2630135E-04  0.1692241E+04  0.7818609E-02  0.8765802E-01
       -1   -1    0    0    0  501  0.00000000000E+00  0.00000000000E+00  0.36525806003E+03  0.36525806006E+03  0.50400001928E-02 0. -1.
        1   -1    0    0  501    0  0.00000000000E+00  0.00000000000E+00 -0.19600392510E+04  0.19600392510E+04  0.50400001928E-02 0.  1.
    10030    2    1    2    0    0  0.00000000000E+00  0.00000000000E+00 -0.15947811910E+04  0.23252973111E+04  0.16922412765E+04 0.  0.
        1    1    3    3  502    0  0.53761000990E+03 -0.35018958842E+03 -0.15553408092E+04  0.16824809965E+04  0.50400001928E-02 0.  1.
       -1    1    3    3    0  502 -0.53761000990E+03  0.35018958842E+03 -0.39440381742E+02  0.64281631461E+03  0.50400001928E-02 0. -1.
</event>
<event>
 5   0  0.5342255E-04  0.1682490E+04  0.7818609E-02  0.8771414E-01
       -2   -1    0    0    0  501  0.00000000000E+00  0.00000000000E+00  0.60850929386E+03  0.60850929387E+03  0.25500000920E-02 0. -1.
        2   -1    0    0  501    0  0.00000000000E+00  0.00000000000E+00 -0.11629948317E+04  0.11629948317E+04  0.25500000920E-02 0.  1.
    10030    2    1    2    0    0  0.00000000000E+00  0.00000000000E+00 -0.55448553781E+03  0.17715041255E+04  0.16824900164E+04 0.  0.
        5    1    3    3  502    0 -0.10223553073E+03 -0.77177736786E+03  0.58333253129E+02  0.78071586874E+03  0.46999998093E+01 0. -1.
       -5    1    3    3    0  502  0.10223553073E+03  0.77177736786E+03 -0.61281879094E+03  0.99078825680E+03  0.46999998093E+01 0.  1.
</event>
<event>
 5   0  0.1910750E-04  0.1695152E+04  0.7818609E-02  0.8764134E-01
       -4   -1    0    0    0  501  0.00000000000E+00  0.00000000000E+00  0.45845449708E+03  0.45845625614E+03  0.12699999809E+01 0.  1.
        4   -1    0    0  501    0  0.00000000000E+00  0.00000000000E+00 -0.15669658125E+04  0.15669663271E+04  0.12699999809E+01 0. -1.
    10030    2    1    2    0    0  0.00000000000E+00  0.00000000000E+00 -0.11085113154E+04  0.20254225833E+04  0.16951517054E+04 0.  0.
        2    1    3    3  502    0 -0.20929125391E+03 -0.56830600340E+03  0.15424109062E+03  0.62495188335E+03  0.25500000920E-02 0.  1.
       -2    1    3    3    0  502  0.20929125391E+03  0.56830600340E+03 -0.12627524060E+04  0.14004706999E+04  0.25500000920E-02 0. -1.
</event>
<event>
 5   0  0.5299877E-04  0.1707873E+04  0.7818609E-02  0.8756887E-01
       -2   -1    0    0    0  501  0.00000000000E+00  0.00000000000E+00  0.65607947630E+03  0.65607947630E+03  0.25500000920E-02 0. -1.
        2   -1    0    0  501    0  0.00000000000E+00  0.00000000000E+00 -0.11114615810E+04  0.11114615810E+04  0.25500000920E-02 0.  1.
    10030    2    1    2    0    0  0.00000000000E+00  0.00000000000E+00 -0.45538210465E+03  0.17675410573E+04  0.17078725151E+04 0.  0.
        3    1    3    3  502    0  0.45198428883E+03 -0.37728434064E+02 -0.97649800738E+03  0.10766901136E+04  0.10100000352E+00 0.  1.
       -3    1    3    3    0  502 -0.45198428883E+03  0.37728434064E+02  0.52111590273E+03  0.69085094366E+03  0.10100000352E+00 0. -1.
</event>
<event>
 5   0  0.2595644E-04  0.1700831E+04  0.7818609E-02  0.8760891E-01
        1   -1    0    0  501    0  0.00000000000E+00  0.00000000000E+00  0.12882035667E+04  0.12882035667E+04  0.50400001928E-02 0.  1.
       -1   -1    0    0    0  501  0.00000000000E+00  0.00000000000E+00 -0.56140678938E+03  0.56140678941E+03  0.50400001928E-02 0. -1.
    10030    2    1    2    0    0  0.00000000000E+00  0.00000000000E+00  0.72679677734E+03  0.18496103561E+04  0.17008306541E+04 0.  0.
        2    1    3    3  502    0 -0.42052179856E+03  0.51436341573E+03 -0.21388367890E+03  0.69796456544E+03  0.25500000920E-02 0.  1.
       -2    1    3    3    0  502  0.42052179856E+03 -0.51436341573E+03  0.94068045624E+03  0.11516457907E+04  0.25500000920E-02 0. -1.
</event>
<event>
 5   0  0.2785059E-04  0.1779794E+04  0.7818609E-02  0.8717119E-01
        1   -1    0    0  501    0  0.00000000000E+00  0.00000000000E+00  0.23562219022E+04  0.23562219022E+04  0.50400001928E-02 0. -1.
       -1   -1    0    0    0  501  0.00000000000E+00  0.00000000000E+00 -0.33609610499E+03  0.33609610503E+03  0.50400001928E-02 0.  1.
    10030    2    1    2    0    0  0.00000000000E+00  0.00000000000E+00  0.20201257972E+04  0.26923180072E+04  0.17797943745E+04 0.  0.
        5    1    3    3  502    0 -0.31172974304E+03  0.83238453125E+03  0.94490247710E+03  0.12972672129E+04  0.46999998093E+01 0.  1.
       -5    1    3    3    0  502  0.31172974304E+03 -0.83238453125E+03  0.10752233201E+04  0.13950507943E+04  0.46999998093E+01 0. -1.
</event>
<event>
 5   0  0.5021349E-04  0.1542736E+04  0.7818609E-02  0.8856521E-01
        2   -1    0    0  501    0  0.00000000000E+00  0.00000000000E+00  0.12584831082E+04  0.12584831082E+04  0.25500000920E-02 0.  1.
       -2   -1    0    0    0  501  0.00000000000E+00  0.00000000000E+00 -0.47279839401E+03  0.47279839402E+03  0.25500000920E-02 0. -1.
    10030    2    1    2    0    0  0.00000000000E+00  0.00000000000E+00  0.78568471419E+03  0.17312815022E+04  0.15427362606E+04 0.  0.
        2    1    3    3  502    0 -0.21592378035E+03 -0.68424261206E+03  0.75039992430E+02  0.72141668372E+03  0.25500000920E-02 0. -1.
       -2    1    3    3    0  502  0.21592378035E+03  0.68424261206E+03  0.71064472176E+03  0.10098648185E+04  0.25500000920E-02 0.  1.
</event>
<event>
 5   0  0.5310003E-04  0.1649205E+04  0.7818609E-02  0.8790877E-01
       -2   -1    0    0    0  501  0.00000000000E+00  0.00000000000E+00  0.81563831481E+03  0.81563831482E+03  0.25500000920E-02 0. -1.
        2   -1    0    0  501    0  0.00000000000E+00  0.00000000000E+00 -0.83366546008E+03  0.83366546009E+03  0.25500000920E-02 0.  1.
    10030    2    1    2    0    0  0.00000000000E+00  0.00000000000E+00 -0.18027145271E+02  0.16493037749E+04  0.16492052522E+04 0.  0.
        1    1    3    3  502    0 -0.16600943671E+03  0.69138465577E+03  0.40862078074E+03  0.82008707940E+03  0.50400001928E-02 0. -1.
       -1    1    3    3    0  502  0.16600943671E+03 -0.69138465577E+03 -0.42664792601E+03  0.82921669551E+03  0.50400001928E-02 0.  1.
</event>
<event>
 5   0  0.2595644E-04  0.1704341E+04  0.7818609E-02  0.8758893E-01
       -1   -1    0    0    0  501  0.00000000000E+00  0.00000000000E+00  0.81578760834E+03  0.81578760836E+03  0.50400001928E-02 0.  1.
        1   -1    0    0  501    0  0.00000000000E+00  0.00000000000E+00 -0.89017563460E+03  0.89017563462E+03  0.50400001928E-02 0. -1.
    10030    2    1    2    0    0  0.00000000000E+00  0.00000000000E+00 -0.74388026263E+02  0.17059632430E+04  0.17043406373E+04 0.  0.
        2    1    3    3  502    0  0.61506900409E+03 -0.31888863160E+03 -0.53384621672E+03  0.87463799499E+03  0.25500000920E-02 0. -1.
       -2    1    3    3    0  502 -0.61506900409E+03  0.31888863160E+03  0.45945819046E+03  0.83132524799E+03  0.25500000920E-02 0.  1.
</event>
<event>
 5   0  0.2583422E-04  0.1702704E+04  0.7818609E-02  0.8759824E-01
        1   -1    0    0  501    0  0.00000000000E+00  0.00000000000E+00  0.60088998311E+03  0.60088998313E+03  0.50400001928E-02 0. -1.
       -1   -1    0    0    0  501  0.00000000000E+00  0.00000000000E+00 -0.12062109591E+04  0.12062109591E+04  0.50400001928E-02 0.  1.
    10030    2    1    2    0    0  0.00000000000E+00  0.00000000000E+00 -0.60532097601E+03  0.18071009423E+04  0.17027038296E+04 0.  0.
        3    1    3    3  502    0 -0.56486535241E+03  0.56396577311E+03  0.11584485616E+02  0.79828846296E+03  0.10100000352E+00 0. -1.
       -3    1    3    3    0  502  0.56486535241E+03 -0.56396577311E+03 -0.61690546163E+03  0.10088124793E+04  0.10100000352E+00 0.  1.
</event>
<event>
 5   0  0.5021349E-04  0.1679280E+04  0.7818609E-02  0.8773271E-01
       -2   -1    0    0    0  501  0.00000000000E+00  0.00000000000E+00  0.10791282235E+04  0.10791282235E+04  0.25500000920E-02 0.  1.
        2   -1    0    0  501    0  0.00000000000E+00  0.00000000000E+00 -0.65330066288E+03  0.65330066289E+03  0.25500000920E-02 0. -1.
    10030    2    1    2    0    0  0.00000000000E+00  0.00000000000E+00  0.42582756062E+03  0.17324288864E+04  0.16792798263E+04 0.  0.
        2    1    3    3  502    0 -0.72709075087E+03 -0.36647358415E+03  0.42441795428E+03  0.91820174678E+03  0.25500000920E-02 0.  1.
       -2    1    3    3    0  502  0.72709075087E+03  0.36647358415E+03  0.14096063432E+01  0.81422713961E+03  0.25500000920E-02 0. -1.
</event>
<event>
 5   0  0.2630135E-04  0.1745024E+04  0.7818609E-02  0.8736094E-01
        1   -1    0    0  501    0  0.00000000000E+00  0.00000000000E+00  0.15484362236E+04  0.15484362237E+04  0.50400001928E-02 0.  1.
       -1   -1    0    0    0  501  0.00000000000E+00  0.00000000000E+00 -0.49164234959E+03  0.49164234961E+03  0.50400001928E-02 0. -1.
    10030    2    1    2    0    0  0.00000000000E+00  0.00000000000E+00  0.10567938741E+04  0.20400785733E+04  0.17450235795E+04 0.  0.
        1    1    3    3  502    0  0.28798144392E+03  0.67147187638E+03 -0.29182479421E+02  0.73120408228E+03  0.50400001928E-02 0.  1.
       -1    1    3    3    0  502 -0.28798144392E+03 -0.67147187638E+03  0.10859763535E+04  0.13088744910E+04  0.50400001928E-02 0. -1.
</event>
<event>
 5   0  0.2630135E-04  0.1679039E+04  0.7818609E-02  0.8773410E-01
       -1   -1    0    0    0  501  0.00000000000E+00  0.00000000000E+00  0.70863191495E+03  0.70863191496E+03  0.50400001928E-02 0.  1.
        1   -1    0    0  501    0  0.00000000000E+00  0.00000000000E+00 -0.99458245784E+03  0.99458245786E+03  0.50400001928E-02 0. -1.
    10030    2    1    2    0    0  0.00000000000E+00  0.00000000000E+00 -0.28595054290E+03  0.17032143728E+04  0.16790388580E+04 0.  0.
        1    1    3    3  502    0  0.25092905798E+03  0.79292254139E+03 -0.26866202881E+02  0.83211377928E+03  0.50400001928E-02 0. -1.
       -1    1    3    3    0  502 -0.25092905798E+03 -0.79292254139E+03 -0.25908434002E+03  0.87110059354E+03  0.50400001928E-02 0.  1.
</event>
<event>
 5   0  0.2595644E-04  0.1717045E+04  0.7818609E-02  0.8751702E-01
       -1   -1    0    0    0  501  0.00000000000E+00  0.00000000000E+00  0.60254995167E+03  0.60254995169E+03  0.50400001928E-02 0.  1.
        1   -1    0    0  501    0  0.00000000000E+00  0.00000000000E+00 -0.12232359796E+04  0.12232359797E+04  0.50400001928E-02 0. -1.
    10030    2    1    2    0    0  0.00000000000E+00  0.00000000000E+00 -0.62068602798E+03  0.18257859313E+04  0.17170448805E+04 0.  0.
        2    1    3    3  502    0 -0.72321821982E+03 -0.83053745303E+02 -0.79426728690E+03  0.10774056994E+04  0.25500000920E-02 0. -1.
       -2    1    3    3    0  502  0.72321821982E+03  0.83053745303E+02  0.17358125892E+03  0.74838023193E+03  0.25500000920E-02 0.  1.
</event>
<event>
 5   0  0.5198430E-04  0.1691261E+04  0.7818609E-02  0.8766364E-01
       -2   -1    0    0    0  501  0.00000000000E+00  0.00000000000E+00  0.16144358929E+04  0.16144358929E+04  0.25500000920E-02 0. -1.
        2   -1    0    0  501    0  0.00000000000E+00  0.00000000000E+00 -0.44293555623E+03  0.44293555623E+03  0.25500000920E-02 0.  1.
    10030    2    1    2    0    0  0.00000000000E+00  0.00000000000E+00  0.11715003366E+04  0.20573714491E+04  0.16912611392E+04 0.  0.
        4    1    3    3  502    0 -0.55234740970E+03  0.34586552174E+03 -0.69767666423E+02  0.65542334434E+03  0.12699999809E+01 0.  1.
       -4    1    3    3    0  502  0.55234740970E+03 -0.34586552174E+03  0.12412680031E+04  0.14019481048E+04  0.12699999809E+01 0. -1.
</event>
<event>
 5   0  0.1910750E-04  0.1688384E+04  0.7818609E-02  0.8768018E-01
        4   -1    0    0  501    0  0.00000000000E+00  0.00000000000E+00  0.13114526734E+04  0.13114532883E+04  0.12699999809E+01 0.  1.
       -4   -1    0    0    0  501  0.00000000000E+00  0.00000000000E+00 -0.54341099616E+03  0.54341248021E+03  0.12699999809E+01 0. -1.
    10030    2    1    2    0    0  0.00000000000E+00  0.00000000000E+00  0.76804167726E+03  0.18548657686E+04  0.16883835469E+04 0.  0.
        4    1    3    3  502    0 -0.82326607440E+03  0.10857583735E+02  0.17915769352E+03  0.84260548801E+03  0.12699999809E+01 0.  1.
       -4    1    3    3    0  502  0.82326607440E+03 -0.10857583735E+02  0.58888398374E+03  0.10122602805E+04  0.12699999809E+01 0. -1.
</event>
<event>
 5   0  0.5198430E-04  0.1215079E+04  0.7818609E-02  0.9099759E-01
       -2   -1    0    0    0  501  0.00000000000E+00  0.00000000000E+00  0.27938428625E+03  0.27938428626E+03  0.25500000920E-02 0.  1.
        2   -1    0    0  501    0  0.00000000000E+00  0.00000000000E+00 -0.13211349756E+04  0.13211349756E+04  0.25500000920E-02 0. -1.
    10030    2    1    2    0    0  0.00000000000E+00  0.00000000000E+00 -0.10417506893E+04  0.16005192618E+04  0.12150791780E+04 0.  0.
        4    1    3    3  502    0  0.10945476155E+03  0.24250482173E+03 -0.12403127314E+04  0.12685291553E+04  0.12699999809E+01 0. -1.
       -4    1    3    3    0  502 -0.10945476155E+03 -0.24250482173E+03  0.19856204204E+03  0.33199010652E+03  0.12699999809E+01 0.  1.
</event>
<event>
 5   0  0.5310003E-04  0.1504357E+04  0.7818609E-02  0.8881561E-01
        2   -1    0    0  501    0  0.00000000000E+00  0.00000000000E+00  0.39315392998E+03  0.39315392999E+03  0.25500000920E-02 0. -1.
       -2   -1    0    0    0  501  0.00000000000E+00  0.00000000000E+00 -0.14390602739E+04  0.14390602739E+04  0.25500000920E-02 0.  1.
    10030    2    1    2    0    0  0.00000000000E+00  0.00000000000E+00 -0.10459063439E+04  0.18322142039E+04  0.15043566095E+04 0.  0.
        1    1    3    3  502    0  0.40995839413E+03  0.76205134275E+02  0.23949894969E+03  0.48086677400E+03  0.50400001928E-02 0. -1.
       -1    1    3    3    0  502 -0.40995839413E+03 -0.76205134275E+02 -0.12854052936E+04  0.13513474299E+04  0.50400001928E-02 0.  1.
</event>
<event>
 5   0  0.5342255E-04  0.1720560E+04  0.7818609E-02  0.8749724E-01
        2   -1    0    0  501    0  0.00000000000E+00  0.00000000000E+00  0.11060767064E+04  0.11060767064E+04  0.25500000920E-02 0.  1.
       -2   -1    0    0    0  501  0.00000000000E+00  0.00000000000E+00 -0.66910519399E+03  0.66910519400E+03  0.25500000920E-02 0. -1.
    10030    2    1    2    0    0  0.00000000000E+00  0.00000000000E+00  0.43697151239E+03  0.17751819004E+04  0.17205599893E+04 0.  0.
        5    1    3    3  502    0  0.33017419811E+03 -0.41117945918E+02 -0.60001767281E+03  0.68611149550E+03  0.46999998093E+01 0. -1.
       -5    1    3    3    0  502 -0.33017419811E+03  0.41117945918E+02  0.10369891852E+04  0.10890704049E+04  0.46999998093E+01 0.  1.
</event>
<event>
 5   0  0.5299877E-04  0.1623829E+04  0.7818609E-02  0.8806041E-01
       -2   -1    0    0    0  501  0.00000000000E+00  0.00000000000E+00  0.51904506622E+03  0.51904506622E+03  0.25500000920E-02 0. -1.
        2   -1    0    0  501    0  0.00000000000E+00  0.00000000000E+00 -0.12700338967E+04  0.12700338967E+04  0.25500000920E-02 0.  1.
    10030    2    1    2    0    0  0.00000000000E+00  0.00000000000E+00 -0.75098883045E+03  0.17890789629E+04  0.16238285969E+04 0.  0.
        3    1    3    3  502    0  0.68148185113E+03 -0.18439377683E+03 -0.81728225990E+03  0.10799855929E+04  0.10100000352E+00 0.  1.
       -3    1    3    3    0  502 -0.68148185113E+03  0.18439377683E+03  0.66293429445E+02  0.70909336998E+03  0.10100000352E+00 0. -1.
</event>
<event>
 5   0  0.5198430E-04  0.1693101E+04  0.7818609E-02  0.8765309E-01
       -2   -1    0    0    0  501  0.00000000000E+00  0.00000000000E+00  0.70905098405E+03  0.70905098405E+03  0.25500000920E-02 0. -1.
        2   -1    0    0  501    0  0.00000000000E+00  0.00000000000E+00 -0.10107137218E+04  0.10107137218E+04  0.25500000920E-02 0.  1.
    10030    2    1    2    0    0  0.00000000000E+00  0.00000000000E+00 -0.30166273780E+03  0.17197647059E+04  0.16931007756E+04 0.  0.
        4    1    3    3  502    0  0.18651254138E+03  0.62409792797E+03 -0.70005066829E+03  0.95622053046E+03  0.12699999809E+01 0. -1.
       -4    1    3    3    0  502 -0.18651254138E+03 -0.62409792797E+03  0.39838793050E+03  0.76354417544E+03  0.12699999809E+01 0.  1.
</event>
<event>
 5   0  0.2583422E-04  0.1704689E+04  0.7818609E-02  0.8758695E-01
       -1   -1    0    0    0  501  0.00000000000E+00  0.00000000000E+00  0.37936726851E+03  0.37936726855E+03  0.50400001928E-02 0.  1.
        1   -1    0    0  501    0  0.00000000000E+00  0.00000000000E+00 -0.19150074597E+04  0.19150074597E+04  0.50400001928E-02 0. -1.
    10030    2    1    2    0    0  0.00000000000E+00  0.00000000000E+00 -0.15356401912E+04  0.22943747282E+04  0.17046890030E+04 0.  0.
        3    1    3    3  502    0 -0.28721710620E+02  0.66786763871E+03 -0.56110952396E+02  0.67083572406E+03  0.10100000352E+00 0.  1.
       -3    1    3    3    0  502  0.28721710620E+02 -0.66786763871E+03 -0.14795292388E+04  0.16235390042E+04  0.10100000352E+00 0. -1.
</event>
<event>
 5   0  0.2595644E-04  0.1708291E+04  0.7818609E-02  0.8756649E-01
       -1   -1    0    0    0  501  0.00000000000E+00  0.00000000000E+00  0.37483413099E+03  0.37483413102E+03  0.50400001928E-02 0. -1.
        1   -1    0    0  501    0  0.00000000000E+00  0.00000000000E+00 -0.19463674705E+04  0.19463674705E+04  0.50400001928E-02 0.  1.
    10030    2    1    2    0    0  0.00000000000E+00  0.00000000000E+00 -0.15715333395E+04  0.23212016015E+04  0.17082914967E+04 0.  0.
        2    1    3    3  502    0  0.76636268875E+03 -0.35112962567E+03 -0.59866248445E+03  0.10339248304E+04  0.25500000920E-02 0. -1.
       -2    1    3    3    0  502 -0.76636268875E+03  0.35112962567E+03 -0.97287085508E+03  0.12872767711E+04  0.25500000920E-02 0.  1.
</event>
<event>
 5   0  0.2583422E-04  0.1671777E+04  0.7818609E-02  0.8777626E-01
        1   -1    0    0  501    0  0.00000000000E+00  0.00000000000E+00  0.86655647794E+03  0.86655647796E+03  0.50400001928E-02 0. -1.
       -1   -1    0    0    0  501  0.00000000000E+00  0.00000000000E+00 -0.80630628229E+03  0.80630628230E+03  0.50400001928E-02 0.  1.
    10030    2    1    2    0    0  0.00000000000E+00  0.00000000000E+00  0.60250195658E+02  0.16728627603E+04  0.16717774160E+04 0.  0.
        3    1    3    3  502    0 -0.81588895525E+03 -0.10547024496E+03 -0.11799519602E+03  0.83109664682E+03  0.10100000352E+00 0.  1.
       -3    1    3    3    0  502  0.81588895525E+03  0.10547024496E+03  0.17824539168E+03  0.84176611344E+03  0.10100000352E+00 0. -1.
</event>
<event>
 5   0  0.5198430E-04  0.1753317E+04  0.7818609E-02  0.8731527E-01
        2   -1    0    0  501    0  0.00000000000E+00  0.00000000000E+00  0.15706453456E+04  0.15706453456E+04  0.25500000920E-02 0. -1.
       -2   -1    0    0    0  501  0.00000000000E+00  0.00000000000E+00 -0.48930834525E+03  0.48930834526E+03  0.25500000920E-02 0.  1.
    10030    2    1    2    0    0  0.00000000000E+00  0.00000000000E+00  0.10813370004E+04  0.20599536909E+04  0.17533167142E+04 0.  0.
        4    1    3    3  502    0 -0.33973695667E+03 -0.58738633232E+03 -0.11145809122E+03  0.68765428968E+03  0.12699999809E+01 0.  1.
       -4    1    3    3    0  502  0.33973695667E+03  0.58738633232E+03  0.11927950916E+04  0.13722994012E+04  0.12699999809E+01 0. -1.
</event>
<event>
 5   0  0.2630135E-04  0.1702312E+04  0.7818609E-02  0.8760047E-01
       -1   -1    0    0    0  501  0.00000000000E+00  0.00000000000E+00  0.95325580419E+03  0.95325580420E+03  0.50400001928E-02 0. -1.
        1   -1    0    0  501    0  0.00000000000E+00  0.00000000000E+00 -0.75999130066E+03  0.75999130068E+03  0.50400001928E-02 0.  1.
    10030    2    1    2    0    0  0.00000000000E+00  0.00000000000E+00  0.19326450353E+03  0.17132471049E+04  0.17023115091E+04 0.  0.
        1    1    3    3  502    0 -0.57480072069E+03  0.41461883722E+02 -0.53377099745E+03  0.78551030168E+03  0.50400001928E-02 0.  1.
       -1    1    3    3    0  502  0.57480072069E+03 -0.41461883722E+02  0.72703550098E+03  0.92773680320E+03  0.50400001928E-02 0. -1.
</event>
<event>
 5   0  0.2785059E-04  0.1689811E+04  0.7818609E-02  0.8767197E-01
       -1   -1    0    0    0  501  0.00000000000E+00  0.00000000000E+00  0.67901471178E+03  0.67901471179E+03  0.50400001928E-02 0. -1.
        1   -1    0    0  501    0  0.00000000000E+00  0.00000000000E+00 -0.10513251405E+04  0.10513251405E+04  0.50400001928E-02 0.  1.
    10030    2    1    2    0    0  0.00000000000E+00  0.00000000000E+00 -0.37231042873E+03  0.17303398523E+04  0.16898109211E+04 0.  0.
        5    1    3    3  502    0 -0.69981737337E+03  0.46166719931E+03 -0.78943577480E+02  0.84210161941E+03  0.46999998093E+01 0. -1.
       -5    1    3    3    0  502  0.69981737337E+03 -0.46166719931E+03 -0.29336685126E+03  0.88823823291E+03  0.46999998093E+01 0.  1.
</event>
<event>
 5   0  0.2630135E-04  0.1692747E+04  0.7818609E-02  0.8765512E-01
       -1   -1    0    0    0  501  0.00000000000E+00  0.00000000000E+00  0.13770718968E+04  0.13770718968E+04  0.50400001928E-02 0.  1.
        1   -1    0    0  501    0  0.00000000000E+00  0.00000000000E+00 -0.52019644621E+03  0.52019644623E+03  0.50400001928E-02 0. -1.
    10030    2    1    2    0    0  0.00000000000E+00  0.00000000000E+00  0.85687545057E+03  0.18972683430E+04  0.16927467701E+04 0.  0.
        1    1    3    3  502    0  0.78113009448E+02 -0.16922723661E+03 -0.49690845320E+03  0.53071415163E+03  0.50400001928E-02 0. -1.
       -1    1    3    3    0  502 -0.78113009448E+02  0.16922723661E+03  0.13537839038E+04  0.13665541914E+04  0.50400001928E-02 0.  1.
</event>
<event>
 5   0  0.2595644E-04  0.1560853E+04  0.7818609E-02  0.8844965E-01
        1   -1    0    0  501    0  0.00000000000E+00  0.00000000000E+00  0.15618639072E+04  0.15618639072E+04  0.50400001928E-02 0.  1.
       -1   -1    0    0    0  501  0.00000000000E+00  0.00000000000E+00 -0.38996056959E+03  0.38996056963E+03  0.50400001928E-02 0. -1.
    10030    2    1    2    0    0  0.00000000000E+00  0.00000000000E+00  0.11719033376E+04  0.19518244768E+04  0.15608527655E+04 0.  0.
        2    1    3    3  502    0  0.42302982091E+03  0.29342365938E+03 -0.14749183984E+03  0.53554226359E+03  0.25500000920E-02 0. -1.
       -2    1    3    3    0  502 -0.42302982091E+03 -0.29342365938E+03  0.13193951775E+04  0.14162822132E+04  0.25500000920E-02 0.  1.
</event>
<event>
 5   0  0.5342255E-04  0.1755334E+04  0.7818609E-02  0.8730420E-01
        2   -1    0    0  501    0  0.00000000000E+00  0.00000000000E+00  0.19239083661E+04  0.19239083661E+04  0.25500000920E-02 0. -1.
       -2   -1    0    0    0  501  0.00000000000E+00  0.00000000000E+00 -0.40038249985E+03  0.40038249986E+03  0.25500000920E-02 0.  1.
    10030    2    1    2    0    0  0.00000000000E+00  0.00000000000E+00  0.15235258663E+04  0.23242908660E+04  0.17553338613E+04 0.  0.
        5    1    3    3  502    0  0.39475460994E+03 -0.58793281316E+03  0.14482462577E+04  0.16121214309E+04  0.46999998093E+01 0. -1.
       -5    1    3    3    0  502 -0.39475460994E+03  0.58793281316E+03  0.75279608556E+02  0.71216943512E+03  0.46999998093E+01 0.  1.
</event>
<event>
 5   0  0.5198430E-04  0.1587655E+04  0.7818609E-02  0.8828168E-01
       -2   -1    0    0    0  501  0.00000000000E+00  0.00000000000E+00  0.68942677119E+03  0.68942677119E+03  0.25500000920E-02 0. -1.
        2   -1    0    0  501    0  0.00000000000E+00  0.00000000000E+00 -0.91403730397E+03  0.91403730398E+03  0.25500000920E-02 0.  1.
    10030    2    1    2    0    0  0.00000000000E+00  0.00000000000E+00 -0.22461053279E+03  0.16034640752E+04  0.15876546063E+04 0.  0.
        4    1    3    3  502    0  0.13681695747E+03 -0.12220731147E+03 -0.89233446113E+03  0.91099720650E+03  0.12699999809E+01 0.  1.
       -4    1    3    3    0  502 -0.13681695747E+03  0.12220731147E+03  0.66772392834E+03  0.69246686867E+03  0.12699999809E+01 0. -1.
</event>
<event>
 5   0  0.2583422E-04  0.1684970E+04  0.7818609E-02  0.8769983E-01
       -1   -1    0    0    0  501  0.00000000000E+00  0.00000000000E+00  0.57693327291E+03  0.57693327294E+03  0.50400001928E-02 0.  1.
        1   -1    0    0  501    0  0.00000000000E+00  0.00000000000E+00 -0.12302659792E+04  0.12302659792E+04  0.50400001928E-02 0. -1.
    10030    2    1    2    0    0  0.00000000000E+00  0.00000000000E+00 -0.65333270632E+03  0.18071992522E+04  0.16849704781E+04 0.  0.
        3    1    3    3  502    0  0.30813626594E+03 -0.55325698246E+03  0.26928426821E+03  0.68815352527E+03  0.10100000352E+00 0.  1.
       -3    1    3    3    0  502 -0.30813626594E+03  0.55325698246E+03 -0.92261697453E+03  0.11190457269E+04  0.10100000352E+00 0. -1.
</event>
<event>
 5   0  0.2595644E-04  0.1671575E+04  0.7818609E-02  0.8777744E-01
       -1   -1    0    0    0  501  0.00000000000E+00  0.00000000000E+00  0.58859459336E+03  0.58859459338E+03  0.50400001928E-02 0.  1.
        1   -1    0    0  501    0  0.00000000000E+00  0.00000000000E+00 -0.11867940060E+04  0.11867940060E+04  0.50400001928E-02 0. -1.
    10030    2    1    2    0    0  0.00000000000E+00  0.00000000000E+00 -0.59819941261E+03  0.17753885994E+04  0.16715747490E+04 0.  0.
        2    1    3    3  502    0 -0.44897387488E+03  0.17925702485E+03 -0.10232265702E+04  0.11316815962E+04  0.25500000920E-02 0. -1.
       -2    1    3    3    0  502  0.44897387488E+03 -0.17925702485E+03  0.42502715754E+03  0.64370700317E+03  0.25500000920E-02 0.  1.
</event>
<event>
 5   0  0.5198430E-04  0.1696010E+04  0.7818609E-02  0.8763644E-01
       -2   -1    0    0    0  501  0.00000000000E+00  0.00000000000E+00  0.54474835367E+03  0.54474835368E+03  0.25500000920E-02 0. -1.
        2   -1    0    0  501    0  0.00000000000E+00  0.00000000000E+00 -0.13200813104E+04  0.13200813104E+04  0.25500000920E-02 0.  1.
    10030    2    1    2    0    0  0.00000000000E+00  0.00000000000E+00 -0.77533295677E+03  0.18648296641E+04  0.16960095761E+04 0.  0.
        4    1    3    3  502    0 -0.70291892809E+03  0.43075543132E+03 -0.16923346390E+03  0.84159778950E+03  0.12699999809E+01 0. -1.
       -4    1    3    3    0  502  0.70291892809E+03 -0.43075543132E+03 -0.60609949287E+03  0.10232318746E+04  0.12699999809E+01 0.  1.
</event>
<event>
 5   0  0.2630135E-04  0.1713149E+04  0.7818609E-02  0.8753900E-01
       -1   -1    0    0    0  501  0.00000000000E+00  0.00000000000E+00  0.40701707763E+03  0.40701707766E+03  0.50400001928E-02 0.  1.
        1   -1    0    0  501    0  0.00000000000E+00  0.00000000000E+00 -0.18026758774E+04  0.18026758774E+04  0.50400001928E-02 0. -1.
    10030    2    1    2    0    0  0.00000000000E+00  0.00000000000E+00 -0.13956587998E+04  0.22096929551E+04  0.17131489924E+04 0.  0.
        1    1    3    3  502    0  0.80114613710E+03  0.21461522313E+03 -0.42171552874E+03  0.93045086609E+03  0.50400001928E-02 0.  1.
       -1    1    3    3    0  502 -0.80114613710E+03 -0.21461522313E+03 -0.97394327102E+03  0.12792420890E+04  0.50400001928E-02 0. -1.
</event>
<event>
 5   0  0.5198430E-04  0.1683058E+04  0.7818609E-02  0.8771086E-01
        2   -1    0    0  501    0  0.00000000000E+00  0.00000000000E+00  0.11727734029E+04  0.11727734029E+04  0.25500000920E-02 0.  1.
       -2   -1    0    0    0  501  0.00000000000E+00  0.00000000000E+00 -0.60384295932E+03  0.60384295933E+03  0.25500000920E-02 0. -1.
    10030    2    1    2    0    0  0.00000000000E+00  0.00000000000E+00  0.56893044360E+03  0.17766163623E+04  0.16830578864E+04 0.  0.
        4    1    3    3  502    0  0.81260270132E+03  0.50641285900E+02  0.59841421359E+02  0.81637632170E+03  0.12699999809E+01 0.  1.
       -4    1    3    3    0  502 -0.81260270132E+03 -0.50641285900E+02  0.50908902224E+03  0.96024004056E+03  0.12699999809E+01 0. -1.
</event>
<event>
 5   0  0.2630135E-04  0.1728097E+04  0.7818609E-02  0.8745500E-01
        1   -1    0    0  501    0  0.00000000000E+00  0.00000000000E+00  0.30347803349E+04  0.30347803349E+04  0.50400001928E-02 0.  1.
       -1   -1    0    0    0  501  0.00000000000E+00  0.00000000000E+00 -0.24600781337E+03  0.24600781342E+03  0.50400001928E-02 0. -1.
    10030    2    1    2    0    0  0.00000000000E+00  0.00000000000E+00  0.27887725215E+04  0.32807881483E+04  0.17280968426E+04 0.  0.
        1    1    3    3  502    0 -0.39119074268E+03 -0.25059227303E+03  0.11277489863E+02  0.46470836689E+03  0.50400001928E-02 0. -1.
       -1    1    3    3    0  502  0.39119074268E+03  0.25059227303E+03  0.27774950316E+04  0.28160797814E+04  0.50400001928E-02 0.  1.
</event>
<event>
 5   0  0.2630135E-04  0.1648152E+04  0.7818609E-02  0.8791500E-01
       -1   -1    0    0    0  501  0.00000000000E+00  0.00000000000E+00  0.62566501420E+03  0.62566501422E+03  0.50400001928E-02 0. -1.
        1   -1    0    0  501    0  0.00000000000E+00  0.00000000000E+00 -0.10854075830E+04  0.10854075830E+04  0.50400001928E-02 0.  1.
    10030    2    1    2    0    0  0.00000000000E+00  0.00000000000E+00 -0.45974256875E+03  0.17110725972E+04  0.16481523605E+04 0.  0.
        1    1    3    3  502    0  0.60791337727E+03 -0.49171051554E+03  0.40381053812E+02  0.78292307086E+03  0.50400001928E-02 0. -1.
       -1    1    3    3    0  502 -0.60791337727E+03  0.49171051554E+03 -0.50012362256E+03  0.92814952633E+03  0.50400001928E-02 0.  1.
</event>
<event>
 5   0  0.5299877E-04  0.1735857E+04  0.7818609E-02  0.8741174E-01
       -2   -1    0    0    0  501  0.00000000000E+00  0.00000000000E+00  0.73310914375E+03  0.73310914376E+03  0.25500000920E-02 0.  1.
        2   -1    0    0  501    0  0.00000000000E+00  0.00000000000E+00 -0.10275408363E+04  0.10275408363E+04  0.25500000920E-02 0. -1.
    10030    2    1    2    0    0  0.00000000000E+00  0.00000000000E+00 -0.29443169251E+03  0.17606499800E+04  0.17358566561E+04 0.  0.
        3    1    3    3  502    0 -0.52209841748E+03  0.27082942574E+02 -0.84991662406E+03  0.99783692122E+03  0.10100000352E+00 0. -1.
       -3    1    3    3    0  502  0.52209841748E+03 -0.27082942574E+02  0.55548493154E+03  0.76281305880E+03  0.10100000352E+00 0.  1.
</event>
<event>
 5   0  0.2785059E-04  0.1631539E+04  0.7818609E-02  0.8801403E-01
        1   -1    0    0  501    0  0.00000000000E+00  0.00000000000E+00  0.46750522998E+03  0.46750523000E+03  0.50400001928E-02 0.  1.
       -1   -1    0    0    0  501  0.00000000000E+00  0.00000000000E+00 -0.14234698641E+04  0.14234698642E+04  0.50400001928E-02 0. -1.
    10030    2    1    2    0    0  0.00000000000E+00  0.00000000000E+00 -0.95596463417E+03  0.18909750942E+04  0.16315386679E+04 0.  0.
        5    1    3    3  502    0 -0.42254647633E+03  0.50081872951E+02 -0.12846454473E+04  0.13532884888E+04  0.46999998093E+01 0. -1.
       -5    1    3    3    0  502  0.42254647633E+03 -0.50081872951E+02  0.32868081313E+03  0.53768660535E+03  0.46999998093E+01 0.  1.
</event>
<event>
 5   0  0.5299877E-04  0.1694344E+04  0.7818609E-02  0.8764597E-01
        2   -1    0    0  501    0  0.00000000000E+00  0.00000000000E+00  0.15913238428E+04  0.15913238428E+04  0.25500000920E-02 0.  1.
       -2   -1    0    0    0  501  0.00000000000E+00  0.00000000000E+00 -0.45100824958E+03  0.45100824959E+03  0.25500000920E-02 0. -1.
    10030    2    1    2    0    0  0.00000000000E+00  0.00000000000E+00  0.11403155932E+04  0.20423320924E+04  0.16943437442E+04 0.  0.
        3    1    3    3  502    0  0.66632497709E+03  0.85952126711E+02  0.11922138546E+04  0.13684847930E+04  0.10100000352E+00 0.  1.
       -3    1    3    3    0  502 -0.66632497709E+03 -0.85952126711E+02 -0.51898261436E+02  0.67384729941E+03  0.10100000352E+00 0. -1.
</event>
<event>
 5   0  0.5198430E-04  0.1699075E+04  0.7818609E-02  0.8761892E-01
       -2   -1    0    0    0  501  0.00000000000E+00  0.00000000000E+00  0.63278113012E+03  0.63278113013E+03  0.25500000920E-02 0. -1.
        2   -1    0    0  501    0  0.00000000000E+00  0.00000000000E+00 -0.11405430868E+04  0.11405430868E+04  0.25500000920E-02 0.  1.
    10030    2    1    2    0    0  0.00000000000E+00  0.00000000000E+00 -0.50776195668E+03  0.17733242169E+04  0.16990752113E+04 0.  0.
        4    1    3    3  502    0  0.45479727547E+03 -0.29201497219E+03 -0.93796159614E+03  0.10825372393E+04  0.12699999809E+01 0.  1.
       -4    1    3    3    0  502 -0.45479727547E+03  0.29201497219E+03  0.43019963946E+03  0.69078697762E+03  0.12699999809E+01 0. -1.
</event>
<event>
 5   0  0.5299877E-04  0.1677773E+04  0.7818609E-02  0.8774144E-01
        2   -1    0    0  501    0  0.00000000000E+00  0.00000000000E+00  0.44992869522E+03  0.44992869523E+03  0.25500000920E-02 0.  1.
       -2   -1    0    0    0  501  0.00000000000E+00  0.00000000000E+00 -0.15640935937E+04  0.15640935937E+04  0.25500000920E-02 0. -1.
    10030    2    1    2    0    0  0.00000000000E+00  0.00000000000E+00 -0.11141648985E+04  0.20140222889E+04  0.16777730357E+04 0.  0.
        3    1    3    3  502    0  0.12181749556E+03 -0.43107628188E+03  0.29433553356E+03  0.53600343239E+03  0.10100000352E+00 0.  1.
       -3    1    3    3    0  502 -0.12181749556E+03  0.43107628188E+03 -0.14085004321E+04  0.14780188565E+04  0.10100000352E+00 0. -1.
</event>
<event>
 5   0  0.5310003E-04  0.1688858E+04  0.7818609E-02  0.8767745E-01
        2   -1    0    0  501    0  0.00000000000E+00  0.00000000000E+00  0.68835236518E+03  0.68835236518E+03  0.25500000920E-02 0. -1.
       -2   -1    0    0    0  501  0.00000000000E+00  0.00000000000E+00 -0.10358943732E+04  0.10358943732E+04  0.25500000920E-02 0.  1.
    10030    2    1    2    0    0  0.00000000000E+00  0.00000000000E+00 -0.34754200798E+03  0.17242467383E+04  0.16888580069E+04 0.  0.
        1    1    3    3  502    0  0.16491332121E+02 -0.79672958373E+03 -0.45892691867E+03  0.91959986425E+03  0.50400001928E-02 0.  1.
       -1    1    3    3    0  502 -0.16491332121E+02  0.79672958373E+03  0.11138491069E+03  0.80464687409E+03  0.50400001928E-02 0. -1.
</event>
<event>
 5   0  0.2595644E-04  0.1691412E+04  0.7818609E-02  0.8766277E-01
       -1   -1    0    0    0  501  0.00000000000E+00  0.00000000000E+00  0.74416920066E+03  0.74416920068E+03  0.50400001928E-02 0.  1.
        1   -1    0    0  501    0  0.00000000000E+00  0.00000000000E+00 -0.96109725416E+03  0.96109725417E+03  0.50400001928E-02 0. -1.
    10030    2    1    2    0    0  0.00000000000E+00  0.00000000000E+00 -0.21692805349E+03  0.17052664548E+04  0.16914123985E+04 0.  0.
        2    1    3    3  502    0 -0.13818632337E+03 -0.20719776959E+03  0.70635913787E+03  0.74897904333E+03  0.25500000920E-02 0.  1.
       -2    1    3    3    0  502  0.13818632337E+03  0.20719776959E+03 -0.92328719136E+03  0.95628741152E+03  0.25500000920E-02 0. -1.
</event>
<event>
 5   0  0.2561518E-04  0.1233811E+04  0.7818609E-02  0.9083766E-01
        1   -1    0    0  501    0  0.00000000000E+00  0.00000000000E+00  0.41198848767E+03  0.41198848770E+03  0.50400001928E-02 0.  1.
       -1   -1    0    0    0  501  0.00000000000E+00  0.00000000000E+00 -0.92374578134E+03  0.92374578136E+03  0.50400001928E-02 0. -1.
    10030    2    1    2    0    0  0.00000000000E+00  0.00000000000E+00 -0.51175729367E+03  0.13357342691E+04  0.12338113753E+04 0.  0.
        4    1    3    3  502    0  0.47122321798E+03  0.39764098276E+03 -0.27756710786E+03  0.67617659276E+03  0.12699999809E+01 0. -1.
       -4    1    3    3    0  502 -0.47122321798E+03 -0.39764098276E+03 -0.23419018582E+03  0.65955767630E+03  0.12699999809E+01 0.  1.
</event>
<event>
 5   0  0.5342255E-04  0.1709723E+04  0.7818609E-02  0.8755838E-01
        2   -1    0    0  501    0  0.00000000000E+00  0.00000000000E+00  0.75154858393E+03  0.75154858394E+03  0.25500000920E-02 0.  1.
       -2   -1    0    0    0  501  0.00000000000E+00  0.00000000000E+00 -0.97237694866E+03  0.97237694866E+03  0.25500000920E-02 0. -1.
    10030    2    1    2    0    0  0.00000000000E+00  0.00000000000E+00 -0.22082836473E+03  0.17239255326E+04  0.17097233915E+04 0.  0.
        5    1    3    3  502    0 -0.30004514892E+03 -0.91930188811E+01 -0.91747209416E+03  0.96534384369E+03  0.46999998093E+01 0. -1.
       -5    1    3    3    0  502  0.30004514892E+03  0.91930188811E+01  0.69664372943E+03  0.75858168891E+03  0.46999998093E+01 0.  1.
</event>
<event>
 5   0  0.2630135E-04  0.1719381E+04  0.7818609E-02  0.8750387E-01
        1   -1    0    0  501    0  0.00000000000E+00  0.00000000000E+00  0.13840602563E+04  0.13840602563E+04  0.50400001928E-02 0. -1.
       -1   -1    0    0    0  501  0.00000000000E+00  0.00000000000E+00 -0.53398550233E+03  0.53398550235E+03  0.50400001928E-02 0.  1.
    10030    2    1    2    0    0  0.00000000000E+00  0.00000000000E+00  0.85007475398E+03  0.19180457587E+04  0.17193814135E+04 0.  0.
        1    1    3    3  502    0  0.37461856468E+03 -0.42569245624E+03  0.11458506326E+04  0.12784861393E+04  0.50400001928E-02 0. -1.
       -1    1    3    3    0  502 -0.37461856468E+03  0.42569245624E+03 -0.29577587859E+03  0.63955961933E+03  0.50400001928E-02 0.  1.
</event>
<event>
 5   0  0.2561518E-04  0.1652395E+04  0.7818609E-02  0.8788991E-01
       -1   -1    0    0    0  501  0.00000000000E+00  0.00000000000E+00  0.41207110484E+03  0.41207110487E+03  0.50400001928E-02 0. -1.
        1   -1    0    0  501    0  0.00000000000E+00  0.00000000000E+00 -0.16565151816E+04  0.16565151816E+04  0.50400001928E-02 0.  1.
    10030    2    1    2    0    0  0.00000000000E+00  0.00000000000E+00 -0.12444440768E+04  0.20685862865E+04  0.16523946757E+04 0.  0.
        4    1    3    3  502    0 -0.49438584896E+03  0.66131411159E+03 -0.58579479844E+03  0.10123788227E+04  0.12699999809E+01 0.  1.
       -4    1    3    3    0  502  0.49438584896E+03 -0.66131411159E+03 -0.65864927832E+03  0.10562074638E+04  0.12699999809E+01 0. -1.
</event>
<event>
 5   0  0.2785059E-04  0.1686345E+04  0.7818609E-02  0.8769191E-01
        1   -1    0    0  501    0  0.00000000000E+00  0.00000000000E+00  0.13605273417E+04  0.13605273417E+04  0.50400001928E-02 0. -1.
       -1   -1    0    0    0  501  0.00000000000E+00  0.00000000000E+00 -0.52254741881E+03  0.52254741883E+03  0.50400001928E-02 0.  1.
    10030    2    1    2    0    0  0.00000000000E+00  0.00000000000E+00  0.83797992284E+03  0.18830747605E+04  0.16863452204E+04 0.  0.
        5    1    3    3  502    0  0.13325528883E+02  0.58924557617E+03  0.10922630097E+04  0.12411480536E+04  0.46999998093E+01 0. -1.
       -5    1    3    3    0  502 -0.13325528883E+02 -0.58924557617E+03 -0.25428308681E+03  0.64192670687E+03  0.46999998093E+01 0.  1.
</event>
<event>
 5   0  0.5198430E-04  0.1690929E+04  0.7818609E-02  0.8766555E-01
       -2   -1    0    0    0  501  0.00000000000E+00  0.00000000000E+00  0.68919917208E+03  0.68919917209E+03  0.25500000920E-02 0.  1.
        2   -1    0    0  501    0  0.00000000000E+00  0.00000000000E+00 -0.10371608464E+04  0.10371608464E+04  0.25500000920E-02 0. -1.
    10030    2    1    2    0    0  0.00000000000E+00  0.00000000000E+00 -0.34796167427E+03  0.17263600184E+04  0.16909292080E+04 0.  0.
        4    1    3    3  502    0 -0.56544471053E+03 -0.34320449954E+03  0.36363791157E+03  0.75481864895E+03  0.12699999809E+01 0.  1.
       -4    1    3    3    0  502  0.56544471053E+03  0.34320449954E+03 -0.71159958584E+03  0.97154136949E+03  0.12699999809E+01 0. -1.
</event>
<event>
 5   0  0.2630135E-04  0.1693454E+04  0.7818609E-02  0.8765106E-01
       -1   -1    0    0    0  501  0.00000000000E+00  0.00000000000E+00  0.13460420349E+04  0.13460420349E+04  0.50400001928E-02 0. -1.
        1   -1    0    0  501    0  0.00000000000E+00  0.00000000000E+00 -0.53263341452E+03  0.53263341454E+03  0.50400001928E-02 0.  1.
    10030    2    1    2    0    0  0.00000000000E+00  0.00000000000E+00  0.81340862040E+03  0.18786754495E+04  0.16934544165E+04 0.  0.
        1    1    3    3  502    0 -0.14966391758E+03 -0.60077192349E+03  0.10474781767E+04  0.12167730779E+04  0.50400001928E-02 0. -1.
       -1    1    3    3    0  502  0.14966391758E+03  0.60077192349E+03 -0.23406955635E+03  0.66190237159E+03  0.50400001928E-02 0.  1.
</event>
<event>
 5   0  0.5021349E-04  0.1363820E+04  0.7818609E-02  0.8980432E-01
       -2   -1    0    0    0  501  0.00000000000E+00  0.00000000000E+00  0.65809385199E+03  0.65809385199E+03  0.25500000920E-02 0.  1.
        2   -1    0    0  501    0  0.00000000000E+00  0.00000000000E+00 -0.70658755670E+03  0.70658755671E+03  0.25500000920E-02 0. -1.
    10030    2    1    2    0    0  0.00000000000E+00  0.00000000000E+00 -0.48493704715E+02  0.13646814087E+04  0.13638195291E+04 0.  0.
        2    1    3    3  502    0 -0.33126805575E+02  0.86082802936E+02  0.65182300071E+03  0.65831668555E+03  0.25500000920E-02 0.  1.
       -2    1    3    3    0  502  0.33126805575E+02 -0.86082802936E+02 -0.70031670543E+03  0.70636472315E+03  0.25500000920E-02 0. -1.
</event>
<event>
 5   0  0.5342255E-04  0.1703210E+04  0.7818609E-02  0.8759536E-01
        2   -1    0    0  501    0  0.00000000000E+00  0.00000000000E+00  0.83267616930E+03  0.83267616930E+03  0.25500000920E-02 0.  1.
       -2   -1    0    0    0  501  0.00000000000E+00  0.00000000000E+00 -0.87096430734E+03  0.87096430735E+03  0.25500000920E-02 0. -1.
    10030    2    1    2    0    0  0.00000000000E+00  0.00000000000E+00 -0.38288138048E+02  0.17036404766E+04  0.17032101726E+04 0.  0.
        5    1    3    3  502    0  0.46117944355E+03  0.24905943602E+02  0.69651020334E+03  0.83573640494E+03  0.46999998093E+01 0.  1.
       -5    1    3    3    0  502 -0.46117944355E+03 -0.24905943602E+02 -0.73479834139E+03  0.86790407171E+03  0.46999998093E+01 0. -1.
</event>
<event>
 5   0  0.2583422E-04  0.1615682E+04  0.7818609E-02  0.8810971E-01
       -1   -1    0    0    0  501  0.00000000000E+00  0.00000000000E+00  0.62922837977E+03  0.62922837979E+03  0.50400001928E-02 0. -1.
        1   -1    0    0  501    0  0.00000000000E+00  0.00000000000E+00 -0.10371550841E+04  0.10371550841E+04  0.50400001928E-02 0.  1.
    10030    2    1    2    0    0  0.00000000000E+00  0.00000000000E+00 -0.40792670431E+03  0.16663834639E+04  0.16156824108E+04 0.  0.
        3    1    3    3  502    0 -0.66487610860E+03 -0.42973636414E+03 -0.38062265505E+02  0.79257954094E+03  0.10100000352E+00 0.  1.
       -3    1    3    3    0  502  0.66487610860E+03  0.42973636414E+03 -0.36986443880E+03  0.87380392294E+03  0.10100000352E+00 0. -1.
</event>
<event>
 5   0  0.1910750E-04  0.1759618E+04  0.7818609E-02  0.8728074E-01
       -3   -1    0    0    0  501  0.00000000000E+00  0.00000000000E+00  0.16268840370E+04  0.16268840401E+04  0.10100000352E+00 0.  1.
        3   -1    0    0  501    0  0.00000000000E+00  0.00000000000E+00 -0.47579548944E+03  0.47579550016E+03  0.10100000352E+00 0. -1.
    10030    2    1    2    0    0  0.00000000000E+00  0.00000000000E+00  0.11510885476E+04  0.21026795403E+04  0.17596182554E+04 0.  0.
        5    1    3    3  502    0  0.61119486962E+03  0.45193642589E+03  0.11048959758E+04  0.13411274768E+04  0.46999998093E+01 0.  1.
       -5    1    3    3    0  502 -0.61119486962E+03 -0.45193642589E+03  0.46192571742E+02  0.76155206347E+03  0.46999998093E+01 0. -1.
</event>
<event>
 5   0  0.2785059E-04  0.1664515E+04  0.7818609E-02  0.8781866E-01
       -1   -1    0    0    0  501  0.00000000000E+00  0.00000000000E+00  0.24791360218E+03  0.24791360223E+03  0.50400001928E-02 0.  1.
        1   -1    0    0  501    0  0.00000000000E+00  0.00000000000E+00 -0.27939274737E+04  0.27939274737E+04  0.50400001928E-02 0. -1.
    10030    2    1    2    0    0  0.00000000000E+00  0.00000000000E+00 -0.25460138715E+04  0.30418410759E+04  0.16645150937E+04 0.  0.
        5    1    3    3  502    0 -0.10320514913E+03  0.48397849779E+03 -0.24958301977E+04  0.25444207504E+04  0.46999998093E+01 0. -1.
       -5    1    3    3    0  502  0.10320514913E+03 -0.48397849779E+03 -0.50183673772E+02  0.49742032552E+03  0.46999998093E+01 0.  1.
</event>
<event>
 5   0  0.5021349E-04  0.1703233E+04  0.7818609E-02  0.8759523E-01
        2   -1    0    0  501    0  0.00000000000E+00  0.00000000000E+00  0.10552431284E+04  0.10552431284E+04  0.25500000920E-02 0. -1.
       -2   -1    0    0    0  501  0.00000000000E+00  0.00000000000E+00 -0.68728270224E+03  0.68728270224E+03  0.25500000920E-02 0.  1.
    10030    2    1    2    0    0  0.00000000000E+00  0.00000000000E+00  0.36796042612E+03  0.17425258306E+04  0.17032326310E+04 0.  0.
        2    1    3    3  502    0  0.76720318849E+03  0.26286595714E+03 -0.81921713747E+02  0.81511374117E+03  0.25500000920E-02 0.  1.
       -2    1    3    3    0  502 -0.76720318849E+03 -0.26286595714E+03  0.44988213987E+03  0.92741208944E+03  0.25500000920E-02 0. -1.
</event>
<event>
 5   0  0.2561518E-04  0.1701735E+04  0.7818609E-02  0.8760375E-01
        1   -1    0    0  501    0  0.00000000000E+00  0.00000000000E+00  0.22764969007E+04  0.22764969007E+04  0.50400001928E-02 0. -1.
       -1   -1    0    0    0  501  0.00000000000E+00  0.00000000000E+00 -0.31802191208E+03  0.31802191212E+03  0.50400001928E-02 0.  1.
    10030    2    1    2    0    0  0.00000000000E+00  0.00000000000E+00  0.19584749886E+04  0.25945188128E+04  0.17017354639E+04 0.  0.
        4    1    3    3  502    0 -0.42204225333E+03  0.13545214740E+03  0.20865724931E+04  0.21331322814E+04  0.12699999809E+01 0. -1.
       -4    1    3    3    0  502  0.42204225333E+03 -0.13545214740E+03 -0.12809750452E+03  0.46138653144E+03  0.12699999809E+01 0.  1.
</event>
<event>
 5   0  0.5299877E-04  0.1736489E+04  0.7818609E-02  0.8740823E-01
       -2   -1    0    0    0  501  0.00000000000E+00  0.00000000000E+00  0.14425456241E+04  0.14425456241E+04  0.25500000920E-02 0.  1.
        2   -1    0    0  501    0  0.00000000000E+00  0.00000000000E+00 -0.52258222428E+03  0.52258222429E+03  0.25500000920E-02 0. -1.
    10030    2    1    2    0    0  0.00000000000E+00  0.00000000000E+00  0.91996339981E+03  0.19651278484E+04  0.17364892178E+04 0.  0.
        3    1    3    3  502    0 -0.11649413713E+03  0.84692034387E+03  0.63162146985E+03  0.10629161040E+04  0.10100000352E+00 0.  1.
       -3    1    3    3    0  502  0.11649413713E+03 -0.84692034387E+03  0.28834192996E+03  0.90221174434E+03  0.10100000352E+00 0. -1.
</event>
<event>
 5   0  0.5342255E-04  0.1688333E+04  0.7818609E-02  0.8768047E-01
        2   -1    0    0  501    0  0.00000000000E+00  0.00000000000E+00  0.77644739097E+03  0.77644739097E+03  0.25500000920E-02 0.  1.
       -2   -1    0    0    0  501  0.00000000000E+00  0.00000000000E+00 -0.91779145076E+03  0.91779145077E+03  0.25500000920E-02 0. -1.
    10030    2    1    2    0    0  0.00000000000E+00  0.00000000000E+00 -0.14134405979E+03  0.16942388417E+04  0.16883326419E+04 0.  0.
        5    1    3    3  502    0  0.77612016040E+03  0.31950354593E+03 -0.16126334827E+03  0.85467711841E+03  0.46999998093E+01 0.  1.
       -5    1    3    3    0  502 -0.77612016040E+03 -0.31950354593E+03  0.19919288476E+02  0.83956172333E+03  0.46999998093E+01 0. -1.
</event>
<event>
 5   0  0.5198430E-04  0.1662605E+04  0.7818609E-02  0.8782984E-01
        2   -1    0    0  501    0  0.00000000000E+00  0.00000000000E+00  0.11802334707E+04  0.11802334707E+04  0.25500000920E-02 0. -1.
       -2   -1    0    0    0  501  0.00000000000E+00  0.00000000000E+00 -0.58553124084E+03  0.58553124084E+03  0.25500000920E-02 0.  1.
    10030    2    1    2    0    0  0.00000000000E+00  0.00000000000E+00  0.59470222985E+03  0.17657647115E+04  0.16626046657E+04 0.  0.
        4    1    3    3  502    0  0.49523399166E+03 -0.65305327795E+03  0.44499732432E+03  0.93260898660E+03  0.12699999809E+01 0. -1.
       -4    1    3    3    0  502 -0.49523399166E+03  0.65305327795E+03  0.14970490553E+03  0.83315572493E+03  0.12699999809E+01 0.  1.
</event>
<event>
 5   0  0.2561518E-04  0.1704452E+04  0.7818609E-02  0.8758829E-01
        1   -1    0    0  501    0  0.00000000000E+00  0.00000000000E+00  0.14726353877E+04  0.14726353877E+04  0.50400001928E-02 0.  1.
       -1   -1    0    0    0  501  0.00000000000E+00  0.00000000000E+00 -0.49319020945E+03  0.49319020947E+03  0.50400001928E-02 0. -1.
    10030    2    1    2    0    0  0.00000000000E+00  0.00000000000E+00  0.97944517825E+03  0.19658255972E+04  0.17044522350E+04 0.  0.
        4    1    3    3  502    0 -0.32030406585E+03 -0.24993466236E+03 -0.37430762694E+03  0.55242179766E+03  0.12699999809E+01 0. -1.
       -4    1    3    3    0  502  0.32030406585E+03  0.24993466236E+03  0.13537528052E+04  0.14134037995E+04  0.12699999809E+01 0.  1.
</event>
<event>
 5   0  0.5310003E-04  0.1747770E+04  0.7818609E-02  0.8734579E-01
       -2   -1    0    0    0  501  0.00000000000E+00  0.00000000000E+00  0.58704246791E+03  0.58704246792E+03  0.25500000920E-02 0.  1.
        2   -1    0    0  501    0  0.00000000000E+00  0.00000000000E+00 -0.13008847590E+04  0.13008847590E+04  0.25500000920E-02 0. -1.
    10030    2    1    2    0    0  0.00000000000E+00  0.00000000000E+00 -0.71384229105E+03  0.18879272269E+04  0.17477695493E+04 0.  0.
        1    1    3    3  502    0 -0.19978661740E+03 -0.62878835052E+03 -0.97592423156E+03  0.11780142563E+04  0.50400001928E-02 0. -1.
       -1    1    3    3    0  502  0.19978661740E+03  0.62878835052E+03  0.26208194051E+03  0.70991297059E+03  0.50400001928E-02 0.  1.
</event>
<event>
 5   0  0.2561518E-04  0.1727572E+04  0.7818609E-02  0.8745793E-01
        1   -1    0    0  501    0  0.00000000000E+00  0.00000000000E+00  0.13176215357E+04  0.13176215357E+04  0.50400001928E-02 0.  1.
       -1   -1    0    0    0  501  0.00000000000E+00  0.00000000000E+00 -0.56626780601E+03  0.56626780603E+03  0.50400001928E-02 0. -1.
    10030    2    1    2    0    0  0.00000000000E+00  0.00000000000E+00  0.75135372968E+03  0.18838893417E+04  0.17275724659E+04 0.  0.
        4    1    3    3  502    0 -0.33156484494E+03 -0.66693326317E+03  0.85274293711E+03  0.11322134753E+04  0.12699999809E+01 0.  1.
       -4    1    3    3    0  502  0.33156484494E+03  0.66693326317E+03 -0.10138920743E+03  0.75167586645E+03  0.12699999809E+01 0. -1.
</event>
<event>
 5   0  0.5198430E-04  0.1722537E+04  0.7818609E-02  0.8748614E-01
        2   -1    0    0  501    0  0.00000000000E+00  0.00000000000E+00  0.13437743127E+04  0.13437743127E+04  0.25500000920E-02 0.  1.
       -2   -1    0    0    0  501  0.00000000000E+00  0.00000000000E+00 -0.55201490117E+03  0.55201490118E+03  0.25500000920E-02 0. -1.
    10030    2    1    2    0    0  0.00000000000E+00  0.00000000000E+00  0.79175941150E+03  0.18957892139E+04  0.17225370178E+04 0.  0.
        4    1    3    3  502    0  0.83757473236E+03 -0.70549498971E+02  0.18917816490E+03  0.86156755688E+03  0.12699999809E+01 0. -1.
       -4    1    3    3    0  502 -0.83757473236E+03  0.70549498971E+02  0.60258124660E+03  0.10342216570E+04  0.12699999809E+01 0.  1.
</event>
<event>
 5   0  0.2630135E-04  0.1691305E+04  0.7818609E-02  0.8766339E-01
       -1   -1    0    0    0  501  0.00000000000E+00  0.00000000000E+00  0.99156464937E+03  0.99156464938E+03  0.50400001928E-02 0.  1.
        1   -1    0    0  501    0  0.00000000000E+00  0.00000000000E+00 -0.72121169559E+03  0.72121169561E+03  0.50400001928E-02 0. -1.
    10030    2    1    2    0    0  0.00000000000E+00  0.00000000000E+00  0.27035295378E+03  0.17127763450E+04  0.16913048478E+04 0.  0.
        1    1    3    3  502    0  0.48747100565E+03  0.29040178369E+03 -0.49981399137E+03  0.75615818671E+03  0.50400001928E-02 0. -1.
       -1    1    3    3    0  502 -0.48747100565E+03 -0.29040178369E+03  0.77016694515E+03  0.95661815828E+03  0.50400001928E-02 0.  1.
</event>
<event>
 5   0  0.5342255E-04  0.1699151E+04  0.7818609E-02  0.8761848E-01
       -2   -1    0    0    0  501  0.00000000000E+00  0.00000000000E+00  0.47289021181E+03  0.47289021182E+03  0.25500000920E-02 0.  1.
        2   -1    0    0  501    0  0.00000000000E+00  0.00000000000E+00 -0.15263139920E+04  0.15263139920E+04  0.25500000920E-02 0. -1.
    10030    2    1    2    0    0  0.00000000000E+00  0.00000000000E+00 -0.10534237802E+04  0.19992042038E+04  0.16991514906E+04 0.  0.
        5    1    3    3  502    0  0.66161296256E+03 -0.12992402081E+02  0.10015359231E+03  0.66929316954E+03  0.46999998093E+01 0.  1.
       -5    1    3    3    0  502 -0.66161296256E+03  0.12992402081E+02 -0.11535773725E+04  0.13299110343E+04  0.46999998093E+01 0. -1.
</event>
<event>
 5   0  0.5342255E-04  0.1691158E+04  0.7818609E-02  0.8766423E-01
        2   -1    0    0  501    0  0.00000000000E+00  0.00000000000E+00  0.84184204529E+03  0.84184204529E+03  0.25500000920E-02 0.  1.
       -2   -1    0    0    0  501  0.00000000000E+00  0.00000000000E+00 -0.84933269489E+03  0.84933269490E+03  0.25500000920E-02 0. -1.
    10030    2    1    2    0    0  0.00000000000E+00  0.00000000000E+00 -0.74906496048E+01  0.16911747402E+04  0.16911581511E+04 0.  0.
        5    1    3    3  502    0  0.61679144196E+03  0.36550980275E+03 -0.45202729707E+03  0.84757292670E+03  0.46999998093E+01 0. -1.
       -5    1    3    3    0  502 -0.61679144196E+03 -0.36550980275E+03  0.44453664747E+03  0.84360181349E+03  0.46999998093E+01 0.  1.
</event>
<event>
 5   0  0.5021349E-04  0.1691188E+04  0.7818609E-02  0.8766406E-01
        2   -1    0    0  501    0  0.00000000000E+00  0.00000000000E+00  0.22167205605E+04  0.22167205605E+04  0.25500000920E-02 0. -1.
       -2   -1    0    0    0  501  0.00000000000E+00  0.00000000000E+00 -0.32256184426E+03  0.32256184427E+03  0.25500000920E-02 0.  1.
    10030    2    1    2    0    0  0.00000000000E+00  0.00000000000E+00  0.18941587163E+04  0.25392824048E+04  0.16911883067E+04 0.  0.
        2    1    3    3  502    0 -0.38020720688E+03 -0.75302398567E+03  0.85918413833E+03  0.12040764206E+04  0.25500000920E-02 0.  1.
       -2    1    3    3    0  502  0.38020720688E+03  0.75302398567E+03  0.10349745779E+04  0.13352059842E+04  0.25500000920E-02 0. -1.
</event>
<event>
 5   0  0.5021349E-04  0.1390754E+04  0.7818609E-02  0.8960539E-01
       -2   -1    0    0    0  501  0.00000000000E+00  0.00000000000E+00  0.37520566557E+03  0.37520566558E+03  0.25500000920E-02 0. -1.
        2   -1    0    0  501    0  0.00000000000E+00  0.00000000000E+00 -0.12887577029E+04  0.12887577029E+04  0.25500000920E-02 0.  1.
    10030    2    1    2    0    0  0.00000000000E+00  0.00000000000E+00 -0.91355203737E+03  0.16639633685E+04  0.13907540282E+04 0.  0.
        2    1    3    3  502    0  0.47003257383E+03 -0.50847540099E+03 -0.53311774999E+03  0.87389495320E+03  0.25500000920E-02 0.  1.
       -2    1    3    3    0  502 -0.47003257383E+03  0.50847540099E+03 -0.38043428738E+03  0.79006841532E+03  0.25500000920E-02 0. -1.
</event>
<event>
 5   0  0.5310003E-04  0.1351105E+04  0.7818609E-02  0.8989992E-01
       -2   -1    0    0    0  501  0.00000000000E+00  0.00000000000E+00  0.11066362387E+04  0.11066362387E+04  0.25500000920E-02 0. -1.
        2   -1    0    0  501    0  0.00000000000E+00  0.00000000000E+00 -0.41239519029E+03  0.41239519030E+03  0.25500000920E-02 0.  1.
    10030    2    1    2    0    0  0.00000000000E+00  0.00000000000E+00  0.69424104845E+03  0.15190314290E+04  0.13511054175E+04 0.  0.
        1    1    3    3  502    0 -0.53512150243E+03  0.38334834639E+03  0.17638977563E+03  0.68148685242E+03  0.50400001928E-02 0.  1.
       -1    1    3    3    0  502  0.53512150243E+03 -0.38334834639E+03  0.51785127281E+03  0.83754457662E+03  0.50400001928E-02 0. -1.
</event>
<event>
 5   0  0.2583422E-04  0.1670835E+04  0.7818609E-02  0.8778175E-01
       -1   -1    0    0    0  501  0.00000000000E+00  0.00000000000E+00  0.74406267845E+03  0.74406267847E+03  0.50400001928E-02 0.  1.
        1   -1    0    0  501    0  0.00000000000E+00  0.00000000000E+00 -0.93798845542E+03  0.93798845543E+03  0.50400001928E-02 0. -1.
    10030    2    1    2    0    0  0.00000000000E+00  0.00000000000E+00 -0.19392577696E+03  0.16820511339E+04  0.16708347644E+04 0.  0.
        3    1    3    3  502    0 -0.67667243695E+03  0.48906287616E+03 -0.12638421331E+03  0.84441758825E+03  0.10100000352E+00 0. -1.
       -3    1    3    3    0  502  0.67667243695E+03 -0.48906287616E+03 -0.67541563657E+02  0.83763354565E+03  0.10100000352E+00 0.  1.
</event>
<event>
 5   0  0.2583422E-04  0.1680203E+04  0.7818609E-02  0.8772737E-01
       -1   -1    0    0    0  501  0.00000000000E+00  0.00000000000E+00  0.11205844938E+04  0.11205844938E+04  0.50400001928E-02 0. -1.
        1   -1    0    0  501    0  0.00000000000E+00  0.00000000000E+00 -0.62982333943E+03  0.62982333945E+03  0.50400001928E-02 0.  1.
    10030    2    1    2    0    0  0.00000000000E+00  0.00000000000E+00  0.49076115440E+03  0.17504078333E+04  0.16802026878E+04 0.  0.
        3    1    3    3  502    0 -0.60308247611E+03  0.54021292769E+03  0.47886980385E+03  0.94066719910E+03  0.10100000352E+00 0. -1.
       -3    1    3    3    0  502  0.60308247611E+03 -0.54021292769E+03  0.11891350557E+02  0.80974063418E+03  0.10100000352E+00 0.  1.
</event>
<event>
 5   0  0.1910750E-04  0.1697538E+04  0.7818609E-02  0.8762770E-01
       -3   -1    0    0    0  501  0.00000000000E+00  0.00000000000E+00  0.40493994496E+03  0.40493995755E+03  0.10100000352E+00 0. -1.
        3   -1    0    0  501    0  0.00000000000E+00  0.00000000000E+00 -0.17790500294E+04  0.17790500323E+04  0.10100000352E+00 0.  1.
    10030    2    1    2    0    0  0.00000000000E+00  0.00000000000E+00 -0.13741100845E+04  0.21839899899E+04  0.16975375553E+04 0.  0.
        3    1    3    3  502    0 -0.25983165801E+03 -0.79971144223E+03 -0.83574943693E+03  0.11855496670E+04  0.10100000352E+00 0.  1.
       -3    1    3    3    0  502  0.25983165801E+03  0.79971144223E+03 -0.53836064756E+03  0.99844032289E+03  0.10100000352E+00 0. -1.
</event>
<event>
 5   0  0.5299877E-04  0.1706987E+04  0.7818609E-02  0.8757389E-01
        2   -1    0    0  501    0  0.00000000000E+00  0.00000000000E+00  0.28508007655E+04  0.28508007655E+04  0.25500000920E-02 0.  1.
       -2   -1    0    0    0  501  0.00000000000E+00  0.00000000000E+00 -0.25552511267E+03  0.25552511268E+03  0.25500000920E-02 0. -1.
    10030    2    1    2    0    0  0.00000000000E+00  0.00000000000E+00  0.25952756528E+04  0.31063258782E+04  0.17069870378E+04 0.  0.
        3    1    3    3  502    0  0.47437634629E+03 -0.29826861101E+03  0.24691721273E+04  0.25319573627E+04  0.10100000352E+00 0.  1.
       -3    1    3    3    0  502 -0.47437634629E+03  0.29826861101E+03  0.12610352558E+03  0.57436851551E+03  0.10100000352E+00 0. -1.
</event>
<event>
 5   0  0.2630135E-04  0.1716473E+04  0.7818609E-02  0.8752025E-01
        1   -1    0    0  501    0  0.00000000000E+00  0.00000000000E+00  0.15656005344E+04  0.15656005345E+04  0.50400001928E-02 0. -1.
       -1   -1    0    0    0  501  0.00000000000E+00  0.00000000000E+00 -0.47047099916E+03  0.47047099918E+03  0.50400001928E-02 0.  1.
    10030    2    1    2    0    0  0.00000000000E+00  0.00000000000E+00  0.10951295353E+04  0.20360715336E+04  0.17164727178E+04 0.  0.
        1    1    3    3  502    0 -0.26152330171E+03  0.75766468602E+02 -0.41788047857E+03  0.49875754581E+03  0.50400001928E-02 0.  1.
       -1    1    3    3    0  502  0.26152330171E+03 -0.75766468602E+02  0.15130100139E+04  0.15373139878E+04  0.50400001928E-02 0. -1.
</event>
<event>
 5   0  0.5021349E-04  0.1389491E+04  0.7818609E-02  0.8961461E-01
       -2   -1    0    0    0  501  0.00000000000E+00  0.00000000000E+00  0.37401348956E+03  0.37401348957E+03  0.25500000920E-02 0.  1.
        2   -1    0    0  501    0  0.00000000000E+00  0.00000000000E+00 -0.12905183176E+04  0.12905183176E+04  0.25500000920E-02 0. -1.
    10030    2    1    2    0    0  0.00000000000E+00  0.00000000000E+00 -0.91650482800E+03  0.16645318071E+04  0.13894909274E+04 0.  0.
        2    1    3    3  502    0  0.67030818689E+03 -0.91130529495E+02 -0.26863863373E+03  0.72786300521E+03  0.25500000920E-02 0. -1.
       -2    1    3    3    0  502 -0.67030818689E+03  0.91130529495E+02 -0.64786619427E+03  0.93666880193E+03  0.25500000920E-02 0.  1.
</event>
<event>
 5   0  0.2561518E-04  0.1685403E+04  0.7818609E-02  0.8769734E-01
       -1   -1    0    0    0  501  0.00000000000E+00  0.00000000000E+00  0.40717289322E+03  0.40717289325E+03  0.50400001928E-02 0.  1.
        1   -1    0    0  501    0  0.00000000000E+00  0.00000000000E+00 -0.17440890370E+04  0.17440890370E+04  0.50400001928E-02 0. -1.
    10030    2    1    2    0    0  0.00000000000E+00  0.00000000000E+00 -0.13369161438E+04  0.21512619303E+04  0.16854029539E+04 0.  0.
        4    1    3    3  502    0  0.80020421165E+02  0.65117436346E+03 -0.13435233145E+04  0.14951547843E+04  0.12699999809E+01 0. -1.
       -4    1    3    3    0  502 -0.80020421165E+02 -0.65117436346E+03  0.66071706962E+01  0.65610714601E+03  0.12699999809E+01 0.  1.
</event>
<event>
 5   0  0.2630135E-04  0.1703019E+04  0.7818609E-02  0.8759644E-01
       -1   -1    0    0    0  501  0.00000000000E+00  0.00000000000E+00  0.75035393271E+03  0.75035393273E+03  0.50400001928E-02 0. -1.
        1   -1    0    0  501    0  0.00000000000E+00  0.00000000000E+00 -0.96630184820E+03  0.96630184821E+03  0.50400001928E-02 0.  1.
    10030    2    1    2    0    0  0.00000000000E+00  0.00000000000E+00 -0.21594791549E+03  0.17166557809E+04  0.17030189570E+04 0.  0.
        1    1    3    3  502    0 -0.46108504444E+02  0.77647833097E+03  0.24124468745E+03  0.81439768657E+03  0.50400001928E-02 0. -1.
       -1    1    3    3    0  502  0.46108504444E+02 -0.77647833097E+03 -0.45719260294E+03  0.90225809437E+03  0.50400001928E-02 0.  1.
</event>
<event>
 5   0  0.2595644E-04  0.1661173E+04  0.7818609E-02  0.8783824E-01
       -1   -1    0    0    0  501  0.00000000000E+00  0.00000000000E+00  0.16290899343E+04  0.16290899343E+04  0.50400001928E-02 0.  1.
        1   -1    0    0  501    0  0.00000000000E+00  0.00000000000E+00 -0.42347209316E+03  0.42347209319E+03  0.50400001928E-02 0. -1.
    10030    2    1    2    0    0  0.00000000000E+00  0.00000000000E+00  0.12056178411E+04  0.20525620275E+04  0.16611732293E+04 0.  0.
        2    1    3    3  502    0 -0.20871982408E+03 -0.37246160704E+03 -0.27749916612E+03  0.50921253017E+03  0.25500000920E-02 0. -1.
       -2    1    3    3    0  502  0.20871982408E+03  0.37246160704E+03  0.14831170073E+04  0.15433494973E+04  0.25500000920E-02 0.  1.
</event>
<event>
 5   0  0.2583422E-04  0.1683502E+04  0.7818609E-02  0.8770830E-01
       -1   -1    0    0    0  501  0.00000000000E+00  0.00000000000E+00  0.13535348577E+04  0.13535348577E+04  0.50400001928E-02 0.  1.
        1   -1    0    0  501    0  0.00000000000E+00  0.00000000000E+00 -0.52347722480E+03  0.52347722483E+03  0.50400001928E-02 0. -1.
    10030    2    1    2    0    0  0.00000000000E+00  0.00000000000E+00  0.83005763288E+03  0.18770120825E+04  0.16835019109E+04 0.  0.
        3    1    3    3  502    0 -0.23933736943E+03 -0.37447652991E+03  0.12120621560E+04  0.12909723963E+04  0.10100000352E+00 0.  1.
       -3    1    3    3    0  502  0.23933736943E+03  0.37447652991E+03 -0.38200452315E+03  0.58603968617E+03  0.10100000352E+00 0. -1.
</event>
<event>
 5   0  0.5198430E-04  0.1707674E+04  0.7818609E-02  0.8757000E-01
       -2   -1    0    0    0  501  0.00000000000E+00  0.00000000000E+00  0.69697937758E+03  0.69697937758E+03  0.25500000920E-02 0.  1.
        2   -1    0    0  501    0  0.00000000000E+00  0.00000000000E+00 -0.10459961417E+04  0.10459961417E+04  0.25500000920E-02 0. -1.
    10030    2    1    2    0    0  0.00000000000E+00  0.00000000000E+00 -0.34901676412E+03  0.17429755193E+04  0.17076741373E+04 0.  0.
        4    1    3    3  502    0 -0.44588741695E+02  0.18343552041E+02 -0.10446046347E+04  0.10457175037E+04  0.12699999809E+01 0. -1.
       -4    1    3    3    0  502  0.44588741695E+02 -0.18343552041E+02  0.69558787055E+03  0.69725801562E+03  0.12699999809E+01 0.  1.
</event>
<event>
 5   0  0.5198430E-04  0.1703981E+04  0.7818609E-02  0.8759097E-01
       -2   -1    0    0    0  501  0.00000000000E+00  0.00000000000E+00  0.37640928696E+03  0.37640928697E+03  0.25500000920E-02 0.  1.
        2   -1    0    0  501    0  0.00000000000E+00  0.00000000000E+00 -0.19284538210E+04  0.19284538210E+04  0.25500000920E-02 0. -1.
    10030    2    1    2    0    0  0.00000000000E+00  0.00000000000E+00 -0.15520445340E+04  0.23048631080E+04  0.17039811357E+04 0.  0.
        4    1    3    3  502    0  0.20635063980E+03 -0.56825158178E+03 -0.15880488666E+04  0.16992325510E+04  0.12699999809E+01 0. -1.
       -4    1    3    3    0  502 -0.20635063980E+03  0.56825158178E+03  0.36004332509E+02  0.60563055703E+03  0.12699999809E+01 0.  1.
</event>
<event>
 5   0  0.2595644E-04  0.1703909E+04  0.7818609E-02  0.8759138E-01
        1   -1    0    0  501    0  0.00000000000E+00  0.00000000000E+00  0.12494302281E+04  0.12494302281E+04  0.50400001928E-02 0. -1.
       -1   -1    0    0    0  501  0.00000000000E+00  0.00000000000E+00 -0.58092624062E+03  0.58092624064E+03  0.50400001928E-02 0.  1.
    10030    2    1    2    0    0  0.00000000000E+00  0.00000000000E+00  0.66850398749E+03  0.18303564688E+04  0.17039093936E+04 0.  0.
        2    1    3    3  502    0 -0.11042839514E+03  0.12734561330E+03 -0.56283584547E+03  0.58753342427E+03  0.25500000920E-02 0.  1.
       -2    1    3    3    0  502  0.11042839514E+03 -0.12734561330E+03  0.12313398330E+04  0.12428230445E+04  0.25500000920E-02 0. -1.
</event>
<event>
 5   0  0.5198430E-04  0.1721520E+04  0.7818609E-02  0.8749185E-01
        2   -1    0    0  501    0  0.00000000000E+00  0.00000000000E+00  0.19512271599E+04  0.19512271599E+04  0.25500000920E-02 0. -1.
       -2   -1    0    0    0  501  0.00000000000E+00  0.00000000000E+00 -0.37971393447E+03  0.37971393448E+03  0.25500000920E-02 0.  1.
    10030    2    1    2    0    0  0.00000000000E+00  0.00000000000E+00  0.15715132254E+04  0.23309410944E+04  0.17215204233E+04 0.  0.
        4    1    3    3  502    0  0.51424846981E+03  0.67652369878E+03  0.60024989269E+03  0.10404024944E+04  0.12699999809E+01 0.  1.
       -4    1    3    3    0  502 -0.51424846981E+03 -0.67652369878E+03  0.97126333276E+03  0.12905386000E+04  0.12699999809E+01 0. -1.
</event>
<event>
 5   0  0.5310003E-04  0.1703186E+04  0.7818609E-02  0.8759549E-01
       -2   -1    0    0    0  501  0.00000000000E+00  0.00000000000E+00  0.47727560085E+03  0.47727560086E+03  0.25500000920E-02 0.  1.
        2   -1    0    0  501    0  0.00000000000E+00  0.00000000000E+00 -0.15194794865E+04  0.15194794865E+04  0.25500000920E-02 0. -1.
    10030    2    1    2    0    0  0.00000000000E+00  0.00000000000E+00 -0.10422038856E+04  0.19967550873E+04  0.17031858206E+04 0.  0.
        1    1    3    3  502    0 -0.51200893071E+03 -0.66582852440E+03 -0.35642864543E+03  0.91242651668E+03  0.50400001928E-02 0. -1.
       -1    1    3    3    0  502  0.51200893071E+03  0.66582852440E+03 -0.68577524018E+03  0.10843285706E+04  0.50400001928E-02 0.  1.
</event>
<event>
 5   0  0.5198430E-04  0.1699021E+04  0.7818609E-02  0.8761923E-01
        2   -1    0    0  501    0  0.00000000000E+00  0.00000000000E+00  0.13738353238E+04  0.13738353238E+04  0.25500000920E-02 0.  1.
       -2   -1    0    0    0  501  0.00000000000E+00  0.00000000000E+00 -0.52529422134E+03  0.52529422134E+03  0.25500000920E-02 0. -1.
    10030    2    1    2    0    0  0.00000000000E+00  0.00000000000E+00  0.84854110248E+03  0.18991295452E+04  0.16990206081E+04 0.  0.
        4    1    3    3  502    0  0.95578777748E+01  0.57818118115E+03  0.11198859932E+04  0.12603694228E+04  0.12699999809E+01 0.  1.
       -4    1    3    3    0  502 -0.95578777748E+01 -0.57818118115E+03 -0.27134489074E+03  0.63876012234E+03  0.12699999809E+01 0. -1.
</event>
<event>
 5   0  0.2583422E-04  0.1697136E+04  0.7818609E-02  0.8762999E-01
        1   -1    0    0  501    0  0.00000000000E+00  0.00000000000E+00  0.13556089608E+04  0.13556089608E+04  0.50400001928E-02 0. -1.
       -1   -1    0    0    0  501  0.00000000000E+00  0.00000000000E+00 -0.53117650812E+03  0.53117650814E+03  0.50400001928E-02 0.  1.
    10030    2    1    2    0    0  0.00000000000E+00  0.00000000000E+00  0.82443245267E+03  0.18867854689E+04  0.16971359806E+04 0.  0.
        3    1    3    3  502    0  0.31400573942E+03 -0.41069311817E+03 -0.33588212711E+03  0.61651054753E+03  0.10100000352E+00 0.  1.
       -3    1    3    3    0  502 -0.31400573942E+03  0.41069311817E+03  0.11603145798E+04  0.12702749214E+04  0.10100000352E+00 0. -1.
</event>
<event>
 5   0  0.5342255E-04  0.1693124E+04  0.7818609E-02  0.8765296E-01
        2   -1    0    0  501    0  0.00000000000E+00  0.00000000000E+00  0.74823755642E+03  0.74823755642E+03  0.25500000920E-02 0.  1.
       -2   -1    0    0    0  501  0.00000000000E+00  0.00000000000E+00 -0.95780719285E+03  0.95780719285E+03  0.25500000920E-02 0. -1.
    10030    2    1    2    0    0  0.00000000000E+00  0.00000000000E+00 -0.20956963643E+03  0.17060447493E+04  0.16931241106E+04 0.  0.
        5    1    3    3  502    0 -0.57947398717E+03 -0.15830742821E+03 -0.70582133768E+03  0.92685338342E+03  0.46999998093E+01 0. -1.
       -5    1    3    3    0  502  0.57947398717E+03  0.15830742821E+03  0.49625170125E+03  0.77919136586E+03  0.46999998093E+01 0.  1.
</event>
<event>
 5   0  0.2583422E-04  0.1258506E+04  0.7818609E-02  0.9063133E-01
       -1   -1    0    0    0  501  0.00000000000E+00  0.00000000000E+00  0.42086518179E+03  0.42086518182E+03  0.50400001928E-02 0. -1.
        1   -1    0    0  501    0  0.00000000000E+00  0.00000000000E+00 -0.94082234355E+03  0.94082234357E+03  0.50400001928E-02 0.  1.
    10030    2    1    2    0    0  0.00000000000E+00  0.00000000000E+00 -0.51995716176E+03  0.13616875254E+04  0.12585060456E+04 0.  0.
        3    1    3    3  502    0 -0.39907219582E+02  0.61927029257E+03 -0.37279138633E+03  0.72392106570E+03  0.10100000352E+00 0.  1.
       -3    1    3    3    0  502  0.39907219582E+02 -0.61927029257E+03 -0.14716577544E+03  0.63776645969E+03  0.10100000352E+00 0. -1.
</event>
<event>
 5   0  0.2583422E-04  0.1657729E+04  0.7818609E-02  0.8785847E-01
        1   -1    0    0  501    0  0.00000000000E+00  0.00000000000E+00  0.10939966838E+04  0.10939966838E+04  0.50400001928E-02 0. -1.
       -1   -1    0    0    0  501  0.00000000000E+00  0.00000000000E+00 -0.62798779840E+03  0.62798779842E+03  0.50400001928E-02 0.  1.
    10030    2    1    2    0    0  0.00000000000E+00  0.00000000000E+00  0.46600888542E+03  0.17219844822E+04  0.16577292529E+04 0.  0.
        3    1    3    3  502    0 -0.36449541390E+03 -0.10596336462E+03  0.99840384525E+03  0.10681270476E+04  0.10100000352E+00 0. -1.
       -3    1    3    3    0  502  0.36449541390E+03  0.10596336462E+03 -0.53239495983E+03  0.65385743465E+03  0.10100000352E+00 0.  1.
</event>
<event>
 5   0  0.5299877E-04  0.1549427E+04  0.7818609E-02  0.8852234E-01
        2   -1    0    0  501    0  0.00000000000E+00  0.00000000000E+00  0.41920561454E+03  0.41920561455E+03  0.25500000920E-02 0.  1.
       -2   -1    0    0    0  501  0.00000000000E+00  0.00000000000E+00 -0.14317103386E+04  0.14317103386E+04  0.25500000920E-02 0. -1.
    10030    2    1    2    0    0  0.00000000000E+00  0.00000000000E+00 -0.10125047240E+04  0.18509159531E+04  0.15494270068E+04 0.  0.
        3    1    3    3  502    0  0.12652304241E+03 -0.57411913577E+03  0.96460941371E+02  0.59575631405E+03  0.10100000352E+00 0.  1.
       -3    1    3    3    0  502 -0.12652304241E+03  0.57411913577E+03 -0.11089656654E+04  0.12551596391E+04  0.10100000352E+00 0. -1.
</event>
<event>
 5   0  0.2630135E-04  0.1722274E+04  0.7818609E-02  0.8748762E-01
       -1   -1    0    0    0  501  0.00000000000E+00  0.00000000000E+00  0.11478113428E+04  0.11478113428E+04  0.50400001928E-02 0.  1.
        1   -1    0    0  501    0  0.00000000000E+00  0.00000000000E+00 -0.64606172895E+03  0.64606172897E+03  0.50400001928E-02 0. -1.
    10030    2    1    2    0    0  0.00000000000E+00  0.00000000000E+00  0.50174961385E+03  0.17938730718E+04  0.17222740556E+04 0.  0.
        1    1    3    3  502    0  0.82837715295E+03  0.10052449020E+03  0.29327931986E+02  0.83496946548E+03  0.50400001928E-02 0. -1.
       -1    1    3    3    0  502 -0.82837715295E+03 -0.10052449020E+03  0.47242168186E+03  0.95890360630E+03  0.50400001928E-02 0.  1.
</event>
<event>
 5   0  0.2561518E-04  0.1700526E+04  0.7818609E-02  0.8761064E-01
       -1   -1    0    0    0  501  0.00000000000E+00  0.00000000000E+00  0.57117742772E+03  0.57117742775E+03  0.50400001928E-02 0. -1.
        1   -1    0    0  501    0  0.00000000000E+00  0.00000000000E+00 -0.12657145714E+04  0.12657145714E+04  0.50400001928E-02 0.  1.
    10030    2    1    2    0    0  0.00000000000E+00  0.00000000000E+00 -0.69453714371E+03  0.18368919992E+04  0.17005264987E+04 0.  0.
        4    1    3    3  502    0 -0.56979631432E+03  0.20155346581E+03  0.29873061154E+03  0.67419079686E+03  0.12699999809E+01 0. -1.
       -4    1    3    3    0  502  0.56979631432E+03 -0.20155346581E+03 -0.99326775525E+03  0.11627012023E+04  0.12699999809E+01 0.  1.
</event>
<event>
 5   0  0.2785059E-04  0.1795052E+04  0.7818609E-02  0.8708935E-01
       -1   -1    0    0    0  501  0.00000000000E+00  0.00000000000E+00  0.61143292031E+03  0.61143292033E+03  0.50400001928E-02 0.  1.
        1   -1    0    0  501    0  0.00000000000E+00  0.00000000000E+00 -0.13174835716E+04  0.13174835716E+04  0.50400001928E-02 0. -1.
    10030    2    1    2    0    0  0.00000000000E+00  0.00000000000E+00 -0.70605065129E+03  0.19289164919E+04  0.17950518964E+04 0.  0.
        5    1    3    3  502    0 -0.76510643528E+03 -0.19165966498E+02 -0.85678813389E+03  0.11488529880E+04  0.46999998093E+01 0. -1.
       -5    1    3    3    0  502  0.76510643528E+03  0.19165966498E+02  0.15073748260E+03  0.78006350397E+03  0.46999998093E+01 0.  1.
</event>
<event>
 5   0  0.2561518E-04  0.1704421E+04  0.7818609E-02  0.8758847E-01
       -1   -1    0    0    0  501  0.00000000000E+00  0.00000000000E+00  0.10017458096E+04  0.10017458096E+04  0.50400001928E-02 0.  1.
        1   -1    0    0  501    0  0.00000000000E+00  0.00000000000E+00 -0.72499692429E+03  0.72499692431E+03  0.50400001928E-02 0. -1.
    10030    2    1    2    0    0  0.00000000000E+00  0.00000000000E+00  0.27674888526E+03  0.17267427339E+04  0.17044208763E+04 0.  0.
        4    1    3    3  502    0  0.33334419043E+03  0.17701784095E+03 -0.63570506851E+03  0.73930792795E+03  0.12699999809E+01 0. -1.
       -4    1    3    3    0  502 -0.33334419043E+03 -0.17701784095E+03  0.91245395377E+03  0.98743480592E+03  0.12699999809E+01 0.  1.
</event>
<event>
 5   0  0.2630135E-04  0.1710526E+04  0.7818609E-02  0.8755383E-01
       -1   -1    0    0    0  501  0.00000000000E+00  0.00000000000E+00  0.10484017175E+04  0.10484017175E+04  0.50400001928E-02 0.  1.
        1   -1    0    0  501    0  0.00000000000E+00  0.00000000000E+00 -0.69770506965E+03  0.69770506967E+03  0.50400001928E-02 0. -1.
    10030    2    1    2    0    0  0.00000000000E+00  0.00000000000E+00  0.35069664786E+03  0.17461067872E+04  0.17105264609E+04 0.  0.
        1    1    3    3  502    0 -0.15794952250E+03 -0.80419493943E+03 -0.74273774441E+02  0.82291806753E+03  0.50400001928E-02 0.  1.
       -1    1    3    3    0  502  0.15794952250E+03  0.80419493943E+03  0.42497042230E+03  0.92318871967E+03  0.50400001928E-02 0. -1.
</event>
<event>
 5   0  0.5198430E-04  0.1690796E+04  0.7818609E-02  0.8766631E-01
       -2   -1    0    0    0  501  0.00000000000E+00  0.00000000000E+00  0.65991060425E+03  0.65991060426E+03  0.25500000920E-02 0. -1.
        2   -1    0    0  501    0  0.00000000000E+00  0.00000000000E+00 -0.10830224766E+04  0.10830224766E+04  0.25500000920E-02 0.  1.
    10030    2    1    2    0    0  0.00000000000E+00  0.00000000000E+00 -0.42311187231E+03  0.17429330808E+04  0.16907962822E+04 0.  0.
        4    1    3    3  502    0 -0.76935714896E+03 -0.21068085397E+03 -0.50018910604E+03  0.94153470439E+03  0.12699999809E+01 0. -1.
       -4    1    3    3    0  502  0.76935714896E+03  0.21068085397E+03  0.77077233735E+02  0.80139837643E+03  0.12699999809E+01 0.  1.
</event>
<event>
 5   0  0.2561518E-04  0.1694320E+04  0.7818609E-02  0.8764610E-01
       -1   -1    0    0    0  501  0.00000000000E+00  0.00000000000E+00  0.13855516773E+04  0.13855516773E+04  0.50400001928E-02 0.  1.
        1   -1    0    0  501    0  0.00000000000E+00  0.00000000000E+00 -0.51797452683E+03  0.51797452685E+03  0.50400001928E-02 0. -1.
    10030    2    1    2    0    0  0.00000000000E+00  0.00000000000E+00  0.86757715048E+03  0.19035262042E+04  0.16943204827E+04 0.  0.
        4    1    3    3  502    0  0.14835792758E+03  0.46890003328E+03  0.12087431082E+04  0.13049669844E+04  0.12699999809E+01 0.  1.
       -4    1    3    3    0  502 -0.14835792758E+03 -0.46890003328E+03 -0.34116595776E+03  0.59855921972E+03  0.12699999809E+01 0. -1.
</event>
<event>
 5   0  0.2561518E-04  0.1712732E+04  0.7818609E-02  0.8754136E-01
       -1   -1    0    0    0  501  0.00000000000E+00  0.00000000000E+00  0.46931890854E+03  0.46931890856E+03  0.50400001928E-02 0.  1.
        1   -1    0    0  501    0  0.00000000000E+00  0.00000000000E+00 -0.15626111746E+04  0.15626111747E+04  0.50400001928E-02 0. -1.
    10030    2    1    2    0    0  0.00000000000E+00  0.00000000000E+00 -0.10932922661E+04  0.20319300832E+04  0.17127322861E+04 0.  0.
        4    1    3    3  502    0  0.13774055826E+03 -0.24862108792E+03  0.41172775997E+03  0.50030617424E+03  0.12699999809E+01 0.  1.
       -4    1    3    3    0  502 -0.13774055826E+03  0.24862108792E+03 -0.15050200261E+04  0.15316239090E+04  0.12699999809E+01 0. -1.
</event>
<event>
 5   0  0.2583422E-04  0.1685935E+04  0.7818609E-02  0.8769427E-01
       -1   -1    0    0    0  501  0.00000000000E+00  0.00000000000E+00  0.51253766635E+03  0.51253766637E+03  0.50400001928E-02 0.  1.
        1   -1    0    0  501    0  0.00000000000E+00  0.00000000000E+00 -0.13864241612E+04  0.13864241613E+04  0.50400001928E-02 0. -1.
    10030    2    1    2    0    0  0.00000000000E+00  0.00000000000E+00 -0.87388649490E+03  0.18989618276E+04  0.16859354723E+04 0.  0.
        3    1    3    3  502    0  0.80060612104E+03 -0.22666674425E+03 -0.28479515898E+03  0.87946362447E+03  0.10100000352E+00 0.  1.
       -3    1    3    3    0  502 -0.80060612104E+03  0.22666674425E+03 -0.58909133592E+03  0.10194982032E+04  0.10100000352E+00 0. -1.
</event>
<event>
 5   0  0.2583422E-04  0.1692314E+04  0.7818609E-02  0.8765760E-01
       -1   -1    0    0    0  501  0.00000000000E+00  0.00000000000E+00  0.97631458977E+03  0.97631458978E+03  0.50400001928E-02 0. -1.
        1   -1    0    0  501    0  0.00000000000E+00  0.00000000000E+00 -0.73335178702E+03  0.73335178703E+03  0.50400001928E-02 0.  1.
    10030    2    1    2    0    0  0.00000000000E+00  0.00000000000E+00  0.24296280275E+03  0.17096663768E+04  0.16923144496E+04 0.  0.
        3    1    3    3  502    0  0.32768855801E+03 -0.14028905623E+03  0.89676199444E+03  0.96500927209E+03  0.10100000352E+00 0. -1.
       -3    1    3    3    0  502 -0.32768855801E+03  0.14028905623E+03 -0.65379919169E+03  0.74465710472E+03  0.10100000352E+00 0.  1.
</event>
<event>
 5   0  0.5198430E-04  0.1696624E+04  0.7818609E-02  0.8763292E-01
       -2   -1    0    0    0  501  0.00000000000E+00  0.00000000000E+00  0.64688201085E+03  0.64688201085E+03  0.25500000920E-02 0.  1.
        2   -1    0    0  501    0  0.00000000000E+00  0.00000000000E+00 -0.11124642935E+04  0.11124642935E+04  0.25500000920E-02 0. -1.
    10030    2    1    2    0    0  0.00000000000E+00  0.00000000000E+00 -0.46558228261E+03  0.17593463043E+04  0.16966238701E+04 0.  0.
        4    1    3    3  502    0  0.44179362750E+03 -0.59111279562E+03  0.20104819690E+03  0.76486465262E+03  0.12699999809E+01 0.  1.
       -4    1    3    3    0  502 -0.44179362750E+03  0.59111279562E+03 -0.66663047951E+03  0.99448165170E+03  0.12699999809E+01 0. -1.
</event>
<event>
 5   0  0.2595644E-04  0.1788093E+04  0.7818609E-02  0.8712657E-01
        1   -1    0    0  501    0  0.00000000000E+00  0.00000000000E+00  0.12060260090E+04  0.12060260090E+04  0.50400001928E-02 0. -1.
       -1   -1    0    0    0  501  0.00000000000E+00  0.00000000000E+00 -0.66277121380E+03  0.66277121382E+03  0.50400001928E-02 0.  1.
    10030    2    1    2    0    0  0.00000000000E+00  0.00000000000E+00  0.54325479521E+03  0.18687972228E+04  0.17880931988E+04 0.  0.
        2    1    3    3  502    0 -0.40815875766E+03 -0.24860144433E+03  0.10613250116E+04  0.11639617820E+04  0.25500000920E-02 0. -1.
       -2    1    3    3    0  502  0.40815875766E+03  0.24860144433E+03 -0.51807021641E+03  0.70483544088E+03  0.25500000920E-02 0.  1.
</event>
<event>
 5   0  0.2561518E-04  0.1619368E+04  0.7818609E-02  0.8808737E-01
        1   -1    0    0  501    0  0.00000000000E+00  0.00000000000E+00  0.66909506045E+03  0.66909506047E+03  0.50400001928E-02 0.  1.
       -1   -1    0    0    0  501  0.00000000000E+00  0.00000000000E+00 -0.97981374081E+03  0.97981374082E+03  0.50400001928E-02 0. -1.
    10030    2    1    2    0    0  0.00000000000E+00  0.00000000000E+00 -0.31071868036E+03  0.16489088013E+04  0.16193684376E+04 0.  0.
        4    1    3    3  502    0 -0.20762233163E+02  0.71148204925E+03  0.23762022915E+03  0.75040173436E+03  0.12699999809E+01 0.  1.
       -4    1    3    3    0  502  0.20762233163E+02 -0.71148204925E+03 -0.54833890951E+03  0.89850706693E+03  0.12699999809E+01 0. -1.
</event>
<event>
 5   0  0.5198430E-04  0.1701083E+04  0.7818609E-02  0.8760747E-01
       -2   -1    0    0    0  501  0.00000000000E+00  0.00000000000E+00  0.62239908187E+03  0.62239908188E+03  0.25500000920E-02 0. -1.
        2   -1    0    0  501    0  0.00000000000E+00  0.00000000000E+00 -0.11623101725E+04  0.11623101725E+04  0.25500000920E-02 0.  1.
    10030    2    1    2    0    0  0.00000000000E+00  0.00000000000E+00 -0.53991109061E+03  0.17847092544E+04  0.17010829306E+04 0.  0.
        4    1    3    3  502    0 -0.80725129364E+03  0.25929618522E+03 -0.19934143356E+03  0.87099241258E+03  0.12699999809E+01 0.  1.
       -4    1    3    3    0  502  0.80725129364E+03 -0.25929618522E+03 -0.34056965705E+03  0.91371684178E+03  0.12699999809E+01 0. -1.
</event>
<event>
 5   0  0.5342255E-04  0.1687179E+04  0.7818609E-02  0.8768710E-01
        2   -1    0    0  501    0  0.00000000000E+00  0.00000000000E+00  0.72553324615E+03  0.72553324615E+03  0.25500000920E-02 0.  1.
       -2   -1    0    0    0  501  0.00000000000E+00  0.00000000000E+00 -0.98085599713E+03  0.98085599713E+03  0.25500000920E-02 0. -1.
    10030    2    1    2    0    0  0.00000000000E+00  0.00000000000E+00 -0.25532275098E+03  0.17063892433E+04  0.16871794636E+04 0.  0.
        5    1    3    3  502    0 -0.30856575923E+03 -0.24168735885E+03 -0.88315767786E+03  0.96623764218E+03  0.46999998093E+01 0. -1.
       -5    1    3    3    0  502  0.30856575923E+03  0.24168735885E+03  0.62783492688E+03  0.74015160110E+03  0.46999998093E+01 0.  1.
</event>
<event>
 5   0  0.2561518E-04  0.1727080E+04  0.7818609E-02  0.8746068E-01
        1   -1    0    0  501    0  0.00000000000E+00  0.00000000000E+00  0.73591963909E+03  0.73591963911E+03  0.50400001928E-02 0.  1.
       -1   -1    0    0    0  501  0.00000000000E+00  0.00000000000E+00 -0.10132922455E+04  0.10132922455E+04  0.50400001928E-02 0. -1.
    10030    2    1    2    0    0  0.00000000000E+00  0.00000000000E+00 -0.27737260638E+03  0.17492118846E+04  0.17270803845E+04 0.  0.
        4    1    3    3  502    0 -0.38090910376E+03 -0.36879151824E+03  0.55166475459E+03  0.76513694435E+03  0.12699999809E+01 0.  1.
       -4    1    3    3    0  502  0.38090910376E+03  0.36879151824E+03 -0.82903736096E+03  0.98407494025E+03  0.12699999809E+01 0. -1.
</event>
<event>
 5   0  0.5198430E-04  0.1775580E+04  0.7818609E-02  0.8719395E-01
        2   -1    0    0  501    0  0.00000000000E+00  0.00000000000E+00  0.19656296706E+04  0.19656296706E+04  0.25500000920E-02 0.  1.
       -2   -1    0    0    0  501  0.00000000000E+00  0.00000000000E+00 -0.40097625353E+03  0.40097625354E+03  0.25500000920E-02 0. -1.
    10030    2    1    2    0    0  0.00000000000E+00  0.00000000000E+00  0.15646534170E+04  0.23666059241E+04  0.17755797038E+04 0.  0.
        4    1    3    3  502    0  0.27957213668E+03  0.32513084096E+03  0.18184502867E+04  0.18683237678E+04  0.12699999809E+01 0.  1.
       -4    1    3    3    0  502 -0.27957213668E+03 -0.32513084096E+03 -0.25379686964E+03  0.49828215630E+03  0.12699999809E+01 0. -1.
</event>
<event>
 5   0  0.5299877E-04  0.1672486E+04  0.7818609E-02  0.8777214E-01
       -2   -1    0    0    0  501  0.00000000000E+00  0.00000000000E+00  0.50999922596E+03  0.50999922596E+03  0.25500000920E-02 0. -1.
        2   -1    0    0  501    0  0.00000000000E+00  0.00000000000E+00 -0.13711831971E+04  0.13711831971E+04  0.25500000920E-02 0.  1.
    10030    2    1    2    0    0  0.00000000000E+00  0.00000000000E+00 -0.86118397115E+03  0.18811824231E+04  0.16724860169E+04 0.  0.
        3    1    3    3  502    0 -0.84153642902E+02 -0.86097507382E+02  0.50020024117E+03  0.51448509003E+03  0.10100000352E+00 0. -1.
       -3    1    3    3    0  502  0.84153642902E+02  0.86097507382E+02 -0.13613842123E+04  0.13666973330E+04  0.10100000352E+00 0.  1.
</event>
<event>
 5   0  0.2785059E-04  0.1748050E+04  0.7818609E-02  0.8734424E-01
        1   -1    0    0  501    0  0.00000000000E+00  0.00000000000E+00  0.10594316985E+04  0.10594316985E+04  0.50400001928E-02 0.  1.
       -1   -1    0    0    0  501  0.00000000000E+00  0.00000000000E+00 -0.72106547716E+03  0.72106547718E+03  0.50400001928E-02 0. -1.
    10030    2    1    2    0    0  0.00000000000E+00  0.00000000000E+00  0.33836622132E+03  0.17804971757E+04  0.17480499114E+04 0.  0.
        5    1    3    3  502    0 -0.16439807212E+03  0.83117472008E+03  0.38768635903E+03  0.93177301119E+03  0.46999998093E+01 0.  1.
       -5    1    3    3    0  502  0.16439807212E+03 -0.83117472008E+03 -0.49320137703E+02  0.84872416449E+03  0.46999998093E+01 0. -1.
</event>
<event>
 5   0  0.5021349E-04  0.1649791E+04  0.7818609E-02  0.8790530E-01
        2   -1    0    0  501    0  0.00000000000E+00  0.00000000000E+00  0.96519084746E+03  0.96519084747E+03  0.25500000920E-02 0.  1.
       -2   -1    0    0    0  501  0.00000000000E+00  0.00000000000E+00 -0.70499304523E+03  0.70499304524E+03  0.25500000920E-02 0. -1.
    10030    2    1    2    0    0  0.00000000000E+00  0.00000000000E+00  0.26019780223E+03  0.16701838927E+04  0.16497913017E+04 0.  0.
        2    1    3    3  502    0  0.36688383204E+03  0.63774636442E+03 -0.24751118652E+03  0.77626410390E+03  0.25500000920E-02 0. -1.
       -2    1    3    3    0  502 -0.36688383204E+03 -0.63774636442E+03  0.50770898876E+03  0.89391978880E+03  0.25500000920E-02 0.  1.
</event>
<event>
 5   0  0.2785059E-04  0.1694514E+04  0.7818609E-02  0.8764500E-01
       -1   -1    0    0    0  501  0.00000000000E+00  0.00000000000E+00  0.75344445027E+03  0.75344445029E+03  0.50400001928E-02 0. -1.
        1   -1    0    0  501    0  0.00000000000E+00  0.00000000000E+00 -0.95274977770E+03  0.95274977771E+03  0.50400001928E-02 0.  1.
    10030    2    1    2    0    0  0.00000000000E+00  0.00000000000E+00 -0.19930532742E+03  0.17061942280E+04  0.16945135379E+04 0.  0.
        5    1    3    3  502    0 -0.36347354342E+03  0.75261436677E+03 -0.23946420712E+03  0.86942889205E+03  0.46999998093E+01 0.  1.
       -5    1    3    3    0  502  0.36347354342E+03 -0.75261436677E+03  0.40158879697E+02  0.83676533595E+03  0.46999998093E+01 0. -1.
</event>
<event>
 5   0  0.5021349E-04  0.1708880E+04  0.7818609E-02  0.8756316E-01
       -2   -1    0    0    0  501  0.00000000000E+00  0.00000000000E+00  0.53459202056E+03  0.53459202057E+03  0.25500000920E-02 0.  1.
        2   -1    0    0  501    0  0.00000000000E+00  0.00000000000E+00 -0.13656532320E+04  0.13656532320E+04  0.25500000920E-02 0. -1.
    10030    2    1    2    0    0  0.00000000000E+00  0.00000000000E+00 -0.83106121148E+03  0.19002452526E+04  0.17088795402E+04 0.  0.
        2    1    3    3  502    0  0.76916474819E+03  0.25635532119E+03 -0.11563540890E+03  0.81896520583E+03  0.25500000920E-02 0. -1.
       -2    1    3    3    0  502 -0.76916474819E+03 -0.25635532119E+03 -0.71542580259E+03  0.10812800468E+04  0.25500000920E-02 0.  1.
</event>
<event>
 5   0  0.2583422E-04  0.1693095E+04  0.7818609E-02  0.8765313E-01
       -1   -1    0    0    0  501  0.00000000000E+00  0.00000000000E+00  0.43322692574E+03  0.43322692577E+03  0.50400001928E-02 0.  1.
        1   -1    0    0  501    0  0.00000000000E+00  0.00000000000E+00 -0.16541963491E+04  0.16541963491E+04  0.50400001928E-02 0. -1.
    10030    2    1    2    0    0  0.00000000000E+00  0.00000000000E+00 -0.12209694234E+04  0.20874232749E+04  0.16930946801E+04 0.  0.
        3    1    3    3  502    0 -0.81242730882E+03  0.18785387527E+03 -0.43048419157E+03  0.93842626773E+03  0.10100000352E+00 0. -1.
       -3    1    3    3    0  502  0.81242730882E+03 -0.18785387527E+03 -0.79048523179E+03  0.11489970072E+04  0.10100000352E+00 0.  1.
</event>
<event>
 5   0  0.5299877E-04  0.1700257E+04  0.7818609E-02  0.8761218E-01
       -2   -1    0    0    0  501  0.00000000000E+00  0.00000000000E+00  0.37877097284E+03  0.37877097285E+03  0.25500000920E-02 0.  1.
        2   -1    0    0  501    0  0.00000000000E+00  0.00000000000E+00 -0.19080608605E+04  0.19080608605E+04  0.25500000920E-02 0. -1.
    10030    2    1    2    0    0  0.00000000000E+00  0.00000000000E+00 -0.15292898877E+04  0.22868318334E+04  0.17002565317E+04 0.  0.
        3    1    3    3  502    0  0.23699702076E+03 -0.12427796963E+03 -0.18499340524E+04  0.18691892922E+04  0.10100000352E+00 0. -1.
       -3    1    3    3    0  502 -0.23699702076E+03  0.12427796963E+03  0.32064416476E+03  0.41764254115E+03  0.10100000352E+00 0.  1.
</event>
<event>
 5   0  0.2595644E-04  0.1678154E+04  0.7818609E-02  0.8773923E-01
        1   -1    0    0  501    0  0.00000000000E+00  0.00000000000E+00  0.11837282735E+04  0.11837282735E+04  0.50400001928E-02 0. -1.
       -1   -1    0    0    0  501  0.00000000000E+00  0.00000000000E+00 -0.59477384332E+03  0.59477384334E+03  0.50400001928E-02 0.  1.
    10030    2    1    2    0    0  0.00000000000E+00  0.00000000000E+00  0.58895443015E+03  0.17785021168E+04  0.16781544800E+04 0.  0.
        2    1    3    3  502    0  0.76600295219E+02 -0.61398530956E+03 -0.30616192820E+03  0.69034823957E+03  0.25500000920E-02 0.  1.
       -2    1    3    3    0  502 -0.76600295219E+02  0.61398530956E+03  0.89511635835E+03  0.10881538773E+04  0.25500000920E-02 0. -1.
</event>
<event>
 5   0  0.2630135E-04  0.1658354E+04  0.7818609E-02  0.8785479E-01
       -1   -1    0    0    0  501  0.00000000000E+00  0.00000000000E+00  0.10554959082E+04  0.10554959082E+04  0.50400001928E-02 0.  1.
        1   -1    0    0  501    0  0.00000000000E+00  0.00000000000E+00 -0.65138567087E+03  0.65138567089E+03  0.50400001928E-02 0. -1.
    10030    2    1    2    0    0  0.00000000000E+00  0.00000000000E+00  0.40411023732E+03  0.17068815791E+04  0.16583544980E+04 0.  0.
        1    1    3    3  502    0  0.36550137670E+03 -0.32359516563E+03  0.89191407689E+03  0.10167673324E+04  0.50400001928E-02 0.  1.
       -1    1    3    3    0  502 -0.36550137670E+03  0.32359516563E+03 -0.48780383957E+03  0.69011424672E+03  0.50400001928E-02 0. -1.
</event>
<event>
 5   0  0.5021349E-04  0.1730591E+04  0.7818609E-02  0.8744107E-01
       -2   -1    0    0    0  501  0.00000000000E+00  0.00000000000E+00  0.10344270808E+04  0.10344270808E+04  0.25500000920E-02 0. -1.
        2   -1    0    0  501    0  0.00000000000E+00  0.00000000000E+00 -0.72381714631E+03  0.72381714632E+03  0.25500000920E-02 0.  1.
    10030    2    1    2    0    0  0.00000000000E+00  0.00000000000E+00  0.31060993444E+03  0.17582442271E+04  0.17305907173E+04 0.  0.
        2    1    3    3  502    0 -0.64386481594E+03  0.55109729998E+03 -0.22029026989E+02  0.84779444047E+03  0.25500000920E-02 0.  1.
       -2    1    3    3    0  502  0.64386481594E+03 -0.55109729998E+03  0.33263896143E+03  0.91044978661E+03  0.25500000920E-02 0. -1.
</event>
<event>
 5   0  0.2583422E-04  0.1700360E+04  0.7818609E-02  0.8761159E-01
       -1   -1    0    0    0  501  0.00000000000E+00  0.00000000000E+00  0.11764147822E+04  0.11764147822E+04  0.50400001928E-02 0.  1.
        1   -1    0    0  501    0  0.00000000000E+00  0.00000000000E+00 -0.61441419103E+03  0.61441419106E+03  0.50400001928E-02 0. -1.
    10030    2    1    2    0    0  0.00000000000E+00  0.00000000000E+00  0.56200059112E+03  0.17908289732E+04  0.17003598875E+04 0.  0.
        3    1    3    3  502    0 -0.12008049757E+02 -0.13784649626E+03  0.11644762150E+04  0.11726682034E+04  0.10100000352E+00 0.  1.
       -3    1    3    3    0  502  0.12008049757E+02  0.13784649626E+03 -0.60247562387E+03  0.61816076982E+03  0.10100000352E+00 0. -1.
</event>
<event>
 5   0  0.5198430E-04  0.1774859E+04  0.7818609E-02  0.8719785E-01
        2   -1    0    0  501    0  0.00000000000E+00  0.00000000000E+00  0.11565063361E+04  0.11565063361E+04  0.25500000920E-02 0.  1.
       -2   -1    0    0    0  501  0.00000000000E+00  0.00000000000E+00 -0.68095711859E+03  0.68095711860E+03  0.25500000920E-02 0. -1.
    10030    2    1    2    0    0  0.00000000000E+00  0.00000000000E+00  0.47554921752E+03  0.18374634547E+04  0.17748591181E+04 0.  0.
        4    1    3    3  502    0  0.50916889466E+03  0.96355694234E+02 -0.50804749541E+03  0.72570741597E+03  0.12699999809E+01 0. -1.
       -4    1    3    3    0  502 -0.50916889466E+03 -0.96355694234E+02  0.98359671293E+03  0.11117560387E+04  0.12699999809E+01 0.  1.
</event>
<event>
 5   0  0.5299877E-04  0.1723144E+04  0.7818609E-02  0.8748273E-01
       -2   -1    0    0    0  501  0.00000000000E+00  0.00000000000E+00  0.80371938622E+03  0.80371938622E+03  0.25500000920E-02 0.  1.
        2   -1    0    0  501    0  0.00000000000E+00  0.00000000000E+00 -0.92358889627E+03  0.92358889627E+03  0.25500000920E-02 0. -1.
    10030    2    1    2    0    0  0.00000000000E+00  0.00000000000E+00 -0.11986951005E+03  0.17273082825E+04  0.17231439880E+04 0.  0.
        3    1    3    3  502    0  0.33790491593E+02  0.47055580129E+03 -0.78260817346E+03  0.91380529809E+03  0.10100000352E+00 0. -1.
       -3    1    3    3    0  502 -0.33790491593E+02 -0.47055580129E+03  0.66273866341E+03  0.81350298440E+03  0.10100000352E+00 0.  1.
</event>
<event>
 5   0  0.5342255E-04  0.1696064E+04  0.7818609E-02  0.8763613E-01
        2   -1    0    0  501    0  0.00000000000E+00  0.00000000000E+00  0.18579768314E+04  0.18579768314E+04  0.25500000920E-02 0. -1.
       -2   -1    0    0    0  501  0.00000000000E+00  0.00000000000E+00 -0.38706515048E+03  0.38706515049E+03  0.25500000920E-02 0.  1.
    10030    2    1    2    0    0  0.00000000000E+00  0.00000000000E+00  0.14709116809E+04  0.22450419819E+04  0.16960637745E+04 0.  0.
        5    1    3    3  502    0  0.40284041769E+03  0.62024934702E+03  0.12846566663E+04  0.14823476295E+04  0.46999998093E+01 0. -1.
       -5    1    3    3    0  502 -0.40284041769E+03 -0.62024934702E+03  0.18625501464E+03  0.76269435233E+03  0.46999998093E+01 0.  1.
</event>
<event>
 5   0  0.2561518E-04  0.1665382E+04  0.7818609E-02  0.8781358E-01
        1   -1    0    0  501    0  0.00000000000E+00  0.00000000000E+00  0.12352211728E+04  0.12352211728E+04  0.50400001928E-02 0. -1.
       -1   -1    0    0    0  501  0.00000000000E+00  0.00000000000E+00 -0.56133646006E+03  0.56133646008E+03  0.50400001928E-02 0.  1.
    10030    2    1    2    0    0  0.00000000000E+00  0.00000000000E+00  0.67388471273E+03  0.17965576329E+04  0.16653824552E+04 0.  0.
        4    1    3    3  502    0  0.62791798386E+03  0.27700944088E+03 -0.17174787157E+03  0.70747026021E+03  0.12699999809E+01 0.  1.
       -4    1    3    3    0  502 -0.62791798386E+03 -0.27700944088E+03  0.84563258429E+03  0.10890873727E+04  0.12699999809E+01 0. -1.
</event>
<event>
 5   0  0.2583422E-04  0.1903649E+04  0.7818609E-02  0.8653042E-01
       -1   -1    0    0    0  501  0.00000000000E+00  0.00000000000E+00  0.77436346164E+03  0.77436346166E+03  0.50400001928E-02 0.  1.
        1   -1    0    0  501    0  0.00000000000E+00  0.00000000000E+00 -0.11699543457E+04  0.11699543457E+04  0.50400001928E-02 0. -1.
    10030    2    1    2    0    0  0.00000000000E+00  0.00000000000E+00 -0.39559088404E+03  0.19443178073E+04  0.19036490192E+04 0.  0.
        3    1    3    3  502    0  0.48579554822E+03  0.81796425247E+03 -0.22855619228E+03  0.97841748565E+03  0.10100000352E+00 0. -1.
       -3    1    3    3    0  502 -0.48579554822E+03 -0.81796425247E+03 -0.16703469176E+03  0.96590032169E+03  0.10100000352E+00 0.  1.
</event>
<event>
 5   0  0.2785059E-04  0.1713102E+04  0.7818609E-02  0.8753927E-01
        1   -1    0    0  501    0  0.00000000000E+00  0.00000000000E+00  0.14799369640E+04  0.14799369640E+04  0.50400001928E-02 0.  1.
       -1   -1    0    0    0  501  0.00000000000E+00  0.00000000000E+00 -0.49575086561E+03  0.49575086563E+03  0.50400001928E-02 0. -1.
    10030    2    1    2    0    0  0.00000000000E+00  0.00000000000E+00  0.98418609835E+03  0.19756878296E+04  0.17131024849E+04 0.  0.
        5    1    3    3  502    0 -0.80314410243E+03  0.12450483804E+03  0.80393985606E+03  0.11431899606E+04  0.46999998093E+01 0.  1.
       -5    1    3    3    0  502  0.80314410243E+03 -0.12450483804E+03  0.18024624229E+03  0.83249786896E+03  0.46999998093E+01 0. -1.
</event>
<event>
 5   0  0.5021349E-04  0.1702458E+04  0.7818609E-02  0.8759964E-01
       -2   -1    0    0    0  501  0.00000000000E+00  0.00000000000E+00  0.27853538144E+03  0.27853538145E+03  0.25500000920E-02 0.  1.
        2   -1    0    0  501    0  0.00000000000E+00  0.00000000000E+00 -0.26014305915E+04  0.26014305915E+04  0.25500000920E-02 0. -1.
    10030    2    1    2    0    0  0.00000000000E+00  0.00000000000E+00 -0.23228952100E+04  0.28799659729E+04  0.17024575908E+04 0.  0.
        2    1    3    3  502    0  0.37925970123E+03  0.46598667995E+03 -0.14138144644E+03  0.61722785118E+03  0.25500000920E-02 0.  1.
       -2    1    3    3    0  502 -0.37925970123E+03 -0.46598667995E+03 -0.21815137636E+04  0.22627381218E+04  0.25500000920E-02 0. -1.
</event>
<event>
 5   0  0.5198430E-04  0.1708199E+04  0.7818609E-02  0.8756702E-01
       -2   -1    0    0    0  501  0.00000000000E+00  0.00000000000E+00  0.58143343370E+03  0.58143343371E+03  0.25500000920E-02 0.  1.
        2   -1    0    0  501    0  0.00000000000E+00  0.00000000000E+00 -0.12546335097E+04  0.12546335097E+04  0.25500000920E-02 0. -1.
    10030    2    1    2    0    0  0.00000000000E+00  0.00000000000E+00 -0.67320007596E+03  0.18360669434E+04  0.17081988989E+04 0.  0.
        4    1    3    3  502    0 -0.32422782900E+03  0.44279348192E+03 -0.10400307482E+04  0.11759486905E+04  0.12699999809E+01 0. -1.
       -4    1    3    3    0  502  0.32422782900E+03 -0.44279348192E+03  0.36683067222E+03  0.66011825282E+03  0.12699999809E+01 0.  1.
</event>
<event>
 5   0  0.5342255E-04  0.1709879E+04  0.7818609E-02  0.8755750E-01
       -2   -1    0    0    0  501  0.00000000000E+00  0.00000000000E+00  0.15939557344E+04  0.15939557344E+04  0.25500000920E-02 0.  1.
        2   -1    0    0  501    0  0.00000000000E+00  0.00000000000E+00 -0.45855804381E+03  0.45855804382E+03  0.25500000920E-02 0. -1.
    10030    2    1    2    0    0  0.00000000000E+00  0.00000000000E+00  0.11353976906E+04  0.20525137783E+04  0.17098786197E+04 0.  0.
        5    1    3    3  502    0 -0.50407115851E+03  0.25705415749E+03 -0.20161123496E+03  0.60069439217E+03  0.46999998093E+01 0. -1.
       -5    1    3    3    0  502  0.50407115851E+03 -0.25705415749E+03  0.13370089256E+04  0.14518193861E+04  0.46999998093E+01 0.  1.
</event>
<event>
 5   0  0.5198430E-04  0.1702189E+04  0.7818609E-02  0.8760117E-01
       -2   -1    0    0    0  501  0.00000000000E+00  0.00000000000E+00  0.35939951571E+03  0.35939951572E+03  0.25500000920E-02 0. -1.
        2   -1    0    0  501    0  0.00000000000E+00  0.00000000000E+00 -0.20154775505E+04  0.20154775505E+04  0.25500000920E-02 0.  1.
    10030    2    1    2    0    0  0.00000000000E+00  0.00000000000E+00 -0.16560780348E+04  0.23748770662E+04  0.17021887740E+04 0.  0.
        4    1    3    3  502    0 -0.23719562253E+02  0.70822369645E+03 -0.17034834712E+03  0.72880971050E+03  0.12699999809E+01 0. -1.
       -4    1    3    3    0  502  0.23719562253E+02 -0.70822369645E+03 -0.14857296877E+04  0.16460673557E+04  0.12699999809E+01 0.  1.
</event>
<event>
 5   0  0.5021349E-04  0.1693055E+04  0.7818609E-02  0.8765335E-01
        2   -1    0    0  501    0  0.00000000000E+00  0.00000000000E+00  0.18850796041E+04  0.18850796041E+04  0.25500000920E-02 0. -1.
       -2   -1    0    0    0  501  0.00000000000E+00  0.00000000000E+00 -0.38014775014E+03  0.38014775015E+03  0.25500000920E-02 0.  1.
    10030    2    1    2    0    0  0.00000000000E+00  0.00000000000E+00  0.15049318540E+04  0.22652273543E+04  0.16930549552E+04 0.  0.
        2    1    3    3  502    0 -0.77505778104E+03 -0.32812390659E+03  0.87383606735E+03  0.12132474334E+04  0.25500000920E-02 0.  1.
       -2    1    3    3    0  502  0.77505778104E+03  0.32812390659E+03  0.63109578666E+03  0.10519799209E+04  0.25500000920E-02 0. -1.
</event>
<event>
 5   0  0.5342255E-04  0.1705288E+04  0.7818609E-02  0.8758354E-01
       -2   -1    0    0    0  501  0.00000000000E+00  0.00000000000E+00  0.14455276758E+04  0.14455276758E+04  0.25500000920E-02 0. -1.
        2   -1    0    0  501    0  0.00000000000E+00  0.00000000000E+00 -0.50293153146E+03  0.50293153147E+03  0.25500000920E-02 0.  1.
    10030    2    1    2    0    0  0.00000000000E+00  0.00000000000E+00  0.94259614435E+03  0.19484592073E+04  0.17052875978E+04 0.  0.
        5    1    3    3  502    0  0.83333935328E+03  0.16947063928E+03  0.54177503591E+03  0.10083238839E+04  0.46999998093E+01 0.  1.
       -5    1    3    3    0  502 -0.83333935328E+03 -0.16947063928E+03  0.40082110844E+03  0.94013532339E+03  0.46999998093E+01 0. -1.
</event>
<event>
 5   0  0.5342255E-04  0.1819624E+04  0.7818609E-02  0.8695933E-01
        2   -1    0    0  501    0  0.00000000000E+00  0.00000000000E+00  0.59067873364E+03  0.59067873364E+03  0.25500000920E-02 0. -1.
       -2   -1    0    0    0  501  0.00000000000E+00  0.00000000000E+00 -0.14013665581E+04  0.14013665581E+04  0.25500000920E-02 0.  1.
    10030    2    1    2    0    0  0.00000000000E+00  0.00000000000E+00 -0.81068782442E+03  0.19920452917E+04  0.18196235038E+04 0.  0.
        5    1    3    3  502    0 -0.33580630603E+03 -0.82881816931E+03 -0.22205826734E+03  0.92143225310E+03  0.46999998093E+01 0. -1.
       -5    1    3    3    0  502  0.33580630603E+03  0.82881816931E+03 -0.58862955708E+03  0.10706130386E+04  0.46999998093E+01 0.  1.
</event>
<event>
 5   0  0.2595644E-04  0.1695229E+04  0.7818609E-02  0.8764090E-01
       -1   -1    0    0    0  501  0.00000000000E+00  0.00000000000E+00  0.82166357360E+03  0.82166357361E+03  0.50400001928E-02 0.  1.
        1   -1    0    0  501    0  0.00000000000E+00  0.00000000000E+00 -0.87438482800E+03  0.87438482801E+03  0.50400001928E-02 0. -1.
    10030    2    1    2    0    0  0.00000000000E+00  0.00000000000E+00 -0.52721254401E+02  0.16960484016E+04  0.16952287899E+04 0.  0.
        2    1    3    3  502    0  0.28869183553E+03 -0.71350394611E+03 -0.38152423870E+03  0.85906437579E+03  0.25500000920E-02 0.  1.
       -2    1    3    3    0  502 -0.28869183553E+03  0.71350394611E+03  0.32880298430E+03  0.83698402584E+03  0.25500000920E-02 0. -1.
</event>
<event>
 5   0  0.2595644E-04  0.1706495E+04  0.7818609E-02  0.8757669E-01
       -1   -1    0    0    0  501  0.00000000000E+00  0.00000000000E+00  0.40002608112E+03  0.40002608116E+03  0.50400001928E-02 0.  1.
        1   -1    0    0  501    0  0.00000000000E+00  0.00000000000E+00 -0.18199597703E+04  0.18199597703E+04  0.50400001928E-02 0. -1.
    10030    2    1    2    0    0  0.00000000000E+00  0.00000000000E+00 -0.14199336892E+04  0.22199858514E+04  0.17064950920E+04 0.  0.
        2    1    3    3  502    0 -0.77617866297E+03 -0.16216424876E+03 -0.11198667597E+04  0.13721705870E+04  0.25500000920E-02 0.  1.
       -2    1    3    3    0  502  0.77617866297E+03  0.16216424876E+03 -0.30006692948E+03  0.84781526443E+03  0.25500000920E-02 0. -1.
</event>
<event>
 5   0  0.1910750E-04  0.1736503E+04  0.7818609E-02  0.8740815E-01
        4   -1    0    0  501    0  0.00000000000E+00  0.00000000000E+00  0.96752251121E+03  0.96752334473E+03  0.12699999809E+01 0. -1.
       -4   -1    0    0    0  501  0.00000000000E+00  0.00000000000E+00 -0.77916427960E+03  0.77916531462E+03  0.12699999809E+01 0.  1.
    10030    2    1    2    0    0  0.00000000000E+00  0.00000000000E+00  0.18835823161E+03  0.17466886593E+04  0.17365029367E+04 0.  0.
        5    1    3    3  502    0  0.34155453827E+03  0.49642146806E+03  0.72294149969E+03  0.94114838284E+03  0.46999998093E+01 0. -1.
       -5    1    3    3    0  502 -0.34155453827E+03 -0.49642146806E+03 -0.53458326808E+03  0.80554027650E+03  0.46999998093E+01 0.  1.
</event>
<event>
 5   0  0.2785059E-04  0.1666925E+04  0.7818609E-02  0.8780456E-01
        1   -1    0    0  501    0  0.00000000000E+00  0.00000000000E+00  0.63987229565E+03  0.63987229567E+03  0.50400001928E-02 0.  1.
       -1   -1    0    0    0  501  0.00000000000E+00  0.00000000000E+00 -0.10856223017E+04  0.10856223017E+04  0.50400001928E-02 0. -1.
    10030    2    1    2    0    0  0.00000000000E+00  0.00000000000E+00 -0.44575000601E+03  0.17254945973E+04  0.16669248746E+04 0.  0.
        5    1    3    3  502    0  0.45383324663E+03  0.29744162602E+02  0.50008326280E+03  0.67598423849E+03  0.46999998093E+01 0.  1.
       -5    1    3    3    0  502 -0.45383324663E+03 -0.29744162602E+02 -0.94583326881E+03  0.10495103589E+04  0.46999998093E+01 0. -1.
</event>
<event>
 5   0  0.5299877E-04  0.1695642E+04  0.7818609E-02  0.8763854E-01
        2   -1    0    0  501    0  0.00000000000E+00  0.00000000000E+00  0.95120434390E+03  0.95120434391E+03  0.25500000920E-02 0. -1.
       -2   -1    0    0    0  501  0.00000000000E+00  0.00000000000E+00 -0.75567433861E+03  0.75567433861E+03  0.25500000920E-02 0.  1.
    10030    2    1    2    0    0  0.00000000000E+00  0.00000000000E+00  0.19553000529E+03  0.17068786825E+04  0.16956423131E+04 0.  0.
        3    1    3    3  502    0 -0.45369327173E+03 -0.71533594199E+03  0.62067227563E+02  0.84935001363E+03  0.10100000352E+00 0.  1.
       -3    1    3    3    0  502  0.45369327173E+03  0.71533594199E+03  0.13346277773E+03  0.85752866889E+03  0.10100000352E+00 0. -1.
</event>
<event>
 5   0  0.2630135E-04  0.1683867E+04  0.7818609E-02  0.8770619E-01
        1   -1    0    0  501    0  0.00000000000E+00  0.00000000000E+00  0.55790790685E+03  0.55790790688E+03  0.50400001928E-02 0.  1.
       -1   -1    0    0    0  501  0.00000000000E+00  0.00000000000E+00 -0.12705539564E+04  0.12705539564E+04  0.50400001928E-02 0. -1.
    10030    2    1    2    0    0  0.00000000000E+00  0.00000000000E+00 -0.71264604953E+03  0.18284618633E+04  0.16838670950E+04 0.  0.
        1    1    3    3  502    0 -0.28740360025E+03 -0.34143226501E+02  0.50219182537E+03  0.57962334222E+03  0.50400001928E-02 0.  1.
       -1    1    3    3    0  502  0.28740360025E+03  0.34143226501E+02 -0.12148378749E+04  0.12488385211E+04  0.50400001928E-02 0. -1.
</event>
<event>
 5   0  0.2595644E-04  0.1615907E+04  0.7818609E-02  0.8810835E-01
        1   -1    0    0  501    0  0.00000000000E+00  0.00000000000E+00  0.12576374135E+04  0.12576374135E+04  0.50400001928E-02 0.  1.
       -1   -1    0    0    0  501  0.00000000000E+00  0.00000000000E+00 -0.51905967522E+03  0.51905967525E+03  0.50400001928E-02 0. -1.
    10030    2    1    2    0    0  0.00000000000E+00  0.00000000000E+00  0.73857773825E+03  0.17766970887E+04  0.16159070115E+04 0.  0.
        2    1    3    3  502    0  0.11800964903E+03 -0.11754098011E+03 -0.49997826834E+03  0.52699186719E+03  0.25500000920E-02 0. -1.
       -2    1    3    3    0  502 -0.11800964903E+03  0.11754098011E+03  0.12385560066E+04  0.12497052215E+04  0.25500000920E-02 0.  1.
</event>
<event>
 5   0  0.2785059E-04  0.1699998E+04  0.7818609E-02  0.8761366E-01
       -1   -1    0    0    0  501  0.00000000000E+00  0.00000000000E+00  0.42108279947E+03  0.42108279950E+03  0.50400001928E-02 0. -1.
        1   -1    0    0  501    0  0.00000000000E+00  0.00000000000E+00 -0.17158097906E+04  0.17158097907E+04  0.50400001928E-02 0.  1.
    10030    2    1    2    0    0  0.00000000000E+00  0.00000000000E+00 -0.12947269912E+04  0.21368925902E+04  0.16999976353E+04 0.  0.
        5    1    3    3  502    0  0.79577081793E+03 -0.29448839900E+03 -0.71022955595E+03  0.11065363636E+04  0.46999998093E+01 0.  1.
       -5    1    3    3    0  502 -0.79577081793E+03  0.29448839900E+03 -0.58449743523E+03  0.10303562266E+04  0.46999998093E+01 0. -1.
</event>
<event>
 5   0  0.5021349E-04  0.1709985E+04  0.7818609E-02  0.8755690E-01
       -2   -1    0    0    0  501  0.00000000000E+00  0.00000000000E+00  0.69487168961E+03  0.69487168962E+03  0.25500000920E-02 0. -1.
        2   -1    0    0  501    0  0.00000000000E+00  0.00000000000E+00 -0.10520109033E+04  0.10520109033E+04  0.25500000920E-02 0.  1.
    10030    2    1    2    0    0  0.00000000000E+00  0.00000000000E+00 -0.35713921370E+03  0.17468825929E+04  0.17099854899E+04 0.  0.
        2    1    3    3  502    0 -0.22649658245E+03  0.49598832337E+03 -0.85134445329E+03  0.10109859034E+04  0.25500000920E-02 0.  1.
       -2    1    3    3    0  502  0.22649658245E+03 -0.49598832337E+03  0.49420523959E+03  0.73589668950E+03  0.25500000920E-02 0. -1.
</event>
<event>
 5   0  0.5198430E-04  0.1383040E+04  0.7818609E-02  0.8966187E-01
       -2   -1    0    0    0  501  0.00000000000E+00  0.00000000000E+00  0.77653698147E+03  0.77653698148E+03  0.25500000920E-02 0. -1.
        2   -1    0    0  501    0  0.00000000000E+00  0.00000000000E+00 -0.61581084987E+03  0.61581084987E+03  0.25500000920E-02 0.  1.
    10030    2    1    2    0    0  0.00000000000E+00  0.00000000000E+00  0.16072613161E+03  0.13923478313E+04  0.13830399828E+04 0.  0.
        4    1    3    3  502    0 -0.81025221890E+02  0.13119631296E+03  0.75900715848E+03  0.77451342057E+03  0.12699999809E+01 0. -1.
       -4    1    3    3    0  502  0.81025221890E+02 -0.13119631296E+03 -0.59828102688E+03  0.61783441078E+03  0.12699999809E+01 0.  1.
</event>
<event>
 5   0  0.2583422E-04  0.1714981E+04  0.7818609E-02  0.8752866E-01
       -1   -1    0    0    0  501  0.00000000000E+00  0.00000000000E+00  0.91310080114E+03  0.91310080116E+03  0.50400001928E-02 0.  1.
        1   -1    0    0  501    0  0.00000000000E+00  0.00000000000E+00 -0.80526659811E+03  0.80526659813E+03  0.50400001928E-02 0. -1.
    10030    2    1    2    0    0  0.00000000000E+00  0.00000000000E+00  0.10783420303E+03  0.17183673993E+04  0.17149805549E+04 0.  0.
        3    1    3    3  502    0 -0.20299976131E+03 -0.40794585760E+03 -0.67392011179E+03  0.81350909835E+03  0.10100000352E+00 0. -1.
       -3    1    3    3    0  502  0.20299976131E+03  0.40794585760E+03  0.78175431482E+03  0.90485830093E+03  0.10100000352E+00 0.  1.
</event>
<event>
 5   0  0.5021349E-04  0.1717925E+04  0.7818609E-02  0.8751207E-01
       -2   -1    0    0    0  501  0.00000000000E+00  0.00000000000E+00  0.72771281069E+03  0.72771281070E+03  0.25500000920E-02 0. -1.
        2   -1    0    0  501    0  0.00000000000E+00  0.00000000000E+00 -0.10138841398E+04  0.10138841398E+04  0.25500000920E-02 0.  1.
    10030    2    1    2    0    0  0.00000000000E+00  0.00000000000E+00 -0.28617132910E+03  0.17415969505E+04  0.17179248844E+04 0.  0.
        2    1    3    3  502    0  0.47869532452E+03 -0.17240235619E+03 -0.84468014999E+03  0.98608130594E+03  0.25500000920E-02 0.  1.
       -2    1    3    3    0  502 -0.47869532452E+03  0.17240235619E+03  0.55850882090E+03  0.75551564455E+03  0.25500000920E-02 0. -1.
</event>
<event>
 5   0  0.2785059E-04  0.1703443E+04  0.7818609E-02  0.8759403E-01
        1   -1    0    0  501    0  0.00000000000E+00  0.00000000000E+00  0.38165321046E+03  0.38165321050E+03  0.50400001928E-02 0.  1.
       -1   -1    0    0    0  501  0.00000000000E+00  0.00000000000E+00 -0.19007551149E+04  0.19007551149E+04  0.50400001928E-02 0. -1.
    10030    2    1    2    0    0  0.00000000000E+00  0.00000000000E+00 -0.15191019044E+04  0.22824083254E+04  0.17034427398E+04 0.  0.
        5    1    3    3  502    0  0.74874597318E+03 -0.35201203333E+03 -0.10304393630E+04  0.13214992905E+04  0.46999998093E+01 0. -1.
       -5    1    3    3    0  502 -0.74874597318E+03  0.35201203333E+03 -0.48866254144E+03  0.96090903491E+03  0.46999998093E+01 0.  1.
</event>
<event>
 5   0  0.1910750E-04  0.1742074E+04  0.7818609E-02  0.8737725E-01
        3   -1    0    0  501    0  0.00000000000E+00  0.00000000000E+00  0.16273639656E+04  0.16273639688E+04  0.10100000352E+00 0. -1.
       -3   -1    0    0    0  501  0.00000000000E+00  0.00000000000E+00 -0.46621745157E+03  0.46621746251E+03  0.10100000352E+00 0.  1.
    10030    2    1    2    0    0  0.00000000000E+00  0.00000000000E+00  0.11611465141E+04  0.20935814313E+04  0.17420740462E+04 0.  0.
        3    1    3    3  502    0 -0.49316227730E+03 -0.39510317280E+02 -0.28097083531E+03  0.56895932844E+03  0.10100000352E+00 0.  1.
       -3    1    3    3    0  502  0.49316227730E+03  0.39510317280E+02  0.14421173494E+04  0.15246221028E+04  0.10100000352E+00 0. -1.
</event>
<event>
 5   0  0.2561518E-04  0.1694894E+04  0.7818609E-02  0.8764282E-01
       -1   -1    0    0    0  501  0.00000000000E+00  0.00000000000E+00  0.51686279969E+03  0.51686279971E+03  0.50400001928E-02 0.  1.
        1   -1    0    0  501    0  0.00000000000E+00  0.00000000000E+00 -0.13894715825E+04  0.13894715825E+04  0.50400001928E-02 0. -1.
    10030    2    1    2    0    0  0.00000000000E+00  0.00000000000E+00 -0.87260878281E+03  0.19063343822E+04  0.16948937102E+04 0.  0.
        4    1    3    3  502    0 -0.77054961655E+03  0.30536080261E+03 -0.23772081800E+03  0.86226720426E+03  0.12699999809E+01 0.  1.
       -4    1    3    3    0  502  0.77054961655E+03 -0.30536080261E+03 -0.63488796482E+03  0.10440671780E+04  0.12699999809E+01 0. -1.
</event>
<event>
 5   0  0.2595644E-04  0.1696608E+04  0.7818609E-02  0.8763301E-01
       -1   -1    0    0    0  501  0.00000000000E+00  0.00000000000E+00  0.12984238069E+04  0.12984238069E+04  0.50400001928E-02 0. -1.
        1   -1    0    0  501    0  0.00000000000E+00  0.00000000000E+00 -0.55422576529E+03  0.55422576531E+03  0.50400001928E-02 0.  1.
    10030    2    1    2    0    0  0.00000000000E+00  0.00000000000E+00  0.74419804157E+03  0.18526495722E+04  0.16966082966E+04 0.  0.
        2    1    3    3  502    0  0.66858385734E+03  0.77684821800E+02  0.93590020366E+03  0.11528002850E+04  0.25500000920E-02 0. -1.
       -2    1    3    3    0  502 -0.66858385734E+03 -0.77684821800E+02 -0.19170216209E+03  0.69984928720E+03  0.25500000920E-02 0.  1.
</event>
<event>
 5   0  0.2785059E-04  0.1692528E+04  0.7818609E-02  0.8765637E-01
       -1   -1    0    0    0  501  0.00000000000E+00  0.00000000000E+00  0.87960457791E+03  0.87960457792E+03  0.50400001928E-02 0.  1.
        1   -1    0    0  501    0  0.00000000000E+00  0.00000000000E+00 -0.81418718180E+03  0.81418718181E+03  0.50400001928E-02 0. -1.
    10030    2    1    2    0    0  0.00000000000E+00  0.00000000000E+00  0.65417396113E+02  0.16937917597E+04  0.16925280174E+04 0.  0.
        5    1    3    3  502    0  0.17469494224E+03  0.55295499380E+03  0.64949926470E+03  0.87071748166E+03  0.46999998093E+01 0.  1.
       -5    1    3    3    0  502 -0.17469494224E+03 -0.55295499380E+03 -0.58408186859E+03  0.82307427808E+03  0.46999998093E+01 0. -1.
</event>
<event>
 5   0  0.2630135E-04  0.1707264E+04  0.7818609E-02  0.8757232E-01
       -1   -1    0    0    0  501  0.00000000000E+00  0.00000000000E+00  0.75734016664E+03  0.75734016665E+03  0.50400001928E-02 0. -1.
        1   -1    0    0  501    0  0.00000000000E+00  0.00000000000E+00 -0.96216725141E+03  0.96216725143E+03  0.50400001928E-02 0.  1.
    10030    2    1    2    0    0  0.00000000000E+00  0.00000000000E+00 -0.20482708478E+03  0.17195074181E+04  0.17072643692E+04 0.  0.
        1    1    3    3  502    0 -0.81344893940E+03 -0.15967946052E+03 -0.30756814829E+03  0.88419164947E+03  0.50400001928E-02 0.  1.
       -1    1    3    3    0  502  0.81344893940E+03  0.15967946052E+03  0.10274106352E+03  0.83531576861E+03  0.50400001928E-02 0. -1.
</event>
<event>
 5   0  0.5299877E-04  0.1717893E+04  0.7818609E-02  0.8751224E-01
        2   -1    0    0  501    0  0.00000000000E+00  0.00000000000E+00  0.12145716467E+04  0.12145716467E+04  0.25500000920E-02 0. -1.
       -2   -1    0    0    0  501  0.00000000000E+00  0.00000000000E+00 -0.60744828439E+03  0.60744828440E+03  0.25500000920E-02 0.  1.
    10030    2    1    2    0    0  0.00000000000E+00  0.00000000000E+00  0.60712336226E+03  0.18220199311E+04  0.17178934345E+04 0.  0.
        3    1    3    3  502    0  0.17602465920E+03  0.12554617377E+03 -0.57811512817E+03  0.61722251580E+03  0.10100000352E+00 0.  1.
       -3    1    3    3    0  502 -0.17602465920E+03 -0.12554617377E+03  0.11852384904E+04  0.12047974152E+04  0.10100000352E+00 0. -1.
</event>
<event>
 5   0  0.5299877E-04  0.1611242E+04  0.7818609E-02  0.8813671E-01
       -2   -1    0    0    0  501  0.00000000000E+00  0.00000000000E+00  0.42344011226E+03  0.42344011227E+03  0.25500000920E-02 0. -1.
        2   -1    0    0  501    0  0.00000000000E+00  0.00000000000E+00 -0.15327439862E+04  0.15327439862E+04  0.25500000920E-02 0.  1.
    10030    2    1    2    0    0  0.00000000000E+00  0.00000000000E+00 -0.11093038739E+04  0.19561840984E+04  0.16112421116E+04 0.  0.
        3    1    3    3  502    0  0.59591077124E+03 -0.64983111667E+02  0.98806227190E+02  0.60753200147E+03  0.10100000352E+00 0. -1.
       -3    1    3    3    0  502 -0.59591077124E+03  0.64983111667E+02 -0.12081101011E+04  0.13486520970E+04  0.10100000352E+00 0.  1.
</event>
<event>
 5   0  0.2785059E-04  0.1681303E+04  0.7818609E-02  0.8772100E-01
        1   -1    0    0  501    0  0.00000000000E+00  0.00000000000E+00  0.19247991331E+04  0.19247991331E+04  0.50400001928E-02 0. -1.
       -1   -1    0    0    0  501  0.00000000000E+00  0.00000000000E+00 -0.36715251852E+03  0.36715251855E+03  0.50400001928E-02 0.  1.
    10030    2    1    2    0    0  0.00000000000E+00  0.00000000000E+00  0.15576466146E+04  0.22919516516E+04  0.16813028869E+04 0.  0.
        5    1    3    3  502    0  0.33495847280E+03 -0.21884814332E+03 -0.22900554441E+03  0.46103938845E+03  0.46999998093E+01 0.  1.
       -5    1    3    3    0  502 -0.33495847280E+03  0.21884814332E+03  0.17866521590E+04  0.18309122632E+04  0.46999998093E+01 0. -1.
</event>
<event>
 5   0  0.2583422E-04  0.1700444E+04  0.7818609E-02  0.8761111E-01
        1   -1    0    0  501    0  0.00000000000E+00  0.00000000000E+00  0.47544504152E+03  0.47544504155E+03  0.50400001928E-02 0. -1.
       -1   -1    0    0    0  501  0.00000000000E+00  0.00000000000E+00 -0.15204219326E+04  0.15204219326E+04  0.50400001928E-02 0.  1.
    10030    2    1    2    0    0  0.00000000000E+00  0.00000000000E+00 -0.10449768910E+04  0.19958669741E+04  0.17004435526E+04 0.  0.
        3    1    3    3  502    0  0.62253044737E+03 -0.53750612003E+03 -0.26960390792E+03  0.86553062589E+03  0.10100000352E+00 0.  1.
       -3    1    3    3    0  502 -0.62253044737E+03  0.53750612003E+03 -0.77537298312E+03  0.11303363482E+04  0.10100000352E+00 0. -1.
</event>
<event>
 5   0  0.2583422E-04  0.1706621E+04  0.7818609E-02  0.8757597E-01
       -1   -1    0    0    0  501  0.00000000000E+00  0.00000000000E+00  0.47937619753E+03  0.47937619756E+03  0.50400001928E-02 0. -1.
        1   -1    0    0  501    0  0.00000000000E+00  0.00000000000E+00 -0.15189299147E+04  0.15189299147E+04  0.50400001928E-02 0.  1.
    10030    2    1    2    0    0  0.00000000000E+00  0.00000000000E+00 -0.10395537171E+04  0.19983061122E+04  0.17066210439E+04 0.  0.
        3    1    3    3  502    0 -0.17360486640E+03 -0.13383340085E+03  0.44584643613E+03  0.49681896465E+03  0.10100000352E+00 0. -1.
       -3    1    3    3    0  502  0.17360486640E+03  0.13383340085E+03 -0.14854001533E+04  0.15014871476E+04  0.10100000352E+00 0.  1.
</event>
<event>
 5   0  0.5021349E-04  0.1674583E+04  0.7818609E-02  0.8775995E-01
       -2   -1    0    0    0  501  0.00000000000E+00  0.00000000000E+00  0.59587412936E+03  0.59587412937E+03  0.25500000920E-02 0. -1.
        2   -1    0    0  501    0  0.00000000000E+00  0.00000000000E+00 -0.11765191038E+04  0.11765191038E+04  0.25500000920E-02 0.  1.
    10030    2    1    2    0    0  0.00000000000E+00  0.00000000000E+00 -0.58064497448E+03  0.17723932332E+04  0.16745832875E+04 0.  0.
        2    1    3    3  502    0  0.56254592191E+03 -0.31510537366E+03 -0.85566324238E+03  0.10714051032E+04  0.25500000920E-02 0.  1.
       -2    1    3    3    0  502 -0.56254592191E+03  0.31510537366E+03  0.27501826789E+03  0.70098813003E+03  0.25500000920E-02 0. -1.
</event>
<event>
 5   0  0.5021349E-04  0.1734972E+04  0.7818609E-02  0.8741666E-01
       -2   -1    0    0    0  501  0.00000000000E+00  0.00000000000E+00  0.73515665320E+03  0.73515665320E+03  0.25500000920E-02 0. -1.
        2   -1    0    0  501    0  0.00000000000E+00  0.00000000000E+00 -0.10236345605E+04  0.10236345605E+04  0.25500000920E-02 0.  1.
    10030    2    1    2    0    0  0.00000000000E+00  0.00000000000E+00 -0.28847790729E+03  0.17587912137E+04  0.17349717664E+04 0.  0.
        2    1    3    3  502    0 -0.27043065934E+03  0.11591394105E+03 -0.97150827223E+03  0.10150847779E+04  0.25500000920E-02 0.  1.
       -2    1    3    3    0  502  0.27043065934E+03 -0.11591394105E+03  0.68303036495E+03  0.74370643582E+03  0.25500000920E-02 0. -1.
</event>
<event>
 5   0  0.2561518E-04  0.1539628E+04  0.7818609E-02  0.8858520E-01
       -1   -1    0    0    0  501  0.00000000000E+00  0.00000000000E+00  0.90632414400E+03  0.90632414401E+03  0.50400001928E-02 0.  1.
        1   -1    0    0  501    0  0.00000000000E+00  0.00000000000E+00 -0.65386462438E+03  0.65386462440E+03  0.50400001928E-02 0. -1.
    10030    2    1    2    0    0  0.00000000000E+00  0.00000000000E+00  0.25245951961E+03  0.15601887684E+04  0.15396276121E+04 0.  0.
        4    1    3    3  502    0  0.52327492858E+03 -0.54043460569E+03 -0.39432707479E+02  0.75328796965E+03  0.12699999809E+01 0. -1.
       -4    1    3    3    0  502 -0.52327492858E+03  0.54043460569E+03  0.29189222709E+03  0.80690079876E+03  0.12699999809E+01 0.  1.
</event>
<event>
 5   0  0.5310003E-04  0.1475182E+04  0.7818609E-02  0.8901126E-01
       -2   -1    0    0    0  501  0.00000000000E+00  0.00000000000E+00  0.38368833097E+03  0.38368833098E+03  0.25500000920E-02 0. -1.
        2   -1    0    0  501    0  0.00000000000E+00  0.00000000000E+00 -0.14179228351E+04  0.14179228351E+04  0.25500000920E-02 0.  1.
    10030    2    1    2    0    0  0.00000000000E+00  0.00000000000E+00 -0.10342345041E+04  0.18016111661E+04  0.14751819495E+04 0.  0.
        1    1    3    3  502    0 -0.46068114120E+03 -0.53547459998E+03 -0.77642100446E+03  0.10496617252E+04  0.50400001928E-02 0.  1.
       -1    1    3    3    0  502  0.46068114120E+03  0.53547459998E+03 -0.25781349969E+03  0.75194944094E+03  0.50400001928E-02 0. -1.
</event>
<event>
 5   0  0.1910750E-04  0.1640961E+04  0.7818609E-02  0.8795772E-01
        3   -1    0    0  501    0  0.00000000000E+00  0.00000000000E+00  0.12642042524E+04  0.12642042564E+04  0.10100000352E+00 0. -1.
       -3   -1    0    0    0  501  0.00000000000E+00  0.00000000000E+00 -0.53249969222E+03  0.53249970180E+03  0.10100000352E+00 0.  1.
    10030    2    1    2    0    0  0.00000000000E+00  0.00000000000E+00  0.73170456018E+03  0.17967039582E+04  0.16409611666E+04 0.  0.
        1    1    3    3  502    0  0.77422177675E+03 -0.19251737499E+03  0.15608039876E+03  0.81292274551E+03  0.50400001928E-02 0.  1.
       -1    1    3    3    0  502 -0.77422177675E+03  0.19251737499E+03  0.57562416142E+03  0.98378121273E+03  0.50400001928E-02 0. -1.
</event>
<event>
 5   0  0.5342255E-04  0.1703520E+04  0.7818609E-02  0.8759359E-01
       -2   -1    0    0    0  501  0.00000000000E+00  0.00000000000E+00  0.54361244185E+03  0.54361244185E+03  0.25500000920E-02 0. -1.
        2   -1    0    0  501    0  0.00000000000E+00  0.00000000000E+00 -0.13345810879E+04  0.13345810879E+04  0.25500000920E-02 0.  1.
    10030    2    1    2    0    0  0.00000000000E+00  0.00000000000E+00 -0.79096864604E+03  0.18781935297E+04  0.17035197493E+04 0.  0.
        5    1    3    3  502    0 -0.58911747498E+03  0.60616279043E+03 -0.51101455535E+03  0.98775031947E+03  0.46999998093E+01 0.  1.
       -5    1    3    3    0  502  0.58911747498E+03 -0.60616279043E+03 -0.27995409069E+03  0.89044321027E+03  0.46999998093E+01 0. -1.
</event>
<event>
 5   0  0.5342255E-04  0.1687954E+04  0.7818609E-02  0.8768265E-01
       -2   -1    0    0    0  501  0.00000000000E+00  0.00000000000E+00  0.87680358653E+03  0.87680358653E+03  0.25500000920E-02 0.  1.
        2   -1    0    0  501    0  0.00000000000E+00  0.00000000000E+00 -0.81237916151E+03  0.81237916152E+03  0.25500000920E-02 0. -1.
    10030    2    1    2    0    0  0.00000000000E+00  0.00000000000E+00  0.64424425018E+02  0.16891827480E+04  0.16879537463E+04 0.  0.
        5    1    3    3  502    0  0.84239362600E+03  0.50965968802E+02  0.39311131503E+02  0.84486212257E+03  0.46999998093E+01 0. -1.
       -5    1    3    3    0  502 -0.84239362600E+03 -0.50965968802E+02  0.25113293515E+02  0.84432062548E+03  0.46999998093E+01 0.  1.
</event>
<event>
 5   0  0.5021349E-04  0.1731075E+04  0.7818609E-02  0.8743837E-01
       -2   -1    0    0    0  501  0.00000000000E+00  0.00000000000E+00  0.65809192958E+03  0.65809192959E+03  0.25500000920E-02 0.  1.
        2   -1    0    0  501    0  0.00000000000E+00  0.00000000000E+00 -0.11383744833E+04  0.11383744833E+04  0.25500000920E-02 0. -1.
    10030    2    1    2    0    0  0.00000000000E+00  0.00000000000E+00 -0.48028255375E+03  0.17964664129E+04  0.17310748803E+04 0.  0.
        2    1    3    3  502    0 -0.51776534474E+03  0.57836678731E+03 -0.63744242230E+03  0.10044510613E+04  0.25500000920E-02 0. -1.
       -2    1    3    3    0  502  0.51776534474E+03 -0.57836678731E+03  0.15715986854E+03  0.79201535159E+03  0.25500000920E-02 0.  1.
</event>
<event>
 5   0  0.2785059E-04  0.1696513E+04  0.7818609E-02  0.8763355E-01
        1   -1    0    0  501    0  0.00000000000E+00  0.00000000000E+00  0.15461135733E+04  0.15461135733E+04  0.50400001928E-02 0. -1.
       -1   -1    0    0    0  501  0.00000000000E+00  0.00000000000E+00 -0.46538584980E+03  0.46538584983E+03  0.50400001928E-02 0.  1.
    10030    2    1    2    0    0  0.00000000000E+00  0.00000000000E+00  0.10807277235E+04  0.20114994232E+04  0.16965133412E+04 0.  0.
        5    1    3    3  502    0  0.76927418589E+03  0.12057046300E+03  0.14144862191E+03  0.79142265084E+03  0.46999998093E+01 0. -1.
       -5    1    3    3    0  502 -0.76927418589E+03 -0.12057046300E+03  0.93927910161E+03  0.12200767723E+04  0.46999998093E+01 0.  1.
</event>
<event>
 5   0  0.5299877E-04  0.1746699E+04  0.7818609E-02  0.8735170E-01
       -2   -1    0    0    0  501  0.00000000000E+00  0.00000000000E+00  0.86615931012E+03  0.86615931012E+03  0.25500000920E-02 0. -1.
        2   -1    0    0  501    0  0.00000000000E+00  0.00000000000E+00 -0.88059889623E+03  0.88059889623E+03  0.25500000920E-02 0.  1.
    10030    2    1    2    0    0  0.00000000000E+00  0.00000000000E+00 -0.14439586108E+02  0.17467582064E+04  0.17466985229E+04 0.  0.
        3    1    3    3  502    0 -0.84341739293E+03 -0.22666935279E+03 -0.98709331066E+01  0.87340101884E+03  0.10100000352E+00 0. -1.
       -3    1    3    3    0  502  0.84341739293E+03  0.22666935279E+03 -0.45686530013E+01  0.87335718751E+03  0.10100000352E+00 0.  1.
</event>
<event>
 5   0  0.2583422E-04  0.1659067E+04  0.7818609E-02  0.8785061E-01
        1   -1    0    0  501    0  0.00000000000E+00  0.00000000000E+00  0.10947200250E+04  0.10947200250E+04  0.50400001928E-02 0. -1.
       -1   -1    0    0    0  501  0.00000000000E+00  0.00000000000E+00 -0.62858585112E+03  0.62858585114E+03  0.50400001928E-02 0.  1.
    10030    2    1    2    0    0  0.00000000000E+00  0.00000000000E+00  0.46613417390E+03  0.17233058762E+04  0.16590666276E+04 0.  0.
        3    1    3    3  502    0  0.44601191958E+02  0.26495718619E+03 -0.58213560730E+03  0.64115010124E+03  0.10100000352E+00 0.  1.
       -3    1    3    3    0  502 -0.44601191958E+02 -0.26495718619E+03  0.10482697812E+04  0.10821557749E+04  0.10100000352E+00 0. -1.
</event>
<event>
 5   0  0.5198430E-04  0.1710355E+04  0.7818609E-02  0.8755481E-01
        2   -1    0    0  501    0  0.00000000000E+00  0.00000000000E+00  0.97580584962E+03  0.97580584962E+03  0.25500000920E-02 0.  1.
       -2   -1    0    0    0  501  0.00000000000E+00  0.00000000000E+00 -0.74946081808E+03  0.74946081808E+03  0.25500000920E-02 0. -1.
    10030    2    1    2    0    0  0.00000000000E+00  0.00000000000E+00  0.22634503154E+03  0.17252666677E+04  0.17103546420E+04 0.  0.
        4    1    3    3  502    0  0.55277209783E+03  0.72472595059E+02  0.76729944709E+03  0.94845101275E+03  0.12699999809E+01 0.  1.
       -4    1    3    3    0  502 -0.55277209783E+03 -0.72472595059E+02 -0.54095441555E+03  0.77681565496E+03  0.12699999809E+01 0. -1.
</event>
<event>
 5   0  0.2595644E-04  0.1750580E+04  0.7818609E-02  0.8733031E-01
       -1   -1    0    0    0  501  0.00000000000E+00  0.00000000000E+00  0.44645037901E+03  0.44645037904E+03  0.50400001928E-02 0. -1.
        1   -1    0    0  501    0  0.00000000000E+00  0.00000000000E+00 -0.17160540054E+04  0.17160540054E+04  0.50400001928E-02 0.  1.
    10030    2    1    2    0    0  0.00000000000E+00  0.00000000000E+00 -0.12696036264E+04  0.21625043845E+04  0.17505804308E+04 0.  0.
        2    1    3    3  502    0  0.43375592775E+03 -0.47287515206E+03  0.10057208366E+03  0.64951509476E+03  0.25500000920E-02 0. -1.
       -2    1    3    3    0  502 -0.43375592775E+03  0.47287515206E+03 -0.13701757101E+04  0.15129892897E+04  0.25500000920E-02 0.  1.
</event>
<event>
 5   0  0.2630135E-04  0.1626270E+04  0.7818609E-02  0.8804570E-01
        1   -1    0    0  501    0  0.00000000000E+00  0.00000000000E+00  0.12749945706E+04  0.12749945706E+04  0.50400001928E-02 0. -1.
       -1   -1    0    0    0  501  0.00000000000E+00  0.00000000000E+00 -0.51858119216E+03  0.51858119219E+03  0.50400001928E-02 0.  1.
    10030    2    1    2    0    0  0.00000000000E+00  0.00000000000E+00  0.75641337847E+03  0.17935757628E+04  0.16262696018E+04 0.  0.
        1    1    3    3  502    0  0.16671856343E+03  0.22626992471E+03 -0.46330748432E+03  0.54189204024E+03  0.50400001928E-02 0.  1.
       -1    1    3    3    0  502 -0.16671856343E+03 -0.22626992471E+03  0.12197208628E+04  0.12516837226E+04  0.50400001928E-02 0. -1.
</event>
<event>
 5   0  0.5342255E-04  0.1712222E+04  0.7818609E-02  0.8754424E-01
        2   -1    0    0  501    0  0.00000000000E+00  0.00000000000E+00  0.74905276180E+03  0.74905276180E+03  0.25500000920E-02 0. -1.
       -2   -1    0    0    0  501  0.00000000000E+00  0.00000000000E+00 -0.97847065233E+03  0.97847065233E+03  0.25500000920E-02 0.  1.
    10030    2    1    2    0    0  0.00000000000E+00  0.00000000000E+00 -0.22941789053E+03  0.17275234141E+04  0.17122221170E+04 0.  0.
        5    1    3    3  502    0 -0.69962006409E+03 -0.12245482779E+03 -0.59693483117E+03  0.92780208105E+03  0.46999998093E+01 0.  1.
       -5    1    3    3    0  502  0.69962006409E+03  0.12245482779E+03  0.36751694064E+03  0.79972133309E+03  0.46999998093E+01 0. -1.
</event>
<event>
 5   0  0.2785059E-04  0.1687635E+04  0.7818609E-02  0.8768448E-01
       -1   -1    0    0    0  501  0.00000000000E+00  0.00000000000E+00  0.17575139025E+04  0.17575139025E+04  0.50400001928E-02 0.  1.
        1   -1    0    0  501    0  0.00000000000E+00  0.00000000000E+00 -0.40513360355E+03  0.40513360358E+03  0.50400001928E-02 0. -1.
    10030    2    1    2    0    0  0.00000000000E+00  0.00000000000E+00  0.13523802989E+04  0.21626475061E+04  0.16876349613E+04 0.  0.
        5    1    3    3  502    0 -0.20517232823E+03 -0.80349888718E+03  0.47643052047E+03  0.95640696192E+03  0.46999998093E+01 0. -1.
       -5    1    3    3    0  502  0.20517232823E+03  0.80349888718E+03  0.87594977846E+03  0.12062405441E+04  0.46999998093E+01 0.  1.
</event>
<event>
 5   0  0.5299877E-04  0.1760812E+04  0.7818609E-02  0.8727421E-01
       -2   -1    0    0    0  501  0.00000000000E+00  0.00000000000E+00  0.75264647973E+03  0.75264647973E+03  0.25500000920E-02 0.  1.
        2   -1    0    0  501    0  0.00000000000E+00  0.00000000000E+00 -0.10298523106E+04  0.10298523106E+04  0.25500000920E-02 0. -1.
    10030    2    1    2    0    0  0.00000000000E+00  0.00000000000E+00 -0.27720583084E+03  0.17824987903E+04  0.17608119902E+04 0.  0.
        3    1    3    3  502    0  0.20960628160E+03  0.19499616589E+03  0.70421135064E+03  0.76017888327E+03  0.10100000352E+00 0.  1.
       -3    1    3    3    0  502 -0.20960628160E+03 -0.19499616589E+03 -0.98141718148E+03  0.10223199070E+04  0.10100000352E+00 0. -1.
</event>
<event>
 5   0  0.5310003E-04  0.1702594E+04  0.7818609E-02  0.8759886E-01
       -2   -1    0    0    0  501  0.00000000000E+00  0.00000000000E+00  0.49625202860E+03  0.49625202861E+03  0.25500000920E-02 0.  1.
        2   -1    0    0  501    0  0.00000000000E+00  0.00000000000E+00 -0.14603600481E+04  0.14603600481E+04  0.25500000920E-02 0. -1.
    10030    2    1    2    0    0  0.00000000000E+00  0.00000000000E+00 -0.96410801950E+03  0.19566120767E+04  0.17025940636E+04 0.  0.
        1    1    3    3  502    0 -0.69535942997E+03  0.20640780777E+03  0.30050819099E+02  0.72596967685E+03  0.50400001928E-02 0.  1.
       -1    1    3    3    0  502  0.69535942997E+03 -0.20640780777E+03 -0.99415883860E+03  0.12306423999E+04  0.50400001928E-02 0. -1.
</event>
<event>
 5   0  0.2595644E-04  0.1695179E+04  0.7818609E-02  0.8764119E-01
       -1   -1    0    0    0  501  0.00000000000E+00  0.00000000000E+00  0.51649082883E+03  0.51649082886E+03  0.50400001928E-02 0.  1.
        1   -1    0    0  501    0  0.00000000000E+00  0.00000000000E+00 -0.13909404393E+04  0.13909404393E+04  0.50400001928E-02 0. -1.
    10030    2    1    2    0    0  0.00000000000E+00  0.00000000000E+00 -0.87444961046E+03  0.19074312682E+04  0.16951790234E+04 0.  0.
        2    1    3    3  502    0 -0.56420341192E+03  0.29135472882E+03  0.19449272298E+03  0.66410879178E+03  0.25500000920E-02 0.  1.
       -2    1    3    3    0  502  0.56420341192E+03 -0.29135472882E+03 -0.10689423334E+04  0.12433224764E+04  0.25500000920E-02 0. -1.
</event>
<event>
 5   0  0.2595644E-04  0.1650338E+04  0.7818609E-02  0.8790206E-01
       -1   -1    0    0    0  501  0.00000000000E+00  0.00000000000E+00  0.96404067255E+03  0.96404067257E+03  0.50400001928E-02 0. -1.
        1   -1    0    0  501    0  0.00000000000E+00  0.00000000000E+00 -0.70630208582E+03  0.70630208584E+03  0.50400001928E-02 0.  1.
    10030    2    1    2    0    0  0.00000000000E+00  0.00000000000E+00  0.25773858673E+03  0.16703427584E+04  0.16503380719E+04 0.  0.
        2    1    3    3  502    0  0.22759226891E+03 -0.34171350973E+03 -0.59558465521E+03  0.72338609686E+03  0.25500000920E-02 0.  1.
       -2    1    3    3    0  502 -0.22759226891E+03  0.34171350973E+03  0.85332324195E+03  0.94695666155E+03  0.25500000920E-02 0. -1.
</event>
<event>
 5   0  0.5299877E-04  0.1676421E+04  0.7818609E-02  0.8774928E-01
       -2   -1    0    0    0  501  0.00000000000E+00  0.00000000000E+00  0.67370341587E+03  0.67370341588E+03  0.25500000920E-02 0. -1.
        2   -1    0    0  501    0  0.00000000000E+00  0.00000000000E+00 -0.10428872248E+04  0.10428872248E+04  0.25500000920E-02 0.  1.
    10030    2    1    2    0    0  0.00000000000E+00  0.00000000000E+00 -0.36918380897E+03  0.17165906407E+04  0.16764208132E+04 0.  0.
        3    1    3    3  502    0 -0.65542253863E+03  0.99402784013E+02 -0.70985235710E+03  0.97126206386E+03  0.10100000352E+00 0.  1.
       -3    1    3    3    0  502  0.65542253863E+03 -0.99402784013E+02  0.34066854813E+03  0.74532857687E+03  0.10100000352E+00 0. -1.
</event>
<event>
 5   0  0.5299877E-04  0.1674377E+04  0.7818609E-02  0.8776115E-01
       -2   -1    0    0    0  501  0.00000000000E+00  0.00000000000E+00  0.54517794230E+03  0.54517794231E+03  0.25500000920E-02 0. -1.
        2   -1    0    0  501    0  0.00000000000E+00  0.00000000000E+00 -0.12856068433E+04  0.12856068433E+04  0.25500000920E-02 0.  1.
    10030    2    1    2    0    0  0.00000000000E+00  0.00000000000E+00 -0.74042890101E+03  0.18307847856E+04  0.16743768912E+04 0.  0.
        3    1    3    3  502    0  0.23219609757E+03  0.79914819164E+03 -0.47001866631E+03  0.95575646313E+03  0.10100000352E+00 0.  1.
       -3    1    3    3    0  502 -0.23219609757E+03 -0.79914819164E+03 -0.27041023470E+03  0.87502832249E+03  0.10100000352E+00 0. -1.
</event>
<event>
 5   0  0.2561518E-04  0.1737915E+04  0.7818609E-02  0.8740030E-01
        1   -1    0    0  501    0  0.00000000000E+00  0.00000000000E+00  0.11577624324E+04  0.11577624324E+04  0.50400001928E-02 0. -1.
       -1   -1    0    0    0  501  0.00000000000E+00  0.00000000000E+00 -0.65219558312E+03  0.65219558314E+03  0.50400001928E-02 0.  1.
    10030    2    1    2    0    0  0.00000000000E+00  0.00000000000E+00  0.50556684929E+03  0.18099580156E+04  0.17379154695E+04 0.  0.
        4    1    3    3  502    0  0.38907119859E+02 -0.85277735685E+03  0.42181663324E+03  0.95219423927E+03  0.12699999809E+01 0. -1.
       -4    1    3    3    0  502 -0.38907119859E+02  0.85277735685E+03  0.83750216050E+02  0.85776377629E+03  0.12699999809E+01 0.  1.
</event>
<event>
 5   0  0.2561518E-04  0.1697837E+04  0.7818609E-02  0.8762599E-01
       -1   -1    0    0    0  501  0.00000000000E+00  0.00000000000E+00  0.70059973349E+03  0.70059973351E+03  0.50400001928E-02 0.  1.
        1   -1    0    0  501    0  0.00000000000E+00  0.00000000000E+00 -0.10286366403E+04  0.10286366403E+04  0.50400001928E-02 0. -1.
    10030    2    1    2    0    0  0.00000000000E+00  0.00000000000E+00 -0.32803690683E+03  0.17292363738E+04  0.16978369251E+04 0.  0.
        4    1    3    3  502    0  0.12064871036E+02 -0.78924908868E+03 -0.48220813760E+03  0.92497891109E+03  0.12699999809E+01 0. -1.
       -4    1    3    3    0  502 -0.12064871036E+02  0.78924908868E+03  0.15417123077E+03  0.80425746275E+03  0.12699999809E+01 0.  1.
</event>
<event>
 5   0  0.2630135E-04  0.1692754E+04  0.7818609E-02  0.8765508E-01
       -1   -1    0    0    0  501  0.00000000000E+00  0.00000000000E+00  0.37139923587E+03  0.37139923590E+03  0.50400001928E-02 0. -1.
        1   -1    0    0  501    0  0.00000000000E+00  0.00000000000E+00 -0.19287976126E+04  0.19287976126E+04  0.50400001928E-02 0.  1.
    10030    2    1    2    0    0  0.00000000000E+00  0.00000000000E+00 -0.15573983767E+04  0.23001968485E+04  0.16927539213E+04 0.  0.
        1    1    3    3  502    0  0.25151264151E+03 -0.12620103039E+03 -0.18633710540E+04  0.18844991360E+04  0.50400001928E-02 0.  1.
       -1    1    3    3    0  502 -0.25151264151E+03  0.12620103039E+03  0.30597267724E+03  0.41569771247E+03  0.50400001928E-02 0. -1.
</event>
<event>
 5   0  0.2630135E-04  0.1691524E+04  0.7818609E-02  0.8766213E-01
       -1   -1    0    0    0  501  0.00000000000E+00  0.00000000000E+00  0.30357680176E+03  0.30357680180E+03  0.50400001928E-02 0. -1.
        1   -1    0    0  501    0  0.00000000000E+00  0.00000000000E+00 -0.23562858970E+04  0.23562858970E+04  0.50400001928E-02 0.  1.
    10030    2    1    2    0    0  0.00000000000E+00  0.00000000000E+00 -0.20527090952E+04  0.26598626988E+04  0.16915244446E+04 0.  0.
        1    1    3    3  502    0 -0.20205844461E+03 -0.28861576993E+02 -0.23169766763E+04  0.23259495962E+04  0.50400001928E-02 0.  1.
       -1    1    3    3    0  502  0.20205844461E+03  0.28861576993E+02  0.26426758104E+03  0.33391310259E+03  0.50400001928E-02 0. -1.
</event>
<event>
 5   0  0.2595644E-04  0.1683555E+04  0.7818609E-02  0.8770799E-01
       -1   -1    0    0    0  501  0.00000000000E+00  0.00000000000E+00  0.10266418474E+04  0.10266418474E+04  0.50400001928E-02 0.  1.
        1   -1    0    0  501    0  0.00000000000E+00  0.00000000000E+00 -0.69020132149E+03  0.69020132151E+03  0.50400001928E-02 0. -1.
    10030    2    1    2    0    0  0.00000000000E+00  0.00000000000E+00  0.33644052587E+03  0.17168431689E+04  0.16835552379E+04 0.  0.
        2    1    3    3  502    0 -0.46063813834E+03 -0.69968770689E+03  0.25255475060E+03  0.87494816060E+03  0.25500000920E-02 0.  1.
       -2    1    3    3    0  502  0.46063813834E+03  0.69968770689E+03  0.83885775269E+02  0.84189500828E+03  0.25500000920E-02 0. -1.
</event>
<event>
 5   0  0.2785059E-04  0.1683121E+04  0.7818609E-02  0.8771050E-01
       -1   -1    0    0    0  501  0.00000000000E+00  0.00000000000E+00  0.40556089956E+03  0.40556089959E+03  0.50400001928E-02 0. -1.
        1   -1    0    0  501    0  0.00000000000E+00  0.00000000000E+00 -0.17462833651E+04  0.17462833651E+04  0.50400001928E-02 0.  1.
    10030    2    1    2    0    0  0.00000000000E+00  0.00000000000E+00 -0.13407224655E+04  0.21518442647E+04  0.16831212107E+04 0.  0.
        5    1    3    3  502    0 -0.39408752080E+03  0.64355405401E+03 -0.11465608469E+04  0.13726218198E+04  0.46999998093E+01 0.  1.
       -5    1    3    3    0  502  0.39408752080E+03 -0.64355405401E+03 -0.19416161860E+03  0.77922244489E+03  0.46999998093E+01 0. -1.
</event>
<event>
 5   0  0.2595644E-04  0.1693735E+04  0.7818609E-02  0.8764946E-01
       -1   -1    0    0    0  501  0.00000000000E+00  0.00000000000E+00  0.16422667623E+04  0.16422667623E+04  0.50400001928E-02 0. -1.
        1   -1    0    0  501    0  0.00000000000E+00  0.00000000000E+00 -0.43670389922E+03  0.43670389925E+03  0.50400001928E-02 0.  1.
    10030    2    1    2    0    0  0.00000000000E+00  0.00000000000E+00  0.12055628631E+04  0.20789706615E+04  0.16937346884E+04 0.  0.
        2    1    3    3  502    0  0.76083762203E+03 -0.34413691198E+03  0.77584805654E+03  0.11398439841E+04  0.25500000920E-02 0.  1.
       -2    1    3    3    0  502 -0.76083762203E+03  0.34413691198E+03  0.42971480651E+03  0.93912667741E+03  0.25500000920E-02 0. -1.
</event>
<event>
 5   0  0.5310003E-04  0.1710913E+04  0.7818609E-02  0.8755165E-01
        2   -1    0    0  501    0  0.00000000000E+00  0.00000000000E+00  0.77768380300E+03  0.77768380301E+03  0.25500000920E-02 0.  1.
       -2   -1    0    0    0  501  0.00000000000E+00  0.00000000000E+00 -0.94100636685E+03  0.94100636685E+03  0.25500000920E-02 0. -1.
    10030    2    1    2    0    0  0.00000000000E+00  0.00000000000E+00 -0.16332256385E+03  0.17186901699E+04  0.17109125168E+04 0.  0.
        1    1    3    3  502    0 -0.20421521089E+02  0.85466006667E+03 -0.11253439381E+03  0.86227887479E+03  0.50400001928E-02 0.  1.
       -1    1    3    3    0  502  0.20421521089E+02 -0.85466006667E+03 -0.50788170036E+02  0.85641129507E+03  0.50400001928E-02 0. -1.
</event>
<event>
 5   0  0.5310003E-04  0.1697309E+04  0.7818609E-02  0.8762900E-01
       -2   -1    0    0    0  501  0.00000000000E+00  0.00000000000E+00  0.78282258964E+03  0.78282258964E+03  0.25500000920E-02 0.  1.
        2   -1    0    0  501    0  0.00000000000E+00  0.00000000000E+00 -0.92002306933E+03  0.92002306934E+03  0.25500000920E-02 0. -1.
    10030    2    1    2    0    0  0.00000000000E+00  0.00000000000E+00 -0.13720047970E+03  0.17028456590E+04  0.16973094493E+04 0.  0.
        1    1    3    3  502    0 -0.28344765854E+03 -0.74026821699E+03 -0.37269818479E+03  0.87592439468E+03  0.50400001928E-02 0. -1.
       -1    1    3    3    0  502  0.28344765854E+03  0.74026821699E+03  0.23549770509E+03  0.82692126430E+03  0.50400001928E-02 0.  1.
</event>
<event>
 5   0  0.5021349E-04  0.1713128E+04  0.7818609E-02  0.8753912E-01
       -2   -1    0    0    0  501  0.00000000000E+00  0.00000000000E+00  0.17035960429E+04  0.17035960429E+04  0.25500000920E-02 0.  1.
        2   -1    0    0  501    0  0.00000000000E+00  0.00000000000E+00 -0.43067816654E+03  0.43067816654E+03  0.25500000920E-02 0. -1.
    10030    2    1    2    0    0  0.00000000000E+00  0.00000000000E+00  0.12729178763E+04  0.21342742094E+04  0.17131276897E+04 0.  0.
        2    1    3    3  502    0 -0.22291516379E+03  0.59710585852E+03  0.13493933638E+04  0.14923434681E+04  0.25500000920E-02 0.  1.
       -2    1    3    3    0  502  0.22291516379E+03 -0.59710585852E+03 -0.76475487408E+02  0.64193074136E+03  0.25500000920E-02 0. -1.
</event>
<event>
 5   0  0.2561518E-04  0.1704216E+04  0.7818609E-02  0.8758963E-01
        1   -1    0    0  501    0  0.00000000000E+00  0.00000000000E+00  0.14078429233E+04  0.14078429233E+04  0.50400001928E-02 0. -1.
       -1   -1    0    0    0  501  0.00000000000E+00  0.00000000000E+00 -0.51574509048E+03  0.51574509050E+03  0.50400001928E-02 0.  1.
    10030    2    1    2    0    0  0.00000000000E+00  0.00000000000E+00  0.89209783278E+03  0.19235880138E+04  0.17042160378E+04 0.  0.
        4    1    3    3  502    0  0.19080517620E+03  0.37750971414E+03 -0.38887532453E+03  0.57458317976E+03  0.12699999809E+01 0.  1.
       -4    1    3    3    0  502 -0.19080517620E+03 -0.37750971414E+03  0.12809731573E+04  0.13490048340E+04  0.12699999809E+01 0. -1.
</event>
<event>
 5   0  0.2561518E-04  0.1645632E+04  0.7818609E-02  0.8792995E-01
        1   -1    0    0  501    0  0.00000000000E+00  0.00000000000E+00  0.98795862848E+03  0.98795862849E+03  0.50400001928E-02 0.  1.
       -1   -1    0    0    0  501  0.00000000000E+00  0.00000000000E+00 -0.68527798741E+03  0.68527798743E+03  0.50400001928E-02 0. -1.
    10030    2    1    2    0    0  0.00000000000E+00  0.00000000000E+00  0.30268064107E+03  0.16732366159E+04  0.16456321589E+04 0.  0.
        4    1    3    3  502    0 -0.10975929375E+03 -0.80399593087E+03  0.12789641751E+02  0.81155514123E+03  0.12699999809E+01 0.  1.
       -4    1    3    3    0  502  0.10975929375E+03  0.80399593087E+03  0.28989099932E+03  0.86168147468E+03  0.12699999809E+01 0. -1.
</event>
<event>
 5   0  0.2630135E-04  0.1632539E+04  0.7818609E-02  0.8800803E-01
        1   -1    0    0  501    0  0.00000000000E+00  0.00000000000E+00  0.10403161564E+04  0.10403161564E+04  0.50400001928E-02 0. -1.
       -1   -1    0    0    0  501  0.00000000000E+00  0.00000000000E+00 -0.64047473401E+03  0.64047473403E+03  0.50400001928E-02 0.  1.
    10030    2    1    2    0    0  0.00000000000E+00  0.00000000000E+00  0.39984142241E+03  0.16807908905E+04  0.16325393883E+04 0.  0.
        1    1    3    3  502    0 -0.62464819242E+03 -0.34233014949E+03 -0.21051066126E+03  0.74275839550E+03  0.50400001928E-02 0.  1.
       -1    1    3    3    0  502  0.62464819242E+03  0.34233014949E+03  0.61035208367E+03  0.93803249497E+03  0.50400001928E-02 0. -1.
</event>
<event>
 5   0  0.2595644E-04  0.1745495E+04  0.7818609E-02  0.8735834E-01
       -1   -1    0    0    0  501  0.00000000000E+00  0.00000000000E+00  0.67241222242E+03  0.67241222244E+03  0.50400001928E-02 0. -1.
        1   -1    0    0  501    0  0.00000000000E+00  0.00000000000E+00 -0.11327697859E+04  0.11327697859E+04  0.50400001928E-02 0.  1.
    10030    2    1    2    0    0  0.00000000000E+00  0.00000000000E+00 -0.46035756349E+03  0.18051820084E+04  0.17454950579E+04 0.  0.
        2    1    3    3  502    0 -0.36382610928E+03  0.73569137868E+02  0.58670841801E+03  0.69426840891E+03  0.25500000920E-02 0. -1.
       -2    1    3    3    0  502  0.36382610928E+03 -0.73569137868E+02 -0.10470659815E+04  0.11109135995E+04  0.25500000920E-02 0.  1.
</event>
<event>
 5   0  0.2595644E-04  0.1697695E+04  0.7818609E-02  0.8762680E-01
       -1   -1    0    0    0  501  0.00000000000E+00  0.00000000000E+00  0.10412817909E+04  0.10412817909E+04  0.50400001928E-02 0. -1.
        1   -1    0    0  501    0  0.00000000000E+00  0.00000000000E+00 -0.69197604019E+03  0.69197604021E+03  0.50400001928E-02 0.  1.
    10030    2    1    2    0    0  0.00000000000E+00  0.00000000000E+00  0.34930575073E+03  0.17332578311E+04  0.16976949672E+04 0.  0.
        2    1    3    3  502    0  0.22589594758E+03 -0.48347621254E+03 -0.49929932595E+03  0.73080643411E+03  0.25500000920E-02 0.  1.
       -2    1    3    3    0  502 -0.22589594758E+03  0.48347621254E+03  0.84860507668E+03  0.10024513970E+04  0.25500000920E-02 0. -1.
</event>
<event>
 5   0  0.5299877E-04  0.1835487E+04  0.7818609E-02  0.8687652E-01
        2   -1    0    0  501    0  0.00000000000E+00  0.00000000000E+00  0.11402081732E+04  0.11402081732E+04  0.25500000920E-02 0.  1.
       -2   -1    0    0    0  501  0.00000000000E+00  0.00000000000E+00 -0.73868340679E+03  0.73868340679E+03  0.25500000920E-02 0. -1.
    10030    2    1    2    0    0  0.00000000000E+00  0.00000000000E+00  0.40152476642E+03  0.18788915800E+04  0.18354867015E+04 0.  0.
        3    1    3    3  502    0  0.45786259172E+02 -0.40809766539E+03  0.10409100605E+04  0.11189878687E+04  0.10100000352E+00 0.  1.
       -3    1    3    3    0  502 -0.45786259172E+02  0.40809766539E+03 -0.63938529406E+03  0.75990371133E+03  0.10100000352E+00 0. -1.
</event>
<event>
 5   0  0.5310003E-04  0.1691511E+04  0.7818609E-02  0.8766221E-01
       -2   -1    0    0    0  501  0.00000000000E+00  0.00000000000E+00  0.63012282335E+03  0.63012282336E+03  0.25500000920E-02 0.  1.
        2   -1    0    0  501    0  0.00000000000E+00  0.00000000000E+00 -0.11351792541E+04  0.11351792541E+04  0.25500000920E-02 0. -1.
    10030    2    1    2    0    0  0.00000000000E+00  0.00000000000E+00 -0.50505643079E+03  0.17653020775E+04  0.16915109892E+04 0.  0.
        1    1    3    3  502    0  0.42090861198E+03 -0.21966801029E+03 -0.98297898769E+03  0.10916344556E+04  0.50400001928E-02 0. -1.
       -1    1    3    3    0  502 -0.42090861198E+03  0.21966801029E+03  0.47792255690E+03  0.67366762191E+03  0.50400001928E-02 0.  1.
</event>
<event>
 5   0  0.5299877E-04  0.1707632E+04  0.7818609E-02  0.8757023E-01
        2   -1    0    0  501    0  0.00000000000E+00  0.00000000000E+00  0.19180598821E+04  0.19180598821E+04  0.25500000920E-02 0. -1.
       -2   -1    0    0    0  501  0.00000000000E+00  0.00000000000E+00 -0.38007262760E+03  0.38007262760E+03  0.25500000920E-02 0.  1.
    10030    2    1    2    0    0  0.00000000000E+00  0.00000000000E+00  0.15379872545E+04  0.22981325097E+04  0.17076323483E+04 0.  0.
        3    1    3    3  502    0  0.24772725847E+03  0.37476179210E+03  0.17461475483E+04  0.18030103899E+04  0.10100000352E+00 0. -1.
       -3    1    3    3    0  502 -0.24772725847E+03 -0.37476179210E+03 -0.20816029380E+03  0.49512211981E+03  0.10100000352E+00 0.  1.
</event>
<event>
 5   0  0.2630135E-04  0.1665817E+04  0.7818609E-02  0.8781104E-01
        1   -1    0    0  501    0  0.00000000000E+00  0.00000000000E+00  0.11318315909E+04  0.11318315909E+04  0.50400001928E-02 0.  1.
       -1   -1    0    0    0  501  0.00000000000E+00  0.00000000000E+00 -0.61293233843E+03  0.61293233845E+03  0.50400001928E-02 0. -1.
    10030    2    1    2    0    0  0.00000000000E+00  0.00000000000E+00  0.51889925247E+03  0.17447639294E+04  0.16658165370E+04 0.  0.
        1    1    3    3  502    0  0.11474088707E+03  0.16457656784E+03 -0.58724617299E+03  0.62057149916E+03  0.50400001928E-02 0. -1.
       -1    1    3    3    0  502 -0.11474088707E+03 -0.16457656784E+03  0.11061454255E+04  0.11241924302E+04  0.50400001928E-02 0.  1.
</event>
<event>
 5   0  0.5021349E-04  0.1595186E+04  0.7818609E-02  0.8823511E-01
        2   -1    0    0  501    0  0.00000000000E+00  0.00000000000E+00  0.15270075027E+04  0.15270075027E+04  0.25500000920E-02 0.  1.
       -2   -1    0    0    0  501  0.00000000000E+00  0.00000000000E+00 -0.41660210958E+03  0.41660210959E+03  0.25500000920E-02 0. -1.
    10030    2    1    2    0    0  0.00000000000E+00  0.00000000000E+00  0.11104053931E+04  0.19436096123E+04  0.15951859415E+04 0.  0.
        2    1    3    3  502    0  0.30269021799E+03  0.16471931364E+03  0.14316206023E+04  0.14725119250E+04  0.25500000920E-02 0.  1.
       -2    1    3    3    0  502 -0.30269021799E+03 -0.16471931364E+03 -0.32121520917E+03  0.47109768729E+03  0.25500000920E-02 0. -1.
</event>
<event>
 5   0  0.5021349E-04  0.1700391E+04  0.7818609E-02  0.8761142E-01
       -2   -1    0    0    0  501  0.00000000000E+00  0.00000000000E+00  0.57322113889E+03  0.57322113889E+03  0.25500000920E-02 0. -1.
        2   -1    0    0  501    0  0.00000000000E+00  0.00000000000E+00 -0.12610002444E+04  0.12610002444E+04  0.25500000920E-02 0.  1.
    10030    2    1    2    0    0  0.00000000000E+00  0.00000000000E+00 -0.68777910551E+03  0.18342213833E+04  0.17003905389E+04 0.  0.
        2    1    3    3  502    0  0.32189487030E+03  0.59360754758E+03 -0.90111793912E+03  0.11260549579E+04  0.25500000920E-02 0.  1.
       -2    1    3    3    0  502 -0.32189487030E+03 -0.59360754758E+03  0.21333883361E+03  0.70816642536E+03  0.25500000920E-02 0. -1.
</event>
<event>
 5   0  0.2561518E-04  0.1727221E+04  0.7818609E-02  0.8745990E-01
       -1   -1    0    0    0  501  0.00000000000E+00  0.00000000000E+00  0.69509564229E+03  0.69509564231E+03  0.50400001928E-02 0. -1.
        1   -1    0    0  501    0  0.00000000000E+00  0.00000000000E+00 -0.10729791531E+04  0.10729791531E+04  0.50400001928E-02 0.  1.
    10030    2    1    2    0    0  0.00000000000E+00  0.00000000000E+00 -0.37788351083E+03  0.17680747955E+04  0.17272210439E+04 0.  0.
        4    1    3    3  502    0 -0.26025613548E+03  0.27683703210E+02 -0.10314036457E+04  0.10640933873E+04  0.12699999809E+01 0.  1.
       -4    1    3    3    0  502  0.26025613548E+03 -0.27683703210E+02  0.65352013489E+03  0.70398140820E+03  0.12699999809E+01 0. -1.
</event>
<event>
 5   0  0.2595644E-04  0.1721386E+04  0.7818609E-02  0.8749260E-01
        1   -1    0    0  501    0  0.00000000000E+00  0.00000000000E+00  0.85494147041E+03  0.85494147042E+03  0.50400001928E-02 0.  1.
       -1   -1    0    0    0  501  0.00000000000E+00  0.00000000000E+00 -0.86648350235E+03  0.86648350237E+03  0.50400001928E-02 0. -1.
    10030    2    1    2    0    0  0.00000000000E+00  0.00000000000E+00 -0.11542031944E+02  0.17214249728E+04  0.17213862781E+04 0.  0.
        2    1    3    3  502    0 -0.85736642217E+03  0.35000049482E+02 -0.72783672709E+02  0.86116180149E+03  0.25500000920E-02 0. -1.
       -2    1    3    3    0  502  0.85736642217E+03 -0.35000049482E+02  0.61241640764E+02  0.86026317130E+03  0.25500000920E-02 0.  1.
</event>
<event>
 5   0  0.2785059E-04  0.1700005E+04  0.7818609E-02  0.8761362E-01
        1   -1    0    0  501    0  0.00000000000E+00  0.00000000000E+00  0.14291385340E+04  0.14291385340E+04  0.50400001928E-02 0. -1.
       -1   -1    0    0    0  501  0.00000000000E+00  0.00000000000E+00 -0.50555216618E+03  0.50555216620E+03  0.50400001928E-02 0.  1.
    10030    2    1    2    0    0  0.00000000000E+00  0.00000000000E+00  0.92358636786E+03  0.19346907002E+04  0.17000048020E+04 0.  0.
        5    1    3    3  502    0 -0.28172659727E+03 -0.50376338843E+03 -0.24831231651E+03  0.62835382044E+03  0.46999998093E+01 0.  1.
       -5    1    3    3    0  502  0.28172659727E+03  0.50376338843E+03  0.11718986844E+04  0.13063368798E+04  0.46999998093E+01 0. -1.
</event>
<event>
 5   0  0.5198430E-04  0.1696334E+04  0.7818609E-02  0.8763458E-01
        2   -1    0    0  501    0  0.00000000000E+00  0.00000000000E+00  0.87354605749E+03  0.87354605749E+03  0.25500000920E-02 0.  1.
       -2   -1    0    0    0  501  0.00000000000E+00  0.00000000000E+00 -0.82352562240E+03  0.82352562241E+03  0.25500000920E-02 0. -1.
    10030    2    1    2    0    0  0.00000000000E+00  0.00000000000E+00  0.50020435085E+02  0.16970716799E+04  0.16963343547E+04 0.  0.
        4    1    3    3  502    0 -0.19003109821E+03  0.67141951928E+03  0.50737117409E+03  0.86275321521E+03  0.12699999809E+01 0.  1.
       -4    1    3    3    0  502  0.19003109821E+03 -0.67141951928E+03 -0.45735073900E+03  0.83431846469E+03  0.12699999809E+01 0. -1.
</event>
<event>
 5   0  0.2785059E-04  0.1689156E+04  0.7818609E-02  0.8767573E-01
        1   -1    0    0  501    0  0.00000000000E+00  0.00000000000E+00  0.68871492964E+03  0.68871492966E+03  0.50400001928E-02 0. -1.
       -1   -1    0    0    0  501  0.00000000000E+00  0.00000000000E+00 -0.10357146210E+04  0.10357146210E+04  0.50400001928E-02 0.  1.
    10030    2    1    2    0    0  0.00000000000E+00  0.00000000000E+00 -0.34699969139E+03  0.17244295507E+04  0.16891561472E+04 0.  0.
        5    1    3    3  502    0  0.76041399384E+03 -0.42717766076E+02 -0.54613695094E+03  0.93719896966E+03  0.46999998093E+01 0. -1.
       -5    1    3    3    0  502 -0.76041399384E+03  0.42717766076E+02  0.19913725955E+03  0.78723058103E+03  0.46999998093E+01 0.  1.
</event>
<event>
 5   0  0.5310003E-04  0.1698326E+04  0.7818609E-02  0.8762320E-01
        2   -1    0    0  501    0  0.00000000000E+00  0.00000000000E+00  0.20642302255E+04  0.20642302255E+04  0.25500000920E-02 0.  1.
       -2   -1    0    0    0  501  0.00000000000E+00  0.00000000000E+00 -0.34932043026E+03  0.34932043027E+03  0.25500000920E-02 0. -1.
    10030    2    1    2    0    0  0.00000000000E+00  0.00000000000E+00  0.17149097953E+04  0.24135506558E+04  0.16983259882E+04 0.  0.
        1    1    3    3  502    0  0.31703049320E+03  0.68353374105E+03  0.30093744974E+03  0.81135076105E+03  0.50400001928E-02 0. -1.
       -1    1    3    3    0  502 -0.31703049320E+03 -0.68353374105E+03  0.14139723455E+04  0.16021998947E+04  0.50400001928E-02 0.  1.
</event>
<event>
 5   0  0.2785059E-04  0.1703873E+04  0.7818609E-02  0.8759158E-01
        1   -1    0    0  501    0  0.00000000000E+00  0.00000000000E+00  0.73794651690E+03  0.73794651692E+03  0.50400001928E-02 0. -1.
       -1   -1    0    0    0  501  0.00000000000E+00  0.00000000000E+00 -0.98353457217E+03  0.98353457218E+03  0.50400001928E-02 0.  1.
    10030    2    1    2    0    0  0.00000000000E+00  0.00000000000E+00 -0.24558805527E+03  0.17214810891E+04  0.17038731312E+04 0.  0.
        5    1    3    3  502    0 -0.26120364712E+03 -0.62225071437E+03  0.40253162702E+03  0.78579710966E+03  0.46999998093E+01 0. -1.
       -5    1    3    3    0  502  0.26120364712E+03  0.62225071437E+03 -0.64811968229E+03  0.93568397943E+03  0.46999998093E+01 0.  1.
</event>
<event>
 5   0  0.2583422E-04  0.1721878E+04  0.7818609E-02  0.8748984E-01
        1   -1    0    0  501    0  0.00000000000E+00  0.00000000000E+00  0.12691202019E+04  0.12691202019E+04  0.50400001928E-02 0.  1.
       -1   -1    0    0    0  501  0.00000000000E+00  0.00000000000E+00 -0.58403950438E+03  0.58403950440E+03  0.50400001928E-02 0. -1.
    10030    2    1    2    0    0  0.00000000000E+00  0.00000000000E+00  0.68508069751E+03  0.18531597063E+04  0.17218784321E+04 0.  0.
        3    1    3    3  502    0 -0.39079742507E+03 -0.71695289327E+03  0.63624280955E+03  0.10351565106E+04  0.10100000352E+00 0.  1.
       -3    1    3    3    0  502  0.39079742507E+03  0.71695289327E+03  0.48837887959E+02  0.81800319566E+03  0.10100000352E+00 0. -1.
</event>
<event>
 5   0  0.2583422E-04  0.1737859E+04  0.7818609E-02  0.8740062E-01
       -1   -1    0    0    0  501  0.00000000000E+00  0.00000000000E+00  0.64869866892E+03  0.64869866894E+03  0.50400001928E-02 0.  1.
        1   -1    0    0  501    0  0.00000000000E+00  0.00000000000E+00 -0.11639278138E+04  0.11639278138E+04  0.50400001928E-02 0. -1.
    10030    2    1    2    0    0  0.00000000000E+00  0.00000000000E+00 -0.51522914484E+03  0.18126264827E+04  0.17378589397E+04 0.  0.
        3    1    3    3  502    0  0.72461542140E+03  0.47373808618E+03 -0.17995923073E+03  0.88424013602E+03  0.10100000352E+00 0.  1.
       -3    1    3    3    0  502 -0.72461542140E+03 -0.47373808618E+03 -0.33526991411E+03  0.92838634670E+03  0.10100000352E+00 0. -1.
</event>
<event>
 5   0  0.2785059E-04  0.1719961E+04  0.7818609E-02  0.8750061E-01
       -1   -1    0    0    0  501  0.00000000000E+00  0.00000000000E+00  0.10769089085E+04  0.10769089085E+04  0.50400001928E-02 0.  1.
        1   -1    0    0  501    0  0.00000000000E+00  0.00000000000E+00 -0.68674934644E+03  0.68674934646E+03  0.50400001928E-02 0. -1.
    10030    2    1    2    0    0  0.00000000000E+00  0.00000000000E+00  0.39015956208E+03  0.17636582550E+04  0.17199610334E+04 0.  0.
        5    1    3    3  502    0  0.32575938497E+03 -0.41451094086E+03 -0.50159726892E+03  0.72770901270E+03  0.46999998093E+01 0. -1.
       -5    1    3    3    0  502 -0.32575938497E+03  0.41451094086E+03  0.89175683100E+03  0.10359492423E+04  0.46999998093E+01 0.  1.
</event>
<event>
 5   0  0.5198430E-04  0.1735041E+04  0.7818609E-02  0.8741628E-01
        2   -1    0    0  501    0  0.00000000000E+00  0.00000000000E+00  0.70036936167E+03  0.70036936168E+03  0.25500000920E-02 0.  1.
       -2   -1    0    0    0  501  0.00000000000E+00  0.00000000000E+00 -0.10745642786E+04  0.10745642786E+04  0.25500000920E-02 0. -1.
    10030    2    1    2    0    0  0.00000000000E+00  0.00000000000E+00 -0.37419491695E+03  0.17749336403E+04  0.17350410922E+04 0.  0.
        4    1    3    3  502    0  0.24195949742E+03 -0.71627845198E+02  0.66199558513E+03  0.70845939491E+03  0.12699999809E+01 0.  1.
       -4    1    3    3    0  502 -0.24195949742E+03  0.71627845198E+02 -0.10361905021E+04  0.10664742454E+04  0.12699999809E+01 0. -1.
</event>
<event>
 5   0  0.5299877E-04  0.1557104E+04  0.7818609E-02  0.8847343E-01
       -2   -1    0    0    0  501  0.00000000000E+00  0.00000000000E+00  0.44035021282E+03  0.44035021283E+03  0.25500000920E-02 0.  1.
        2   -1    0    0  501    0  0.00000000000E+00  0.00000000000E+00 -0.13765019934E+04  0.13765019935E+04  0.25500000920E-02 0. -1.
    10030    2    1    2    0    0  0.00000000000E+00  0.00000000000E+00 -0.93615178063E+03  0.18168522063E+04  0.15571036520E+04 0.  0.
        3    1    3    3  502    0 -0.67544067351E+03  0.38615474706E+03 -0.43492224822E+03  0.89134334816E+03  0.10100000352E+00 0. -1.
       -3    1    3    3    0  502  0.67544067351E+03 -0.38615474706E+03 -0.50122953240E+03  0.92550885812E+03  0.10100000352E+00 0.  1.
</event>
<event>
 5   0  0.5021349E-04  0.1737450E+04  0.7818609E-02  0.8740289E-01
        2   -1    0    0  501    0  0.00000000000E+00  0.00000000000E+00  0.13940421644E+04  0.13940421644E+04  0.25500000920E-02 0. -1.
       -2   -1    0    0    0  501  0.00000000000E+00  0.00000000000E+00 -0.54136297622E+03  0.54136297623E+03  0.25500000920E-02 0.  1.
    10030    2    1    2    0    0  0.00000000000E+00  0.00000000000E+00  0.85267918818E+03  0.19354051406E+04  0.17374496426E+04 0.  0.
        2    1    3    3  502    0  0.83175662220E+03 -0.10458443799E+03  0.68017453038E+03  0.10795343325E+04  0.25500000920E-02 0.  1.
       -2    1    3    3    0  502 -0.83175662220E+03  0.10458443799E+03  0.17250465780E+03  0.85587080814E+03  0.25500000920E-02 0. -1.
</event>
<event>
 5   0  0.5310003E-04  0.1726928E+04  0.7818609E-02  0.8746154E-01
       -2   -1    0    0    0  501  0.00000000000E+00  0.00000000000E+00  0.93469263611E+03  0.93469263611E+03  0.25500000920E-02 0. -1.
        2   -1    0    0  501    0  0.00000000000E+00  0.00000000000E+00 -0.79766321962E+03  0.79766321963E+03  0.25500000920E-02 0.  1.
    10030    2    1    2    0    0  0.00000000000E+00  0.00000000000E+00  0.13702941649E+03  0.17323558557E+04  0.17269278358E+04 0.  0.
        1    1    3    3  502    0 -0.45568389271E+03 -0.45511007536E+03 -0.50844258124E+03  0.82054058353E+03  0.50400001928E-02 0.  1.
       -1    1    3    3    0  502  0.45568389271E+03  0.45511007536E+03  0.64547199773E+03  0.91181527222E+03  0.50400001928E-02 0. -1.
</event>
<event>
 5   0  0.5342255E-04  0.1706724E+04  0.7818609E-02  0.8757539E-01
        2   -1    0    0  501    0  0.00000000000E+00  0.00000000000E+00  0.11474347995E+04  0.11474347995E+04  0.25500000920E-02 0. -1.
       -2   -1    0    0    0  501  0.00000000000E+00  0.00000000000E+00 -0.63465604911E+03  0.63465604912E+03  0.25500000920E-02 0.  1.
    10030    2    1    2    0    0  0.00000000000E+00  0.00000000000E+00  0.51277875036E+03  0.17820908486E+04  0.17067236876E+04 0.  0.
        5    1    3    3  502    0  0.92704579304E+02 -0.60543058401E+03 -0.36404142860E+03  0.71252268933E+03  0.46999998093E+01 0.  1.
       -5    1    3    3    0  502 -0.92704579304E+02  0.60543058401E+03  0.87682017895E+03  0.10695681593E+04  0.46999998093E+01 0. -1.
</event>
<event>
 5   0  0.5299877E-04  0.1683350E+04  0.7818609E-02  0.8770918E-01
       -2   -1    0    0    0  501  0.00000000000E+00  0.00000000000E+00  0.36574120030E+03  0.36574120031E+03  0.25500000920E-02 0.  1.
        2   -1    0    0  501    0  0.00000000000E+00  0.00000000000E+00 -0.19369339125E+04  0.19369339125E+04  0.25500000920E-02 0. -1.
    10030    2    1    2    0    0  0.00000000000E+00  0.00000000000E+00 -0.15711927122E+04  0.23026751128E+04  0.16833496774E+04 0.  0.
        3    1    3    3  502    0  0.21358288941E+03  0.55282403866E+03 -0.16031280574E+04  0.17091669453E+04  0.10100000352E+00 0. -1.
       -3    1    3    3    0  502 -0.21358288941E+03 -0.55282403866E+03  0.31935345223E+02  0.59350816746E+03  0.10100000352E+00 0.  1.
</event>
<event>
 5   0  0.2630135E-04  0.1691200E+04  0.7818609E-02  0.8766399E-01
        1   -1    0    0  501    0  0.00000000000E+00  0.00000000000E+00  0.72783026573E+03  0.72783026575E+03  0.50400001928E-02 0.  1.
       -1   -1    0    0    0  501  0.00000000000E+00  0.00000000000E+00 -0.98242630065E+03  0.98242630066E+03  0.50400001928E-02 0. -1.
    10030    2    1    2    0    0  0.00000000000E+00  0.00000000000E+00 -0.25459603492E+03  0.17102565664E+04  0.16912002785E+04 0.  0.
        1    1    3    3  502    0 -0.41668542552E+03  0.19160518493E+03 -0.84572561774E+03  0.96207645812E+03  0.50400001928E-02 0. -1.
       -1    1    3    3    0  502  0.41668542552E+03 -0.19160518493E+03  0.59112958282E+03  0.74818010830E+03  0.50400001928E-02 0.  1.
</event>
<event>
 5   0  0.2583422E-04  0.1704555E+04  0.7818609E-02  0.8758771E-01
        1   -1    0    0  501    0  0.00000000000E+00  0.00000000000E+00  0.12800642383E+04  0.12800642383E+04  0.50400001928E-02 0. -1.
       -1   -1    0    0    0  501  0.00000000000E+00  0.00000000000E+00 -0.56745374137E+03  0.56745374139E+03  0.50400001928E-02 0.  1.
    10030    2    1    2    0    0  0.00000000000E+00  0.00000000000E+00  0.71261049690E+03  0.18475179797E+04  0.17045553570E+04 0.  0.
        3    1    3    3  502    0  0.43343214721E+03 -0.12423988488E+03 -0.42759517152E+03  0.62139891868E+03  0.10100000352E+00 0.  1.
       -3    1    3    3    0  502 -0.43343214721E+03  0.12423988488E+03  0.11402056684E+04  0.12261190610E+04  0.10100000352E+00 0. -1.
</event>
<event>
 5   0  0.2785059E-04  0.1678073E+04  0.7818609E-02  0.8773970E-01
       -1   -1    0    0    0  501  0.00000000000E+00  0.00000000000E+00  0.40449248444E+03  0.40449248447E+03  0.50400001928E-02 0.  1.
        1   -1    0    0  501    0  0.00000000000E+00  0.00000000000E+00 -0.17404086712E+04  0.17404086712E+04  0.50400001928E-02 0. -1.
    10030    2    1    2    0    0  0.00000000000E+00  0.00000000000E+00 -0.13359161867E+04  0.21449011556E+04  0.16780729750E+04 0.  0.
        5    1    3    3  502    0 -0.78243525836E+03  0.27375758138E+03 -0.50222623199E+03  0.96922723083E+03  0.46999998093E+01 0. -1.
       -5    1    3    3    0  502  0.78243525836E+03 -0.27375758138E+03 -0.83368995474E+03  0.11756739248E+04  0.46999998093E+01 0.  1.
</event>
<event>
 5   0  0.2583422E-04  0.1657028E+04  0.7818609E-02  0.8786260E-01
        1   -1    0    0  501    0  0.00000000000E+00  0.00000000000E+00  0.80292833603E+03  0.80292833604E+03  0.50400001928E-02 0.  1.
       -1   -1    0    0    0  501  0.00000000000E+00  0.00000000000E+00 -0.85491464553E+03  0.85491464554E+03  0.50400001928E-02 0. -1.
    10030    2    1    2    0    0  0.00000000000E+00  0.00000000000E+00 -0.51986309502E+02  0.16578429816E+04  0.16570276930E+04 0.  0.
        3    1    3    3  502    0  0.10340865416E+03 -0.80539408988E+03  0.13865450023E+03  0.82375850247E+03  0.10100000352E+00 0.  1.
       -3    1    3    3    0  502 -0.10340865416E+03  0.80539408988E+03 -0.19064080973E+03  0.83408447911E+03  0.10100000352E+00 0. -1.
</event>
<event>
 5   0  0.5021349E-04  0.1709685E+04  0.7818609E-02  0.8755860E-01
       -2   -1    0    0    0  501  0.00000000000E+00  0.00000000000E+00  0.77373942349E+03  0.77373942350E+03  0.25500000920E-02 0. -1.
        2   -1    0    0  501    0  0.00000000000E+00  0.00000000000E+00 -0.94444686541E+03  0.94444686541E+03  0.25500000920E-02 0.  1.
    10030    2    1    2    0    0  0.00000000000E+00  0.00000000000E+00 -0.17070744192E+03  0.17181862889E+04  0.17096850858E+04 0.  0.
        2    1    3    3  502    0 -0.75882656785E+03 -0.39300986522E+03 -0.63307024320E+02  0.85690273285E+03  0.25500000920E-02 0. -1.
       -2    1    3    3    0  502  0.75882656785E+03  0.39300986522E+03 -0.10740041760E+03  0.86128355606E+03  0.25500000920E-02 0.  1.
</event>
<event>
 5   0  0.5299877E-04  0.1695325E+04  0.7818609E-02  0.8764035E-01
       -2   -1    0    0    0  501  0.00000000000E+00  0.00000000000E+00  0.98044871902E+03  0.98044871902E+03  0.25500000920E-02 0. -1.
        2   -1    0    0  501    0  0.00000000000E+00  0.00000000000E+00 -0.73285990638E+03  0.73285990638E+03  0.25500000920E-02 0.  1.
    10030    2    1    2    0    0  0.00000000000E+00  0.00000000000E+00  0.24758881264E+03  0.17133086254E+04  0.16953248142E+04 0.  0.
        3    1    3    3  502    0  0.28205319428E+03 -0.27640223216E+03 -0.63421496550E+03  0.74711500521E+03  0.10100000352E+00 0.  1.
       -3    1    3    3    0  502 -0.28205319428E+03  0.27640223216E+03  0.88180377814E+03  0.96619362019E+03  0.10100000352E+00 0. -1.
</event>
<event>
 5   0  0.2583422E-04  0.1687697E+04  0.7818609E-02  0.8768412E-01
        1   -1    0    0  501    0  0.00000000000E+00  0.00000000000E+00  0.56118369282E+03  0.56118369284E+03  0.50400001928E-02 0.  1.
       -1   -1    0    0    0  501  0.00000000000E+00  0.00000000000E+00 -0.12688905308E+04  0.12688905308E+04  0.50400001928E-02 0. -1.
    10030    2    1    2    0    0  0.00000000000E+00  0.00000000000E+00 -0.70770683798E+03  0.18300742236E+04  0.16876974538E+04 0.  0.
        3    1    3    3  502    0 -0.46376333566E+02 -0.65551232242E+03 -0.92788281103E+03  0.11370196526E+04  0.10100000352E+00 0. -1.
       -3    1    3    3    0  502  0.46376333566E+02  0.65551232242E+03  0.22017597305E+03  0.69305457106E+03  0.10100000352E+00 0.  1.
</event>
<event>
 5   0  0.2595644E-04  0.1728289E+04  0.7818609E-02  0.8745393E-01
        1   -1    0    0  501    0  0.00000000000E+00  0.00000000000E+00  0.10263375676E+04  0.10263375676E+04  0.50400001928E-02 0.  1.
       -1   -1    0    0    0  501  0.00000000000E+00  0.00000000000E+00 -0.72758302492E+03  0.72758302494E+03  0.50400001928E-02 0. -1.
    10030    2    1    2    0    0  0.00000000000E+00  0.00000000000E+00  0.29875454264E+03  0.17539205925E+04  0.17282890870E+04 0.  0.
        2    1    3    3  502    0  0.77300039919E+02  0.64116199848E+03  0.73207190382E+03  0.97621374546E+03  0.25500000920E-02 0.  1.
       -2    1    3    3    0  502 -0.77300039919E+02 -0.64116199848E+03 -0.43331736117E+03  0.77770684706E+03  0.25500000920E-02 0. -1.
</event>
<event>
 5   0  0.5021349E-04  0.1689615E+04  0.7818609E-02  0.8767309E-01
        2   -1    0    0  501    0  0.00000000000E+00  0.00000000000E+00  0.15585520236E+04  0.15585520236E+04  0.25500000920E-02 0. -1.
       -2   -1    0    0    0  501  0.00000000000E+00  0.00000000000E+00 -0.45792496355E+03  0.45792496355E+03  0.25500000920E-02 0.  1.
    10030    2    1    2    0    0  0.00000000000E+00  0.00000000000E+00  0.11006270600E+04  0.20164769871E+04  0.16896151971E+04 0.  0.
        2    1    3    3  502    0  0.64649766258E+03 -0.22902771661E+03 -0.38346943044E+02  0.68693770514E+03  0.25500000920E-02 0.  1.
       -2    1    3    3    0  502 -0.64649766258E+03  0.22902771661E+03  0.11389740031E+04  0.13295392820E+04  0.25500000920E-02 0. -1.
</event>
<event>
 5   0  0.2561518E-04  0.1693237E+04  0.7818609E-02  0.8765231E-01
        1   -1    0    0  501    0  0.00000000000E+00  0.00000000000E+00  0.91947709747E+03  0.91947709748E+03  0.50400001928E-02 0.  1.
       -1   -1    0    0    0  501  0.00000000000E+00  0.00000000000E+00 -0.77953275577E+03  0.77953275579E+03  0.50400001928E-02 0. -1.
    10030    2    1    2    0    0  0.00000000000E+00  0.00000000000E+00  0.13994434170E+03  0.16990098533E+04  0.16932365643E+04 0.  0.
        4    1    3    3  502    0  0.32400649886E+03  0.26234445028E+03  0.80934010232E+03  0.91040531414E+03  0.12699999809E+01 0.  1.
       -4    1    3    3    0  502 -0.32400649886E+03 -0.26234445028E+03 -0.66939576062E+03  0.78860453913E+03  0.12699999809E+01 0. -1.
</event>
<event>
 5   0  0.1910750E-04  0.1668938E+04  0.7818609E-02  0.8779281E-01
       -3   -1    0    0    0  501  0.00000000000E+00  0.00000000000E+00  0.89678727666E+03  0.89678728234E+03  0.10100000352E+00 0. -1.
        3   -1    0    0  501    0  0.00000000000E+00  0.00000000000E+00 -0.77648103055E+03  0.77648103711E+03  0.10100000352E+00 0.  1.
    10030    2    1    2    0    0  0.00000000000E+00  0.00000000000E+00  0.12030624611E+03  0.16732683195E+04  0.16689377688E+04 0.  0.
        3    1    3    3  502    0  0.62899188677E+03 -0.29642743743E+03 -0.40238797332E+03  0.80337793756E+03  0.10100000352E+00 0.  1.
       -3    1    3    3    0  502 -0.62899188677E+03  0.29642743743E+03  0.52269421943E+03  0.86989038190E+03  0.10100000352E+00 0. -1.
</event>
<event>
 5   0  0.5310003E-04  0.1702890E+04  0.7818609E-02  0.8759718E-01
        2   -1    0    0  501    0  0.00000000000E+00  0.00000000000E+00  0.68879186009E+03  0.68879186009E+03  0.25500000920E-02 0. -1.
       -2   -1    0    0    0  501  0.00000000000E+00  0.00000000000E+00 -0.10525074985E+04  0.10525074985E+04  0.25500000920E-02 0.  1.
    10030    2    1    2    0    0  0.00000000000E+00  0.00000000000E+00 -0.36371563841E+03  0.17412993586E+04  0.17028900113E+04 0.  0.
        1    1    3    3  502    0  0.25874926486E+03  0.17236208560E+02 -0.10111435125E+04  0.10438675547E+04  0.50400001928E-02 0.  1.
       -1    1    3    3    0  502 -0.25874926486E+03 -0.17236208560E+02  0.64742787405E+03  0.69743180389E+03  0.50400001928E-02 0. -1.
</event>
<event>
 5   0  0.2561518E-04  0.1712196E+04  0.7818609E-02  0.8754439E-01
       -1   -1    0    0    0  501  0.00000000000E+00  0.00000000000E+00  0.54012182301E+03  0.54012182303E+03  0.50400001928E-02 0.  1.
        1   -1    0    0  501    0  0.00000000000E+00  0.00000000000E+00 -0.13569227323E+04  0.13569227323E+04  0.50400001928E-02 0. -1.
    10030    2    1    2    0    0  0.00000000000E+00  0.00000000000E+00 -0.81680090929E+03  0.18970445553E+04  0.17121957597E+04 0.  0.
        4    1    3    3  502    0  0.37849758033E+03  0.48430126756E+03 -0.10686310983E+04  0.12327944570E+04  0.12699999809E+01 0. -1.
       -4    1    3    3    0  502 -0.37849758033E+03 -0.48430126756E+03  0.25183018905E+03  0.66425009830E+03  0.12699999809E+01 0.  1.
</event>
<event>
 5   0  0.2630135E-04  0.1700811E+04  0.7818609E-02  0.8760902E-01
       -1   -1    0    0    0  501  0.00000000000E+00  0.00000000000E+00  0.53769043934E+03  0.53769043937E+03  0.50400001928E-02 0.  1.
        1   -1    0    0  501    0  0.00000000000E+00  0.00000000000E+00 -0.13449926457E+04  0.13449926457E+04  0.50400001928E-02 0. -1.
    10030    2    1    2    0    0  0.00000000000E+00  0.00000000000E+00 -0.80730220637E+03  0.18826830851E+04  0.17008112025E+04 0.  0.
        1    1    3    3  502    0  0.56277592029E+03  0.12608248572E+03 -0.10954406207E+04  0.12379837168E+04  0.50400001928E-02 0. -1.
       -1    1    3    3    0  502 -0.56277592029E+03 -0.12608248572E+03  0.28813841428E+03  0.64469936829E+03  0.50400001928E-02 0.  1.
</event>
<event>
 5   0  0.2595644E-04  0.1697872E+04  0.7818609E-02  0.8762579E-01
       -1   -1    0    0    0  501  0.00000000000E+00  0.00000000000E+00  0.30713626404E+03  0.30713626408E+03  0.50400001928E-02 0.  1.
        1   -1    0    0  501    0  0.00000000000E+00  0.00000000000E+00 -0.23464918883E+04  0.23464918883E+04  0.50400001928E-02 0. -1.
    10030    2    1    2    0    0  0.00000000000E+00  0.00000000000E+00 -0.20393556243E+04  0.26536281524E+04  0.16978724949E+04 0.  0.
        2    1    3    3  502    0  0.63831984011E+03 -0.55555591795E+03 -0.91369709770E+03  0.12453662042E+04  0.25500000920E-02 0.  1.
       -2    1    3    3    0  502 -0.63831984011E+03  0.55555591795E+03 -0.11256585266E+04  0.14082619482E+04  0.25500000920E-02 0. -1.
</event>
<event>
 5   0  0.5310003E-04  0.1439329E+04  0.7818609E-02  0.8925832E-01
       -2   -1    0    0    0  501  0.00000000000E+00  0.00000000000E+00  0.74343380656E+03  0.74343380656E+03  0.25500000920E-02 0.  1.
        2   -1    0    0  501    0  0.00000000000E+00  0.00000000000E+00 -0.69665538324E+03  0.69665538324E+03  0.25500000920E-02 0. -1.
    10030    2    1    2    0    0  0.00000000000E+00  0.00000000000E+00  0.46778423316E+02  0.14400891898E+04  0.14393292374E+04 0.  0.
        1    1    3    3  502    0  0.19404011801E+03 -0.20896066246E+03  0.68449601226E+03  0.74151932994E+03  0.50400001928E-02 0.  1.
       -1    1    3    3    0  502 -0.19404011801E+03  0.20896066246E+03 -0.63771758894E+03  0.69856985987E+03  0.50400001928E-02 0. -1.
</event>
<event>
 5   0  0.5342255E-04  0.1686166E+04  0.7818609E-02  0.8769294E-01
       -2   -1    0    0    0  501  0.00000000000E+00  0.00000000000E+00  0.46125084948E+03  0.46125084948E+03  0.25500000920E-02 0. -1.
        2   -1    0    0  501    0  0.00000000000E+00  0.00000000000E+00 -0.15410035867E+04  0.15410035867E+04  0.25500000920E-02 0.  1.
    10030    2    1    2    0    0  0.00000000000E+00  0.00000000000E+00 -0.10797527372E+04  0.20022544362E+04  0.16861663185E+04 0.  0.
        5    1    3    3  502    0 -0.18857635080E+02 -0.33496704618E+03  0.37855176239E+03  0.50584786175E+03  0.46999998093E+01 0. -1.
       -5    1    3    3    0  502  0.18857635080E+02  0.33496704618E+03 -0.14583044996E+04  0.14964065744E+04  0.46999998093E+01 0.  1.
</event>
<event>
 5   0  0.2583422E-04  0.1718065E+04  0.7818609E-02  0.8751128E-01
       -1   -1    0    0    0  501  0.00000000000E+00  0.00000000000E+00  0.53990630511E+03  0.53990630513E+03  0.50400001928E-02 0. -1.
        1   -1    0    0  501    0  0.00000000000E+00  0.00000000000E+00 -0.13667861774E+04  0.13667861775E+04  0.50400001928E-02 0.  1.
    10030    2    1    2    0    0  0.00000000000E+00  0.00000000000E+00 -0.82687987234E+03  0.19066924826E+04  0.17180645797E+04 0.  0.
        3    1    3    3  502    0  0.81292753573E+03 -0.26865576498E+03 -0.33568035883E+03  0.91962406010E+03  0.10100000352E+00 0. -1.
       -3    1    3    3    0  502 -0.81292753573E+03  0.26865576498E+03 -0.49119951351E+03  0.98706842249E+03  0.10100000352E+00 0.  1.
</event>
<event>
 5   0  0.5198430E-04  0.1313018E+04  0.7818609E-02  0.9019305E-01
        2   -1    0    0  501    0  0.00000000000E+00  0.00000000000E+00  0.65272325550E+03  0.65272325550E+03  0.25500000920E-02 0.  1.
       -2   -1    0    0    0  501  0.00000000000E+00  0.00000000000E+00 -0.66031628800E+03  0.66031628801E+03  0.25500000920E-02 0. -1.
    10030    2    1    2    0    0  0.00000000000E+00  0.00000000000E+00 -0.75930325040E+01  0.13130395435E+04  0.13130175889E+04 0.  0.
        4    1    3    3  502    0 -0.24224338179E+02  0.23799199680E+03 -0.61517829131E+03  0.66005526443E+03  0.12699999809E+01 0. -1.
       -4    1    3    3    0  502  0.24224338179E+02 -0.23799199680E+03  0.60758525881E+03  0.65298427908E+03  0.12699999809E+01 0.  1.
</event>
<event>
 5   0  0.2561518E-04  0.1723337E+04  0.7818609E-02  0.8748165E-01
       -1   -1    0    0    0  501  0.00000000000E+00  0.00000000000E+00  0.87100760386E+03  0.87100760387E+03  0.50400001928E-02 0. -1.
        1   -1    0    0  501    0  0.00000000000E+00  0.00000000000E+00 -0.85242930693E+03  0.85242930694E+03  0.50400001928E-02 0.  1.
    10030    2    1    2    0    0  0.00000000000E+00  0.00000000000E+00  0.18578296931E+02  0.17234369108E+04  0.17233367728E+04 0.  0.
        4    1    3    3  502    0  0.42283465056E+02 -0.87634690207E+02  0.86549487879E+03  0.87094817783E+03  0.12699999809E+01 0. -1.
       -4    1    3    3    0  502 -0.42283465056E+02  0.87634690207E+02 -0.84691658186E+03  0.85248873299E+03  0.12699999809E+01 0.  1.
</event>
<event>
 5   0  0.2785059E-04  0.1696497E+04  0.7818609E-02  0.8763365E-01
       -1   -1    0    0    0  501  0.00000000000E+00  0.00000000000E+00  0.54873021219E+03  0.54873021221E+03  0.50400001928E-02 0.  1.
        1   -1    0    0  501    0  0.00000000000E+00  0.00000000000E+00 -0.13112553716E+04  0.13112553716E+04  0.50400001928E-02 0. -1.
    10030    2    1    2    0    0  0.00000000000E+00  0.00000000000E+00 -0.76252515942E+03  0.18599855838E+04  0.16964969064E+04 0.  0.
        5    1    3    3  502    0 -0.41316436697E+03 -0.47720225019E+03  0.23997942325E+03  0.67530659356E+03  0.46999998093E+01 0.  1.
       -5    1    3    3    0  502  0.41316436697E+03  0.47720225019E+03 -0.10025045827E+04  0.11846789903E+04  0.46999998093E+01 0. -1.
</event>
<event>
 5   0  0.2595644E-04  0.1688443E+04  0.7818609E-02  0.8767983E-01
       -1   -1    0    0    0  501  0.00000000000E+00  0.00000000000E+00  0.31550846844E+03  0.31550846848E+03  0.50400001928E-02 0.  1.
        1   -1    0    0  501    0  0.00000000000E+00  0.00000000000E+00 -0.22589240480E+04  0.22589240480E+04  0.50400001928E-02 0. -1.
    10030    2    1    2    0    0  0.00000000000E+00  0.00000000000E+00 -0.19434155796E+04  0.25744325165E+04  0.16884426751E+04 0.  0.
        2    1    3    3  502    0  0.26876639807E+03 -0.76640062517E+03 -0.62034130847E+03  0.10219729126E+04  0.25500000920E-02 0. -1.
       -2    1    3    3    0  502 -0.26876639807E+03  0.76640062517E+03 -0.13230742711E+04  0.15524596039E+04  0.25500000920E-02 0.  1.
</event>
<event>
 5   0  0.2595644E-04  0.1707203E+04  0.7818609E-02  0.8757267E-01
        1   -1    0    0  501    0  0.00000000000E+00  0.00000000000E+00  0.14543214137E+04  0.14543214137E+04  0.50400001928E-02 0.  1.
       -1   -1    0    0    0  501  0.00000000000E+00  0.00000000000E+00 -0.50101392105E+03  0.50101392108E+03  0.50400001928E-02 0. -1.
    10030    2    1    2    0    0  0.00000000000E+00  0.00000000000E+00  0.95330749264E+03  0.19553353348E+04  0.17072027108E+04 0.  0.
        2    1    3    3  502    0 -0.37660863927E+02  0.83815704822E+03  0.29661339309E+03  0.88989048940E+03  0.25500000920E-02 0.  1.
       -2    1    3    3    0  502  0.37660863927E+02 -0.83815704822E+03  0.65669409954E+03  0.10654448454E+04  0.25500000920E-02 0. -1.
</event>
<event>
 5   0  0.2785059E-04  0.1678326E+04  0.7818609E-02  0.8773823E-01
       -1   -1    0    0    0  501  0.00000000000E+00  0.00000000000E+00  0.14638804508E+04  0.14638804508E+04  0.50400001928E-02 0.  1.
        1   -1    0    0  501    0  0.00000000000E+00  0.00000000000E+00 -0.48104652178E+03  0.48104652181E+03  0.50400001928E-02 0. -1.
    10030    2    1    2    0    0  0.00000000000E+00  0.00000000000E+00  0.98283392897E+03  0.19449269726E+04  0.16783260698E+04 0.  0.
        5    1    3    3  502    0 -0.16809213374E+03  0.79537906888E+03  0.73252914412E+03  0.10943051977E+04  0.46999998093E+01 0. -1.
       -5    1    3    3    0  502  0.16809213374E+03 -0.79537906888E+03  0.25030478485E+03  0.85062177492E+03  0.46999998093E+01 0.  1.
</event>
<event>
 5   0  0.2785059E-04  0.1685510E+04  0.7818609E-02  0.8769672E-01
       -1   -1    0    0    0  501  0.00000000000E+00  0.00000000000E+00  0.26219764439E+03  0.26219764444E+03  0.50400001928E-02 0. -1.
        1   -1    0    0  501    0  0.00000000000E+00  0.00000000000E+00 -0.27087796665E+04  0.27087796665E+04  0.50400001928E-02 0.  1.
    10030    2    1    2    0    0  0.00000000000E+00  0.00000000000E+00 -0.24465820221E+04  0.29709773109E+04  0.16855095939E+04 0.  0.
        5    1    3    3  502    0  0.47869856756E+03 -0.69263996090E+02 -0.24397342935E+04  0.24872224131E+04  0.46999998093E+01 0.  1.
       -5    1    3    3    0  502 -0.47869856756E+03  0.69263996090E+02 -0.68477286180E+01  0.48375489778E+03  0.46999998093E+01 0. -1.
</event>
<event>
 5   0  0.2595644E-04  0.1684788E+04  0.7818609E-02  0.8770088E-01
       -1   -1    0    0    0  501  0.00000000000E+00  0.00000000000E+00  0.71354621667E+03  0.71354621669E+03  0.50400001928E-02 0.  1.
        1   -1    0    0  501    0  0.00000000000E+00  0.00000000000E+00 -0.99450775428E+03  0.99450775430E+03  0.50400001928E-02 0. -1.
    10030    2    1    2    0    0  0.00000000000E+00  0.00000000000E+00 -0.28096153761E+03  0.17080539710E+04  0.16847875184E+04 0.  0.
        2    1    3    3  502    0  0.73386498692E+03 -0.37350219714E+03  0.39639684726E+02  0.82439857770E+03  0.25500000920E-02 0.  1.
       -2    1    3    3    0  502 -0.73386498692E+03  0.37350219714E+03 -0.32060122234E+03  0.88365539328E+03  0.25500000920E-02 0. -1.
</event>
<event>
 5   0  0.2595644E-04  0.1673977E+04  0.7818609E-02  0.8776347E-01
        1   -1    0    0  501    0  0.00000000000E+00  0.00000000000E+00  0.10281145836E+04  0.10281145836E+04  0.50400001928E-02 0.  1.
       -1   -1    0    0    0  501  0.00000000000E+00  0.00000000000E+00 -0.68139238780E+03  0.68139238782E+03  0.50400001928E-02 0. -1.
    10030    2    1    2    0    0  0.00000000000E+00  0.00000000000E+00  0.34672219583E+03  0.17095069715E+04  0.16739766439E+04 0.  0.
        2    1    3    3  502    0  0.75050309911E+03  0.32907004623E+03 -0.56961941149E+00  0.81947685847E+03  0.25500000920E-02 0. -1.
       -2    1    3    3    0  502 -0.75050309911E+03 -0.32907004623E+03  0.34729181524E+03  0.89003011299E+03  0.25500000920E-02 0.  1.
</event>
<event>
 5   0  0.1910750E-04  0.1702583E+04  0.7818609E-02  0.8759893E-01
       -4   -1    0    0    0  501  0.00000000000E+00  0.00000000000E+00  0.60163037272E+03  0.60163171316E+03  0.12699999809E+01 0.  1.
        4   -1    0    0  501    0  0.00000000000E+00  0.00000000000E+00 -0.12045524984E+04  0.12045531679E+04  0.12699999809E+01 0. -1.
    10030    2    1    2    0    0  0.00000000000E+00  0.00000000000E+00 -0.60292212571E+03  0.18061848811E+04  0.17025829598E+04 0.  0.
        5    1    3    3  502    0  0.66115479136E+03 -0.25753604090E+03 -0.80042671686E+03  0.10696520413E+04  0.46999998093E+01 0. -1.
       -5    1    3    3    0  502 -0.66115479136E+03  0.25753604090E+03  0.19750459115E+03  0.73653283975E+03  0.46999998093E+01 0.  1.
</event>
<event>
 5   0  0.5310003E-04  0.1709801E+04  0.7818609E-02  0.8755794E-01
       -2   -1    0    0    0  501  0.00000000000E+00  0.00000000000E+00  0.11414998570E+04  0.11414998570E+04  0.25500000920E-02 0. -1.
        2   -1    0    0  501    0  0.00000000000E+00  0.00000000000E+00 -0.64025843626E+03  0.64025843626E+03  0.25500000920E-02 0.  1.
    10030    2    1    2    0    0  0.00000000000E+00  0.00000000000E+00  0.50124142077E+03  0.17817582933E+04  0.17098010568E+04 0.  0.
        1    1    3    3  502    0  0.63280242266E+03 -0.32070188162E+03  0.74773608137E+03  0.10307268554E+04  0.50400001928E-02 0. -1.
       -1    1    3    3    0  502 -0.63280242266E+03  0.32070188162E+03 -0.24649466060E+03  0.75103143791E+03  0.50400001928E-02 0.  1.
</event>
<event>
 5   0  0.2785059E-04  0.1674365E+04  0.7818609E-02  0.8776121E-01
       -1   -1    0    0    0  501  0.00000000000E+00  0.00000000000E+00  0.58899936754E+03  0.58899936756E+03  0.50400001928E-02 0. -1.
        1   -1    0    0  501    0  0.00000000000E+00  0.00000000000E+00 -0.11899410712E+04  0.11899410712E+04  0.50400001928E-02 0.  1.
    10030    2    1    2    0    0  0.00000000000E+00  0.00000000000E+00 -0.60094170365E+03  0.17789404388E+04  0.16743650001E+04 0.  0.
        5    1    3    3  502    0 -0.57483012299E+01  0.16322205578E+02  0.58879530848E+03  0.58906830050E+03  0.46999998093E+01 0. -1.
       -5    1    3    3    0  502  0.57483012299E+01 -0.16322205578E+02 -0.11897370121E+04  0.11898721383E+04  0.46999998093E+01 0.  1.
</event>
<event>
 5   0  0.2595644E-04  0.1704552E+04  0.7818609E-02  0.8758773E-01
        1   -1    0    0  501    0  0.00000000000E+00  0.00000000000E+00  0.98983999056E+03  0.98983999057E+03  0.50400001928E-02 0.  1.
       -1   -1    0    0    0  501  0.00000000000E+00  0.00000000000E+00 -0.73382995183E+03  0.73382995185E+03  0.50400001928E-02 0. -1.
    10030    2    1    2    0    0  0.00000000000E+00  0.00000000000E+00  0.25601003873E+03  0.17236699424E+04  0.17045518269E+04 0.  0.
        2    1    3    3  502    0  0.52724871947E+03  0.32240840552E+03 -0.46546401819E+03  0.77368930739E+03  0.25500000920E-02 0. -1.
       -2    1    3    3    0  502 -0.52724871947E+03 -0.32240840552E+03  0.72147405692E+03  0.94998063504E+03  0.25500000920E-02 0.  1.
</event>
<event>
 5   0  0.2630135E-04  0.1690044E+04  0.7818609E-02  0.8767063E-01
       -1   -1    0    0    0  501  0.00000000000E+00  0.00000000000E+00  0.59748123900E+03  0.59748123902E+03  0.50400001928E-02 0.  1.
        1   -1    0    0  501    0  0.00000000000E+00  0.00000000000E+00 -0.11951203663E+04  0.11951203663E+04  0.50400001928E-02 0. -1.
    10030    2    1    2    0    0  0.00000000000E+00  0.00000000000E+00 -0.59763912732E+03  0.17926016053E+04  0.16900437832E+04 0.  0.
        1    1    3    3  502    0 -0.29998828481E+03 -0.78827666533E+03 -0.24381798224E+03  0.87796371259E+03  0.50400001928E-02 0. -1.
       -1    1    3    3    0  502  0.29998828481E+03  0.78827666533E+03 -0.35382114508E+03  0.91463789276E+03  0.50400001928E-02 0.  1.
</event>
<event>
 5   0  0.5342255E-04  0.1714446E+04  0.7818609E-02  0.8753168E-01
       -2   -1    0    0    0  501  0.00000000000E+00  0.00000000000E+00  0.40657983209E+03  0.40657983209E+03  0.25500000920E-02 0.  1.
        2   -1    0    0  501    0  0.00000000000E+00  0.00000000000E+00 -0.18073481859E+04  0.18073481859E+04  0.25500000920E-02 0. -1.
    10030    2    1    2    0    0  0.00000000000E+00  0.00000000000E+00 -0.14007683538E+04  0.22139280180E+04  0.17144460586E+04 0.  0.
        5    1    3    3  502    0 -0.30446622941E+03  0.33875838874E+03 -0.16381406997E+04  0.17002893791E+04  0.46999998093E+01 0. -1.
       -5    1    3    3    0  502  0.30446622941E+03 -0.33875838874E+03  0.23737234585E+03  0.51363863889E+03  0.46999998093E+01 0.  1.
</event>
<event>
 5   0  0.5342255E-04  0.1716373E+04  0.7818609E-02  0.8752081E-01
        2   -1    0    0  501    0  0.00000000000E+00  0.00000000000E+00  0.81714276447E+03  0.81714276447E+03  0.25500000920E-02 0. -1.
       -2   -1    0    0    0  501  0.00000000000E+00  0.00000000000E+00 -0.90129221394E+03  0.90129221394E+03  0.25500000920E-02 0.  1.
    10030    2    1    2    0    0  0.00000000000E+00  0.00000000000E+00 -0.84149449471E+02  0.17184349784E+04  0.17163733991E+04 0.  0.
        5    1    3    3  502    0 -0.77860009889E+03  0.32601143491E+03  0.11290380895E+03  0.85162839887E+03  0.46999998093E+01 0. -1.
       -5    1    3    3    0  502  0.77860009889E+03 -0.32601143491E+03 -0.19705325842E+03  0.86680657954E+03  0.46999998093E+01 0.  1.
</event>
<event>
 5   0  0.5198430E-04  0.1739051E+04  0.7818609E-02  0.8739400E-01
        2   -1    0    0  501    0  0.00000000000E+00  0.00000000000E+00  0.11434633720E+04  0.11434633720E+04  0.25500000920E-02 0. -1.
       -2   -1    0    0    0  501  0.00000000000E+00  0.00000000000E+00 -0.66121455425E+03  0.66121455425E+03  0.25500000920E-02 0.  1.
    10030    2    1    2    0    0  0.00000000000E+00  0.00000000000E+00  0.48224881779E+03  0.18046779263E+04  0.17390510330E+04 0.  0.
        4    1    3    3  502    0  0.45993825853E+03 -0.63682088900E+03 -0.14575671384E+03  0.79895599307E+03  0.12699999809E+01 0.  1.
       -4    1    3    3    0  502 -0.45993825853E+03  0.63682088900E+03  0.62800553162E+03  0.10057219332E+04  0.12699999809E+01 0. -1.
</event>
<event>
 5   0  0.2785059E-04  0.1653420E+04  0.7818609E-02  0.8788386E-01
        1   -1    0    0  501    0  0.00000000000E+00  0.00000000000E+00  0.23906496787E+04  0.23906496787E+04  0.50400001928E-02 0. -1.
       -1   -1    0    0    0  501  0.00000000000E+00  0.00000000000E+00 -0.28588454571E+03  0.28588454576E+03  0.50400001928E-02 0.  1.
    10030    2    1    2    0    0  0.00000000000E+00  0.00000000000E+00  0.21047651330E+04  0.26765342245E+04  0.16534204516E+04 0.  0.
        5    1    3    3  502    0 -0.29117658056E+02 -0.68894472483E+03  0.17905473658E+04  0.19187429820E+04  0.46999998093E+01 0. -1.
       -5    1    3    3    0  502  0.29117658056E+02  0.68894472483E+03  0.31421776716E+03  0.75779124242E+03  0.46999998093E+01 0.  1.
</event>
<event>
 5   0  0.5021349E-04  0.1721054E+04  0.7818609E-02  0.8749447E-01
       -2   -1    0    0    0  501  0.00000000000E+00  0.00000000000E+00  0.34657389819E+03  0.34657389820E+03  0.25500000920E-02 0.  1.
        2   -1    0    0  501    0  0.00000000000E+00  0.00000000000E+00 -0.21366488213E+04  0.21366488213E+04  0.25500000920E-02 0. -1.
    10030    2    1    2    0    0  0.00000000000E+00  0.00000000000E+00 -0.17900749231E+04  0.24832227195E+04  0.17210539923E+04 0.  0.
        2    1    3    3  502    0 -0.68129992691E+03  0.51824332190E+03 -0.76792753739E+03  0.11499819276E+04  0.25500000920E-02 0.  1.
       -2    1    3    3    0  502  0.68129992691E+03 -0.51824332190E+03 -0.10221473857E+04  0.13332407919E+04  0.25500000920E-02 0. -1.
</event>
<event>
 5   0  0.2595644E-04  0.1806232E+04  0.7818609E-02  0.8702992E-01
       -1   -1    0    0    0  501  0.00000000000E+00  0.00000000000E+00  0.10739567171E+04  0.10739567171E+04  0.50400001928E-02 0.  1.
        1   -1    0    0  501    0  0.00000000000E+00  0.00000000000E+00 -0.75945199353E+03  0.75945199354E+03  0.50400001928E-02 0. -1.
    10030    2    1    2    0    0  0.00000000000E+00  0.00000000000E+00  0.31450472357E+03  0.18334087107E+04  0.18062320668E+04 0.  0.
        2    1    3    3  502    0  0.55531856683E+03  0.15713023996E+03  0.86236236866E+03  0.10376596156E+04  0.25500000920E-02 0.  1.
       -2    1    3    3    0  502 -0.55531856683E+03 -0.15713023996E+03 -0.54785764509E+03  0.79574909505E+03  0.25500000920E-02 0. -1.
</event>
<event>
 5   0  0.5021349E-04  0.1689904E+04  0.7818609E-02  0.8767144E-01
        2   -1    0    0  501    0  0.00000000000E+00  0.00000000000E+00  0.10674086193E+04  0.10674086193E+04  0.25500000920E-02 0.  1.
       -2   -1    0    0    0  501  0.00000000000E+00  0.00000000000E+00 -0.66885678414E+03  0.66885678415E+03  0.25500000920E-02 0. -1.
    10030    2    1    2    0    0  0.00000000000E+00  0.00000000000E+00  0.39855183517E+03  0.17362654035E+04  0.16899035434E+04 0.  0.
        2    1    3    3  502    0  0.31844702089E+03 -0.48035367261E+03  0.83412355405E+03  0.10138590924E+04  0.25500000920E-02 0.  1.
       -2    1    3    3    0  502 -0.31844702089E+03  0.48035367261E+03 -0.43557171888E+03  0.72240631102E+03  0.25500000920E-02 0. -1.
</event>
<event>
 5   0  0.2785059E-04  0.1701115E+04  0.7818609E-02  0.8760729E-01
        1   -1    0    0  501    0  0.00000000000E+00  0.00000000000E+00  0.60215443243E+03  0.60215443245E+03  0.50400001928E-02 0. -1.
       -1   -1    0    0    0  501  0.00000000000E+00  0.00000000000E+00 -0.12014329163E+04  0.12014329163E+04  0.50400001928E-02 0.  1.
    10030    2    1    2    0    0  0.00000000000E+00  0.00000000000E+00 -0.59927848383E+03  0.18035873487E+04  0.17011151117E+04 0.  0.
        5    1    3    3  502    0 -0.33356880973E+02 -0.29070866094E+03  0.54709352795E+03  0.62044953492E+03  0.46999998093E+01 0. -1.
       -5    1    3    3    0  502  0.33356880973E+02  0.29070866094E+03 -0.11463720118E+04  0.11831378138E+04  0.46999998093E+01 0.  1.
</event>
<event>
 5   0  0.5198430E-04  0.1616470E+04  0.7818609E-02  0.8810493E-01
        2   -1    0    0  501    0  0.00000000000E+00  0.00000000000E+00  0.81201930597E+03  0.81201930597E+03  0.25500000920E-02 0. -1.
       -2   -1    0    0    0  501  0.00000000000E+00  0.00000000000E+00 -0.80446823625E+03  0.80446823625E+03  0.25500000920E-02 0.  1.
    10030    2    1    2    0    0  0.00000000000E+00  0.00000000000E+00  0.75510697160E+01  0.16164875422E+04  0.16164699055E+04 0.  0.
        4    1    3    3  502    0 -0.38597114801E+03 -0.55242958917E+03  0.44997536935E+03  0.81032809652E+03  0.12699999809E+01 0. -1.
       -4    1    3    3    0  502  0.38597114801E+03  0.55242958917E+03 -0.44242429963E+03  0.80615944570E+03  0.12699999809E+01 0.  1.
</event>
<event>
 5   0  0.2630135E-04  0.1725083E+04  0.7818609E-02  0.8747186E-01
        1   -1    0    0  501    0  0.00000000000E+00  0.00000000000E+00  0.61224249949E+03  0.61224249951E+03  0.50400001928E-02 0.  1.
       -1   -1    0    0    0  501  0.00000000000E+00  0.00000000000E+00 -0.12151691581E+04  0.12151691581E+04  0.50400001928E-02 0. -1.
    10030    2    1    2    0    0  0.00000000000E+00  0.00000000000E+00 -0.60292665857E+03  0.18274116576E+04  0.17250834213E+04 0.  0.
        1    1    3    3  502    0  0.15393941789E+03 -0.80634085469E+03 -0.58192317475E+03  0.10062392855E+04  0.50400001928E-02 0. -1.
       -1    1    3    3    0  502 -0.15393941789E+03  0.80634085469E+03 -0.21003483824E+02  0.82117237209E+03  0.50400001928E-02 0.  1.
</event>
<event>
 5   0  0.2785059E-04  0.1837930E+04  0.7818609E-02  0.8686385E-01
       -1   -1    0    0    0  501  0.00000000000E+00  0.00000000000E+00  0.87268233059E+03  0.87268233061E+03  0.50400001928E-02 0. -1.
        1   -1    0    0  501    0  0.00000000000E+00  0.00000000000E+00 -0.96770199272E+03  0.96770199273E+03  0.50400001928E-02 0.  1.
    10030    2    1    2    0    0  0.00000000000E+00  0.00000000000E+00 -0.95019662129E+02  0.18403843233E+04  0.18379297379E+04 0.  0.
        5    1    3    3  502    0  0.23909259651E+03 -0.34416390028E+03 -0.86644085455E+03  0.96247384608E+03  0.46999998093E+01 0.  1.
       -5    1    3    3    0  502 -0.23909259651E+03  0.34416390028E+03  0.77142119242E+03  0.87791047726E+03  0.46999998093E+01 0. -1.
</event>
<event>
 5   0  0.2561518E-04  0.1694724E+04  0.7818609E-02  0.8764379E-01
        1   -1    0    0  501    0  0.00000000000E+00  0.00000000000E+00  0.58058877684E+03  0.58058877686E+03  0.50400001928E-02 0. -1.
       -1   -1    0    0    0  501  0.00000000000E+00  0.00000000000E+00 -0.12367148392E+04  0.12367148392E+04  0.50400001928E-02 0.  1.
    10030    2    1    2    0    0  0.00000000000E+00  0.00000000000E+00 -0.65612606234E+03  0.18173036160E+04  0.16947244682E+04 0.  0.
        4    1    3    3  502    0  0.29599747626E+03 -0.73573370983E+03 -0.79720440665E+01  0.79308496652E+03  0.12699999809E+01 0. -1.
       -4    1    3    3    0  502 -0.29599747626E+03  0.73573370983E+03 -0.64815401827E+03  0.10242186495E+04  0.12699999809E+01 0.  1.
</event>
<event>
 5   0  0.5021349E-04  0.1725843E+04  0.7818609E-02  0.8746761E-01
       -2   -1    0    0    0  501  0.00000000000E+00  0.00000000000E+00  0.13199507045E+04  0.13199507045E+04  0.25500000920E-02 0. -1.
        2   -1    0    0  501    0  0.00000000000E+00  0.00000000000E+00 -0.56413747027E+03  0.56413747028E+03  0.25500000920E-02 0.  1.
    10030    2    1    2    0    0  0.00000000000E+00  0.00000000000E+00  0.75581323419E+03  0.18840881747E+04  0.17258431578E+04 0.  0.
        2    1    3    3  502    0 -0.72219358415E+03  0.37540038421E+03  0.69079503490E+03  0.10675611466E+04  0.25500000920E-02 0. -1.
       -2    1    3    3    0  502  0.72219358415E+03 -0.37540038421E+03  0.65018199295E+02  0.81652702815E+03  0.25500000920E-02 0.  1.
</event>
<event>
 5   0  0.5299877E-04  0.1667161E+04  0.7818609E-02  0.8780319E-01
       -2   -1    0    0    0  501  0.00000000000E+00  0.00000000000E+00  0.74187783703E+03  0.74187783704E+03  0.25500000920E-02 0.  1.
        2   -1    0    0  501    0  0.00000000000E+00  0.00000000000E+00 -0.93661793361E+03  0.93661793362E+03  0.25500000920E-02 0. -1.
    10030    2    1    2    0    0  0.00000000000E+00  0.00000000000E+00 -0.19474009658E+03  0.16784957707E+04  0.16671605642E+04 0.  0.
        3    1    3    3  502    0  0.65718649542E+02  0.52419735257E+03 -0.74654414501E+03  0.91456545747E+03  0.10100000352E+00 0. -1.
       -3    1    3    3    0  502 -0.65718649542E+02 -0.52419735257E+03  0.55180404843E+03  0.76393031319E+03  0.10100000352E+00 0.  1.
</event>
<event>
 5   0  0.2785059E-04  0.1707624E+04  0.7818609E-02  0.8757028E-01
       -1   -1    0    0    0  501  0.00000000000E+00  0.00000000000E+00  0.47889254265E+03  0.47889254267E+03  0.50400001928E-02 0. -1.
        1   -1    0    0  501    0  0.00000000000E+00  0.00000000000E+00 -0.15222521303E+04  0.15222521303E+04  0.50400001928E-02 0.  1.
    10030    2    1    2    0    0  0.00000000000E+00  0.00000000000E+00 -0.10433595876E+04  0.20011446730E+04  0.17076243068E+04 0.  0.
        5    1    3    3  502    0 -0.50071300601E+03  0.65472087596E+03 -0.78267210482E+03  0.11366488699E+04  0.46999998093E+01 0.  1.
       -5    1    3    3    0  502  0.50071300601E+03 -0.65472087596E+03 -0.26068748282E+03  0.86449580306E+03  0.46999998093E+01 0. -1.
</event>
<event>
 5   0  0.5342255E-04  0.1803998E+04  0.7818609E-02  0.8704176E-01
       -2   -1    0    0    0  501  0.00000000000E+00  0.00000000000E+00  0.46663346813E+03  0.46663346814E+03  0.25500000920E-02 0.  1.
        2   -1    0    0  501    0  0.00000000000E+00  0.00000000000E+00 -0.17435568178E+04  0.17435568178E+04  0.25500000920E-02 0. -1.
    10030    2    1    2    0    0  0.00000000000E+00  0.00000000000E+00 -0.12769233497E+04  0.22101902860E+04  0.18039977437E+04 0.  0.
        5    1    3    3  502    0  0.69129769089E+03 -0.51945048098E+03 -0.95287420187E+03  0.12867449764E+04  0.46999998093E+01 0.  1.
       -5    1    3    3    0  502 -0.69129769089E+03  0.51945048098E+03 -0.32404914783E+03  0.92344530960E+03  0.46999998093E+01 0. -1.
</event>
<event>
 5   0  0.5342255E-04  0.1653819E+04  0.7818609E-02  0.8788150E-01
       -2   -1    0    0    0  501  0.00000000000E+00  0.00000000000E+00  0.18335472372E+04  0.18335472372E+04  0.25500000920E-02 0.  1.
        2   -1    0    0  501    0  0.00000000000E+00  0.00000000000E+00 -0.37292722329E+03  0.37292722329E+03  0.25500000920E-02 0. -1.
    10030    2    1    2    0    0  0.00000000000E+00  0.00000000000E+00  0.14606200140E+04  0.22064744605E+04  0.16538194339E+04 0.  0.
        5    1    3    3  502    0  0.71188156956E+03  0.36490900959E+02  0.12894694661E+04  0.14733840466E+04  0.46999998093E+01 0. -1.
       -5    1    3    3    0  502 -0.71188156956E+03 -0.36490900959E+02  0.17115054789E+03  0.73309041391E+03  0.46999998093E+01 0.  1.
</event>
<event>
 5   0  0.5342255E-04  0.1759805E+04  0.7818609E-02  0.8727972E-01
        2   -1    0    0  501    0  0.00000000000E+00  0.00000000000E+00  0.15386911300E+04  0.15386911300E+04  0.25500000920E-02 0.  1.
       -2   -1    0    0    0  501  0.00000000000E+00  0.00000000000E+00 -0.50317322321E+03  0.50317322322E+03  0.25500000920E-02 0. -1.
    10030    2    1    2    0    0  0.00000000000E+00  0.00000000000E+00  0.10355179068E+04  0.20418643532E+04  0.17598047339E+04 0.  0.
        5    1    3    3  502    0 -0.13870389100E+03 -0.68307588020E+03 -0.10531694427E+03  0.70494338513E+03  0.46999998093E+01 0. -1.
       -5    1    3    3    0  502  0.13870389100E+03  0.68307588020E+03  0.11408348510E+04  0.13369209681E+04  0.46999998093E+01 0.  1.
</event>
<event>
 5   0  0.2561518E-04  0.1636805E+04  0.7818609E-02  0.8798251E-01
        1   -1    0    0  501    0  0.00000000000E+00  0.00000000000E+00  0.11940674901E+04  0.11940674901E+04  0.50400001928E-02 0.  1.
       -1   -1    0    0    0  501  0.00000000000E+00  0.00000000000E+00 -0.56092562177E+03  0.56092562179E+03  0.50400001928E-02 0. -1.
    10030    2    1    2    0    0  0.00000000000E+00  0.00000000000E+00  0.63314186834E+03  0.17549931119E+04  0.16368054855E+04 0.  0.
        4    1    3    3  502    0  0.50124020529E+03  0.64664487962E+03  0.29539404000E+03  0.86985665227E+03  0.12699999809E+01 0.  1.
       -4    1    3    3    0  502 -0.50124020529E+03 -0.64664487962E+03  0.33774782835E+03  0.88513645964E+03  0.12699999809E+01 0. -1.
</event>
<event>
 5   0  0.5198430E-04  0.1823954E+04  0.7818609E-02  0.8693664E-01
       -2   -1    0    0    0  501  0.00000000000E+00  0.00000000000E+00  0.11285898977E+04  0.11285898977E+04  0.25500000920E-02 0.  1.
        2   -1    0    0  501    0  0.00000000000E+00  0.00000000000E+00 -0.73693905107E+03  0.73693905108E+03  0.25500000920E-02 0. -1.
    10030    2    1    2    0    0  0.00000000000E+00  0.00000000000E+00  0.39165084661E+03  0.18655289488E+04  0.18239539120E+04 0.  0.
        4    1    3    3  502    0 -0.78980251789E+03 -0.41227503228E+03 -0.34006421863E+01  0.89093877274E+03  0.12699999809E+01 0. -1.
       -4    1    3    3    0  502  0.78980251789E+03  0.41227503228E+03  0.39505148879E+03  0.97459017602E+03  0.12699999809E+01 0.  1.
</event>
<event>
 5   0  0.2630135E-04  0.1692346E+04  0.7818609E-02  0.8765741E-01
       -1   -1    0    0    0  501  0.00000000000E+00  0.00000000000E+00  0.92178329891E+03  0.92178329892E+03  0.50400001928E-02 0.  1.
        1   -1    0    0  501    0  0.00000000000E+00  0.00000000000E+00 -0.77676517353E+03  0.77676517354E+03  0.50400001928E-02 0. -1.
    10030    2    1    2    0    0  0.00000000000E+00  0.00000000000E+00  0.14501812538E+03  0.16985484725E+04  0.16923464943E+04 0.  0.
        1    1    3    3  502    0 -0.44528054392E+03  0.58707591187E+03 -0.34503991900E+03  0.81362487352E+03  0.50400001928E-02 0. -1.
       -1    1    3    3    0  502  0.44528054392E+03 -0.58707591187E+03  0.49005804438E+03  0.88492359895E+03  0.50400001928E-02 0.  1.
</event>
<event>
 5   0  0.2630135E-04  0.1724597E+04  0.7818609E-02  0.8747459E-01
        1   -1    0    0  501    0  0.00000000000E+00  0.00000000000E+00  0.11002316357E+04  0.11002316357E+04  0.50400001928E-02 0. -1.
       -1   -1    0    0    0  501  0.00000000000E+00  0.00000000000E+00 -0.67582039553E+03  0.67582039555E+03  0.50400001928E-02 0.  1.
    10030    2    1    2    0    0  0.00000000000E+00  0.00000000000E+00  0.42441124016E+03  0.17760520312E+04  0.17245973202E+04 0.  0.
        1    1    3    3  502    0 -0.85500762246E+03  0.52124293333E+02  0.11023626076E+03  0.86365908184E+03  0.50400001928E-02 0.  1.
       -1    1    3    3    0  502  0.85500762246E+03 -0.52124293333E+02  0.31417497940E+03  0.91239294941E+03  0.50400001928E-02 0. -1.
</event>
<event>
 5   0  0.2595644E-04  0.1715175E+04  0.7818609E-02  0.8752756E-01
        1   -1    0    0  501    0  0.00000000000E+00  0.00000000000E+00  0.99485713039E+03  0.99485713040E+03  0.50400001928E-02 0. -1.
       -1   -1    0    0    0  501  0.00000000000E+00  0.00000000000E+00 -0.73925863750E+03  0.73925863751E+03  0.50400001928E-02 0.  1.
    10030    2    1    2    0    0  0.00000000000E+00  0.00000000000E+00  0.25559849289E+03  0.17341157679E+04  0.17151754741E+04 0.  0.
        2    1    3    3  502    0  0.21764942522E+03  0.11957598658E+03 -0.70211048136E+03  0.74473405784E+03  0.25500000920E-02 0.  1.
       -2    1    3    3    0  502 -0.21764942522E+03 -0.11957598658E+03  0.95770897425E+03  0.98938171008E+03  0.25500000920E-02 0. -1.
</event>
<event>
 5   0  0.5198430E-04  0.1711114E+04  0.7818609E-02  0.8755051E-01
        2   -1    0    0  501    0  0.00000000000E+00  0.00000000000E+00  0.59894589870E+03  0.59894589870E+03  0.25500000920E-02 0.  1.
       -2   -1    0    0    0  501  0.00000000000E+00  0.00000000000E+00 -0.12221096114E+04  0.12221096114E+04  0.25500000920E-02 0. -1.
    10030    2    1    2    0    0  0.00000000000E+00  0.00000000000E+00 -0.62316371271E+03  0.18210555101E+04  0.17111137186E+04 0.  0.
        4    1    3    3  502    0  0.75955293349E+03 -0.35234555393E+03 -0.49868406281E+03  0.97455397775E+03  0.12699999809E+01 0. -1.
       -4    1    3    3    0  502 -0.75955293349E+03  0.35234555393E+03 -0.12447964990E+03  0.84650153236E+03  0.12699999809E+01 0.  1.
</event>
<event>
 5   0  0.2561518E-04  0.1608901E+04  0.7818609E-02  0.8815098E-01
       -1   -1    0    0    0  501  0.00000000000E+00  0.00000000000E+00  0.44377575587E+03  0.44377575590E+03  0.50400001928E-02 0. -1.
        1   -1    0    0  501    0  0.00000000000E+00  0.00000000000E+00 -0.14582606691E+04  0.14582606691E+04  0.50400001928E-02 0.  1.
    10030    2    1    2    0    0  0.00000000000E+00  0.00000000000E+00 -0.10144849132E+04  0.19020364250E+04  0.16089011538E+04 0.  0.
        4    1    3    3  502    0  0.73389895597E+03 -0.29764783455E+03 -0.34031736489E+03  0.86198574973E+03  0.12699999809E+01 0. -1.
       -4    1    3    3    0  502 -0.73389895597E+03  0.29764783455E+03 -0.67416754832E+03  0.10400506753E+04  0.12699999809E+01 0.  1.
</event>
<event>
 5   0  0.2583422E-04  0.1681503E+04  0.7818609E-02  0.8771985E-01
       -1   -1    0    0    0  501  0.00000000000E+00  0.00000000000E+00  0.44660173826E+03  0.44660173829E+03  0.50400001928E-02 0. -1.
        1   -1    0    0  501    0  0.00000000000E+00  0.00000000000E+00 -0.15827590078E+04  0.15827590078E+04  0.50400001928E-02 0.  1.
    10030    2    1    2    0    0  0.00000000000E+00  0.00000000000E+00 -0.11361572695E+04  0.20293607461E+04  0.16815028090E+04 0.  0.
        3    1    3    3  502    0 -0.46398924312E+03  0.57423503683E+03 -0.82574936560E+02  0.74286642514E+03  0.10100000352E+00 0. -1.
       -3    1    3    3    0  502  0.46398924312E+03 -0.57423503683E+03 -0.10535823330E+04  0.12864943209E+04  0.10100000352E+00 0.  1.
</event>
<event>
 5   0  0.5310003E-04  0.1732113E+04  0.7818609E-02  0.8743258E-01
        2   -1    0    0  501    0  0.00000000000E+00  0.00000000000E+00  0.36375780195E+03  0.36375780196E+03  0.25500000920E-02 0. -1.
       -2   -1    0    0    0  501  0.00000000000E+00  0.00000000000E+00 -0.20619585700E+04  0.20619585700E+04  0.25500000920E-02 0.  1.
    10030    2    1    2    0    0  0.00000000000E+00  0.00000000000E+00 -0.16982007681E+04  0.24257163720E+04  0.17321126028E+04 0.  0.
        1    1    3    3  502    0  0.28933027029E+03 -0.24578023632E+03 -0.19392256639E+04  0.19760354515E+04  0.50400001928E-02 0.  1.
       -1    1    3    3    0  502 -0.28933027029E+03  0.24578023632E+03  0.24102489581E+03  0.44968092054E+03  0.50400001928E-02 0. -1.
</event>
<event>
 5   0  0.5342255E-04  0.1709431E+04  0.7818609E-02  0.8756004E-01
       -2   -1    0    0    0  501  0.00000000000E+00  0.00000000000E+00  0.49551984679E+03  0.49551984680E+03  0.25500000920E-02 0. -1.
        2   -1    0    0  501    0  0.00000000000E+00  0.00000000000E+00 -0.14742863772E+04  0.14742863772E+04  0.25500000920E-02 0.  1.
    10030    2    1    2    0    0  0.00000000000E+00  0.00000000000E+00 -0.97876653038E+03  0.19698062240E+04  0.17094305014E+04 0.  0.
        5    1    3    3  502    0  0.14679904092E+03  0.62546290249E+03  0.16018263873E+03  0.66214376729E+03  0.46999998093E+01 0. -1.
       -5    1    3    3    0  502 -0.14679904092E+03 -0.62546290249E+03 -0.11389491691E+04  0.13076624567E+04  0.46999998093E+01 0.  1.
</event>
<event>
 5   0  0.2561518E-04  0.1691189E+04  0.7818609E-02  0.8766406E-01
       -1   -1    0    0    0  501  0.00000000000E+00  0.00000000000E+00  0.43859813110E+03  0.43859813113E+03  0.50400001928E-02 0.  1.
        1   -1    0    0  501    0  0.00000000000E+00  0.00000000000E+00 -0.16302624517E+04  0.16302624518E+04  0.50400001928E-02 0. -1.
    10030    2    1    2    0    0  0.00000000000E+00  0.00000000000E+00 -0.11916643206E+04  0.20688605829E+04  0.16911890073E+04 0.  0.
        4    1    3    3  502    0 -0.60883354599E+03  0.13099375148E+03 -0.12955768662E+04  0.14374834534E+04  0.12699999809E+01 0. -1.
       -4    1    3    3    0  502  0.60883354599E+03 -0.13099375148E+03  0.10391254553E+03  0.63137712951E+03  0.12699999809E+01 0.  1.
</event>
<event>
 5   0  0.5198430E-04  0.1703694E+04  0.7818609E-02  0.8759260E-01
       -2   -1    0    0    0  501  0.00000000000E+00  0.00000000000E+00  0.14476664645E+04  0.14476664645E+04  0.25500000920E-02 0. -1.
        2   -1    0    0  501    0  0.00000000000E+00  0.00000000000E+00 -0.50125036285E+03  0.50125036286E+03  0.25500000920E-02 0.  1.
    10030    2    1    2    0    0  0.00000000000E+00  0.00000000000E+00  0.94641610166E+03  0.19489168274E+04  0.17036940343E+04 0.  0.
        4    1    3    3  502    0  0.83832240303E+03  0.15002885402E+03  0.49456687787E+03  0.98483050219E+03  0.12699999809E+01 0.  1.
       -4    1    3    3    0  502 -0.83832240303E+03 -0.15002885402E+03  0.45184922379E+03  0.96408632518E+03  0.12699999809E+01 0. -1.
</event>
<event>
 5   0  0.5021349E-04  0.1715110E+04  0.7818609E-02  0.8752793E-01
        2   -1    0    0  501    0  0.00000000000E+00  0.00000000000E+00  0.59007176492E+03  0.59007176493E+03  0.25500000920E-02 0.  1.
       -2   -1    0    0    0  501  0.00000000000E+00  0.00000000000E+00 -0.12462895688E+04  0.12462895688E+04  0.25500000920E-02 0. -1.
    10030    2    1    2    0    0  0.00000000000E+00  0.00000000000E+00 -0.65621780386E+03  0.18363613337E+04  0.17151096588E+04 0.  0.
        2    1    3    3  502    0  0.79133350541E+03 -0.10582230099E+03 -0.66327820592E+03  0.10379523374E+04  0.25500000920E-02 0. -1.
       -2    1    3    3    0  502 -0.79133350541E+03  0.10582230099E+03  0.70604020685E+01  0.79840899635E+03  0.25500000920E-02 0.  1.
</event>
<event>
 5   0  0.2630135E-04  0.1674846E+04  0.7818609E-02  0.8775842E-01
       -1   -1    0    0    0  501  0.00000000000E+00  0.00000000000E+00  0.49375821816E+03  0.49375821818E+03  0.50400001928E-02 0. -1.
        1   -1    0    0  501    0  0.00000000000E+00  0.00000000000E+00 -0.14202848069E+04  0.14202848069E+04  0.50400001928E-02 0.  1.
    10030    2    1    2    0    0  0.00000000000E+00  0.00000000000E+00 -0.92652658879E+03  0.19140430251E+04  0.16748460175E+04 0.  0.
        1    1    3    3  502    0 -0.60236882636E+02  0.58325258040E+03  0.22000885702E+03  0.62627146811E+03  0.50400001928E-02 0. -1.
       -1    1    3    3    0  502  0.60236882636E+02 -0.58325258040E+03 -0.11465354458E+04  0.12877715570E+04  0.50400001928E-02 0.  1.
</event>
<event>
 5   0  0.5021349E-04  0.1711061E+04  0.7818609E-02  0.8755081E-01
        2   -1    0    0  501    0  0.00000000000E+00  0.00000000000E+00  0.14680927576E+04  0.14680927576E+04  0.25500000920E-02 0.  1.
       -2   -1    0    0    0  501  0.00000000000E+00  0.00000000000E+00 -0.49856031295E+03  0.49856031295E+03  0.25500000920E-02 0. -1.
    10030    2    1    2    0    0  0.00000000000E+00  0.00000000000E+00  0.96953244467E+03  0.19666530706E+04  0.17110614071E+04 0.  0.
        2    1    3    3  502    0 -0.11640894697E+03 -0.57321507571E+02 -0.48718468359E+03  0.50416833905E+03  0.25500000920E-02 0. -1.
       -2    1    3    3    0  502  0.11640894697E+03  0.57321507571E+02  0.14567171283E+04  0.14624847315E+04  0.25500000920E-02 0.  1.
</event>
<event>
 5   0  0.2595644E-04  0.1695603E+04  0.7818609E-02  0.8763876E-01
        1   -1    0    0  501    0  0.00000000000E+00  0.00000000000E+00  0.89100204553E+03  0.89100204554E+03  0.50400001928E-02 0. -1.
       -1   -1    0    0    0  501  0.00000000000E+00  0.00000000000E+00 -0.80669549325E+03  0.80669549327E+03  0.50400001928E-02 0.  1.
    10030    2    1    2    0    0  0.00000000000E+00  0.00000000000E+00  0.84306552275E+02  0.16976975388E+04  0.16956029425E+04 0.  0.
        2    1    3    3  502    0  0.22561688038E+03  0.45468143555E+03 -0.63775048855E+03  0.81508519199E+03  0.25500000920E-02 0.  1.
       -2    1    3    3    0  502 -0.22561688038E+03 -0.45468143555E+03  0.72205704083E+03  0.88261234682E+03  0.25500000920E-02 0. -1.
</event>
<event>
 5   0  0.2561518E-04  0.1651099E+04  0.7818609E-02  0.8789757E-01
        1   -1    0    0  501    0  0.00000000000E+00  0.00000000000E+00  0.90849229064E+03  0.90849229065E+03  0.50400001928E-02 0. -1.
       -1   -1    0    0    0  501  0.00000000000E+00  0.00000000000E+00 -0.75017901871E+03  0.75017901873E+03  0.50400001928E-02 0.  1.
    10030    2    1    2    0    0  0.00000000000E+00  0.00000000000E+00  0.15831327192E+03  0.16586713094E+04  0.16510988524E+04 0.  0.
        4    1    3    3  502    0 -0.26834740729E+03  0.65419866605E+03  0.50719059578E+03  0.87018971438E+03  0.12699999809E+01 0. -1.
       -4    1    3    3    0  502  0.26834740729E+03 -0.65419866605E+03 -0.34887732386E+03  0.78848159500E+03  0.12699999809E+01 0.  1.
</event>
<event>
 5   0  0.5310003E-04  0.1668436E+04  0.7818609E-02  0.8779574E-01
       -2   -1    0    0    0  501  0.00000000000E+00  0.00000000000E+00  0.40069338035E+03  0.40069338036E+03  0.25500000920E-02 0. -1.
        2   -1    0    0  501    0  0.00000000000E+00  0.00000000000E+00 -0.17367879613E+04  0.17367879613E+04  0.25500000920E-02 0.  1.
    10030    2    1    2    0    0  0.00000000000E+00  0.00000000000E+00 -0.13360945809E+04  0.21374813416E+04  0.16684357215E+04 0.  0.
        1    1    3    3  502    0  0.54441616625E+02 -0.65988651428E+03 -0.13181559797E+04  0.14751099241E+04  0.50400001928E-02 0.  1.
       -1    1    3    3    0  502 -0.54441616625E+02  0.65988651428E+03 -0.17938601244E+02  0.66237141755E+03  0.50400001928E-02 0. -1.
</event>
<event>
 5   0  0.5021349E-04  0.1693089E+04  0.7818609E-02  0.8765316E-01
        2   -1    0    0  501    0  0.00000000000E+00  0.00000000000E+00  0.21448178583E+04  0.21448178583E+04  0.25500000920E-02 0. -1.
       -2   -1    0    0    0  501  0.00000000000E+00  0.00000000000E+00 -0.33412498010E+03  0.33412498011E+03  0.25500000920E-02 0.  1.
    10030    2    1    2    0    0  0.00000000000E+00  0.00000000000E+00  0.18106928782E+04  0.24789428384E+04  0.16930885674E+04 0.  0.
        2    1    3    3  502    0 -0.23425162147E+03  0.29266799467E+03 -0.20597350309E+03  0.42773059423E+03  0.25500000920E-02 0.  1.
       -2    1    3    3    0  502  0.23425162147E+03 -0.29266799467E+03  0.20166663813E+04  0.20512122442E+04  0.25500000920E-02 0. -1.
</event>
<event>
 5   0  0.2630135E-04  0.1725968E+04  0.7818609E-02  0.8746691E-01
       -1   -1    0    0    0  501  0.00000000000E+00  0.00000000000E+00  0.73445677001E+03  0.73445677002E+03  0.50400001928E-02 0. -1.
        1   -1    0    0  501    0  0.00000000000E+00  0.00000000000E+00 -0.10140034397E+04  0.10140034397E+04  0.50400001928E-02 0.  1.
    10030    2    1    2    0    0  0.00000000000E+00  0.00000000000E+00 -0.27954666964E+03  0.17484602097E+04  0.17259683555E+04 0.  0.
        1    1    3    3  502    0  0.55707116176E+03  0.26093227472E+03 -0.75291077938E+03  0.97225951936E+03  0.50400001928E-02 0.  1.
       -1    1    3    3    0  502 -0.55707116176E+03 -0.26093227472E+03  0.47336410973E+03  0.77620069033E+03  0.50400001928E-02 0. -1.
</event>
<event>
 5   0  0.2595644E-04  0.1686275E+04  0.7818609E-02  0.8769231E-01
       -1   -1    0    0    0  501  0.00000000000E+00  0.00000000000E+00  0.67613557319E+03  0.67613557321E+03  0.50400001928E-02 0.  1.
        1   -1    0    0  501    0  0.00000000000E+00  0.00000000000E+00 -0.10513877175E+04  0.10513877175E+04  0.50400001928E-02 0. -1.
    10030    2    1    2    0    0  0.00000000000E+00  0.00000000000E+00 -0.37525214433E+03  0.17275232907E+04  0.16862747547E+04 0.  0.
        2    1    3    3  502    0  0.50175353989E+03 -0.63290314237E+03  0.60280097883E+02  0.80991153382E+03  0.25500000920E-02 0.  1.
       -2    1    3    3    0  502 -0.50175353989E+03  0.63290314237E+03 -0.43553224221E+03  0.91761175691E+03  0.25500000920E-02 0. -1.
</event>
<event>
 5   0  0.5310003E-04  0.1740780E+04  0.7818609E-02  0.8738442E-01
        2   -1    0    0  501    0  0.00000000000E+00  0.00000000000E+00  0.14937403630E+04  0.14937403630E+04  0.25500000920E-02 0. -1.
       -2   -1    0    0    0  501  0.00000000000E+00  0.00000000000E+00 -0.50716880198E+03  0.50716880198E+03  0.25500000920E-02 0.  1.
    10030    2    1    2    0    0  0.00000000000E+00  0.00000000000E+00  0.98657156105E+03  0.20009091650E+04  0.17407797223E+04 0.  0.
        1    1    3    3  502    0 -0.71178591040E+03  0.34578136127E+03  0.90990492418E+03  0.12058735021E+04  0.50400001928E-02 0. -1.
       -1    1    3    3    0  502  0.71178591040E+03 -0.34578136127E+03  0.76666636874E+02  0.79503566290E+03  0.50400001928E-02 0.  1.
</event>
<event>
 5   0  0.2595644E-04  0.1715178E+04  0.7818609E-02  0.8752755E-01
        1   -1    0    0  501    0  0.00000000000E+00  0.00000000000E+00  0.10332714964E+04  0.10332714965E+04  0.50400001928E-02 0.  1.
       -1   -1    0    0    0  501  0.00000000000E+00  0.00000000000E+00 -0.71177665249E+03  0.71177665251E+03  0.50400001928E-02 0. -1.
    10030    2    1    2    0    0  0.00000000000E+00  0.00000000000E+00  0.32149484396E+03  0.17450481490E+04  0.17151775732E+04 0.  0.
        2    1    3    3  502    0  0.60706606292E+03 -0.33904976726E+03  0.67146015737E+03  0.96661403485E+03  0.25500000920E-02 0.  1.
       -2    1    3    3    0  502 -0.60706606292E+03  0.33904976726E+03 -0.34996531342E+03  0.77843411412E+03  0.25500000920E-02 0. -1.
</event>
<event>
 5   0  0.2583422E-04  0.1711910E+04  0.7818609E-02  0.8754600E-01
        1   -1    0    0  501    0  0.00000000000E+00  0.00000000000E+00  0.10861134249E+04  0.10861134249E+04  0.50400001928E-02 0.  1.
       -1   -1    0    0    0  501  0.00000000000E+00  0.00000000000E+00 -0.67456982019E+03  0.67456982021E+03  0.50400001928E-02 0. -1.
    10030    2    1    2    0    0  0.00000000000E+00  0.00000000000E+00  0.41154360471E+03  0.17606832451E+04  0.17119104390E+04 0.  0.
        3    1    3    3  502    0 -0.30298225592E+02 -0.14559242388E+03 -0.66118156529E+03  0.67769920233E+03  0.10100000352E+00 0. -1.
       -3    1    3    3    0  502  0.30298225592E+02  0.14559242388E+03  0.10727251700E+04  0.10829840428E+04  0.10100000352E+00 0.  1.
</event>
<event>
 5   0  0.5198430E-04  0.1680973E+04  0.7818609E-02  0.8772291E-01
        2   -1    0    0  501    0  0.00000000000E+00  0.00000000000E+00  0.16417968042E+04  0.16417968042E+04  0.25500000920E-02 0.  1.
       -2   -1    0    0    0  501  0.00000000000E+00  0.00000000000E+00 -0.43027095607E+03  0.43027095608E+03  0.25500000920E-02 0. -1.
    10030    2    1    2    0    0  0.00000000000E+00  0.00000000000E+00  0.12115258481E+04  0.20720677603E+04  0.16809729095E+04 0.  0.
        4    1    3    3  502    0 -0.16136733010E+03  0.46693904813E+03 -0.23239533636E+03  0.54596766860E+03  0.12699999809E+01 0. -1.
       -4    1    3    3    0  502  0.16136733010E+03 -0.46693904813E+03  0.14439211845E+04  0.15261000917E+04  0.12699999809E+01 0.  1.
</event>
<event>
 5   0  0.5198430E-04  0.1699432E+04  0.7818609E-02  0.8761688E-01
       -2   -1    0    0    0  501  0.00000000000E+00  0.00000000000E+00  0.67609624684E+03  0.67609624685E+03  0.25500000920E-02 0. -1.
        2   -1    0    0  501    0  0.00000000000E+00  0.00000000000E+00 -0.10679212183E+04  0.10679212183E+04  0.25500000920E-02 0.  1.
    10030    2    1    2    0    0  0.00000000000E+00  0.00000000000E+00 -0.39182497144E+03  0.17440174651E+04  0.16994322906E+04 0.  0.
        4    1    3    3  502    0  0.30042476936E+03 -0.21277699567E+03  0.59000344700E+03  0.69543854675E+03  0.12699999809E+01 0. -1.
       -4    1    3    3    0  502 -0.30042476936E+03  0.21277699567E+03 -0.98182841844E+03  0.10485789184E+04  0.12699999809E+01 0.  1.
</event>
<event>
 5   0  0.5198430E-04  0.1669235E+04  0.7818609E-02  0.8779108E-01
        2   -1    0    0  501    0  0.00000000000E+00  0.00000000000E+00  0.12349881491E+04  0.12349881491E+04  0.25500000920E-02 0. -1.
       -2   -1    0    0    0  501  0.00000000000E+00  0.00000000000E+00 -0.56404324276E+03  0.56404324276E+03  0.25500000920E-02 0.  1.
    10030    2    1    2    0    0  0.00000000000E+00  0.00000000000E+00  0.67094490634E+03  0.17990313919E+04  0.16692354183E+04 0.  0.
        4    1    3    3  502    0  0.83007668991E+03 -0.84007949485E+02  0.31136195555E+03  0.89052373746E+03  0.12699999809E+01 0. -1.
       -4    1    3    3    0  502 -0.83007668991E+03  0.84007949485E+02  0.35958295079E+03  0.90850765440E+03  0.12699999809E+01 0.  1.
</event>
<event>
 5   0  0.5299877E-04  0.1664647E+04  0.7818609E-02  0.8781788E-01
       -2   -1    0    0    0  501  0.00000000000E+00  0.00000000000E+00  0.90508028131E+03  0.90508028131E+03  0.25500000920E-02 0.  1.
        2   -1    0    0  501    0  0.00000000000E+00  0.00000000000E+00 -0.76541527153E+03  0.76541527153E+03  0.25500000920E-02 0. -1.
    10030    2    1    2    0    0  0.00000000000E+00  0.00000000000E+00  0.13966500978E+03  0.16704955528E+04  0.16646468326E+04 0.  0.
        3    1    3    3  502    0  0.80636153186E+03  0.20483088774E+03  0.94159096939E+02  0.83728164817E+03  0.10100000352E+00 0. -1.
       -3    1    3    3    0  502 -0.80636153186E+03 -0.20483088774E+03  0.45505912846E+02  0.83321390467E+03  0.10100000352E+00 0.  1.
</event>
<event>
 5   0  0.2630135E-04  0.1728877E+04  0.7818609E-02  0.8745064E-01
        1   -1    0    0  501    0  0.00000000000E+00  0.00000000000E+00  0.13295568547E+04  0.13295568547E+04  0.50400001928E-02 0. -1.
       -1   -1    0    0    0  501  0.00000000000E+00  0.00000000000E+00 -0.56203212872E+03  0.56203212874E+03  0.50400001928E-02 0.  1.
    10030    2    1    2    0    0  0.00000000000E+00  0.00000000000E+00  0.76752472598E+03  0.18915889835E+04  0.17288767097E+04 0.  0.
        1    1    3    3  502    0 -0.30970033479E+03 -0.27123165537E+03  0.12154136882E+04  0.12832425109E+04  0.50400001928E-02 0. -1.
       -1    1    3    3    0  502  0.30970033479E+03  0.27123165537E+03 -0.44788896219E+03  0.60834647260E+03  0.50400001928E-02 0.  1.
</event>
<event>
 5   0  0.5021349E-04  0.1362535E+04  0.7818609E-02  0.8981394E-01
       -2   -1    0    0    0  501  0.00000000000E+00  0.00000000000E+00  0.21046898658E+03  0.21046898659E+03  0.25500000920E-02 0.  1.
        2   -1    0    0  501    0  0.00000000000E+00  0.00000000000E+00 -0.22051946604E+04  0.22051946604E+04  0.25500000920E-02 0. -1.
    10030    2    1    2    0    0  0.00000000000E+00  0.00000000000E+00 -0.19947256738E+04  0.24156636470E+04  0.13625345286E+04 0.  0.
        2    1    3    3  502    0  0.28447385290E+03  0.19937991266E+03 -0.20363711922E+04  0.20657892813E+04  0.25500000920E-02 0. -1.
       -2    1    3    3    0  502 -0.28447385290E+03 -0.19937991266E+03  0.41645518332E+02  0.34987436568E+03  0.25500000920E-02 0.  1.
</event>
<event>
 5   0  0.5310003E-04  0.1729112E+04  0.7818609E-02  0.8744933E-01
       -2   -1    0    0    0  501  0.00000000000E+00  0.00000000000E+00  0.46668442494E+03  0.46668442495E+03  0.25500000920E-02 0.  1.
        2   -1    0    0  501    0  0.00000000000E+00  0.00000000000E+00 -0.16016324793E+04  0.16016324793E+04  0.25500000920E-02 0. -1.
    10030    2    1    2    0    0  0.00000000000E+00  0.00000000000E+00 -0.11349480543E+04  0.20683169042E+04  0.17291118328E+04 0.  0.
        1    1    3    3  502    0  0.81328047846E+03  0.80931484299E+02 -0.90470549550E+03  0.12192075604E+04  0.50400001928E-02 0. -1.
       -1    1    3    3    0  502 -0.81328047846E+03 -0.80931484299E+02 -0.23024255883E+03  0.84910934379E+03  0.50400001928E-02 0.  1.
</event>
<event>
 5   0  0.2595644E-04  0.1684320E+04  0.7818609E-02  0.8770358E-01
        1   -1    0    0  501    0  0.00000000000E+00  0.00000000000E+00  0.13661748711E+04  0.13661748711E+04  0.50400001928E-02 0.  1.
       -1   -1    0    0    0  501  0.00000000000E+00  0.00000000000E+00 -0.51913817906E+03  0.51913817909E+03  0.50400001928E-02 0. -1.
    10030    2    1    2    0    0  0.00000000000E+00  0.00000000000E+00  0.84703669208E+03  0.18853130502E+04  0.16843200823E+04 0.  0.
        2    1    3    3  502    0  0.11337337672E+03 -0.82216935220E+03  0.26357695850E+03  0.87079778324E+03  0.25500000920E-02 0. -1.
       -2    1    3    3    0  502 -0.11337337672E+03  0.82216935220E+03  0.58345973358E+03  0.10145152670E+04  0.25500000920E-02 0.  1.
</event>
<event>
 5   0  0.2595644E-04  0.1558260E+04  0.7818609E-02  0.8846609E-01
       -1   -1    0    0    0  501  0.00000000000E+00  0.00000000000E+00  0.71600982347E+03  0.71600982349E+03  0.50400001928E-02 0. -1.
        1   -1    0    0  501    0  0.00000000000E+00  0.00000000000E+00 -0.84781456743E+03  0.84781456744E+03  0.50400001928E-02 0.  1.
    10030    2    1    2    0    0  0.00000000000E+00  0.00000000000E+00 -0.13180474396E+03  0.15638243909E+04  0.15582600024E+04 0.  0.
        2    1    3    3  502    0  0.65377683060E+03  0.37666364624E+03 -0.26087404379E+03  0.79834510918E+03  0.25500000920E-02 0. -1.
       -2    1    3    3    0  502 -0.65377683060E+03 -0.37666364624E+03  0.12906929983E+03  0.76547928175E+03  0.25500000920E-02 0.  1.
</event>
<event>
 5   0  0.5198430E-04  0.1619883E+04  0.7818609E-02  0.8808426E-01
       -2   -1    0    0    0  501  0.00000000000E+00  0.00000000000E+00  0.63756124066E+03  0.63756124067E+03  0.25500000920E-02 0. -1.
        2   -1    0    0  501    0  0.00000000000E+00  0.00000000000E+00 -0.10289283817E+04  0.10289283817E+04  0.25500000920E-02 0.  1.
    10030    2    1    2    0    0  0.00000000000E+00  0.00000000000E+00 -0.39136714106E+03  0.16664896224E+04  0.16198825335E+04 0.  0.
        4    1    3    3  502    0 -0.65096005217E+03  0.29339887424E+03 -0.58900736980E+03  0.92561502987E+03  0.12699999809E+01 0.  1.
       -4    1    3    3    0  502  0.65096005217E+03 -0.29339887424E+03  0.19764022875E+03  0.74087459252E+03  0.12699999809E+01 0. -1.
</event>
<event>
 5   0  0.5198430E-04  0.1705010E+04  0.7818609E-02  0.8758512E-01
       -2   -1    0    0    0  501  0.00000000000E+00  0.00000000000E+00  0.71973635719E+03  0.71973635720E+03  0.25500000920E-02 0.  1.
        2   -1    0    0  501    0  0.00000000000E+00  0.00000000000E+00 -0.10097657075E+04  0.10097657075E+04  0.25500000920E-02 0. -1.
    10030    2    1    2    0    0  0.00000000000E+00  0.00000000000E+00 -0.29002935029E+03  0.17295020647E+04  0.17050103717E+04 0.  0.
        4    1    3    3  502    0  0.24162145726E+03 -0.13124702048E+03 -0.96354889385E+03  0.10020153655E+04  0.12699999809E+01 0. -1.
       -4    1    3    3    0  502 -0.24162145726E+03  0.13124702048E+03  0.67351954356E+03  0.72748669916E+03  0.12699999809E+01 0.  1.
</event>
<event>
 5   0  0.5198430E-04  0.1750275E+04  0.7818609E-02  0.8733199E-01
       -2   -1    0    0    0  501  0.00000000000E+00  0.00000000000E+00  0.41577959540E+03  0.41577959541E+03  0.25500000920E-02 0. -1.
        2   -1    0    0  501    0  0.00000000000E+00  0.00000000000E+00 -0.18419985511E+04  0.18419985511E+04  0.25500000920E-02 0.  1.
    10030    2    1    2    0    0  0.00000000000E+00  0.00000000000E+00 -0.14262189557E+04  0.22577781465E+04  0.17502747354E+04 0.  0.
        4    1    3    3  502    0 -0.38129801335E+03 -0.55641936790E+03 -0.14323375354E+04  0.15832192255E+04  0.12699999809E+01 0.  1.
       -4    1    3    3    0  502  0.38129801335E+03  0.55641936790E+03  0.61185796809E+01  0.67455892098E+03  0.12699999809E+01 0. -1.
</event>
<event>
 5   0  0.2583422E-04  0.1590822E+04  0.7818609E-02  0.8826206E-01
       -1   -1    0    0    0  501  0.00000000000E+00  0.00000000000E+00  0.61338235220E+03  0.61338235222E+03  0.50400001928E-02 0. -1.
        1   -1    0    0  501    0  0.00000000000E+00  0.00000000000E+00 -0.10314587616E+04  0.10314587616E+04  0.50400001928E-02 0.  1.
    10030    2    1    2    0    0  0.00000000000E+00  0.00000000000E+00 -0.41807640940E+03  0.16448411138E+04  0.15908219277E+04 0.  0.
        3    1    3    3  502    0  0.52198958466E+03  0.55649784133E+03 -0.44142701714E+03  0.88148783063E+03  0.10100000352E+00 0.  1.
       -3    1    3    3    0  502 -0.52198958466E+03 -0.55649784133E+03  0.23350607733E+02  0.76335328321E+03  0.10100000352E+00 0. -1.
</event>
<event>
 5   0  0.2583422E-04  0.1252877E+04  0.7818609E-02  0.9067793E-01
        1   -1    0    0  501    0  0.00000000000E+00  0.00000000000E+00  0.56143925079E+03  0.56143925081E+03  0.50400001928E-02 0. -1.
       -1   -1    0    0    0  501  0.00000000000E+00  0.00000000000E+00 -0.69896236116E+03  0.69896236117E+03  0.50400001928E-02 0.  1.
    10030    2    1    2    0    0  0.00000000000E+00  0.00000000000E+00 -0.13752311036E+03  0.12604016120E+04  0.12528765373E+04 0.  0.
        3    1    3    3  502    0  0.37348427477E+03 -0.38649149680E+03 -0.39249979211E+03  0.66552406238E+03  0.10100000352E+00 0.  1.
       -3    1    3    3    0  502 -0.37348427477E+03  0.38649149680E+03  0.25497668175E+03  0.59487754961E+03  0.10100000352E+00 0. -1.
</event>
<event>
 5   0  0.5021349E-04  0.1647203E+04  0.7818609E-02  0.8792063E-01
        2   -1    0    0  501    0  0.00000000000E+00  0.00000000000E+00  0.10925562108E+04  0.10925562108E+04  0.25500000920E-02 0.  1.
       -2   -1    0    0    0  501  0.00000000000E+00  0.00000000000E+00 -0.62085556416E+03  0.62085556416E+03  0.25500000920E-02 0. -1.
    10030    2    1    2    0    0  0.00000000000E+00  0.00000000000E+00  0.47170064666E+03  0.17134117750E+04  0.16472032087E+04 0.  0.
        2    1    3    3  502    0 -0.66675348015E+02  0.63086390386E+03  0.78220970326E+03  0.10071181098E+04  0.25500000920E-02 0.  1.
       -2    1    3    3    0  502  0.66675348015E+02 -0.63086390386E+03 -0.31050905660E+03  0.70629366517E+03  0.25500000920E-02 0. -1.
</event>
<event>
 5   0  0.2595644E-04  0.1710545E+04  0.7818609E-02  0.8755373E-01
        1   -1    0    0  501    0  0.00000000000E+00  0.00000000000E+00  0.15539340750E+04  0.15539340750E+04  0.50400001928E-02 0. -1.
       -1   -1    0    0    0  501  0.00000000000E+00  0.00000000000E+00 -0.47073506605E+03  0.47073506607E+03  0.50400001928E-02 0.  1.
    10030    2    1    2    0    0  0.00000000000E+00  0.00000000000E+00  0.10831990090E+04  0.20246691411E+04  0.17105452458E+04 0.  0.
        2    1    3    3  502    0 -0.22366847546E+03  0.18282587389E+03  0.14944392373E+04  0.15221043069E+04  0.25500000920E-02 0. -1.
       -2    1    3    3    0  502  0.22366847546E+03 -0.18282587389E+03 -0.41124022839E+03  0.50256483415E+03  0.25500000920E-02 0.  1.
</event>
<event>
 5   0  0.2595644E-04  0.1729712E+04  0.7818609E-02  0.8744598E-01
        1   -1    0    0  501    0  0.00000000000E+00  0.00000000000E+00  0.11008956339E+04  0.11008956339E+04  0.50400001928E-02 0. -1.
       -1   -1    0    0    0  501  0.00000000000E+00  0.00000000000E+00 -0.67942481921E+03  0.67942481923E+03  0.50400001928E-02 0.  1.
    10030    2    1    2    0    0  0.00000000000E+00  0.00000000000E+00  0.42147081465E+03  0.17803204531E+04  0.17297119032E+04 0.  0.
        2    1    3    3  502    0 -0.60541388531E+03  0.39836177417E+03 -0.27504591201E+03  0.77515697079E+03  0.25500000920E-02 0.  1.
       -2    1    3    3    0  502  0.60541388531E+03 -0.39836177417E+03  0.69651672665E+03  0.10051634823E+04  0.25500000920E-02 0. -1.
</event>
<event>
 5   0  0.2630135E-04  0.1699539E+04  0.7818609E-02  0.8761627E-01
        1   -1    0    0  501    0  0.00000000000E+00  0.00000000000E+00  0.73524739945E+03  0.73524739947E+03  0.50400001928E-02 0. -1.
       -1   -1    0    0    0  501  0.00000000000E+00  0.00000000000E+00 -0.98212980436E+03  0.98212980437E+03  0.50400001928E-02 0.  1.
    10030    2    1    2    0    0  0.00000000000E+00  0.00000000000E+00 -0.24688240490E+03  0.17173772038E+04  0.16995392136E+04 0.  0.
        1    1    3    3  502    0 -0.73442218317E+03 -0.33722043231E+03 -0.38890523590E+03  0.89685051466E+03  0.50400001928E-02 0.  1.
       -1    1    3    3    0  502  0.73442218317E+03  0.33722043231E+03  0.14202283100E+03  0.82052668918E+03  0.50400001928E-02 0. -1.
</event>
<event>
 5   0  0.5021349E-04  0.1683675E+04  0.7818609E-02  0.8770730E-01
       -2   -1    0    0    0  501  0.00000000000E+00  0.00000000000E+00  0.66487022753E+03  0.66487022754E+03  0.25500000920E-02 0.  1.
        2   -1    0    0  501    0  0.00000000000E+00  0.00000000000E+00 -0.10659075064E+04  0.10659075064E+04  0.25500000920E-02 0. -1.
    10030    2    1    2    0    0  0.00000000000E+00  0.00000000000E+00 -0.40103727886E+03  0.17307777339E+04  0.16836747504E+04 0.  0.
        2    1    3    3  502    0 -0.37930587250E+03 -0.10128995752E+03  0.56500114258E+03  0.68801082225E+03  0.25500000920E-02 0.  1.
       -2    1    3    3    0  502  0.37930587250E+03  0.10128995752E+03 -0.96603842144E+03  0.10427669117E+04  0.25500000920E-02 0. -1.
</event>
<event>
 5   0  0.5198430E-04  0.1724551E+04  0.7818609E-02  0.8747485E-01
        2   -1    0    0  501    0  0.00000000000E+00  0.00000000000E+00  0.28899786655E+04  0.28899786655E+04  0.25500000920E-02 0.  1.
       -2   -1    0    0    0  501  0.00000000000E+00  0.00000000000E+00 -0.25727489014E+03  0.25727489015E+03  0.25500000920E-02 0. -1.
    10030    2    1    2    0    0  0.00000000000E+00  0.00000000000E+00  0.26327037754E+04  0.31472535556E+04  0.17245508907E+04 0.  0.
        4    1    3    3  502    0 -0.34214001775E+03 -0.43754665187E+03  0.11268705691E+03  0.56675113586E+03  0.12699999809E+01 0. -1.
       -4    1    3    3    0  502  0.34214001775E+03  0.43754665187E+03  0.25200167184E+04  0.25805024198E+04  0.12699999809E+01 0.  1.
</event>
<event>
 5   0  0.2630135E-04  0.1688409E+04  0.7818609E-02  0.8768003E-01
       -1   -1    0    0    0  501  0.00000000000E+00  0.00000000000E+00  0.68463287689E+03  0.68463287691E+03  0.50400001928E-02 0.  1.
        1   -1    0    0  501    0  0.00000000000E+00  0.00000000000E+00 -0.10409682043E+04  0.10409682043E+04  0.50400001928E-02 0. -1.
    10030    2    1    2    0    0  0.00000000000E+00  0.00000000000E+00 -0.35633532742E+03  0.17256010812E+04  0.16884087852E+04 0.  0.
        1    1    3    3  502    0  0.57140304549E+03  0.29757336959E+03  0.37940431338E+03  0.74766234606E+03  0.50400001928E-02 0.  1.
       -1    1    3    3    0  502 -0.57140304549E+03 -0.29757336959E+03 -0.73573964080E+03  0.97793873518E+03  0.50400001928E-02 0. -1.
</event>
<event>
 5   0  0.5310003E-04  0.1707363E+04  0.7818609E-02  0.8757176E-01
       -2   -1    0    0    0  501  0.00000000000E+00  0.00000000000E+00  0.21368969555E+04  0.21368969555E+04  0.25500000920E-02 0. -1.
        2   -1    0    0  501    0  0.00000000000E+00  0.00000000000E+00 -0.34104239287E+03  0.34104239288E+03  0.25500000920E-02 0.  1.
    10030    2    1    2    0    0  0.00000000000E+00  0.00000000000E+00  0.17958545626E+04  0.24779393483E+04  0.17073634071E+04 0.  0.
        1    1    3    3  502    0  0.45355461517E+03 -0.26680750670E+02 -0.15099908789E+03  0.47877382548E+03  0.50400001928E-02 0.  1.
       -1    1    3    3    0  502 -0.45355461517E+03  0.26680750670E+02  0.19468536505E+04  0.19991655229E+04  0.50400001928E-02 0. -1.
</event>
<event>
 5   0  0.2595644E-04  0.1696986E+04  0.7818609E-02  0.8763085E-01
       -1   -1    0    0    0  501  0.00000000000E+00  0.00000000000E+00  0.55885161782E+03  0.55885161785E+03  0.50400001928E-02 0.  1.
        1   -1    0    0  501    0  0.00000000000E+00  0.00000000000E+00 -0.12882490698E+04  0.12882490698E+04  0.50400001928E-02 0. -1.
    10030    2    1    2    0    0  0.00000000000E+00  0.00000000000E+00 -0.72939745201E+03  0.18471006877E+04  0.16969856533E+04 0.  0.
        2    1    3    3  502    0  0.40284982507E+02  0.83624533968E+03 -0.51477570128E+03  0.98281390435E+03  0.25500000920E-02 0.  1.
       -2    1    3    3    0  502 -0.40284982507E+02 -0.83624533968E+03 -0.21462175073E+03  0.86428678334E+03  0.25500000920E-02 0. -1.
</event>
<event>
 5   0  0.2630135E-04  0.1259825E+04  0.7818609E-02  0.9062045E-01
        1   -1    0    0  501    0  0.00000000000E+00  0.00000000000E+00  0.12229719200E+04  0.12229719201E+04  0.50400001928E-02 0.  1.
       -1   -1    0    0    0  501  0.00000000000E+00  0.00000000000E+00 -0.32444733611E+03  0.32444733615E+03  0.50400001928E-02 0. -1.
    10030    2    1    2    0    0  0.00000000000E+00  0.00000000000E+00  0.89852458393E+03  0.15474192562E+04  0.12598253556E+04 0.  0.
        1    1    3    3  502    0 -0.62510056448E+02 -0.24312859554E+03  0.11588758855E+04  0.11857539117E+04  0.50400001928E-02 0.  1.
       -1    1    3    3    0  502  0.62510056448E+02  0.24312859554E+03 -0.26035130159E+03  0.36166534447E+03  0.50400001928E-02 0. -1.
</event>
<event>
 5   0  0.2630135E-04  0.1716489E+04  0.7818609E-02  0.8752015E-01
        1   -1    0    0  501    0  0.00000000000E+00  0.00000000000E+00  0.10742286906E+04  0.10742286906E+04  0.50400001928E-02 0.  1.
       -1   -1    0    0    0  501  0.00000000000E+00  0.00000000000E+00 -0.68568633303E+03  0.68568633305E+03  0.50400001928E-02 0. -1.
    10030    2    1    2    0    0  0.00000000000E+00  0.00000000000E+00  0.38854235756E+03  0.17599150236E+04  0.17164893611E+04 0.  0.
        1    1    3    3  502    0 -0.78172579162E+03  0.19299768691E+03 -0.11029721758E+03  0.81271692284E+03  0.50400001928E-02 0. -1.
       -1    1    3    3    0  502  0.78172579162E+03 -0.19299768691E+03  0.49883957514E+03  0.94719810081E+03  0.50400001928E-02 0.  1.
</event>
<event>
 5   0  0.2630135E-04  0.1803200E+04  0.7818609E-02  0.8704600E-01
        1   -1    0    0  501    0  0.00000000000E+00  0.00000000000E+00  0.93923334539E+03  0.93923334540E+03  0.50400001928E-02 0.  1.
       -1   -1    0    0    0  501  0.00000000000E+00  0.00000000000E+00 -0.86547438811E+03  0.86547438812E+03  0.50400001928E-02 0. -1.
    10030    2    1    2    0    0  0.00000000000E+00  0.00000000000E+00  0.73758957282E+02  0.18047077335E+04  0.18031998280E+04 0.  0.
        1    1    3    3  502    0  0.89660343182E+03 -0.55241026337E+02  0.11397063970E+03  0.90550460610E+03  0.50400001928E-02 0.  1.
       -1    1    3    3    0  502 -0.89660343182E+03  0.55241026337E+02 -0.40211682420E+02  0.89920312742E+03  0.50400001928E-02 0. -1.
</event>
<event>
 5   0  0.2630135E-04  0.1697191E+04  0.7818609E-02  0.8762968E-01
       -1   -1    0    0    0  501  0.00000000000E+00  0.00000000000E+00  0.62453214145E+03  0.62453214147E+03  0.50400001928E-02 0. -1.
        1   -1    0    0  501    0  0.00000000000E+00  0.00000000000E+00 -0.11530465806E+04  0.11530465806E+04  0.50400001928E-02 0.  1.
    10030    2    1    2    0    0  0.00000000000E+00  0.00000000000E+00 -0.52851443916E+03  0.17775787221E+04  0.16971913860E+04 0.  0.
        1    1    3    3  502    0 -0.34500077517E+03 -0.66186592162E+03 -0.68714190204E+03  0.10145225609E+04  0.50400001928E-02 0. -1.
       -1    1    3    3    0  502  0.34500077517E+03  0.66186592162E+03  0.15862746289E+03  0.76305616115E+03  0.50400001928E-02 0.  1.
</event>
<event>
 5   0  0.2595644E-04  0.1672434E+04  0.7818609E-02  0.8777244E-01
       -1   -1    0    0    0  501  0.00000000000E+00  0.00000000000E+00  0.63484492072E+03  0.63484492074E+03  0.50400001928E-02 0. -1.
        1   -1    0    0  501    0  0.00000000000E+00  0.00000000000E+00 -0.11014644024E+04  0.11014644024E+04  0.50400001928E-02 0.  1.
    10030    2    1    2    0    0  0.00000000000E+00  0.00000000000E+00 -0.46661948167E+03  0.17363093231E+04  0.16724342513E+04 0.  0.
        2    1    3    3  502    0 -0.31291557679E+03  0.56648763632E+03  0.31647654770E+03  0.72040391833E+03  0.25500000920E-02 0.  1.
       -2    1    3    3    0  502  0.31291557679E+03 -0.56648763632E+03 -0.78309602936E+03  0.10159054048E+04  0.25500000920E-02 0. -1.
</event>
<event>
 5   0  0.2561518E-04  0.1710748E+04  0.7818609E-02  0.8755258E-01
        1   -1    0    0  501    0  0.00000000000E+00  0.00000000000E+00  0.20106813871E+04  0.20106813871E+04  0.50400001928E-02 0.  1.
       -1   -1    0    0    0  501  0.00000000000E+00  0.00000000000E+00 -0.36388887991E+03  0.36388887994E+03  0.50400001928E-02 0. -1.
    10030    2    1    2    0    0  0.00000000000E+00  0.00000000000E+00  0.16467925072E+04  0.23745702670E+04  0.17107479041E+04 0.  0.
        4    1    3    3  502    0 -0.46314243309E+03  0.58414683673E+03  0.14055994289E+04  0.15910499073E+04  0.12699999809E+01 0. -1.
       -4    1    3    3    0  502  0.46314243309E+03 -0.58414683673E+03  0.24119307831E+03  0.78352035973E+03  0.12699999809E+01 0.  1.
</event>
<event>
 5   0  0.5021349E-04  0.1683168E+04  0.7818609E-02  0.8771023E-01
       -2   -1    0    0    0  501  0.00000000000E+00  0.00000000000E+00  0.13016869888E+04  0.13016869888E+04  0.25500000920E-02 0. -1.
        2   -1    0    0  501    0  0.00000000000E+00  0.00000000000E+00 -0.54411211056E+03  0.54411211057E+03  0.25500000920E-02 0.  1.
    10030    2    1    2    0    0  0.00000000000E+00  0.00000000000E+00  0.75757487827E+03  0.18457990994E+04  0.16831680306E+04 0.  0.
        2    1    3    3  502    0 -0.81803312835E+03  0.55128579463E+02  0.17058429916E+03  0.83744633408E+03  0.25500000920E-02 0.  1.
       -2    1    3    3    0  502  0.81803312835E+03 -0.55128579463E+02  0.58699057911E+03  0.10083527653E+04  0.25500000920E-02 0. -1.
</event>
<event>
 5   0  0.2595644E-04  0.1723054E+04  0.7818609E-02  0.8748324E-01
       -1   -1    0    0    0  501  0.00000000000E+00  0.00000000000E+00  0.40344502484E+03  0.40344502487E+03  0.50400001928E-02 0. -1.
        1   -1    0    0  501    0  0.00000000000E+00  0.00000000000E+00 -0.18397272167E+04  0.18397272167E+04  0.50400001928E-02 0.  1.
    10030    2    1    2    0    0  0.00000000000E+00  0.00000000000E+00 -0.14362821919E+04  0.22431722416E+04  0.17230540243E+04 0.  0.
        2    1    3    3  502    0 -0.50552029376E+03  0.19862929501E+02  0.18969718092E+03  0.54030576882E+03  0.25500000920E-02 0. -1.
       -2    1    3    3    0  502  0.50552029376E+03 -0.19862929501E+02 -0.16259793728E+04  0.17028664728E+04  0.25500000920E-02 0.  1.
</event>
<event>
 5   0  0.2785059E-04  0.1663911E+04  0.7818609E-02  0.8782219E-01
       -1   -1    0    0    0  501  0.00000000000E+00  0.00000000000E+00  0.43133330698E+03  0.43133330701E+03  0.50400001928E-02 0. -1.
        1   -1    0    0  501    0  0.00000000000E+00  0.00000000000E+00 -0.16046761271E+04  0.16046761271E+04  0.50400001928E-02 0.  1.
    10030    2    1    2    0    0  0.00000000000E+00  0.00000000000E+00 -0.11733428201E+04  0.20360094341E+04  0.16639113685E+04 0.  0.
        5    1    3    3  502    0  0.42144098428E+03 -0.50876023378E+03 -0.12053952710E+04  0.13745724164E+04  0.46999998093E+01 0.  1.
       -5    1    3    3    0  502 -0.42144098428E+03  0.50876023378E+03  0.32052450908E+02  0.66143701764E+03  0.46999998093E+01 0. -1.
</event>
<event>
 5   0  0.5310003E-04  0.1704912E+04  0.7818609E-02  0.8758568E-01
        2   -1    0    0  501    0  0.00000000000E+00  0.00000000000E+00  0.19274982375E+04  0.19274982375E+04  0.25500000920E-02 0. -1.
       -2   -1    0    0    0  501  0.00000000000E+00  0.00000000000E+00 -0.37700728990E+03  0.37700728991E+03  0.25500000920E-02 0.  1.
    10030    2    1    2    0    0  0.00000000000E+00  0.00000000000E+00  0.15504909476E+04  0.23045055275E+04  0.17049115952E+04 0.  0.
        1    1    3    3  502    0  0.18553820809E+03 -0.13483004126E+03 -0.33451881958E+03  0.40559389464E+03  0.50400001928E-02 0.  1.
       -1    1    3    3    0  502 -0.18553820809E+03  0.13483004126E+03  0.18850097672E+04  0.18989116328E+04  0.50400001928E-02 0. -1.
</event>
<event>
 5   0  0.5310003E-04  0.1720373E+04  0.7818609E-02  0.8749829E-01
       -2   -1    0    0    0  501  0.00000000000E+00  0.00000000000E+00  0.42488104117E+03  0.42488104118E+03  0.25500000920E-02 0.  1.
        2   -1    0    0  501    0  0.00000000000E+00  0.00000000000E+00 -0.17414779741E+04  0.17414779742E+04  0.25500000920E-02 0. -1.
    10030    2    1    2    0    0  0.00000000000E+00  0.00000000000E+00 -0.13165969330E+04  0.21663590153E+04  0.17203731861E+04 0.  0.
        1    1    3    3  502    0  0.60394809130E+02 -0.74322593919E+02  0.41814705978E+03  0.42897359425E+03  0.50400001928E-02 0.  1.
       -1    1    3    3    0  502 -0.60394809130E+02  0.74322593919E+02 -0.17347439928E+04  0.17373854211E+04  0.50400001928E-02 0. -1.
</event>
<event>
 5   0  0.5021349E-04  0.1700923E+04  0.7818609E-02  0.8760838E-01
       -2   -1    0    0    0  501  0.00000000000E+00  0.00000000000E+00  0.42741049532E+03  0.42741049532E+03  0.25500000920E-02 0. -1.
        2   -1    0    0  501    0  0.00000000000E+00  0.00000000000E+00 -0.16922482291E+04  0.16922482291E+04  0.25500000920E-02 0.  1.
    10030    2    1    2    0    0  0.00000000000E+00  0.00000000000E+00 -0.12648377337E+04  0.21196587244E+04  0.17009228716E+04 0.  0.
        2    1    3    3  502    0 -0.45050454123E+03 -0.45700265613E+03 -0.13279164534E+04  0.14748450348E+04  0.25500000920E-02 0.  1.
       -2    1    3    3    0  502  0.45050454123E+03  0.45700265613E+03  0.63078719692E+02  0.64481368958E+03  0.25500000920E-02 0. -1.
</event>
<event>
 5   0  0.5342255E-04  0.1682384E+04  0.7818609E-02  0.8771476E-01
        2   -1    0    0  501    0  0.00000000000E+00  0.00000000000E+00  0.33650563891E+04  0.33650563891E+04  0.25500000920E-02 0.  1.
       -2   -1    0    0    0  501  0.00000000000E+00  0.00000000000E+00 -0.21027997890E+03  0.21027997892E+03  0.25500000920E-02 0. -1.
    10030    2    1    2    0    0  0.00000000000E+00  0.00000000000E+00  0.31547764102E+04  0.35753363680E+04  0.16823840067E+04 0.  0.
        5    1    3    3  502    0  0.65101069837E+03  0.45894499259E+03  0.10026649825E+04  0.12805485515E+04  0.46999998093E+01 0.  1.
       -5    1    3    3    0  502 -0.65101069837E+03 -0.45894499259E+03  0.21521114277E+04  0.22947878165E+04  0.46999998093E+01 0. -1.
</event>
<event>
 5   0  0.2561518E-04  0.1482847E+04  0.7818609E-02  0.8895940E-01
        1   -1    0    0  501    0  0.00000000000E+00  0.00000000000E+00  0.61659769098E+03  0.61659769100E+03  0.50400001928E-02 0. -1.
       -1   -1    0    0    0  501  0.00000000000E+00  0.00000000000E+00 -0.89151915833E+03  0.89151915834E+03  0.50400001928E-02 0.  1.
    10030    2    1    2    0    0  0.00000000000E+00  0.00000000000E+00 -0.27492146735E+03  0.15081168493E+04  0.14828467952E+04 0.  0.
        4    1    3    3  502    0  0.26401309157E+03 -0.68605063421E+03 -0.23574430013E+03  0.77197498221E+03  0.12699999809E+01 0.  1.
       -4    1    3    3    0  502 -0.26401309157E+03  0.68605063421E+03 -0.39177167218E+02  0.73614186713E+03  0.12699999809E+01 0. -1.
</event>
<event>
 5   0  0.5310003E-04  0.1625843E+04  0.7818609E-02  0.8804827E-01
       -2   -1    0    0    0  501  0.00000000000E+00  0.00000000000E+00  0.67725623180E+03  0.67725623181E+03  0.25500000920E-02 0.  1.
        2   -1    0    0  501    0  0.00000000000E+00  0.00000000000E+00 -0.97576270488E+03  0.97576270488E+03  0.25500000920E-02 0. -1.
    10030    2    1    2    0    0  0.00000000000E+00  0.00000000000E+00 -0.29850647308E+03  0.16530189367E+04  0.16258430092E+04 0.  0.
        1    1    3    3  502    0 -0.16558970342E+03  0.70124055042E+03 -0.53195306391E+03  0.89561840181E+03  0.50400001928E-02 0. -1.
       -1    1    3    3    0  502  0.16558970342E+03 -0.70124055042E+03  0.23344659083E+03  0.75740053488E+03  0.50400001928E-02 0.  1.
</event>
<event>
 5   0  0.2630135E-04  0.1702077E+04  0.7818609E-02  0.8760181E-01
       -1   -1    0    0    0  501  0.00000000000E+00  0.00000000000E+00  0.56490549622E+03  0.56490549624E+03  0.50400001928E-02 0. -1.
        1   -1    0    0  501    0  0.00000000000E+00  0.00000000000E+00 -0.12821016297E+04  0.12821016297E+04  0.50400001928E-02 0.  1.
    10030    2    1    2    0    0  0.00000000000E+00  0.00000000000E+00 -0.71719613346E+03  0.18470071259E+04  0.17020766814E+04 0.  0.
        1    1    3    3  502    0 -0.51920354390E+03  0.17739018382E+03  0.34735520883E+03  0.64938065758E+03  0.50400001928E-02 0. -1.
       -1    1    3    3    0  502  0.51920354390E+03 -0.17739018382E+03 -0.10645513423E+04  0.11976264684E+04  0.50400001928E-02 0.  1.
</event>
<event>
 5   0  0.2595644E-04  0.1709222E+04  0.7818609E-02  0.8756122E-01
       -1   -1    0    0    0  501  0.00000000000E+00  0.00000000000E+00  0.42023216016E+03  0.42023216019E+03  0.50400001928E-02 0. -1.
        1   -1    0    0  501    0  0.00000000000E+00  0.00000000000E+00 -0.17379923567E+04  0.17379923567E+04  0.50400001928E-02 0.  1.
    10030    2    1    2    0    0  0.00000000000E+00  0.00000000000E+00 -0.13177601965E+04  0.21582245169E+04  0.17092223757E+04 0.  0.
        2    1    3    3  502    0  0.31536347808E+03 -0.42086487349E+03 -0.15094699745E+04  0.15984620637E+04  0.25500000920E-02 0.  1.
       -2    1    3    3    0  502 -0.31536347808E+03  0.42086487349E+03  0.19170977799E+03  0.55976245321E+03  0.25500000920E-02 0. -1.
</event>
<event>
 5   0  0.2630135E-04  0.1700087E+04  0.7818609E-02  0.8761315E-01
        1   -1    0    0  501    0  0.00000000000E+00  0.00000000000E+00  0.55789700619E+03  0.55789700622E+03  0.50400001928E-02 0.  1.
       -1   -1    0    0    0  501  0.00000000000E+00  0.00000000000E+00 -0.12951747675E+04  0.12951747675E+04  0.50400001928E-02 0. -1.
    10030    2    1    2    0    0  0.00000000000E+00  0.00000000000E+00 -0.73727776127E+03  0.18530717737E+04  0.17000872040E+04 0.  0.
        1    1    3    3  502    0 -0.62584417541E+01  0.50675649256E+03  0.37521813171E+03  0.63057906501E+03  0.50400001928E-02 0.  1.
       -1    1    3    3    0  502  0.62584417541E+01 -0.50675649256E+03 -0.11124958930E+04  0.12224927087E+04  0.50400001928E-02 0. -1.
</event>
<event>
 5   0  0.2785059E-04  0.1670368E+04  0.7818609E-02  0.8778447E-01
        1   -1    0    0  501    0  0.00000000000E+00  0.00000000000E+00  0.41331478163E+03  0.41331478166E+03  0.50400001928E-02 0.  1.
       -1   -1    0    0    0  501  0.00000000000E+00  0.00000000000E+00 -0.16876543348E+04  0.16876543348E+04  0.50400001928E-02 0. -1.
    10030    2    1    2    0    0  0.00000000000E+00  0.00000000000E+00 -0.12743395532E+04  0.21009691165E+04  0.16703682024E+04 0.  0.
        5    1    3    3  502    0  0.43377781217E+03 -0.50987888254E+03 -0.12652717975E+04  0.14314588631E+04  0.46999998093E+01 0. -1.
       -5    1    3    3    0  502 -0.43377781217E+03  0.50987888254E+03 -0.90677556783E+01  0.66951025339E+03  0.46999998093E+01 0.  1.
</event>
<event>
 5   0  0.2595644E-04  0.1613721E+04  0.7818609E-02  0.8812163E-01
       -1   -1    0    0    0  501  0.00000000000E+00  0.00000000000E+00  0.65802980027E+03  0.65802980029E+03  0.50400001928E-02 0. -1.
        1   -1    0    0  501    0  0.00000000000E+00  0.00000000000E+00 -0.98935350399E+03  0.98935350400E+03  0.50400001928E-02 0.  1.
    10030    2    1    2    0    0  0.00000000000E+00  0.00000000000E+00 -0.33132370372E+03  0.16473833043E+04  0.16137212754E+04 0.  0.
        2    1    3    3  502    0  0.78978825780E+03  0.10405183326E+03 -0.34801262910E+02  0.79737281372E+03  0.25500000920E-02 0. -1.
       -2    1    3    3    0  502 -0.78978825780E+03 -0.10405183326E+03 -0.29652244081E+03  0.85001049057E+03  0.25500000920E-02 0.  1.
</event>
<event>
 5   0  0.5310003E-04  0.1691301E+04  0.7818609E-02  0.8766341E-01
       -2   -1    0    0    0  501  0.00000000000E+00  0.00000000000E+00  0.42525089106E+03  0.42525089107E+03  0.25500000920E-02 0.  1.
        2   -1    0    0  501    0  0.00000000000E+00  0.00000000000E+00 -0.16816532936E+04  0.16816532936E+04  0.25500000920E-02 0. -1.
    10030    2    1    2    0    0  0.00000000000E+00  0.00000000000E+00 -0.12564024026E+04  0.21069041847E+04  0.16913007557E+04 0.  0.
        1    1    3    3  502    0 -0.65704557460E+03  0.11263915543E+03 -0.12763737092E+04  0.14399744136E+04  0.50400001928E-02 0. -1.
       -1    1    3    3    0  502  0.65704557460E+03 -0.11263915543E+03  0.19971306602E+02  0.66692977107E+03  0.50400001928E-02 0.  1.
</event>
<event>
 5   0  0.5299877E-04  0.1695337E+04  0.7818609E-02  0.8764028E-01
       -2   -1    0    0    0  501  0.00000000000E+00  0.00000000000E+00  0.10675424489E+04  0.10675424489E+04  0.25500000920E-02 0. -1.
        2   -1    0    0  501    0  0.00000000000E+00  0.00000000000E+00 -0.67308066426E+03  0.67308066427E+03  0.25500000920E-02 0.  1.
    10030    2    1    2    0    0  0.00000000000E+00  0.00000000000E+00  0.39446178460E+03  0.17406231131E+04  0.16953373477E+04 0.  0.
        3    1    3    3  502    0 -0.18912365677E+03 -0.54548543169E+03  0.83447094078E+03  0.10147235461E+04  0.10100000352E+00 0. -1.
       -3    1    3    3    0  502  0.18912365677E+03  0.54548543169E+03 -0.44000915619E+03  0.72589956706E+03  0.10100000352E+00 0.  1.
</event>
<event>
 5   0  0.2630135E-04  0.1658185E+04  0.7818609E-02  0.8785579E-01
       -1   -1    0    0    0  501  0.00000000000E+00  0.00000000000E+00  0.87325708393E+03  0.87325708394E+03  0.50400001928E-02 0. -1.
        1   -1    0    0  501    0  0.00000000000E+00  0.00000000000E+00 -0.78716167505E+03  0.78716167506E+03  0.50400001928E-02 0.  1.
    10030    2    1    2    0    0  0.00000000000E+00  0.00000000000E+00  0.86095408882E+02  0.16604187590E+04  0.16581851633E+04 0.  0.
        1    1    3    3  502    0 -0.62409782495E+03 -0.19501545376E+03  0.55350430577E+03  0.85667738317E+03  0.50400001928E-02 0. -1.
       -1    1    3    3    0  502  0.62409782495E+03  0.19501545376E+03 -0.46740889688E+03  0.80374137583E+03  0.50400001928E-02 0.  1.
</event>
<event>
 5   0  0.2595644E-04  0.1706730E+04  0.7818609E-02  0.8757536E-01
       -1   -1    0    0    0  501  0.00000000000E+00  0.00000000000E+00  0.55041729269E+03  0.55041729271E+03  0.50400001928E-02 0. -1.
        1   -1    0    0  501    0  0.00000000000E+00  0.00000000000E+00 -0.13230533450E+04  0.13230533450E+04  0.50400001928E-02 0.  1.
    10030    2    1    2    0    0  0.00000000000E+00  0.00000000000E+00 -0.77263605232E+03  0.18734706377E+04  0.17067295512E+04 0.  0.
        2    1    3    3  502    0 -0.61363336698E+03 -0.91358895513E+02  0.25687866928E+03  0.67147524720E+03  0.25500000920E-02 0. -1.
       -2    1    3    3    0  502  0.61363336698E+03  0.91358895513E+02 -0.10295147216E+04  0.12019953905E+04  0.25500000920E-02 0.  1.
</event>
<event>
 5   0  0.1910750E-04  0.1756205E+04  0.7818609E-02  0.8729942E-01
       -3   -1    0    0    0  501  0.00000000000E+00  0.00000000000E+00  0.13451381921E+04  0.13451381959E+04  0.10100000352E+00 0.  1.
        3   -1    0    0  501    0  0.00000000000E+00  0.00000000000E+00 -0.57322308329E+03  0.57322309219E+03  0.10100000352E+00 0. -1.
    10030    2    1    2    0    0  0.00000000000E+00  0.00000000000E+00  0.77191510882E+03  0.19183612881E+04  0.17562053116E+04 0.  0.
        3    1    3    3  502    0  0.43444183631E+03  0.51044880778E+02 -0.44573702965E+03  0.62452125567E+03  0.10100000352E+00 0. -1.
       -3    1    3    3    0  502 -0.43444183631E+03 -0.51044880778E+02  0.12176521385E+04  0.12938400324E+04  0.10100000352E+00 0.  1.
</event>
<event>
 5   0  0.2561518E-04  0.1671851E+04  0.7818609E-02  0.8777583E-01
        1   -1    0    0  501    0  0.00000000000E+00  0.00000000000E+00  0.14636284286E+04  0.14636284286E+04  0.50400001928E-02 0.  1.
       -1   -1    0    0    0  501  0.00000000000E+00  0.00000000000E+00 -0.47742423830E+03  0.47742423832E+03  0.50400001928E-02 0. -1.
    10030    2    1    2    0    0  0.00000000000E+00  0.00000000000E+00  0.98620419032E+03  0.19410526669E+04  0.16718512945E+04 0.  0.
        4    1    3    3  502    0  0.30351476304E+03  0.25657344779E+03  0.13469207032E+04  0.14043319192E+04  0.12699999809E+01 0.  1.
       -4    1    3    3    0  502 -0.30351476304E+03 -0.25657344779E+03 -0.36071651292E+03  0.53672074777E+03  0.12699999809E+01 0. -1.
</event>
<event>
 5   0  0.2595644E-04  0.1717919E+04  0.7818609E-02  0.8751210E-01
       -1   -1    0    0    0  501  0.00000000000E+00  0.00000000000E+00  0.80707168125E+03  0.80707168127E+03  0.50400001928E-02 0.  1.
        1   -1    0    0  501    0  0.00000000000E+00  0.00000000000E+00 -0.91418302124E+03  0.91418302125E+03  0.50400001928E-02 0. -1.
    10030    2    1    2    0    0  0.00000000000E+00  0.00000000000E+00 -0.10711133998E+03  0.17212547025E+04  0.17179187733E+04 0.  0.
        2    1    3    3  502    0  0.20556182064E+03 -0.35516623036E+03  0.70250390544E+03  0.81357879179E+03  0.25500000920E-02 0.  1.
       -2    1    3    3    0  502 -0.20556182064E+03  0.35516623036E+03 -0.80961524542E+03  0.90767591073E+03  0.25500000920E-02 0. -1.
</event>
<event>
 5   0  0.2583422E-04  0.1757105E+04  0.7818609E-02  0.8729449E-01
       -1   -1    0    0    0  501  0.00000000000E+00  0.00000000000E+00  0.18627887686E+04  0.18627887687E+04  0.50400001928E-02 0.  1.
        1   -1    0    0  501    0  0.00000000000E+00  0.00000000000E+00 -0.41435442929E+03  0.41435442932E+03  0.50400001928E-02 0. -1.
    10030    2    1    2    0    0  0.00000000000E+00  0.00000000000E+00  0.14484343394E+04  0.22771431980E+04  0.17571053209E+04 0.  0.
        3    1    3    3  502    0  0.73224256060E+03 -0.43255590912E+03  0.43860217560E+03  0.95689898146E+03  0.10100000352E+00 0. -1.
       -3    1    3    3    0  502 -0.73224256060E+03  0.43255590912E+03  0.10098321638E+04  0.13202442165E+04  0.10100000352E+00 0.  1.
</event>
<event>
 5   0  0.5310003E-04  0.1698564E+04  0.7818609E-02  0.8762184E-01
       -2   -1    0    0    0  501  0.00000000000E+00  0.00000000000E+00  0.70141712024E+03  0.70141712025E+03  0.25500000920E-02 0.  1.
        2   -1    0    0  501    0  0.00000000000E+00  0.00000000000E+00 -0.10283181101E+04  0.10283181101E+04  0.25500000920E-02 0. -1.
    10030    2    1    2    0    0  0.00000000000E+00  0.00000000000E+00 -0.32690098985E+03  0.17297352303E+04  0.16985640141E+04 0.  0.
        1    1    3    3  502    0 -0.48258556313E+03 -0.60412693240E+03  0.19431097345E+03  0.79725462095E+03  0.50400001928E-02 0.  1.
       -1    1    3    3    0  502  0.48258556313E+03  0.60412693240E+03 -0.52121196330E+03  0.93248060940E+03  0.50400001928E-02 0. -1.
</event>
<event>
 5   0  0.2785059E-04  0.1692268E+04  0.7818609E-02  0.8765786E-01
       -1   -1    0    0    0  501  0.00000000000E+00  0.00000000000E+00  0.13869786550E+04  0.13869786550E+04  0.50400001928E-02 0. -1.
        1   -1    0    0  501    0  0.00000000000E+00  0.00000000000E+00 -0.51618897356E+03  0.51618897359E+03  0.50400001928E-02 0.  1.
    10030    2    1    2    0    0  0.00000000000E+00  0.00000000000E+00  0.87078968144E+03  0.19031676286E+04  0.16922684046E+04 0.  0.
        5    1    3    3  502    0  0.79509729323E+03  0.12541701723E+03  0.72868678607E+03  0.10857788247E+04  0.46999998093E+01 0. -1.
       -5    1    3    3    0  502 -0.79509729323E+03 -0.12541701723E+03  0.14210289538E+03  0.81738880393E+03  0.46999998093E+01 0.  1.
</event>
<event>
 5   0  0.5021349E-04  0.1722542E+04  0.7818609E-02  0.8748611E-01
        2   -1    0    0  501    0  0.00000000000E+00  0.00000000000E+00  0.47370431130E+03  0.47370431130E+03  0.25500000920E-02 0. -1.
       -2   -1    0    0    0  501  0.00000000000E+00  0.00000000000E+00 -0.15659305332E+04  0.15659305332E+04  0.25500000920E-02 0.  1.
    10030    2    1    2    0    0  0.00000000000E+00  0.00000000000E+00 -0.10922262219E+04  0.20396348445E+04  0.17225423592E+04 0.  0.
        2    1    3    3  502    0  0.40499236558E+03  0.44430621861E+03  0.18415212037E+03  0.62875975978E+03  0.25500000920E-02 0. -1.
       -2    1    3    3    0  502 -0.40499236558E+03 -0.44430621861E+03 -0.12763783423E+04  0.14108750847E+04  0.25500000920E-02 0.  1.
</event>
<event>
 5   0  0.2595644E-04  0.1755866E+04  0.7818609E-02  0.8730128E-01
       -1   -1    0    0    0  501  0.00000000000E+00  0.00000000000E+00  0.10487022156E+04  0.10487022156E+04  0.50400001928E-02 0.  1.
        1   -1    0    0  501    0  0.00000000000E+00  0.00000000000E+00 -0.73497153820E+03  0.73497153822E+03  0.50400001928E-02 0. -1.
    10030    2    1    2    0    0  0.00000000000E+00  0.00000000000E+00  0.31373067740E+03  0.17836737538E+04  0.17558659180E+04 0.  0.
        2    1    3    3  502    0 -0.68958471145E+03 -0.54334362137E+03  0.16104330510E+03  0.89257174013E+03  0.25500000920E-02 0.  1.
       -2    1    3    3    0  502  0.68958471145E+03  0.54334362137E+03  0.15268737230E+03  0.89110201370E+03  0.25500000920E-02 0. -1.
</event>
<event>
 5   0  0.5299877E-04  0.1707261E+04  0.7818609E-02  0.8757234E-01
       -2   -1    0    0    0  501  0.00000000000E+00  0.00000000000E+00  0.52080689598E+03  0.52080689599E+03  0.25500000920E-02 0.  1.
        2   -1    0    0  501    0  0.00000000000E+00  0.00000000000E+00 -0.13991458891E+04  0.13991458891E+04  0.25500000920E-02 0. -1.
    10030    2    1    2    0    0  0.00000000000E+00  0.00000000000E+00 -0.87833899311E+03  0.19199527851E+04  0.17072607622E+04 0.  0.
        3    1    3    3  502    0  0.61831838767E+03  0.48738368168E+03 -0.68186758732E+02  0.79025940422E+03  0.10100000352E+00 0.  1.
       -3    1    3    3    0  502 -0.61831838767E+03 -0.48738368168E+03 -0.81015223438E+03  0.11296933809E+04  0.10100000352E+00 0. -1.
</event>
<event>
 5   0  0.2630135E-04  0.1726761E+04  0.7818609E-02  0.8746247E-01
       -1   -1    0    0    0  501  0.00000000000E+00  0.00000000000E+00  0.41286880415E+03  0.41286880419E+03  0.50400001928E-02 0. -1.
        1   -1    0    0  501    0  0.00000000000E+00  0.00000000000E+00 -0.18054797562E+04  0.18054797562E+04  0.50400001928E-02 0.  1.
    10030    2    1    2    0    0  0.00000000000E+00  0.00000000000E+00 -0.13926109520E+04  0.22183485604E+04  0.17267614403E+04 0.  0.
        1    1    3    3  502    0  0.53937881496E+03  0.49335113620E+03 -0.12865650223E+04  0.14797210569E+04  0.50400001928E-02 0.  1.
       -1    1    3    3    0  502 -0.53937881496E+03 -0.49335113620E+03 -0.10604592970E+03  0.73862750345E+03  0.50400001928E-02 0. -1.
</event>
<event>
 5   0  0.5299877E-04  0.1717875E+04  0.7818609E-02  0.8751235E-01
        2   -1    0    0  501    0  0.00000000000E+00  0.00000000000E+00  0.69426538240E+03  0.69426538240E+03  0.25500000920E-02 0.  1.
       -2   -1    0    0    0  501  0.00000000000E+00  0.00000000000E+00 -0.10626684516E+04  0.10626684516E+04  0.25500000920E-02 0. -1.
    10030    2    1    2    0    0  0.00000000000E+00  0.00000000000E+00 -0.36840306922E+03  0.17569338340E+04  0.17178753377E+04 0.  0.
        3    1    3    3  502    0 -0.42165239323E+03  0.39445791352E+03 -0.83457360568E+03  0.10148403321E+04  0.10100000352E+00 0. -1.
       -3    1    3    3    0  502  0.42165239323E+03 -0.39445791352E+03  0.46617053646E+03  0.74209350187E+03  0.10100000352E+00 0.  1.
</event>
<event>
 5   0  0.2583422E-04  0.1690424E+04  0.7818609E-02  0.8766845E-01
        1   -1    0    0  501    0  0.00000000000E+00  0.00000000000E+00  0.18073551075E+04  0.18073551076E+04  0.50400001928E-02 0. -1.
       -1   -1    0    0    0  501  0.00000000000E+00  0.00000000000E+00 -0.39526468206E+03  0.39526468209E+03  0.50400001928E-02 0.  1.
    10030    2    1    2    0    0  0.00000000000E+00  0.00000000000E+00  0.14120904255E+04  0.22026197896E+04  0.16904243751E+04 0.  0.
        3    1    3    3  502    0 -0.56781687945E+03 -0.96861813065E+02 -0.99904590934E+02  0.58461881334E+03  0.10100000352E+00 0.  1.
       -3    1    3    3    0  502  0.56781687945E+03  0.96861813065E+02  0.15119950164E+04  0.16180009763E+04  0.10100000352E+00 0. -1.
</event>
<event>
 5   0  0.2785059E-04  0.1712028E+04  0.7818609E-02  0.8754534E-01
       -1   -1    0    0    0  501  0.00000000000E+00  0.00000000000E+00  0.95559201025E+03  0.95559201027E+03  0.50400001928E-02 0. -1.
        1   -1    0    0  501    0  0.00000000000E+00  0.00000000000E+00 -0.76681282825E+03  0.76681282827E+03  0.50400001928E-02 0.  1.
    10030    2    1    2    0    0  0.00000000000E+00  0.00000000000E+00  0.18877918200E+03  0.17224048385E+04  0.17120282849E+04 0.  0.
        5    1    3    3  502    0  0.50147742045E+03  0.44830918126E+03  0.62701065634E+03  0.91957880488E+03  0.46999998093E+01 0. -1.
       -5    1    3    3    0  502 -0.50147742045E+03 -0.44830918126E+03 -0.43823147434E+03  0.80282603365E+03  0.46999998093E+01 0.  1.
</event>
<event>
 5   0  0.2583422E-04  0.1687241E+04  0.7818609E-02  0.8768675E-01
       -1   -1    0    0    0  501  0.00000000000E+00  0.00000000000E+00  0.43412563870E+03  0.43412563873E+03  0.50400001928E-02 0.  1.
        1   -1    0    0  501    0  0.00000000000E+00  0.00000000000E+00 -0.16393771087E+04  0.16393771087E+04  0.50400001928E-02 0. -1.
    10030    2    1    2    0    0  0.00000000000E+00  0.00000000000E+00 -0.12052514700E+04  0.20735027475E+04  0.16872411024E+04 0.  0.
        3    1    3    3  502    0  0.14430428505E+01 -0.79777365744E+03 -0.26550704015E+03  0.84079658030E+03  0.10100000352E+00 0. -1.
       -3    1    3    3    0  502 -0.14430428505E+01  0.79777365744E+03 -0.93974442987E+03  0.12327061672E+04  0.10100000352E+00 0.  1.
</event>
<event>
 5   0  0.5342255E-04  0.1671040E+04  0.7818609E-02  0.8778056E-01
       -2   -1    0    0    0  501  0.00000000000E+00  0.00000000000E+00  0.58922538371E+03  0.58922538371E+03  0.25500000920E-02 0. -1.
        2   -1    0    0  501    0  0.00000000000E+00  0.00000000000E+00 -0.11847655617E+04  0.11847655617E+04  0.25500000920E-02 0.  1.
    10030    2    1    2    0    0  0.00000000000E+00  0.00000000000E+00 -0.59554017804E+03  0.17739909455E+04  0.16710403259E+04 0.  0.
        5    1    3    3  502    0 -0.64162446937E+03 -0.53450030917E+03 -0.26969635871E+03  0.87757094078E+03  0.46999998093E+01 0.  1.
       -5    1    3    3    0  502  0.64162446937E+03  0.53450030917E+03 -0.32584381932E+03  0.89642000468E+03  0.46999998093E+01 0. -1.
</event>
<event>
 5   0  0.5310003E-04  0.1696608E+04  0.7818609E-02  0.8763302E-01
        2   -1    0    0  501    0  0.00000000000E+00  0.00000000000E+00  0.74316754606E+03  0.74316754606E+03  0.25500000920E-02 0.  1.
       -2   -1    0    0    0  501  0.00000000000E+00  0.00000000000E+00 -0.96831368825E+03  0.96831368826E+03  0.25500000920E-02 0. -1.
    10030    2    1    2    0    0  0.00000000000E+00  0.00000000000E+00 -0.22514614220E+03  0.17114812343E+04  0.16966075651E+04 0.  0.
        1    1    3    3  502    0  0.77170678170E+03  0.18905409795E+03 -0.41241020197E+03  0.89518432939E+03  0.50400001928E-02 0. -1.
       -1    1    3    3    0  502 -0.77170678170E+03 -0.18905409795E+03  0.18726405977E+03  0.81629690492E+03  0.50400001928E-02 0.  1.
</event>
<event>
 5   0  0.5310003E-04  0.1699278E+04  0.7818609E-02  0.8761776E-01
       -2   -1    0    0    0  501  0.00000000000E+00  0.00000000000E+00  0.37160304596E+03  0.37160304597E+03  0.25500000920E-02 0. -1.
        2   -1    0    0  501    0  0.00000000000E+00  0.00000000000E+00 -0.19426276004E+04  0.19426276004E+04  0.25500000920E-02 0.  1.
    10030    2    1    2    0    0  0.00000000000E+00  0.00000000000E+00 -0.15710245545E+04  0.23142306464E+04  0.16992778860E+04 0.  0.
        1    1    3    3  502    0 -0.46407559580E+02 -0.84495030760E+03 -0.68186846640E+03  0.10867563156E+04  0.50400001928E-02 0. -1.
       -1    1    3    3    0  502  0.46407559580E+02  0.84495030760E+03 -0.88915608806E+03  0.12274743308E+04  0.50400001928E-02 0.  1.
</event>
<event>
 5   0  0.2595644E-04  0.1424266E+04  0.7818609E-02  0.8936438E-01
        1   -1    0    0  501    0  0.00000000000E+00  0.00000000000E+00  0.76146911719E+03  0.76146911720E+03  0.50400001928E-02 0.  1.
       -1   -1    0    0    0  501  0.00000000000E+00  0.00000000000E+00 -0.66599347120E+03  0.66599347122E+03  0.50400001928E-02 0. -1.
    10030    2    1    2    0    0  0.00000000000E+00  0.00000000000E+00  0.95475645985E+02  0.14274625884E+04  0.14242660715E+04 0.  0.
        2    1    3    3  502    0  0.69667388815E+03 -0.13132184113E+03  0.11522041676E+03  0.71824485855E+03  0.25500000920E-02 0.  1.
       -2    1    3    3    0  502 -0.69667388815E+03  0.13132184113E+03 -0.19744770773E+02  0.70921772988E+03  0.25500000920E-02 0. -1.
</event>
<event>
 5   0  0.1910750E-04  0.1721219E+04  0.7818609E-02  0.8749354E-01
       -4   -1    0    0    0  501  0.00000000000E+00  0.00000000000E+00  0.11653128153E+04  0.11653135073E+04  0.12699999809E+01 0.  1.
        4   -1    0    0  501    0  0.00000000000E+00  0.00000000000E+00 -0.63557815192E+03  0.63557942076E+03  0.12699999809E+01 0. -1.
    10030    2    1    2    0    0  0.00000000000E+00  0.00000000000E+00  0.52973466335E+03  0.18008929281E+04  0.17212194877E+04 0.  0.
        1    1    3    3  502    0  0.81372105248E+03  0.14696362137E+03  0.51446563808E+03  0.97386608425E+03  0.50400001928E-02 0.  1.
       -1    1    3    3    0  502 -0.81372105248E+03 -0.14696362137E+03  0.15269025272E+02  0.82702684383E+03  0.50400001928E-02 0. -1.
</event>
<event>
 5   0  0.5021349E-04  0.1713362E+04  0.7818609E-02  0.8753780E-01
       -2   -1    0    0    0  501  0.00000000000E+00  0.00000000000E+00  0.30118439867E+03  0.30118439868E+03  0.25500000920E-02 0. -1.
        2   -1    0    0  501    0  0.00000000000E+00  0.00000000000E+00 -0.24367198176E+04  0.24367198176E+04  0.25500000920E-02 0.  1.
    10030    2    1    2    0    0  0.00000000000E+00  0.00000000000E+00 -0.21355354189E+04  0.27379042163E+04  0.17133615999E+04 0.  0.
        2    1    3    3  502    0 -0.73246023441E+03 -0.18088435606E+03 -0.17162468976E+04  0.18747588002E+04  0.25500000920E-02 0.  1.
       -2    1    3    3    0  502  0.73246023441E+03  0.18088435606E+03 -0.41928852135E+03  0.86314541614E+03  0.25500000920E-02 0. -1.
</event>
<event>
 5   0  0.2785059E-04  0.1697660E+04  0.7818609E-02  0.8762700E-01
       -1   -1    0    0    0  501  0.00000000000E+00  0.00000000000E+00  0.77524056814E+03  0.77524056816E+03  0.50400001928E-02 0. -1.
        1   -1    0    0  501    0  0.00000000000E+00  0.00000000000E+00 -0.92940452496E+03  0.92940452498E+03  0.50400001928E-02 0.  1.
    10030    2    1    2    0    0  0.00000000000E+00  0.00000000000E+00 -0.15416395682E+03  0.17046450931E+04  0.16976596738E+04 0.  0.
        5    1    3    3  502    0  0.47684494029E+03 -0.14072180722E+03 -0.76788538828E+03  0.91479712704E+03  0.46999998093E+01 0.  1.
       -5    1    3    3    0  502 -0.47684494029E+03  0.14072180722E+03  0.61372143146E+03  0.78984796609E+03  0.46999998093E+01 0. -1.
</event>
<event>
 5   0  0.2561518E-04  0.1702201E+04  0.7818609E-02  0.8760110E-01
        1   -1    0    0  501    0  0.00000000000E+00  0.00000000000E+00  0.71814335570E+03  0.71814335572E+03  0.50400001928E-02 0. -1.
       -1   -1    0    0    0  501  0.00000000000E+00  0.00000000000E+00 -0.10086728874E+04  0.10086728874E+04  0.50400001928E-02 0.  1.
    10030    2    1    2    0    0  0.00000000000E+00  0.00000000000E+00 -0.29052953166E+03  0.17268162431E+04  0.17022006135E+04 0.  0.
        4    1    3    3  502    0 -0.12527639444E+03  0.34859683414E+01  0.70873058111E+03  0.71972701524E+03  0.12699999809E+01 0. -1.
       -4    1    3    3    0  502  0.12527639444E+03 -0.34859683414E+01 -0.99926011277E+03  0.10070892279E+04  0.12699999809E+01 0.  1.
</event>
<event>
 5   0  0.2583422E-04  0.1700045E+04  0.7818609E-02  0.8761339E-01
       -1   -1    0    0    0  501  0.00000000000E+00  0.00000000000E+00  0.64079340530E+03  0.64079340532E+03  0.50400001928E-02 0.  1.
        1   -1    0    0  501    0  0.00000000000E+00  0.00000000000E+00 -0.11275685315E+04  0.11275685315E+04  0.50400001928E-02 0. -1.
    10030    2    1    2    0    0  0.00000000000E+00  0.00000000000E+00 -0.48677512619E+03  0.17683619368E+04  0.17000452689E+04 0.  0.
        3    1    3    3  502    0  0.30122485107E+03  0.23840519274E+03 -0.10321230571E+04  0.11012953564E+04  0.10100000352E+00 0. -1.
       -3    1    3    3    0  502 -0.30122485107E+03 -0.23840519274E+03  0.54534793089E+03  0.66706658045E+03  0.10100000352E+00 0.  1.
</event>
<event>
 5   0  0.2583422E-04  0.1674937E+04  0.7818609E-02  0.8775789E-01
        1   -1    0    0  501    0  0.00000000000E+00  0.00000000000E+00  0.14619435366E+04  0.14619435366E+04  0.50400001928E-02 0.  1.
       -1   -1    0    0    0  501  0.00000000000E+00  0.00000000000E+00 -0.47974036567E+03  0.47974036570E+03  0.50400001928E-02 0. -1.
    10030    2    1    2    0    0  0.00000000000E+00  0.00000000000E+00  0.98220317090E+03  0.19416839023E+04  0.16749368070E+04 0.  0.
        3    1    3    3  502    0 -0.33538597195E+03  0.51414691420E+03  0.11514946773E+04  0.13049026024E+04  0.10100000352E+00 0.  1.
       -3    1    3    3    0  502  0.33538597195E+03 -0.51414691420E+03 -0.16929150644E+03  0.63678129990E+03  0.10100000352E+00 0. -1.
</event>
<event>
 5   0  0.5021349E-04  0.1695063E+04  0.7818609E-02  0.8764185E-01
        2   -1    0    0  501    0  0.00000000000E+00  0.00000000000E+00  0.69019452150E+03  0.69019452150E+03  0.25500000920E-02 0.  1.
       -2   -1    0    0    0  501  0.00000000000E+00  0.00000000000E+00 -0.10407348518E+04  0.10407348518E+04  0.25500000920E-02 0. -1.
    10030    2    1    2    0    0  0.00000000000E+00  0.00000000000E+00 -0.35054033035E+03  0.17309293734E+04  0.16950628225E+04 0.  0.
        2    1    3    3  502    0  0.55579481201E+03 -0.39759911042E+03 -0.68719253638E+03  0.96913699121E+03  0.25500000920E-02 0. -1.
       -2    1    3    3    0  502 -0.55579481201E+03  0.39759911042E+03  0.33665220603E+03  0.76179238215E+03  0.25500000920E-02 0.  1.
</event>
<event>
 5   0  0.5021349E-04  0.1698718E+04  0.7818609E-02  0.8762096E-01
        2   -1    0    0  501    0  0.00000000000E+00  0.00000000000E+00  0.14037854977E+04  0.14037854977E+04  0.25500000920E-02 0.  1.
       -2   -1    0    0    0  501  0.00000000000E+00  0.00000000000E+00 -0.51390352744E+03  0.51390352744E+03  0.25500000920E-02 0. -1.
    10030    2    1    2    0    0  0.00000000000E+00  0.00000000000E+00  0.88988197026E+03  0.19176890251E+04  0.16987175387E+04 0.  0.
        2    1    3    3  502    0 -0.53015999767E+03 -0.64919132659E+03  0.60010397308E+03  0.10308461477E+04  0.25500000920E-02 0.  1.
       -2    1    3    3    0  502  0.53015999767E+03  0.64919132659E+03  0.28977799718E+03  0.88684287746E+03  0.25500000920E-02 0. -1.
</event>
<event>
 5   0  0.2561518E-04  0.1698345E+04  0.7818609E-02  0.8762309E-01
        1   -1    0    0  501    0  0.00000000000E+00  0.00000000000E+00  0.78326242921E+03  0.78326242922E+03  0.50400001928E-02 0.  1.
       -1   -1    0    0    0  501  0.00000000000E+00  0.00000000000E+00 -0.92062922246E+03  0.92062922247E+03  0.50400001928E-02 0. -1.
    10030    2    1    2    0    0  0.00000000000E+00  0.00000000000E+00 -0.13736679325E+03  0.17038916517E+04  0.16983454080E+04 0.  0.
        4    1    3    3  502    0 -0.44972863101E+03 -0.68134759428E+03  0.16575101089E+03  0.83304585486E+03  0.12699999809E+01 0.  1.
       -4    1    3    3    0  502  0.44972863101E+03  0.68134759428E+03 -0.30311780414E+03  0.87084579684E+03  0.12699999809E+01 0. -1.
</event>
<event>
 5   0  0.2630135E-04  0.1709708E+04  0.7818609E-02  0.8755847E-01
       -1   -1    0    0    0  501  0.00000000000E+00  0.00000000000E+00  0.16985313046E+04  0.16985313046E+04  0.50400001928E-02 0. -1.
        1   -1    0    0  501    0  0.00000000000E+00  0.00000000000E+00 -0.43023979227E+03  0.43023979230E+03  0.50400001928E-02 0.  1.
    10030    2    1    2    0    0  0.00000000000E+00  0.00000000000E+00  0.12682915124E+04  0.21287710969E+04  0.17097084614E+04 0.  0.
        1    1    3    3  502    0  0.33702663188E+03 -0.77980286608E+03  0.75289727565E+03  0.11351360131E+04  0.50400001928E-02 0.  1.
       -1    1    3    3    0  502 -0.33702663188E+03  0.77980286608E+03  0.51539423671E+03  0.99363508382E+03  0.50400001928E-02 0. -1.
</event>
<event>
 5   0  0.2630135E-04  0.1716356E+04  0.7818609E-02  0.8752090E-01
       -1   -1    0    0    0  501  0.00000000000E+00  0.00000000000E+00  0.11480804443E+04  0.11480804443E+04  0.50400001928E-02 0.  1.
        1   -1    0    0  501    0  0.00000000000E+00  0.00000000000E+00 -0.64147917864E+03  0.64147917866E+03  0.50400001928E-02 0. -1.
    10030    2    1    2    0    0  0.00000000000E+00  0.00000000000E+00  0.50660126563E+03  0.17895596229E+04  0.17163562572E+04 0.  0.
        1    1    3    3  502    0  0.75547102083E+03  0.70504295293E+02 -0.16475198782E+03  0.77643450238E+03  0.50400001928E-02 0. -1.
       -1    1    3    3    0  502 -0.75547102083E+03 -0.70504295293E+02  0.67135325346E+03  0.10131251206E+04  0.50400001928E-02 0.  1.
</event>
<event>
 5   0  0.1910750E-04  0.1725856E+04  0.7818609E-02  0.8746754E-01
       -3   -1    0    0    0  501  0.00000000000E+00  0.00000000000E+00  0.84154058287E+03  0.84154058893E+03  0.10100000352E+00 0.  1.
        3   -1    0    0  501    0  0.00000000000E+00  0.00000000000E+00 -0.88485902709E+03  0.88485903285E+03  0.10100000352E+00 0. -1.
    10030    2    1    2    0    0  0.00000000000E+00  0.00000000000E+00 -0.43318444218E+02  0.17263996218E+04  0.17258560677E+04 0.  0.
        5    1    3    3  502    0 -0.77106572362E+03 -0.37543059931E+03  0.73933506854E+02  0.86080121891E+03  0.46999998093E+01 0.  1.
       -5    1    3    3    0  502  0.77106572362E+03  0.37543059931E+03 -0.11725195107E+03  0.86559840288E+03  0.46999998093E+01 0. -1.
</event>
<event>
 5   0  0.2785059E-04  0.1699291E+04  0.7818609E-02  0.8761769E-01
       -1   -1    0    0    0  501  0.00000000000E+00  0.00000000000E+00  0.85077411074E+03  0.85077411075E+03  0.50400001928E-02 0. -1.
        1   -1    0    0  501    0  0.00000000000E+00  0.00000000000E+00 -0.84851796007E+03  0.84851796009E+03  0.50400001928E-02 0.  1.
    10030    2    1    2    0    0  0.00000000000E+00  0.00000000000E+00  0.22561506662E+01  0.16992920708E+04  0.16992905731E+04 0.  0.
        5    1    3    3  502    0  0.91416465444E+02  0.78705550572E+03  0.30782311853E+03  0.85005323454E+03  0.46999998093E+01 0. -1.
       -5    1    3    3    0  502 -0.91416465444E+02 -0.78705550572E+03 -0.30556696786E+03  0.84923883631E+03  0.46999998093E+01 0.  1.
</event>
<event>
 5   0  0.5198430E-04  0.1707416E+04  0.7818609E-02  0.8757146E-01
       -2   -1    0    0    0  501  0.00000000000E+00  0.00000000000E+00  0.81336414790E+03  0.81336414790E+03  0.25500000920E-02 0.  1.
        2   -1    0    0  501    0  0.00000000000E+00  0.00000000000E+00 -0.89605273485E+03  0.89605273485E+03  0.25500000920E-02 0. -1.
    10030    2    1    2    0    0  0.00000000000E+00  0.00000000000E+00 -0.82688586949E+02  0.17094168828E+04  0.17074157890E+04 0.  0.
        4    1    3    3  502    0  0.10241888016E+03 -0.81526712989E+03 -0.27327381255E+03  0.86592742745E+03  0.12699999809E+01 0. -1.
       -4    1    3    3    0  502 -0.10241888016E+03  0.81526712989E+03  0.19058522560E+03  0.84348945530E+03  0.12699999809E+01 0.  1.
</event>
<event>
 5   0  0.5299877E-04  0.1700343E+04  0.7818609E-02  0.8761169E-01
       -2   -1    0    0    0  501  0.00000000000E+00  0.00000000000E+00  0.13420871176E+04  0.13420871176E+04  0.25500000920E-02 0. -1.
        2   -1    0    0  501    0  0.00000000000E+00  0.00000000000E+00 -0.53855770664E+03  0.53855770665E+03  0.25500000920E-02 0.  1.
    10030    2    1    2    0    0  0.00000000000E+00  0.00000000000E+00  0.80352941098E+03  0.18806448243E+04  0.17003427421E+04 0.  0.
        3    1    3    3  502    0 -0.83725233083E+03  0.91774441419E+02  0.27383979091E+03  0.88566486600E+03  0.10100000352E+00 0.  1.
       -3    1    3    3    0  502  0.83725233083E+03 -0.91774441419E+02  0.52968962007E+03  0.99497995828E+03  0.10100000352E+00 0. -1.
</event>
<event>
 5   0  0.5310003E-04  0.1692275E+04  0.7818609E-02  0.8765783E-01
        2   -1    0    0  501    0  0.00000000000E+00  0.00000000000E+00  0.11913888010E+04  0.11913888010E+04  0.25500000920E-02 0. -1.
       -2   -1    0    0    0  501  0.00000000000E+00  0.00000000000E+00 -0.60093613745E+03  0.60093613746E+03  0.25500000920E-02 0.  1.
    10030    2    1    2    0    0  0.00000000000E+00  0.00000000000E+00  0.59045266357E+03  0.17923249385E+04  0.16922749000E+04 0.  0.
        1    1    3    3  502    0  0.54672521012E+03 -0.10577358771E+02  0.97910096553E+03  0.11214539833E+04  0.50400001928E-02 0. -1.
       -1    1    3    3    0  502 -0.54672521012E+03  0.10577358771E+02 -0.38864830196E+03  0.67087095520E+03  0.50400001928E-02 0.  1.
</event>
<event>
 5   0  0.5299877E-04  0.1670105E+04  0.7818609E-02  0.8778600E-01
        2   -1    0    0  501    0  0.00000000000E+00  0.00000000000E+00  0.71303583613E+03  0.71303583614E+03  0.25500000920E-02 0. -1.
       -2   -1    0    0    0  501  0.00000000000E+00  0.00000000000E+00 -0.97794953038E+03  0.97794953038E+03  0.25500000920E-02 0.  1.
    10030    2    1    2    0    0  0.00000000000E+00  0.00000000000E+00 -0.26491369425E+03  0.16909853665E+04  0.16701054591E+04 0.  0.
        3    1    3    3  502    0  0.82491620189E+03 -0.92203036871E+02 -0.22483850395E+03  0.85996540814E+03  0.10100000352E+00 0. -1.
       -3    1    3    3    0  502 -0.82491620189E+03  0.92203036871E+02 -0.40075190293E+02  0.83101995838E+03  0.10100000352E+00 0.  1.
</event>
<event>
 5   0  0.5342255E-04  0.1682406E+04  0.7818609E-02  0.8771463E-01
       -2   -1    0    0    0  501  0.00000000000E+00  0.00000000000E+00  0.62877366592E+03  0.62877366593E+03  0.25500000920E-02 0.  1.
        2   -1    0    0  501    0  0.00000000000E+00  0.00000000000E+00 -0.11254003072E+04  0.11254003072E+04  0.25500000920E-02 0. -1.
    10030    2    1    2    0    0  0.00000000000E+00  0.00000000000E+00 -0.49662664130E+03  0.17541739731E+04  0.16824055121E+04 0.  0.
        5    1    3    3  502    0 -0.26025144812E+03 -0.79017479961E+03 -0.11853291333E+03  0.84034467436E+03  0.46999998093E+01 0.  1.
       -5    1    3    3    0  502  0.26025144812E+03  0.79017479961E+03 -0.37809372797E+03  0.91382929878E+03  0.46999998093E+01 0. -1.
</event>
<event>
 5   0  0.1910750E-04  0.1276630E+04  0.7818609E-02  0.9048306E-01
        4   -1    0    0  501    0  0.00000000000E+00  0.00000000000E+00  0.95394874662E+03  0.95394959200E+03  0.12699999809E+01 0. -1.
       -4   -1    0    0    0  501  0.00000000000E+00  0.00000000000E+00 -0.42711333928E+03  0.42711522742E+03  0.12699999809E+01 0.  1.
    10030    2    1    2    0    0  0.00000000000E+00  0.00000000000E+00  0.52683540734E+03  0.13810648194E+04  0.12766301301E+04 0.  0.
        4    1    3    3  502    0  0.37574024300E+03  0.42422553078E+03 -0.54376160934E+02  0.56930344366E+03  0.12699999809E+01 0.  1.
       -4    1    3    3    0  502 -0.37574024300E+03 -0.42422553078E+03  0.58121156828E+03  0.81176137576E+03  0.12699999809E+01 0. -1.
</event>
<event>
 5   0  0.2630135E-04  0.1642264E+04  0.7818609E-02  0.8794996E-01
        1   -1    0    0  501    0  0.00000000000E+00  0.00000000000E+00  0.84736320629E+03  0.84736320631E+03  0.50400001928E-02 0. -1.
       -1   -1    0    0    0  501  0.00000000000E+00  0.00000000000E+00 -0.79571272564E+03  0.79571272566E+03  0.50400001928E-02 0.  1.
    10030    2    1    2    0    0  0.00000000000E+00  0.00000000000E+00  0.51650480652E+02  0.16430759320E+04  0.16422639088E+04 0.  0.
        1    1    3    3  502    0  0.72124807816E+03  0.30759470209E+03  0.26975800770E+03  0.82920605024E+03  0.50400001928E-02 0. -1.
       -1    1    3    3    0  502 -0.72124807816E+03 -0.30759470209E+03 -0.21810752704E+03  0.81386988173E+03  0.50400001928E-02 0.  1.
</event>
<event>
 5   0  0.5198430E-04  0.1590978E+04  0.7818609E-02  0.8826110E-01
       -2   -1    0    0    0  501  0.00000000000E+00  0.00000000000E+00  0.39288332744E+03  0.39288332745E+03  0.25500000920E-02 0.  1.
        2   -1    0    0  501    0  0.00000000000E+00  0.00000000000E+00 -0.16106629021E+04  0.16106629021E+04  0.25500000920E-02 0. -1.
    10030    2    1    2    0    0  0.00000000000E+00  0.00000000000E+00 -0.12177795746E+04  0.20035462295E+04  0.15909778130E+04 0.  0.
        4    1    3    3  502    0  0.77269807516E+02  0.28772577269E+03  0.31997469001E+03  0.43719807704E+03  0.12699999809E+01 0.  1.
       -4    1    3    3    0  502 -0.77269807516E+02 -0.28772577269E+03 -0.15377542647E+04  0.15663481525E+04  0.12699999809E+01 0. -1.
</event>
<event>
 5   0  0.2583422E-04  0.1230922E+04  0.7818609E-02  0.9086213E-01
        1   -1    0    0  501    0  0.00000000000E+00  0.00000000000E+00  0.11573924529E+04  0.11573924529E+04  0.50400001928E-02 0.  1.
       -1   -1    0    0    0  501  0.00000000000E+00  0.00000000000E+00 -0.32728047842E+03  0.32728047846E+03  0.50400001928E-02 0. -1.
    10030    2    1    2    0    0  0.00000000000E+00  0.00000000000E+00  0.83011197448E+03  0.14846729314E+04  0.12309215340E+04 0.  0.
        3    1    3    3  502    0  0.11190728027E+03 -0.37576733932E+03  0.98726793745E+03  0.10622722453E+04  0.10100000352E+00 0.  1.
       -3    1    3    3    0  502 -0.11190728027E+03  0.37576733932E+03 -0.15715596297E+03  0.42240068605E+03  0.10100000352E+00 0. -1.
</event>
<event>
 5   0  0.2595644E-04  0.1712239E+04  0.7818609E-02  0.8754414E-01
        1   -1    0    0  501    0  0.00000000000E+00  0.00000000000E+00  0.21671855757E+04  0.21671855757E+04  0.50400001928E-02 0.  1.
       -1   -1    0    0    0  501  0.00000000000E+00  0.00000000000E+00 -0.33819946880E+03  0.33819946884E+03  0.50400001928E-02 0. -1.
    10030    2    1    2    0    0  0.00000000000E+00  0.00000000000E+00  0.18289861069E+04  0.25053850445E+04  0.17122394816E+04 0.  0.
        2    1    3    3  502    0 -0.63406300415E+03 -0.56748923084E+03  0.77675512339E+03  0.11521408083E+04  0.25500000920E-02 0.  1.
       -2    1    3    3    0  502  0.63406300415E+03  0.56748923084E+03  0.10522309835E+04  0.13532442363E+04  0.25500000920E-02 0. -1.
</event>
<event>
 5   0  0.2561518E-04  0.1707060E+04  0.7818609E-02  0.8757348E-01
       -1   -1    0    0    0  501  0.00000000000E+00  0.00000000000E+00  0.50130799491E+03  0.50130799494E+03  0.50400001928E-02 0. -1.
        1   -1    0    0  501    0  0.00000000000E+00  0.00000000000E+00 -0.14532258786E+04  0.14532258786E+04  0.50400001928E-02 0.  1.
    10030    2    1    2    0    0  0.00000000000E+00  0.00000000000E+00 -0.95191788369E+03  0.19545338735E+04  0.17070603403E+04 0.  0.
        4    1    3    3  502    0 -0.64992673879E+03  0.15055663303E+03 -0.10855308639E+04  0.12741471402E+04  0.12699999809E+01 0.  1.
       -4    1    3    3    0  502  0.64992673879E+03 -0.15055663303E+03  0.13361298019E+03  0.68038673335E+03  0.12699999809E+01 0. -1.
</event>
<event>
 5   0  0.5198430E-04  0.1668230E+04  0.7818609E-02  0.8779694E-01
       -2   -1    0    0    0  501  0.00000000000E+00  0.00000000000E+00  0.53809553910E+03  0.53809553911E+03  0.25500000920E-02 0. -1.
        2   -1    0    0  501    0  0.00000000000E+00  0.00000000000E+00 -0.12929816498E+04  0.12929816498E+04  0.25500000920E-02 0.  1.
    10030    2    1    2    0    0  0.00000000000E+00  0.00000000000E+00 -0.75488611073E+03  0.18310771889E+04  0.16682297898E+04 0.  0.
        4    1    3    3  502    0  0.72264793104E+03 -0.39689311718E+03 -0.51628992700E+03  0.97278007809E+03  0.12699999809E+01 0. -1.
       -4    1    3    3    0  502 -0.72264793104E+03  0.39689311718E+03 -0.23859618374E+03  0.85829711085E+03  0.12699999809E+01 0.  1.
</event>
<event>
 5   0  0.2785059E-04  0.1689739E+04  0.7818609E-02  0.8767238E-01
        1   -1    0    0  501    0  0.00000000000E+00  0.00000000000E+00  0.91246051132E+03  0.91246051134E+03  0.50400001928E-02 0.  1.
       -1   -1    0    0    0  501  0.00000000000E+00  0.00000000000E+00 -0.78228542399E+03  0.78228542401E+03  0.50400001928E-02 0. -1.
    10030    2    1    2    0    0  0.00000000000E+00  0.00000000000E+00  0.13017508733E+03  0.16947459353E+04  0.16897391018E+04 0.  0.
        5    1    3    3  502    0 -0.73220866288E+03  0.32058404200E+03 -0.20936320856E+03  0.82629213786E+03  0.46999998093E+01 0. -1.
       -5    1    3    3    0  502  0.73220866288E+03 -0.32058404200E+03  0.33953829590E+03  0.86845379748E+03  0.46999998093E+01 0.  1.
</event>
<event>
 5   0  0.2785059E-04  0.1701541E+04  0.7818609E-02  0.8760486E-01
       -1   -1    0    0    0  501  0.00000000000E+00  0.00000000000E+00  0.65209234412E+03  0.65209234414E+03  0.50400001928E-02 0.  1.
        1   -1    0    0  501    0  0.00000000000E+00  0.00000000000E+00 -0.11099809720E+04  0.11099809720E+04  0.50400001928E-02 0. -1.
    10030    2    1    2    0    0  0.00000000000E+00  0.00000000000E+00 -0.45788862792E+03  0.17620733162E+04  0.17015405890E+04 0.  0.
        5    1    3    3  502    0 -0.61651948769E+03 -0.53487702282E+03 -0.47747869648E+03  0.94562027465E+03  0.46999998093E+01 0. -1.
       -5    1    3    3    0  502  0.61651948769E+03  0.53487702282E+03  0.19590068562E+02  0.81645304153E+03  0.46999998093E+01 0.  1.
</event>
<event>
 5   0  0.2785059E-04  0.1685441E+04  0.7818609E-02  0.8769712E-01
        1   -1    0    0  501    0  0.00000000000E+00  0.00000000000E+00  0.14189171268E+04  0.14189171268E+04  0.50400001928E-02 0.  1.
       -1   -1    0    0    0  501  0.00000000000E+00  0.00000000000E+00 -0.50050688561E+03  0.50050688564E+03  0.50400001928E-02 0. -1.
    10030    2    1    2    0    0  0.00000000000E+00  0.00000000000E+00  0.91841024115E+03  0.19194240124E+04  0.16854409418E+04 0.  0.
        5    1    3    3  502    0 -0.74793968965E+02 -0.10917084288E+03 -0.48858504998E+03  0.50621127189E+03  0.46999998093E+01 0. -1.
       -5    1    3    3    0  502  0.74793968965E+02  0.10917084288E+03  0.14069952911E+04  0.14132127405E+04  0.46999998093E+01 0.  1.
</event>
<event>
 5   0  0.5342255E-04  0.1602090E+04  0.7818609E-02  0.8819265E-01
       -2   -1    0    0    0  501  0.00000000000E+00  0.00000000000E+00  0.83649891132E+03  0.83649891132E+03  0.25500000920E-02 0. -1.
        2   -1    0    0  501    0  0.00000000000E+00  0.00000000000E+00 -0.76709348402E+03  0.76709348402E+03  0.25500000920E-02 0.  1.
    10030    2    1    2    0    0  0.00000000000E+00  0.00000000000E+00  0.69405427303E+02  0.16035923953E+04  0.16020897157E+04 0.  0.
        5    1    3    3  502    0 -0.88041424475E+02  0.62064927249E+03  0.53386271412E+03  0.82340044899E+03  0.46999998093E+01 0. -1.
       -5    1    3    3    0  502  0.88041424475E+02 -0.62064927249E+03 -0.46445728682E+03  0.78019194635E+03  0.46999998093E+01 0.  1.
</event>
<event>
 5   0  0.5310003E-04  0.1707751E+04  0.7818609E-02  0.8756956E-01
        2   -1    0    0  501    0  0.00000000000E+00  0.00000000000E+00  0.80381237511E+03  0.80381237512E+03  0.25500000920E-02 0. -1.
       -2   -1    0    0    0  501  0.00000000000E+00  0.00000000000E+00 -0.90705703381E+03  0.90705703382E+03  0.25500000920E-02 0.  1.
    10030    2    1    2    0    0  0.00000000000E+00  0.00000000000E+00 -0.10324465870E+03  0.17108694089E+04  0.17077513504E+04 0.  0.
        1    1    3    3  502    0 -0.26972361134E+03 -0.76067918896E+03  0.22766977463E+03  0.83858045609E+03  0.50400001928E-02 0. -1.
       -1    1    3    3    0  502  0.26972361134E+03  0.76067918896E+03 -0.33091443334E+03  0.87228895284E+03  0.50400001928E-02 0.  1.
</event>
<event>
 5   0  0.2595644E-04  0.1696480E+04  0.7818609E-02  0.8763375E-01
       -1   -1    0    0    0  501  0.00000000000E+00  0.00000000000E+00  0.11510925961E+04  0.11510925962E+04  0.50400001928E-02 0.  1.
        1   -1    0    0  501    0  0.00000000000E+00  0.00000000000E+00 -0.62506773808E+03  0.62506773811E+03  0.50400001928E-02 0. -1.
    10030    2    1    2    0    0  0.00000000000E+00  0.00000000000E+00  0.52602485806E+03  0.17761603343E+04  0.16964797027E+04 0.  0.
        2    1    3    3  502    0 -0.25411507405E+03  0.21074978390E+03 -0.55504495315E+03  0.64580557624E+03  0.25500000920E-02 0. -1.
       -2    1    3    3    0  502  0.25411507405E+03 -0.21074978390E+03  0.10810698112E+04  0.11303547580E+04  0.25500000920E-02 0.  1.
</event>
<event>
 5   0  0.1910750E-04  0.1732552E+04  0.7818609E-02  0.8743013E-01
        4   -1    0    0  501    0  0.00000000000E+00  0.00000000000E+00  0.11383833631E+04  0.11383840715E+04  0.12699999809E+01 0. -1.
       -4   -1    0    0    0  501  0.00000000000E+00  0.00000000000E+00 -0.65920911683E+03  0.65921034019E+03  0.12699999809E+01 0.  1.
    10030    2    1    2    0    0  0.00000000000E+00  0.00000000000E+00  0.47917424623E+03  0.17975944117E+04  0.17325523688E+04 0.  0.
        4    1    3    3  502    0 -0.70062088714E+03 -0.48657343722E+03  0.39628496194E+03  0.94056723378E+03  0.12699999809E+01 0. -1.
       -4    1    3    3    0  502  0.70062088714E+03  0.48657343722E+03  0.82889284291E+02  0.85702717790E+03  0.12699999809E+01 0.  1.
</event>
<event>
 5   0  0.5310003E-04  0.1699521E+04  0.7818609E-02  0.8761638E-01
        2   -1    0    0  501    0  0.00000000000E+00  0.00000000000E+00  0.13465279609E+04  0.13465279609E+04  0.25500000920E-02 0. -1.
       -2   -1    0    0    0  501  0.00000000000E+00  0.00000000000E+00 -0.53626265646E+03  0.53626265647E+03  0.25500000920E-02 0.  1.
    10030    2    1    2    0    0  0.00000000000E+00  0.00000000000E+00  0.81026530441E+03  0.18827906173E+04  0.16995207104E+04 0.  0.
        1    1    3    3  502    0  0.46369338258E+03  0.24911482393E+03 -0.33390531453E+03  0.62334782237E+03  0.50400001928E-02 0.  1.
       -1    1    3    3    0  502 -0.46369338258E+03 -0.24911482393E+03  0.11441706189E+04  0.12594427950E+04  0.50400001928E-02 0. -1.
</event>
<event>
 5   0  0.1910750E-04  0.1688176E+04  0.7818609E-02  0.8768137E-01
       -3   -1    0    0    0  501  0.00000000000E+00  0.00000000000E+00  0.16658802391E+04  0.16658802421E+04  0.10100000352E+00 0.  1.
        3   -1    0    0  501    0  0.00000000000E+00  0.00000000000E+00 -0.42769256421E+03  0.42769257614E+03  0.10100000352E+00 0. -1.
    10030    2    1    2    0    0  0.00000000000E+00  0.00000000000E+00  0.12381876749E+04  0.20935728183E+04  0.16881760652E+04 0.  0.
        1    1    3    3  502    0 -0.65123058222E+03  0.42043272465E+03  0.10334183989E+04  0.12918275947E+04  0.50400001928E-02 0.  1.
       -1    1    3    3    0  502  0.65123058222E+03 -0.42043272465E+03  0.20476927599E+03  0.80174522362E+03  0.50400001928E-02 0. -1.
</event>
<event>
 5   0  0.5310003E-04  0.1658827E+04  0.7818609E-02  0.8785201E-01
       -2   -1    0    0    0  501  0.00000000000E+00  0.00000000000E+00  0.72777603949E+03  0.72777603949E+03  0.25500000920E-02 0. -1.
        2   -1    0    0  501    0  0.00000000000E+00  0.00000000000E+00 -0.94524563365E+03  0.94524563366E+03  0.25500000920E-02 0.  1.
    10030    2    1    2    0    0  0.00000000000E+00  0.00000000000E+00 -0.21746959417E+03  0.16730216731E+04  0.16588274456E+04 0.  0.
        1    1    3    3  502    0 -0.49297449808E+03  0.30575426811E+03 -0.70661215431E+03  0.91422659383E+03  0.50400001928E-02 0.  1.
       -1    1    3    3    0  502  0.49297449808E+03 -0.30575426811E+03  0.48914256014E+03  0.75879507932E+03  0.50400001928E-02 0. -1.
</event>
<event>
 5   0  0.5299877E-04  0.1651138E+04  0.7818609E-02  0.8789733E-01
       -2   -1    0    0    0  501  0.00000000000E+00  0.00000000000E+00  0.80572485511E+03  0.80572485512E+03  0.25500000920E-02 0. -1.
        2   -1    0    0  501    0  0.00000000000E+00  0.00000000000E+00 -0.84590234019E+03  0.84590234019E+03  0.25500000920E-02 0.  1.
    10030    2    1    2    0    0  0.00000000000E+00  0.00000000000E+00 -0.40177485076E+02  0.16516271953E+04  0.16511384442E+04 0.  0.
        3    1    3    3  502    0 -0.43286482526E+03  0.58892901466E+03  0.36389359917E+03  0.81647284276E+03  0.10100000352E+00 0. -1.
       -3    1    3    3    0  502  0.43286482526E+03 -0.58892901466E+03 -0.40407108425E+03  0.83515435255E+03  0.10100000352E+00 0.  1.
</event>
<event>
 5   0  0.2561518E-04  0.1674082E+04  0.7818609E-02  0.8776286E-01
       -1   -1    0    0    0  501  0.00000000000E+00  0.00000000000E+00  0.11674079313E+04  0.11674079313E+04  0.50400001928E-02 0.  1.
        1   -1    0    0  501    0  0.00000000000E+00  0.00000000000E+00 -0.60016537827E+03  0.60016537829E+03  0.50400001928E-02 0. -1.
    10030    2    1    2    0    0  0.00000000000E+00  0.00000000000E+00  0.56724255302E+03  0.17675733096E+04  0.16740822234E+04 0.  0.
        4    1    3    3  502    0  0.40375143551E+03 -0.38358006993E+03 -0.37616627488E+03  0.67205027414E+03  0.12699999809E+01 0. -1.
       -4    1    3    3    0  502 -0.40375143551E+03  0.38358006993E+03  0.94340882789E+03  0.10955230354E+04  0.12699999809E+01 0.  1.
</event>
<event>
 5   0  0.2561518E-04  0.1705080E+04  0.7818609E-02  0.8758472E-01
       -1   -1    0    0    0  501  0.00000000000E+00  0.00000000000E+00  0.35208167125E+03  0.35208167128E+03  0.50400001928E-02 0.  1.
        1   -1    0    0  501    0  0.00000000000E+00  0.00000000000E+00 -0.20643636433E+04  0.20643636433E+04  0.50400001928E-02 0. -1.
    10030    2    1    2    0    0  0.00000000000E+00  0.00000000000E+00 -0.17122819721E+04  0.24164453146E+04  0.17050801760E+04 0.  0.
        4    1    3    3  502    0  0.67155773597E+03 -0.44687428312E+03 -0.12471878642E+04  0.14853166663E+04  0.12699999809E+01 0. -1.
       -4    1    3    3    0  502 -0.67155773597E+03  0.44687428312E+03 -0.46509410787E+03  0.93112864832E+03  0.12699999809E+01 0.  1.
</event>
<event>
 5   0  0.2630135E-04  0.1699679E+04  0.7818609E-02  0.8761547E-01
        1   -1    0    0  501    0  0.00000000000E+00  0.00000000000E+00  0.13022472112E+04  0.13022472112E+04  0.50400001928E-02 0.  1.
       -1   -1    0    0    0  501  0.00000000000E+00  0.00000000000E+00 -0.55460075262E+03  0.55460075264E+03  0.50400001928E-02 0. -1.
    10030    2    1    2    0    0  0.00000000000E+00  0.00000000000E+00  0.74764645854E+03  0.18568479638E+04  0.16996791267E+04 0.  0.
        1    1    3    3  502    0  0.51033698082E+03  0.43793166242E+03  0.94148641571E+03  0.11569894753E+04  0.50400001928E-02 0. -1.
       -1    1    3    3    0  502 -0.51033698082E+03 -0.43793166242E+03 -0.19383995716E+03  0.69985848853E+03  0.50400001928E-02 0.  1.
</event>
<event>
 5   0  0.5342255E-04  0.1672614E+04  0.7818609E-02  0.8777140E-01
        2   -1    0    0  501    0  0.00000000000E+00  0.00000000000E+00  0.18613784614E+04  0.18613784614E+04  0.25500000920E-02 0. -1.
       -2   -1    0    0    0  501  0.00000000000E+00  0.00000000000E+00 -0.37574793978E+03  0.37574793979E+03  0.25500000920E-02 0.  1.
    10030    2    1    2    0    0  0.00000000000E+00  0.00000000000E+00  0.14856305216E+04  0.22371264012E+04  0.16726136697E+04 0.  0.
        5    1    3    3  502    0  0.52571188531E+03 -0.64994497330E+03  0.77518111080E+03  0.11400567088E+04  0.46999998093E+01 0. -1.
       -5    1    3    3    0  502 -0.52571188531E+03  0.64994497330E+03  0.71044941079E+03  0.10970696924E+04  0.46999998093E+01 0.  1.
</event>
<event>
 5   0  0.2630135E-04  0.1659774E+04  0.7818609E-02  0.8784645E-01
       -1   -1    0    0    0  501  0.00000000000E+00  0.00000000000E+00  0.48286312498E+03  0.48286312501E+03  0.50400001928E-02 0. -1.
        1   -1    0    0  501    0  0.00000000000E+00  0.00000000000E+00 -0.14263102828E+04  0.14263102828E+04  0.50400001928E-02 0.  1.
    10030    2    1    2    0    0  0.00000000000E+00  0.00000000000E+00 -0.94344715781E+03  0.19091734078E+04  0.16597742502E+04 0.  0.
        1    1    3    3  502    0  0.40129273240E+03  0.66097602608E+03 -0.12513892769E+03  0.78331661247E+03  0.50400001928E-02 0. -1.
       -1    1    3    3    0  502 -0.40129273240E+03 -0.66097602608E+03 -0.81830823012E+03  0.11258567953E+04  0.50400001928E-02 0.  1.
</event>
<event>
 5   0  0.1910750E-04  0.1672575E+04  0.7818609E-02  0.8777162E-01
        3   -1    0    0  501    0  0.00000000000E+00  0.00000000000E+00  0.91917201746E+03  0.91917202300E+03  0.10100000352E+00 0. -1.
       -3   -1    0    0    0  501  0.00000000000E+00  0.00000000000E+00 -0.76087679957E+03  0.76087680628E+03  0.10100000352E+00 0.  1.
    10030    2    1    2    0    0  0.00000000000E+00  0.00000000000E+00  0.15829521788E+03  0.16800488293E+04  0.16725748691E+04 0.  0.
        3    1    3    3  502    0  0.58693523380E+03  0.59460941237E+03  0.11568791883E+03  0.84346726476E+03  0.10100000352E+00 0. -1.
       -3    1    3    3    0  502 -0.58693523380E+03 -0.59460941237E+03  0.42607299050E+02  0.83658156452E+03  0.10100000352E+00 0.  1.
</event>
<event>
 5   0  0.5342255E-04  0.1703007E+04  0.7818609E-02  0.8759651E-01
       -2   -1    0    0    0  501  0.00000000000E+00  0.00000000000E+00  0.57637759786E+03  0.57637759786E+03  0.25500000920E-02 0.  1.
        2   -1    0    0  501    0  0.00000000000E+00  0.00000000000E+00 -0.12579571387E+04  0.12579571387E+04  0.25500000920E-02 0. -1.
    10030    2    1    2    0    0  0.00000000000E+00  0.00000000000E+00 -0.68157954085E+03  0.18343347366E+04  0.17030071213E+04 0.  0.
        5    1    3    3  502    0 -0.43298640096E+02 -0.75983443024E+03  0.70511814763E+02  0.76434098388E+03  0.46999998093E+01 0.  1.
       -5    1    3    3    0  502  0.43298640096E+02  0.75983443024E+03 -0.75209135561E+03  0.10699937527E+04  0.46999998093E+01 0. -1.
</event>
<event>
 5   0  0.5310003E-04  0.1748542E+04  0.7818609E-02  0.8734153E-01
       -2   -1    0    0    0  501  0.00000000000E+00  0.00000000000E+00  0.32989283150E+04  0.32989283150E+04  0.25500000920E-02 0. -1.
        2   -1    0    0  501    0  0.00000000000E+00  0.00000000000E+00 -0.23169646590E+03  0.23169646592E+03  0.25500000920E-02 0.  1.
    10030    2    1    2    0    0  0.00000000000E+00  0.00000000000E+00  0.30672318491E+04  0.35306247809E+04  0.17485422865E+04 0.  0.
        1    1    3    3  502    0  0.65861663715E+02  0.79019591496E+03  0.79006695440E+03  0.11193538919E+04  0.50400001928E-02 0.  1.
       -1    1    3    3    0  502 -0.65861663715E+02 -0.79019591496E+03  0.22771648947E+04  0.24112708891E+04  0.50400001928E-02 0. -1.
</event>
<event>
 5   0  0.5198430E-04  0.1708273E+04  0.7818609E-02  0.8756660E-01
       -2   -1    0    0    0  501  0.00000000000E+00  0.00000000000E+00  0.30396599019E+03  0.30396599020E+03  0.25500000920E-02 0.  1.
        2   -1    0    0  501    0  0.00000000000E+00  0.00000000000E+00 -0.24001007410E+04  0.24001007410E+04  0.25500000920E-02 0. -1.
    10030    2    1    2    0    0  0.00000000000E+00  0.00000000000E+00 -0.20961347508E+04  0.27040667312E+04  0.17082728100E+04 0.  0.
        4    1    3    3  502    0  0.74755756397E+03  0.34058415681E+03 -0.14183076294E+04  0.16390356994E+04  0.12699999809E+01 0. -1.
       -4    1    3    3    0  502 -0.74755756397E+03 -0.34058415681E+03 -0.67782712140E+03  0.10650310318E+04  0.12699999809E+01 0.  1.
</event>
<event>
 5   0  0.5342255E-04  0.1652393E+04  0.7818609E-02  0.8788992E-01
       -2   -1    0    0    0  501  0.00000000000E+00  0.00000000000E+00  0.47545110381E+03  0.47545110382E+03  0.25500000920E-02 0. -1.
        2   -1    0    0  501    0  0.00000000000E+00  0.00000000000E+00 -0.14356899479E+04  0.14356899479E+04  0.25500000920E-02 0.  1.
    10030    2    1    2    0    0  0.00000000000E+00  0.00000000000E+00 -0.96023884413E+03  0.19111410518E+04  0.16523926537E+04 0.  0.
        5    1    3    3  502    0  0.11314108907E+03 -0.41980636954E+03 -0.12926517672E+04  0.13638214602E+04  0.46999998093E+01 0.  1.
       -5    1    3    3    0  502 -0.11314108907E+03  0.41980636954E+03  0.33241292306E+03  0.54731959162E+03  0.46999998093E+01 0. -1.
</event>
<event>
 5   0  0.2561518E-04  0.1719067E+04  0.7818609E-02  0.8750564E-01
       -1   -1    0    0    0  501  0.00000000000E+00  0.00000000000E+00  0.60649281382E+03  0.60649281384E+03  0.50400001928E-02 0. -1.
        1   -1    0    0  501    0  0.00000000000E+00  0.00000000000E+00 -0.12181482494E+04  0.12181482494E+04  0.50400001928E-02 0.  1.
    10030    2    1    2    0    0  0.00000000000E+00  0.00000000000E+00 -0.61165543558E+03  0.18246410633E+04  0.17190673744E+04 0.  0.
        4    1    3    3  502    0 -0.13271209610E+03  0.32417106955E+03  0.52729533373E+03  0.63304136093E+03  0.12699999809E+01 0. -1.
       -4    1    3    3    0  502  0.13271209610E+03 -0.32417106955E+03 -0.11389507693E+04  0.11915997023E+04  0.12699999809E+01 0.  1.
</event>
<event>
 5   0  0.5310003E-04  0.1719184E+04  0.7818609E-02  0.8750498E-01
       -2   -1    0    0    0  501  0.00000000000E+00  0.00000000000E+00  0.10005953377E+04  0.10005953377E+04  0.25500000920E-02 0. -1.
        2   -1    0    0  501    0  0.00000000000E+00  0.00000000000E+00 -0.73845869018E+03  0.73845869018E+03  0.25500000920E-02 0.  1.
    10030    2    1    2    0    0  0.00000000000E+00  0.00000000000E+00  0.26213664750E+03  0.17390540279E+04  0.17191839023E+04 0.  0.
        1    1    3    3  502    0  0.23452091028E+03 -0.24608785239E+03  0.92971171174E+03  0.98991068052E+03  0.50400001928E-02 0. -1.
       -1    1    3    3    0  502 -0.23452091028E+03  0.24608785239E+03 -0.66757506423E+03  0.74914334734E+03  0.50400001928E-02 0.  1.
</event>
<event>
 5   0  0.2561518E-04  0.1684080E+04  0.7818609E-02  0.8770497E-01
        1   -1    0    0  501    0  0.00000000000E+00  0.00000000000E+00  0.57078335047E+03  0.57078335049E+03  0.50400001928E-02 0. -1.
       -1   -1    0    0    0  501  0.00000000000E+00  0.00000000000E+00 -0.12422073000E+04  0.12422073000E+04  0.50400001928E-02 0.  1.
    10030    2    1    2    0    0  0.00000000000E+00  0.00000000000E+00 -0.67142394953E+03  0.18129906505E+04  0.16840798612E+04 0.  0.
        4    1    3    3  502    0 -0.61415167139E+01  0.86721353675E+02  0.56593772381E+03  0.57257788252E+03  0.12699999809E+01 0. -1.
       -4    1    3    3    0  502  0.61415167139E+01 -0.86721353675E+02 -0.12373616733E+04  0.12404127680E+04  0.12699999809E+01 0.  1.
</event>
<event>
 5   0  0.2595644E-04  0.1700649E+04  0.7818609E-02  0.8760994E-01
        1   -1    0    0  501    0  0.00000000000E+00  0.00000000000E+00  0.12643025365E+04  0.12643025365E+04  0.50400001928E-02 0.  1.
       -1   -1    0    0    0  501  0.00000000000E+00  0.00000000000E+00 -0.57189782638E+03  0.57189782640E+03  0.50400001928E-02 0. -1.
    10030    2    1    2    0    0  0.00000000000E+00  0.00000000000E+00  0.69240471007E+03  0.18362003629E+04  0.17006491378E+04 0.  0.
        2    1    3    3  502    0  0.49325394852E+03  0.24462090450E+03  0.10458590917E+04  0.11819306597E+04  0.25500000920E-02 0.  1.
       -2    1    3    3    0  502 -0.49325394852E+03 -0.24462090450E+03 -0.35345438159E+03  0.65426970320E+03  0.25500000920E-02 0. -1.
</event>
<event>
 5   0  0.2595644E-04  0.1698160E+04  0.7818609E-02  0.8762414E-01
        1   -1    0    0  501    0  0.00000000000E+00  0.00000000000E+00  0.11807133696E+04  0.11807133696E+04  0.50400001928E-02 0. -1.
       -1   -1    0    0    0  501  0.00000000000E+00  0.00000000000E+00 -0.61059438111E+03  0.61059438113E+03  0.50400001928E-02 0.  1.
    10030    2    1    2    0    0  0.00000000000E+00  0.00000000000E+00  0.57011898849E+03  0.17913077507E+04  0.16981601211E+04 0.  0.
        2    1    3    3  502    0 -0.14319193471E+03  0.19026729810E+03  0.11447680717E+04  0.11692730703E+04  0.25500000920E-02 0. -1.
       -2    1    3    3    0  502  0.14319193471E+03 -0.19026729810E+03 -0.57464908319E+03  0.62203468048E+03  0.25500000920E-02 0.  1.
</event>
<event>
 5   0  0.2630135E-04  0.1622943E+04  0.7818609E-02  0.8806576E-01
       -1   -1    0    0    0  501  0.00000000000E+00  0.00000000000E+00  0.53451797940E+03  0.53451797942E+03  0.50400001928E-02 0. -1.
        1   -1    0    0  501    0  0.00000000000E+00  0.00000000000E+00 -0.12319247418E+04  0.12319247418E+04  0.50400001928E-02 0.  1.
    10030    2    1    2    0    0  0.00000000000E+00  0.00000000000E+00 -0.69740676236E+03  0.17664427212E+04  0.16229429118E+04 0.  0.
        1    1    3    3  502    0 -0.14356201066E+03 -0.68239291088E+03  0.10297863323E+03  0.70489342077E+03  0.50400001928E-02 0. -1.
       -1    1    3    3    0  502  0.14356201066E+03  0.68239291088E+03 -0.80038539559E+03  0.10615493004E+04  0.50400001928E-02 0.  1.
</event>
<event>
 5   0  0.2561518E-04  0.1717515E+04  0.7818609E-02  0.8751438E-01
        1   -1    0    0  501    0  0.00000000000E+00  0.00000000000E+00  0.11093083056E+04  0.11093083057E+04  0.50400001928E-02 0.  1.
       -1   -1    0    0    0  501  0.00000000000E+00  0.00000000000E+00 -0.66479650646E+03  0.66479650647E+03  0.50400001928E-02 0. -1.
    10030    2    1    2    0    0  0.00000000000E+00  0.00000000000E+00  0.44451179919E+03  0.17741048121E+04  0.17175148165E+04 0.  0.
        4    1    3    3  502    0  0.13500141693E+03  0.29439442473E+03 -0.59929184421E+03  0.68120906286E+03  0.12699999809E+01 0. -1.
       -4    1    3    3    0  502 -0.13500141693E+03 -0.29439442473E+03  0.10438036434E+04  0.10928957493E+04  0.12699999809E+01 0.  1.
</event>
<event>
 5   0  0.5198430E-04  0.1737450E+04  0.7818609E-02  0.8740289E-01
        2   -1    0    0  501    0  0.00000000000E+00  0.00000000000E+00  0.86454478790E+03  0.86454478790E+03  0.25500000920E-02 0.  1.
       -2   -1    0    0    0  501  0.00000000000E+00  0.00000000000E+00 -0.87292506267E+03  0.87292506268E+03  0.25500000920E-02 0. -1.
    10030    2    1    2    0    0  0.00000000000E+00  0.00000000000E+00 -0.83802747720E+01  0.17374698506E+04  0.17374496403E+04 0.  0.
        4    1    3    3  502    0 -0.10543940990E+03  0.82181557025E+03  0.25693145467E+03  0.86747546707E+03  0.12699999809E+01 0. -1.
       -4    1    3    3    0  502  0.10543940990E+03 -0.82181557025E+03 -0.26531172944E+03  0.86999438351E+03  0.12699999809E+01 0.  1.
</event>
<event>
 5   0  0.5021349E-04  0.1705106E+04  0.7818609E-02  0.8758457E-01
        2   -1    0    0  501    0  0.00000000000E+00  0.00000000000E+00  0.15711871744E+04  0.15711871744E+04  0.25500000920E-02 0. -1.
       -2   -1    0    0    0  501  0.00000000000E+00  0.00000000000E+00 -0.46261007199E+03  0.46261007200E+03  0.25500000920E-02 0.  1.
    10030    2    1    2    0    0  0.00000000000E+00  0.00000000000E+00  0.11085771025E+04  0.20337972464E+04  0.17051064622E+04 0.  0.
        2    1    3    3  502    0  0.33183517580E+03  0.38716347818E+02 -0.38128111535E+03  0.50694065571E+03  0.25500000920E-02 0.  1.
       -2    1    3    3    0  502 -0.33183517580E+03 -0.38716347818E+02  0.14898582178E+04  0.15268565907E+04  0.25500000920E-02 0. -1.
</event>
<event>
 5   0  0.2583422E-04  0.1700825E+04  0.7818609E-02  0.8760894E-01
        1   -1    0    0  501    0  0.00000000000E+00  0.00000000000E+00  0.40793219939E+03  0.40793219942E+03  0.50400001928E-02 0.  1.
       -1   -1    0    0    0  501  0.00000000000E+00  0.00000000000E+00 -0.17728464784E+04  0.17728464784E+04  0.50400001928E-02 0. -1.
    10030    2    1    2    0    0  0.00000000000E+00  0.00000000000E+00 -0.13649142791E+04  0.21807786779E+04  0.17008246978E+04 0.  0.
        3    1    3    3  502    0  0.66787068289E+03 -0.24212197926E+03 -0.12818401690E+04  0.14655335312E+04  0.10100000352E+00 0. -1.
       -3    1    3    3    0  502 -0.66787068289E+03  0.24212197926E+03 -0.83074110044E+02  0.71524514669E+03  0.10100000352E+00 0.  1.
</event>
<event>
 5   0  0.5021349E-04  0.1696162E+04  0.7818609E-02  0.8763556E-01
       -2   -1    0    0    0  501  0.00000000000E+00  0.00000000000E+00  0.31358931532E+03  0.31358931533E+03  0.25500000920E-02 0. -1.
        2   -1    0    0  501    0  0.00000000000E+00  0.00000000000E+00 -0.22935775913E+04  0.22935775913E+04  0.25500000920E-02 0.  1.
    10030    2    1    2    0    0  0.00000000000E+00  0.00000000000E+00 -0.19799882760E+04  0.26071669067E+04  0.16961620518E+04 0.  0.
        2    1    3    3  502    0  0.52193623072E+03  0.32380868533E+03 -0.18888638025E+04  0.19862215280E+04  0.25500000920E-02 0.  1.
       -2    1    3    3    0  502 -0.52193623072E+03 -0.32380868533E+03 -0.91124473477E+02  0.62094537868E+03  0.25500000920E-02 0. -1.
</event>
<event>
 5   0  0.2785059E-04  0.1801477E+04  0.7818609E-02  0.8705514E-01
       -1   -1    0    0    0  501  0.00000000000E+00  0.00000000000E+00  0.95502646719E+03  0.95502646720E+03  0.50400001928E-02 0. -1.
        1   -1    0    0  501    0  0.00000000000E+00  0.00000000000E+00 -0.84953641626E+03  0.84953641628E+03  0.50400001928E-02 0.  1.
    10030    2    1    2    0    0  0.00000000000E+00  0.00000000000E+00  0.10549005093E+03  0.18045628835E+04  0.18014769079E+04 0.  0.
        5    1    3    3  502    0 -0.13452059921E+03  0.14151150287E+03 -0.82807142530E+03  0.85079120380E+03  0.46999998093E+01 0.  1.
       -5    1    3    3    0  502  0.13452059921E+03 -0.14151150287E+03  0.93356147623E+03  0.95377167968E+03  0.46999998093E+01 0. -1.
</event>
<event>
 5   0  0.5310003E-04  0.1674155E+04  0.7818609E-02  0.8776243E-01
        2   -1    0    0  501    0  0.00000000000E+00  0.00000000000E+00  0.62350046335E+03  0.62350046335E+03  0.25500000920E-02 0.  1.
       -2   -1    0    0    0  501  0.00000000000E+00  0.00000000000E+00 -0.11238145265E+04  0.11238145265E+04  0.25500000920E-02 0. -1.
    10030    2    1    2    0    0  0.00000000000E+00  0.00000000000E+00 -0.50031406318E+03  0.17473149899E+04  0.16741551637E+04 0.  0.
        1    1    3    3  502    0 -0.40911323485E+03 -0.61645091975E+03 -0.65882038911E+03  0.99067132820E+03  0.50400001928E-02 0. -1.
       -1    1    3    3    0  502  0.40911323485E+03  0.61645091975E+03  0.15850632593E+03  0.75664366169E+03  0.50400001928E-02 0.  1.
</event>
<event>
 5   0  0.5198430E-04  0.1705059E+04  0.7818609E-02  0.8758484E-01
       -2   -1    0    0    0  501  0.00000000000E+00  0.00000000000E+00  0.10362411089E+04  0.10362411089E+04  0.25500000920E-02 0. -1.
        2   -1    0    0  501    0  0.00000000000E+00  0.00000000000E+00 -0.70138724266E+03  0.70138724267E+03  0.25500000920E-02 0.  1.
    10030    2    1    2    0    0  0.00000000000E+00  0.00000000000E+00  0.33485386619E+03  0.17376283515E+04  0.17050587017E+04 0.  0.
        4    1    3    3  502    0  0.41416203659E+02  0.26861376474E+03 -0.65605272192E+03  0.71012354093E+03  0.12699999809E+01 0.  1.
       -4    1    3    3    0  502 -0.41416203659E+02 -0.26861376474E+03  0.99090658811E+03  0.10275048106E+04  0.12699999809E+01 0. -1.
</event>
<event>
 5   0  0.2583422E-04  0.1652048E+04  0.7818609E-02  0.8789196E-01
       -1   -1    0    0    0  501  0.00000000000E+00  0.00000000000E+00  0.81024023646E+03  0.81024023648E+03  0.50400001928E-02 0. -1.
        1   -1    0    0  501    0  0.00000000000E+00  0.00000000000E+00 -0.84211551743E+03  0.84211551745E+03  0.50400001928E-02 0.  1.
    10030    2    1    2    0    0  0.00000000000E+00  0.00000000000E+00 -0.31875280970E+02  0.16523557539E+04  0.16520482753E+04 0.  0.
        3    1    3    3  502    0  0.34134257644E+03  0.36421146507E+03  0.64232702579E+03  0.81347941833E+03  0.10100000352E+00 0. -1.
       -3    1    3    3    0  502 -0.34134257644E+03 -0.36421146507E+03 -0.67420230676E+03  0.83887633560E+03  0.10100000352E+00 0.  1.
</event>
<event>
 5   0  0.5198430E-04  0.1718394E+04  0.7818609E-02  0.8750942E-01
        2   -1    0    0  501    0  0.00000000000E+00  0.00000000000E+00  0.81701516077E+03  0.81701516078E+03  0.25500000920E-02 0. -1.
       -2   -1    0    0    0  501  0.00000000000E+00  0.00000000000E+00 -0.90355707608E+03  0.90355707608E+03  0.25500000920E-02 0.  1.
    10030    2    1    2    0    0  0.00000000000E+00  0.00000000000E+00 -0.86541915307E+02  0.17205722369E+04  0.17183944015E+04 0.  0.
        4    1    3    3  502    0 -0.57179297893E+03 -0.26589482082E+03  0.54105322787E+03  0.83089558597E+03  0.12699999809E+01 0. -1.
       -4    1    3    3    0  502  0.57179297893E+03  0.26589482082E+03 -0.62759514318E+03  0.88967665089E+03  0.12699999809E+01 0.  1.
</event>
<event>
 5   0  0.5342255E-04  0.1710548E+04  0.7818609E-02  0.8755371E-01
       -2   -1    0    0    0  501  0.00000000000E+00  0.00000000000E+00  0.80209610393E+03  0.80209610393E+03  0.25500000920E-02 0.  1.
        2   -1    0    0  501    0  0.00000000000E+00  0.00000000000E+00 -0.91197779398E+03  0.91197779399E+03  0.25500000920E-02 0. -1.
    10030    2    1    2    0    0  0.00000000000E+00  0.00000000000E+00 -0.10988169006E+03  0.17140738979E+04  0.17105482576E+04 0.  0.
        5    1    3    3  502    0  0.63728250782E+03  0.27486573164E+03 -0.55576251068E+03  0.88914240900E+03  0.46999998093E+01 0. -1.
       -5    1    3    3    0  502 -0.63728250782E+03 -0.27486573164E+03  0.44588082062E+03  0.82493148892E+03  0.46999998093E+01 0.  1.
</event>
<event>
 5   0  0.5310003E-04  0.1688504E+04  0.7818609E-02  0.8767948E-01
       -2   -1    0    0    0  501  0.00000000000E+00  0.00000000000E+00  0.73801155468E+03  0.73801155468E+03  0.25500000920E-02 0. -1.
        2   -1    0    0  501    0  0.00000000000E+00  0.00000000000E+00 -0.96578649617E+03  0.96578649617E+03  0.25500000920E-02 0.  1.
    10030    2    1    2    0    0  0.00000000000E+00  0.00000000000E+00 -0.22777494149E+03  0.17037980509E+04  0.16885041824E+04 0.  0.
        1    1    3    3  502    0  0.31621209100E+02  0.57138778087E+03  0.51244209175E+03  0.76816716567E+03  0.50400001928E-02 0. -1.
       -1    1    3    3    0  502 -0.31621209100E+02 -0.57138778087E+03 -0.74021703324E+03  0.93563088519E+03  0.50400001928E-02 0.  1.
</event>
<event>
 5   0  0.2561518E-04  0.1514448E+04  0.7818609E-02  0.8874902E-01
       -1   -1    0    0    0  501  0.00000000000E+00  0.00000000000E+00  0.62601712933E+03  0.62601712935E+03  0.50400001928E-02 0. -1.
        1   -1    0    0  501    0  0.00000000000E+00  0.00000000000E+00 -0.91593025205E+03  0.91593025206E+03  0.50400001928E-02 0.  1.
    10030    2    1    2    0    0  0.00000000000E+00  0.00000000000E+00 -0.28991312272E+03  0.15419473814E+04  0.15144477899E+04 0.  0.
        4    1    3    3  502    0  0.16399417397E+03 -0.61239910683E+03 -0.56655231298E+03  0.85024107839E+03  0.12699999809E+01 0.  1.
       -4    1    3    3    0  502 -0.16399417397E+03  0.61239910683E+03  0.27663919027E+03  0.69170630302E+03  0.12699999809E+01 0. -1.
</event>
<event>
 5   0  0.5310003E-04  0.1670580E+04  0.7818609E-02  0.8778324E-01
       -2   -1    0    0    0  501  0.00000000000E+00  0.00000000000E+00  0.45895926366E+03  0.45895926367E+03  0.25500000920E-02 0. -1.
        2   -1    0    0  501    0  0.00000000000E+00  0.00000000000E+00 -0.15201990772E+04  0.15201990772E+04  0.25500000920E-02 0.  1.
    10030    2    1    2    0    0  0.00000000000E+00  0.00000000000E+00 -0.10612398135E+04  0.19791583408E+04  0.16705800778E+04 0.  0.
        1    1    3    3  502    0  0.22905256057E+03  0.78947068897E+03 -0.70626300378E+03  0.10837603401E+04  0.50400001928E-02 0.  1.
       -1    1    3    3    0  502 -0.22905256057E+03 -0.78947068897E+03 -0.35497680973E+03  0.89539800073E+03  0.50400001928E-02 0. -1.
</event>
<event>
 5   0  0.2595644E-04  0.1763802E+04  0.7818609E-02  0.8725789E-01
       -1   -1    0    0    0  501  0.00000000000E+00  0.00000000000E+00  0.11487273531E+04  0.11487273532E+04  0.50400001928E-02 0.  1.
        1   -1    0    0  501    0  0.00000000000E+00  0.00000000000E+00 -0.67705322190E+03  0.67705322192E+03  0.50400001928E-02 0. -1.
    10030    2    1    2    0    0  0.00000000000E+00  0.00000000000E+00  0.47167413125E+03  0.18257805751E+04  0.17638022061E+04 0.  0.
        2    1    3    3  502    0 -0.30427673596E+03  0.46836387622E+03  0.94231512258E+03  0.10954025940E+04  0.25500000920E-02 0.  1.
       -2    1    3    3    0  502  0.30427673596E+03 -0.46836387622E+03 -0.47064099133E+03  0.73037798113E+03  0.25500000920E-02 0. -1.
</event>
<event>
 5   0  0.5299877E-04  0.1706357E+04  0.7818609E-02  0.8757747E-01
       -2   -1    0    0    0  501  0.00000000000E+00  0.00000000000E+00  0.57766509166E+03  0.57766509167E+03  0.25500000920E-02 0. -1.
        2   -1    0    0  501    0  0.00000000000E+00  0.00000000000E+00 -0.12600964907E+04  0.12600964907E+04  0.25500000920E-02 0.  1.
    10030    2    1    2    0    0  0.00000000000E+00  0.00000000000E+00 -0.68243139907E+03  0.18377615824E+04  0.17063572367E+04 0.  0.
        3    1    3    3  502    0 -0.26460401717E+03 -0.57422643672E+03  0.27575374764E+03  0.68977635946E+03  0.10100000352E+00 0. -1.
       -3    1    3    3    0  502  0.26460401717E+03  0.57422643672E+03 -0.95818514671E+03  0.11479852229E+04  0.10100000352E+00 0.  1.
</event>
<event>
 5   0  0.2561518E-04  0.1693585E+04  0.7818609E-02  0.8765032E-01
        1   -1    0    0  501    0  0.00000000000E+00  0.00000000000E+00  0.18256422226E+04  0.18256422226E+04  0.50400001928E-02 0.  1.
       -1   -1    0    0    0  501  0.00000000000E+00  0.00000000000E+00 -0.39276991903E+03  0.39276991906E+03  0.50400001928E-02 0. -1.
    10030    2    1    2    0    0  0.00000000000E+00  0.00000000000E+00  0.14328723035E+04  0.22184121416E+04  0.16935847755E+04 0.  0.
        4    1    3    3  502    0  0.52626049992E+03  0.64683915896E+03  0.52345609770E+03  0.98456026248E+03  0.12699999809E+01 0. -1.
       -4    1    3    3    0  502 -0.52626049992E+03 -0.64683915896E+03  0.90941620584E+03  0.12338518792E+04  0.12699999809E+01 0.  1.
</event>
<event>
 5   0  0.2561518E-04  0.1754532E+04  0.7818609E-02  0.8730860E-01
       -1   -1    0    0    0  501  0.00000000000E+00  0.00000000000E+00  0.15205403556E+04  0.15205403556E+04  0.50400001928E-02 0.  1.
        1   -1    0    0  501    0  0.00000000000E+00  0.00000000000E+00 -0.50613296765E+03  0.50613296767E+03  0.50400001928E-02 0. -1.
    10030    2    1    2    0    0  0.00000000000E+00  0.00000000000E+00  0.10144073879E+04  0.20266733233E+04  0.17545319634E+04 0.  0.
        4    1    3    3  502    0  0.65383431337E+03  0.54320342969E+03  0.25671648730E+03  0.88796072161E+03  0.12699999809E+01 0. -1.
       -4    1    3    3    0  502 -0.65383431337E+03 -0.54320342969E+03  0.75769090062E+03  0.11387126016E+04  0.12699999809E+01 0.  1.
</event>
<event>
 5   0  0.5310003E-04  0.1707998E+04  0.7818609E-02  0.8756816E-01
       -2   -1    0    0    0  501  0.00000000000E+00  0.00000000000E+00  0.72664881933E+03  0.72664881934E+03  0.25500000920E-02 0.  1.
        2   -1    0    0  501    0  0.00000000000E+00  0.00000000000E+00 -0.10036682353E+04  0.10036682353E+04  0.25500000920E-02 0. -1.
    10030    2    1    2    0    0  0.00000000000E+00  0.00000000000E+00 -0.27701941594E+03  0.17303170546E+04  0.17079980541E+04 0.  0.
        1    1    3    3  502    0  0.95617095629E+02 -0.67551703922E+03 -0.65888369835E+03  0.94846909661E+03  0.50400001928E-02 0. -1.
       -1    1    3    3    0  502 -0.95617095629E+02  0.67551703922E+03  0.38186428240E+03  0.78184795801E+03  0.50400001928E-02 0.  1.
</event>
<event>
 5   0  0.5198430E-04  0.1715698E+04  0.7818609E-02  0.8752462E-01
       -2   -1    0    0    0  501  0.00000000000E+00  0.00000000000E+00  0.12762368965E+04  0.12762368965E+04  0.25500000920E-02 0. -1.
        2   -1    0    0  501    0  0.00000000000E+00  0.00000000000E+00 -0.57662093919E+03  0.57662093920E+03  0.25500000920E-02 0.  1.
    10030    2    1    2    0    0  0.00000000000E+00  0.00000000000E+00  0.69961595734E+03  0.18528578357E+04  0.17156980130E+04 0.  0.
        4    1    3    3  502    0 -0.15905046719E+03  0.62699231888E+03 -0.25869701382E+03  0.69666503924E+03  0.12699999809E+01 0.  1.
       -4    1    3    3    0  502  0.15905046719E+03 -0.62699231888E+03  0.95831297116E+03  0.11561927965E+04  0.12699999809E+01 0. -1.
</event>
<event>
 5   0  0.2785059E-04  0.1715759E+04  0.7818609E-02  0.8752427E-01
        1   -1    0    0  501    0  0.00000000000E+00  0.00000000000E+00  0.14106753898E+04  0.14106753899E+04  0.50400001928E-02 0.  1.
       -1   -1    0    0    0  501  0.00000000000E+00  0.00000000000E+00 -0.52170571672E+03  0.52170571675E+03  0.50400001928E-02 0. -1.
    10030    2    1    2    0    0  0.00000000000E+00  0.00000000000E+00  0.88896967312E+03  0.19323811066E+04  0.17157592085E+04 0.  0.
        5    1    3    3  502    0  0.65621886537E+02 -0.37376371334E+03  0.13109907664E+04  0.13648166269E+04  0.46999998093E+01 0.  1.
       -5    1    3    3    0  502 -0.65621886537E+02  0.37376371334E+03 -0.42202109332E+03  0.56756447969E+03  0.46999998093E+01 0. -1.
</event>
<event>
 5   0  0.5310003E-04  0.1643477E+04  0.7818609E-02  0.8794275E-01
        2   -1    0    0  501    0  0.00000000000E+00  0.00000000000E+00  0.56626004068E+03  0.56626004068E+03  0.25500000920E-02 0.  1.
       -2   -1    0    0    0  501  0.00000000000E+00  0.00000000000E+00 -0.11924800108E+04  0.11924800108E+04  0.25500000920E-02 0. -1.
    10030    2    1    2    0    0  0.00000000000E+00  0.00000000000E+00 -0.62621997016E+03  0.17587400515E+04  0.16434765340E+04 0.  0.
        1    1    3    3  502    0  0.38432550080E+03  0.19452050431E+03 -0.10619816425E+04  0.11460145402E+04  0.50400001928E-02 0. -1.
       -1    1    3    3    0  502 -0.38432550080E+03 -0.19452050431E+03  0.43576167236E+03  0.61272551137E+03  0.50400001928E-02 0.  1.
</event>
<event>
 5   0  0.5299877E-04  0.1700310E+04  0.7818609E-02  0.8761188E-01
        2   -1    0    0  501    0  0.00000000000E+00  0.00000000000E+00  0.15099622339E+04  0.15099622339E+04  0.25500000920E-02 0.  1.
       -2   -1    0    0    0  501  0.00000000000E+00  0.00000000000E+00 -0.47866325491E+03  0.47866325492E+03  0.25500000920E-02 0. -1.
    10030    2    1    2    0    0  0.00000000000E+00  0.00000000000E+00  0.10312989789E+04  0.19886254888E+04  0.17003098984E+04 0.  0.
        3    1    3    3  502    0  0.39567560499E+03 -0.19537276190E+02  0.13954111660E+04  0.14505561768E+04  0.10100000352E+00 0.  1.
       -3    1    3    3    0  502 -0.39567560499E+03  0.19537276190E+02 -0.36411218706E+03  0.53806931200E+03  0.10100000352E+00 0. -1.
</event>
<event>
 5   0  0.2630135E-04  0.1707527E+04  0.7818609E-02  0.8757083E-01
        1   -1    0    0  501    0  0.00000000000E+00  0.00000000000E+00  0.11221578510E+04  0.11221578510E+04  0.50400001928E-02 0.  1.
       -1   -1    0    0    0  501  0.00000000000E+00  0.00000000000E+00 -0.64956323933E+03  0.64956323935E+03  0.50400001928E-02 0. -1.
    10030    2    1    2    0    0  0.00000000000E+00  0.00000000000E+00  0.47259461167E+03  0.17717210904E+04  0.17075274390E+04 0.  0.
        1    1    3    3  502    0  0.75660368194E+03  0.35590371496E+03  0.41540157537E+03  0.93363539709E+03  0.50400001928E-02 0.  1.
       -1    1    3    3    0  502 -0.75660368194E+03 -0.35590371496E+03  0.57193036306E+02  0.83808569328E+03  0.50400001928E-02 0. -1.
</event>
<event>
 5   0  0.2561518E-04  0.1656828E+04  0.7818609E-02  0.8786377E-01
       -1   -1    0    0    0  501  0.00000000000E+00  0.00000000000E+00  0.29641821674E+03  0.29641821678E+03  0.50400001928E-02 0. -1.
        1   -1    0    0  501    0  0.00000000000E+00  0.00000000000E+00 -0.23152087533E+04  0.23152087533E+04  0.50400001928E-02 0.  1.
    10030    2    1    2    0    0  0.00000000000E+00  0.00000000000E+00 -0.20187905365E+04  0.26116269700E+04  0.16568283557E+04 0.  0.
        4    1    3    3  502    0  0.11843348957E+03  0.81703370142E+03 -0.11174352303E+04  0.13893284952E+04  0.12699999809E+01 0. -1.
       -4    1    3    3    0  502 -0.11843348957E+03 -0.81703370142E+03 -0.90135530622E+03  0.12222984749E+04  0.12699999809E+01 0.  1.
</event>
<event>
 5   0  0.2583422E-04  0.1710532E+04  0.7818609E-02  0.8755380E-01
       -1   -1    0    0    0  501  0.00000000000E+00  0.00000000000E+00  0.69214722686E+03  0.69214722688E+03  0.50400001928E-02 0.  1.
        1   -1    0    0  501    0  0.00000000000E+00  0.00000000000E+00 -0.10568275037E+04  0.10568275037E+04  0.50400001928E-02 0. -1.
    10030    2    1    2    0    0  0.00000000000E+00  0.00000000000E+00 -0.36468027684E+03  0.17489747306E+04  0.17105323452E+04 0.  0.
        3    1    3    3  502    0  0.52940938757E+03 -0.65353160496E+03 -0.23601735907E+02  0.84138867978E+03  0.10100000352E+00 0. -1.
       -3    1    3    3    0  502 -0.52940938757E+03  0.65353160496E+03 -0.34107854094E+03  0.90758605081E+03  0.10100000352E+00 0.  1.
</event>
<event>
 5   0  0.2785059E-04  0.1693616E+04  0.7818609E-02  0.8765014E-01
       -1   -1    0    0    0  501  0.00000000000E+00  0.00000000000E+00  0.63544531848E+03  0.63544531850E+03  0.50400001928E-02 0.  1.
        1   -1    0    0  501    0  0.00000000000E+00  0.00000000000E+00 -0.11284750259E+04  0.11284750259E+04  0.50400001928E-02 0. -1.
    10030    2    1    2    0    0  0.00000000000E+00  0.00000000000E+00 -0.49302970737E+03  0.17639203444E+04  0.16936164527E+04 0.  0.
        5    1    3    3  502    0  0.12784456945E+03 -0.73004720350E+03  0.18005855881E+03  0.76272952472E+03  0.46999998093E+01 0.  1.
       -5    1    3    3    0  502 -0.12784456945E+03  0.73004720350E+03 -0.67308826618E+03  0.10011908196E+04  0.46999998093E+01 0. -1.
</event>
<event>
 5   0  0.2583422E-04  0.1707708E+04  0.7818609E-02  0.8756980E-01
       -1   -1    0    0    0  501  0.00000000000E+00  0.00000000000E+00  0.85924360834E+03  0.85924360836E+03  0.50400001928E-02 0. -1.
        1   -1    0    0  501    0  0.00000000000E+00  0.00000000000E+00 -0.84849812631E+03  0.84849812633E+03  0.50400001928E-02 0.  1.
    10030    2    1    2    0    0  0.00000000000E+00  0.00000000000E+00  0.10745482033E+02  0.17077417347E+04  0.17077079279E+04 0.  0.
        3    1    3    3  502    0  0.84778721037E+03  0.10153227190E+03  0.15483683601E+01  0.85384680356E+03  0.10100000352E+00 0. -1.
       -3    1    3    3    0  502 -0.84778721037E+03 -0.10153227190E+03  0.91971136732E+01  0.85389493113E+03  0.10100000352E+00 0.  1.
</event>
<event>
 5   0  0.5198430E-04  0.1671103E+04  0.7818609E-02  0.8778019E-01
       -2   -1    0    0    0  501  0.00000000000E+00  0.00000000000E+00  0.49562577007E+03  0.49562577008E+03  0.25500000920E-02 0. -1.
        2   -1    0    0  501    0  0.00000000000E+00  0.00000000000E+00 -0.14086155914E+04  0.14086155914E+04  0.25500000920E-02 0.  1.
    10030    2    1    2    0    0  0.00000000000E+00  0.00000000000E+00 -0.91298982130E+03  0.19042413615E+04  0.16711028541E+04 0.  0.
        4    1    3    3  502    0 -0.66237222141E+00  0.81212031346E+03 -0.23260264852E+03  0.84477538273E+03  0.12699999809E+01 0. -1.
       -4    1    3    3    0  502  0.66237222141E+00 -0.81212031346E+03 -0.68038717278E+03  0.10594659787E+04  0.12699999809E+01 0.  1.
</event>
<event>
 5   0  0.5310003E-04  0.1699186E+04  0.7818609E-02  0.8761829E-01
        2   -1    0    0  501    0  0.00000000000E+00  0.00000000000E+00  0.69947124191E+03  0.69947124191E+03  0.25500000920E-02 0.  1.
       -2   -1    0    0    0  501  0.00000000000E+00  0.00000000000E+00 -0.10319344948E+04  0.10319344948E+04  0.25500000920E-02 0. -1.
    10030    2    1    2    0    0  0.00000000000E+00  0.00000000000E+00 -0.33246325290E+03  0.17314057367E+04  0.16991862790E+04 0.  0.
        1    1    3    3  502    0 -0.24146784605E+03  0.78751984097E+03 -0.37829878613E+03  0.90642384800E+03  0.50400001928E-02 0. -1.
       -1    1    3    3    0  502  0.24146784605E+03 -0.78751984097E+03  0.45835533228E+02  0.82498188873E+03  0.50400001928E-02 0.  1.
</event>
<event>
 5   0  0.2595644E-04  0.1647670E+04  0.7818609E-02  0.8791786E-01
        1   -1    0    0  501    0  0.00000000000E+00  0.00000000000E+00  0.78838019399E+03  0.78838019400E+03  0.50400001928E-02 0.  1.
       -1   -1    0    0    0  501  0.00000000000E+00  0.00000000000E+00 -0.86088398566E+03  0.86088398568E+03  0.50400001928E-02 0. -1.
    10030    2    1    2    0    0  0.00000000000E+00  0.00000000000E+00 -0.72503791675E+02  0.16492641797E+04  0.16476697286E+04 0.  0.
        2    1    3    3  502    0  0.46622021401E+03  0.28407221813E+03 -0.65381373805E+03  0.85178090912E+03  0.25500000920E-02 0. -1.
       -2    1    3    3    0  502 -0.46622021401E+03 -0.28407221813E+03  0.58130994638E+03  0.79748327056E+03  0.25500000920E-02 0.  1.
</event>
<event>
 5   0  0.5342255E-04  0.1370511E+04  0.7818609E-02  0.8975445E-01
        2   -1    0    0  501    0  0.00000000000E+00  0.00000000000E+00  0.11967859727E+04  0.11967859727E+04  0.25500000920E-02 0.  1.
       -2   -1    0    0    0  501  0.00000000000E+00  0.00000000000E+00 -0.39236346788E+03  0.39236346789E+03  0.25500000920E-02 0. -1.
    10030    2    1    2    0    0  0.00000000000E+00  0.00000000000E+00  0.80442250482E+03  0.15891494406E+04  0.13705109917E+04 0.  0.
        5    1    3    3  502    0 -0.35701441070E+03  0.58405899445E+03  0.43830239689E+03  0.81284394540E+03  0.46999998093E+01 0.  1.
       -5    1    3    3    0  502  0.35701441070E+03 -0.58405899445E+03  0.36612010792E+03  0.77630549520E+03  0.46999998093E+01 0. -1.
</event>
<event>
 5   0  0.2595644E-04  0.1353124E+04  0.7818609E-02  0.8988467E-01
       -1   -1    0    0    0  501  0.00000000000E+00  0.00000000000E+00  0.40359513267E+03  0.40359513270E+03  0.50400001928E-02 0. -1.
        1   -1    0    0  501    0  0.00000000000E+00  0.00000000000E+00 -0.11341460983E+04  0.11341460983E+04  0.50400001928E-02 0.  1.
    10030    2    1    2    0    0  0.00000000000E+00  0.00000000000E+00 -0.73055096566E+03  0.15377412310E+04  0.13531235643E+04 0.  0.
        2    1    3    3  502    0 -0.40669618619E+02  0.62183829595E+03 -0.65895826366E+02  0.62664116058E+03  0.25500000920E-02 0. -1.
       -2    1    3    3    0  502  0.40669618619E+02 -0.62183829595E+03 -0.66465513929E+03  0.91110007046E+03  0.25500000920E-02 0.  1.
</event>
<event>
 5   0  0.5021349E-04  0.1688093E+04  0.7818609E-02  0.8768185E-01
       -2   -1    0    0    0  501  0.00000000000E+00  0.00000000000E+00  0.42089160039E+03  0.42089160040E+03  0.25500000920E-02 0.  1.
        2   -1    0    0  501    0  0.00000000000E+00  0.00000000000E+00 -0.16926309028E+04  0.16926309028E+04  0.25500000920E-02 0. -1.
    10030    2    1    2    0    0  0.00000000000E+00  0.00000000000E+00 -0.12717393024E+04  0.21135225032E+04  0.16880925680E+04 0.  0.
        2    1    3    3  502    0  0.13536308273E+03  0.75895757746E+03 -0.10660874960E+04  0.13156300079E+04  0.25500000920E-02 0. -1.
       -2    1    3    3    0  502 -0.13536308273E+03 -0.75895757746E+03 -0.20565180639E+03  0.79789249528E+03  0.25500000920E-02 0.  1.
</event>
<event>
 5   0  0.5299877E-04  0.1709948E+04  0.7818609E-02  0.8755711E-01
       -2   -1    0    0    0  501  0.00000000000E+00  0.00000000000E+00  0.60768164386E+03  0.60768164386E+03  0.25500000920E-02 0.  1.
        2   -1    0    0  501    0  0.00000000000E+00  0.00000000000E+00 -0.12028997957E+04  0.12028997957E+04  0.25500000920E-02 0. -1.
    10030    2    1    2    0    0  0.00000000000E+00  0.00000000000E+00 -0.59521815186E+03  0.18105814396E+04  0.17099475141E+04 0.  0.
        3    1    3    3  502    0 -0.74980955396E+03 -0.25343740980E+02 -0.73176868859E+03  0.10480181755E+04  0.10100000352E+00 0. -1.
       -3    1    3    3    0  502  0.74980955396E+03  0.25343740980E+02  0.13655053673E+03  0.76256326406E+03  0.10100000352E+00 0.  1.
</event>
<event>
 5   0  0.1910750E-04  0.1680438E+04  0.7818609E-02  0.8772600E-01
        3   -1    0    0  501    0  0.00000000000E+00  0.00000000000E+00  0.94642496248E+03  0.94642496787E+03  0.10100000352E+00 0.  1.
       -3   -1    0    0    0  501  0.00000000000E+00  0.00000000000E+00 -0.74593164939E+03  0.74593165622E+03  0.10100000352E+00 0. -1.
    10030    2    1    2    0    0  0.00000000000E+00  0.00000000000E+00  0.20049331310E+03  0.16923566241E+04  0.16804384471E+04 0.  0.
        3    1    3    3  502    0 -0.20871451010E+03 -0.79913599058E+03  0.25557495021E+03  0.86458003883E+03  0.10100000352E+00 0.  1.
       -3    1    3    3    0  502  0.20871451010E+03  0.79913599058E+03 -0.55081637107E+02  0.82777658527E+03  0.10100000352E+00 0. -1.
</event>
<event>
 5   0  0.5310003E-04  0.1691897E+04  0.7818609E-02  0.8766000E-01
        2   -1    0    0  501    0  0.00000000000E+00  0.00000000000E+00  0.96454247362E+03  0.96454247363E+03  0.25500000920E-02 0.  1.
       -2   -1    0    0    0  501  0.00000000000E+00  0.00000000000E+00 -0.74193574137E+03  0.74193574138E+03  0.25500000920E-02 0. -1.
    10030    2    1    2    0    0  0.00000000000E+00  0.00000000000E+00  0.22260673225E+03  0.17064782150E+04  0.16918966106E+04 0.  0.
        1    1    3    3  502    0 -0.60120753765E+03 -0.56195830372E+03  0.30890224995E+03  0.87901549389E+03  0.50400001928E-02 0.  1.
       -1    1    3    3    0  502  0.60120753765E+03  0.56195830372E+03 -0.86295517694E+02  0.82746272112E+03  0.50400001928E-02 0. -1.
</event>
<event>
 5   0  0.5198430E-04  0.1701283E+04  0.7818609E-02  0.8760633E-01
        2   -1    0    0  501    0  0.00000000000E+00  0.00000000000E+00  0.21279023696E+04  0.21279023696E+04  0.25500000920E-02 0.  1.
       -2   -1    0    0    0  501  0.00000000000E+00  0.00000000000E+00 -0.34004886703E+03  0.34004886704E+03  0.25500000920E-02 0. -1.
    10030    2    1    2    0    0  0.00000000000E+00  0.00000000000E+00  0.17878535025E+04  0.24679512366E+04  0.17012827983E+04 0.  0.
        4    1    3    3  502    0 -0.47382209485E+03 -0.26032700512E+03 -0.58772135807E+02  0.54381366662E+03  0.12699999809E+01 0. -1.
       -4    1    3    3    0  502  0.47382209485E+03  0.26032700512E+03  0.18466256383E+04  0.19241375700E+04  0.12699999809E+01 0.  1.
</event>
<event>
 5   0  0.2785059E-04  0.1532049E+04  0.7818609E-02  0.8863416E-01
        1   -1    0    0  501    0  0.00000000000E+00  0.00000000000E+00  0.86990781744E+03  0.86990781745E+03  0.50400001928E-02 0. -1.
       -1   -1    0    0    0  501  0.00000000000E+00  0.00000000000E+00 -0.67454694667E+03  0.67454694668E+03  0.50400001928E-02 0.  1.
    10030    2    1    2    0    0  0.00000000000E+00  0.00000000000E+00  0.19536087077E+03  0.15444547641E+04  0.15320491665E+04 0.  0.
        5    1    3    3  502    0 -0.72640969946E+03 -0.14257858015E+03 -0.10081972369E+03  0.74711873866E+03  0.46999998093E+01 0. -1.
       -5    1    3    3    0  502  0.72640969946E+03  0.14257858015E+03  0.29618059446E+03  0.79733602547E+03  0.46999998093E+01 0.  1.
</event>
<event>
 5   0  0.2561518E-04  0.1617620E+04  0.7818609E-02  0.8809796E-01
       -1   -1    0    0    0  501  0.00000000000E+00  0.00000000000E+00  0.12709342834E+04  0.12709342834E+04  0.50400001928E-02 0.  1.
        1   -1    0    0  501    0  0.00000000000E+00  0.00000000000E+00 -0.51471856253E+03  0.51471856256E+03  0.50400001928E-02 0. -1.
    10030    2    1    2    0    0  0.00000000000E+00  0.00000000000E+00  0.75621572082E+03  0.17856528459E+04  0.16176198162E+04 0.  0.
        4    1    3    3  502    0  0.76614845075E+03 -0.24845062154E+03  0.29653522077E+03  0.85828078738E+03  0.12699999809E+01 0.  1.
       -4    1    3    3    0  502 -0.76614845075E+03  0.24845062154E+03  0.45968050005E+03  0.92737205854E+03  0.12699999809E+01 0. -1.
</event>
<event>
 5   0  0.2785059E-04  0.1716025E+04  0.7818609E-02  0.8752277E-01
        1   -1    0    0  501    0  0.00000000000E+00  0.00000000000E+00  0.84959924003E+03  0.84959924004E+03  0.50400001928E-02 0. -1.
       -1   -1    0    0    0  501  0.00000000000E+00  0.00000000000E+00 -0.86650881464E+03  0.86650881466E+03  0.50400001928E-02 0.  1.
    10030    2    1    2    0    0  0.00000000000E+00  0.00000000000E+00 -0.16909574613E+02  0.17161080547E+04  0.17160247439E+04 0.  0.
        5    1    3    3  502    0  0.42089440378E+03  0.62529869861E+02 -0.75354200157E+03  0.86539570249E+03  0.46999998093E+01 0.  1.
       -5    1    3    3    0  502 -0.42089440378E+03 -0.62529869861E+02  0.73663242696E+03  0.85071235221E+03  0.46999998093E+01 0. -1.
</event>
<event>
 5   0  0.5299877E-04  0.1714456E+04  0.7818609E-02  0.8753162E-01
        2   -1    0    0  501    0  0.00000000000E+00  0.00000000000E+00  0.26586093483E+04  0.26586093483E+04  0.25500000920E-02 0. -1.
       -2   -1    0    0    0  501  0.00000000000E+00  0.00000000000E+00 -0.27640015292E+03  0.27640015293E+03  0.25500000920E-02 0.  1.
    10030    2    1    2    0    0  0.00000000000E+00  0.00000000000E+00  0.23822091954E+04  0.29350095013E+04  0.17144562175E+04 0.  0.
        3    1    3    3  502    0 -0.69095747556E+03 -0.10375237342E+03  0.34089399216E+03  0.77742878266E+03  0.10100000352E+00 0.  1.
       -3    1    3    3    0  502  0.69095747556E+03  0.10375237342E+03  0.20413152033E+04  0.21575807186E+04  0.10100000352E+00 0. -1.
</event>
<event>
 5   0  0.5021349E-04  0.1696285E+04  0.7818609E-02  0.8763486E-01
        2   -1    0    0  501    0  0.00000000000E+00  0.00000000000E+00  0.18823560238E+04  0.18823560238E+04  0.25500000920E-02 0.  1.
       -2   -1    0    0    0  501  0.00000000000E+00  0.00000000000E+00 -0.38215194741E+03  0.38215194742E+03  0.25500000920E-02 0. -1.
    10030    2    1    2    0    0  0.00000000000E+00  0.00000000000E+00  0.15002040764E+04  0.22645079713E+04  0.16962853772E+04 0.  0.
        2    1    3    3  502    0 -0.61845442582E+03 -0.22917584277E+03  0.38244926854E+02  0.66065885157E+03  0.25500000920E-02 0. -1.
       -2    1    3    3    0  502  0.61845442582E+03  0.22917584277E+03  0.14619591496E+04  0.16038491197E+04  0.25500000920E-02 0.  1.
</event>
<event>
 5   0  0.5342255E-04  0.1624227E+04  0.7818609E-02  0.8805801E-01
       -2   -1    0    0    0  501  0.00000000000E+00  0.00000000000E+00  0.44842883864E+03  0.44842883865E+03  0.25500000920E-02 0. -1.
        2   -1    0    0  501    0  0.00000000000E+00  0.00000000000E+00 -0.14707533415E+04  0.14707533415E+04  0.25500000920E-02 0.  1.
    10030    2    1    2    0    0  0.00000000000E+00  0.00000000000E+00 -0.10223245029E+04  0.19191821802E+04  0.16242268473E+04 0.  0.
        5    1    3    3  502    0  0.64607898276E+03 -0.26468917927E+03 -0.10012442165E+04  0.12206516640E+04  0.46999998093E+01 0.  1.
       -5    1    3    3    0  502 -0.64607898276E+03  0.26468917927E+03 -0.21080286345E+02  0.69853051620E+03  0.46999998093E+01 0. -1.
</event>
<event>
 5   0  0.2561518E-04  0.1681437E+04  0.7818609E-02  0.8772023E-01
       -1   -1    0    0    0  501  0.00000000000E+00  0.00000000000E+00  0.11314817862E+04  0.11314817862E+04  0.50400001928E-02 0. -1.
        1   -1    0    0  501    0  0.00000000000E+00  0.00000000000E+00 -0.62467454745E+03  0.62467454747E+03  0.50400001928E-02 0.  1.
    10030    2    1    2    0    0  0.00000000000E+00  0.00000000000E+00  0.50680723878E+03  0.17561563337E+04  0.16814373289E+04 0.  0.
        4    1    3    3  502    0 -0.16761493892E+03 -0.21688434646E+03 -0.57669278736E+03  0.63852155122E+03  0.12699999809E+01 0.  1.
       -4    1    3    3    0  502  0.16761493892E+03  0.21688434646E+03  0.10835000261E+04  0.11176347825E+04  0.12699999809E+01 0. -1.
</event>
<event>
 5   0  0.2630135E-04  0.1735638E+04  0.7818609E-02  0.8741296E-01
        1   -1    0    0  501    0  0.00000000000E+00  0.00000000000E+00  0.10017081295E+04  0.10017081295E+04  0.50400001928E-02 0. -1.
       -1   -1    0    0    0  501  0.00000000000E+00  0.00000000000E+00 -0.75182561333E+03  0.75182561335E+03  0.50400001928E-02 0.  1.
    10030    2    1    2    0    0  0.00000000000E+00  0.00000000000E+00  0.24988251613E+03  0.17535337428E+04  0.17356380139E+04 0.  0.
        1    1    3    3  502    0  0.31996028850E+03  0.91125654055E+02 -0.68484115304E+03  0.76137105012E+03  0.50400001928E-02 0.  1.
       -1    1    3    3    0  502 -0.31996028850E+03 -0.91125654055E+02  0.93472366917E+03  0.99216269270E+03  0.50400001928E-02 0. -1.
</event>
<event>
 5   0  0.5021349E-04  0.1706702E+04  0.7818609E-02  0.8757551E-01
       -2   -1    0    0    0  501  0.00000000000E+00  0.00000000000E+00  0.33412227942E+03  0.33412227943E+03  0.25500000920E-02 0.  1.
        2   -1    0    0  501    0  0.00000000000E+00  0.00000000000E+00 -0.21794653457E+04  0.21794653457E+04  0.25500000920E-02 0. -1.
    10030    2    1    2    0    0  0.00000000000E+00  0.00000000000E+00 -0.18453430663E+04  0.25135876251E+04  0.17067020000E+04 0.  0.
        2    1    3    3  502    0  0.12773391557E+03 -0.70082034296E+02 -0.21610119425E+04  0.21659178333E+04  0.25500000920E-02 0. -1.
       -2    1    3    3    0  502 -0.12773391557E+03  0.70082034296E+02  0.31566887627E+03  0.34766979185E+03  0.25500000920E-02 0.  1.
</event>
<event>
 5   0  0.1910750E-04  0.1697408E+04  0.7818609E-02  0.8762844E-01
        3   -1    0    0  501    0  0.00000000000E+00  0.00000000000E+00  0.33088562290E+03  0.33088563832E+03  0.10100000352E+00 0.  1.
       -3   -1    0    0    0  501  0.00000000000E+00  0.00000000000E+00 -0.21768809002E+04  0.21768809025E+04  0.10100000352E+00 0. -1.
    10030    2    1    2    0    0  0.00000000000E+00  0.00000000000E+00 -0.18459952773E+04  0.25077665408E+04  0.16974081594E+04 0.  0.
        4    1    3    3  502    0  0.57237297015E+03  0.17579769587E+03 -0.34361627254E+02  0.59974826482E+03  0.12699999809E+01 0.  1.
       -4    1    3    3    0  502 -0.57237297015E+03 -0.17579769587E+03 -0.18116336500E+04  0.19080182760E+04  0.12699999809E+01 0. -1.
</event>
<event>
 5   0  0.2561518E-04  0.1704638E+04  0.7818609E-02  0.8758723E-01
       -1   -1    0    0    0  501  0.00000000000E+00  0.00000000000E+00  0.46544465586E+03  0.46544465588E+03  0.50400001928E-02 0.  1.
        1   -1    0    0  501    0  0.00000000000E+00  0.00000000000E+00 -0.15607611273E+04  0.15607611273E+04  0.50400001928E-02 0. -1.
    10030    2    1    2    0    0  0.00000000000E+00  0.00000000000E+00 -0.10953164715E+04  0.20262057832E+04  0.17046382910E+04 0.  0.
        4    1    3    3  502    0  0.79058020503E+03  0.31261144253E+02 -0.92438856935E+03  0.12167539438E+04  0.12699999809E+01 0. -1.
       -4    1    3    3    0  502 -0.79058020503E+03 -0.31261144253E+02 -0.17092790214E+03  0.80945183943E+03  0.12699999809E+01 0.  1.
</event>
<event>
 5   0  0.5198430E-04  0.1708029E+04  0.7818609E-02  0.8756798E-01
        2   -1    0    0  501    0  0.00000000000E+00  0.00000000000E+00  0.10042491072E+04  0.10042491072E+04  0.25500000920E-02 0.  1.
       -2   -1    0    0    0  501  0.00000000000E+00  0.00000000000E+00 -0.72625464000E+03  0.72625464001E+03  0.25500000920E-02 0. -1.
    10030    2    1    2    0    0  0.00000000000E+00  0.00000000000E+00  0.27799446721E+03  0.17305037472E+04  0.17080287747E+04 0.  0.
        4    1    3    3  502    0 -0.12759758992E+03  0.67404415969E+01  0.99450882301E+03  0.10026843922E+04  0.12699999809E+01 0.  1.
       -4    1    3    3    0  502  0.12759758992E+03 -0.67404415969E+01 -0.71651435580E+03  0.72781935498E+03  0.12699999809E+01 0. -1.
</event>
<event>
 5   0  0.2785059E-04  0.1706435E+04  0.7818609E-02  0.8757703E-01
       -1   -1    0    0    0  501  0.00000000000E+00  0.00000000000E+00  0.60433005717E+03  0.60433005719E+03  0.50400001928E-02 0. -1.
        1   -1    0    0  501    0  0.00000000000E+00  0.00000000000E+00 -0.12046070773E+04  0.12046070773E+04  0.50400001928E-02 0.  1.
    10030    2    1    2    0    0  0.00000000000E+00  0.00000000000E+00 -0.60027702016E+03  0.18089371345E+04  0.17064351894E+04 0.  0.
        5    1    3    3  502    0 -0.34856003482E+03 -0.69903757272E+03  0.63714325557E+02  0.78372777878E+03  0.46999998093E+01 0. -1.
       -5    1    3    3    0  502  0.34856003482E+03  0.69903757272E+03 -0.66399134572E+03  0.10252093558E+04  0.46999998093E+01 0.  1.
</event>
<event>
 5   0  0.5299877E-04  0.1712990E+04  0.7818609E-02  0.8753990E-01
       -2   -1    0    0    0  501  0.00000000000E+00  0.00000000000E+00  0.40306379808E+03  0.40306379808E+03  0.25500000920E-02 0.  1.
        2   -1    0    0  501    0  0.00000000000E+00  0.00000000000E+00 -0.18200197789E+04  0.18200197789E+04  0.25500000920E-02 0. -1.
    10030    2    1    2    0    0  0.00000000000E+00  0.00000000000E+00 -0.14169559808E+04  0.22230835770E+04  0.17129904666E+04 0.  0.
        3    1    3    3  502    0 -0.35538076803E+03  0.29878095235E+03 -0.16425352293E+04  0.17068941202E+04  0.10100000352E+00 0. -1.
       -3    1    3    3    0  502  0.35538076803E+03 -0.29878095235E+03  0.22557924849E+03  0.51618945681E+03  0.10100000352E+00 0.  1.
</event>
<event>
 5   0  0.5310003E-04  0.1681024E+04  0.7818609E-02  0.8772261E-01
       -2   -1    0    0    0  501  0.00000000000E+00  0.00000000000E+00  0.44253162042E+03  0.44253162043E+03  0.25500000920E-02 0.  1.
        2   -1    0    0  501    0  0.00000000000E+00  0.00000000000E+00 -0.15964072018E+04  0.15964072018E+04  0.25500000920E-02 0. -1.
    10030    2    1    2    0    0  0.00000000000E+00  0.00000000000E+00 -0.11538755813E+04  0.20389388222E+04  0.16810242900E+04 0.  0.
        1    1    3    3  502    0  0.76378440539E+03 -0.12476773767E+03 -0.97466846921E+03  0.12445530247E+04  0.50400001928E-02 0. -1.
       -1    1    3    3    0  502 -0.76378440539E+03  0.12476773767E+03 -0.17920711214E+03  0.79438579755E+03  0.50400001928E-02 0.  1.
</event>
<event>
 5   0  0.2630135E-04  0.1406532E+04  0.7818609E-02  0.8949104E-01
        1   -1    0    0  501    0  0.00000000000E+00  0.00000000000E+00  0.87257917799E+03  0.87257917800E+03  0.50400001928E-02 0.  1.
       -1   -1    0    0    0  501  0.00000000000E+00  0.00000000000E+00 -0.56680616795E+03  0.56680616798E+03  0.50400001928E-02 0. -1.
    10030    2    1    2    0    0  0.00000000000E+00  0.00000000000E+00  0.30577301003E+03  0.14393853460E+04  0.14065322750E+04 0.  0.
        1    1    3    3  502    0 -0.53244970358E+03  0.45898989530E+03  0.13219419410E+03  0.71529694240E+03  0.50400001928E-02 0. -1.
       -1    1    3    3    0  502  0.53244970358E+03 -0.45898989530E+03  0.17357881593E+03  0.72408840358E+03  0.50400001928E-02 0.  1.
</event>
<event>
 5   0  0.2595644E-04  0.1762556E+04  0.7818609E-02  0.8726469E-01
        1   -1    0    0  501    0  0.00000000000E+00  0.00000000000E+00  0.12452639382E+04  0.12452639382E+04  0.50400001928E-02 0. -1.
       -1   -1    0    0    0  501  0.00000000000E+00  0.00000000000E+00 -0.62368389217E+03  0.62368389219E+03  0.50400001928E-02 0.  1.
    10030    2    1    2    0    0  0.00000000000E+00  0.00000000000E+00  0.62158004607E+03  0.18689478304E+04  0.17625561663E+04 0.  0.
        2    1    3    3  502    0 -0.20934162610E+03  0.33660804743E+03  0.11453982055E+04  0.12120503056E+04  0.25500000920E-02 0. -1.
       -2    1    3    3    0  502  0.20934162610E+03 -0.33660804743E+03 -0.52381815945E+03  0.65689752487E+03  0.25500000920E-02 0.  1.
</event>
<event>
 5   0  0.2561518E-04  0.1690844E+04  0.7818609E-02  0.8766604E-01
       -1   -1    0    0    0  501  0.00000000000E+00  0.00000000000E+00  0.50681610095E+03  0.50681610097E+03  0.50400001928E-02 0. -1.
        1   -1    0    0  501    0  0.00000000000E+00  0.00000000000E+00 -0.14102521754E+04  0.14102521754E+04  0.50400001928E-02 0.  1.
    10030    2    1    2    0    0  0.00000000000E+00  0.00000000000E+00 -0.90343607441E+03  0.19170682763E+04  0.16908441784E+04 0.  0.
        4    1    3    3  502    0  0.27953721050E+03 -0.63961115958E+03  0.89059200208E+02  0.70368788646E+03  0.12699999809E+01 0. -1.
       -4    1    3    3    0  502 -0.27953721050E+03  0.63961115958E+03 -0.99249527462E+03  0.12133803899E+04  0.12699999809E+01 0.  1.
</event>
<event>
 5   0  0.2561518E-04  0.1710899E+04  0.7818609E-02  0.8755173E-01
        1   -1    0    0  501    0  0.00000000000E+00  0.00000000000E+00  0.10829437906E+04  0.10829437906E+04  0.50400001928E-02 0. -1.
       -1   -1    0    0    0  501  0.00000000000E+00  0.00000000000E+00 -0.67574506295E+03  0.67574506297E+03  0.50400001928E-02 0.  1.
    10030    2    1    2    0    0  0.00000000000E+00  0.00000000000E+00  0.40719872768E+03  0.17586888536E+04  0.17108990853E+04 0.  0.
        4    1    3    3  502    0  0.24575157283E+03  0.24490723088E+03 -0.60017482108E+03  0.69324224917E+03  0.12699999809E+01 0.  1.
       -4    1    3    3    0  502 -0.24575157283E+03 -0.24490723088E+03  0.10073735488E+04  0.10654466044E+04  0.12699999809E+01 0. -1.
</event>
<event>
 5   0  0.2630135E-04  0.1685962E+04  0.7818609E-02  0.8769411E-01
        1   -1    0    0  501    0  0.00000000000E+00  0.00000000000E+00  0.11969978930E+04  0.11969978930E+04  0.50400001928E-02 0.  1.
       -1   -1    0    0    0  501  0.00000000000E+00  0.00000000000E+00 -0.59366604357E+03  0.59366604359E+03  0.50400001928E-02 0. -1.
    10030    2    1    2    0    0  0.00000000000E+00  0.00000000000E+00  0.60333184938E+03  0.17906639366E+04  0.16859620438E+04 0.  0.
        1    1    3    3  502    0  0.62448851426E+03 -0.51052740007E+03  0.41520541530E+02  0.80768068323E+03  0.50400001928E-02 0. -1.
       -1    1    3    3    0  502 -0.62448851426E+03  0.51052740007E+03  0.56181130785E+03  0.98298325333E+03  0.50400001928E-02 0.  1.
</event>
<event>
 5   0  0.5342255E-04  0.1697580E+04  0.7818609E-02  0.8762746E-01
       -2   -1    0    0    0  501  0.00000000000E+00  0.00000000000E+00  0.40476468363E+03  0.40476468363E+03  0.25500000920E-02 0.  1.
        2   -1    0    0  501    0  0.00000000000E+00  0.00000000000E+00 -0.17799102381E+04  0.17799102381E+04  0.25500000920E-02 0. -1.
    10030    2    1    2    0    0  0.00000000000E+00  0.00000000000E+00 -0.13751455545E+04  0.21846749218E+04  0.16975804010E+04 0.  0.
        5    1    3    3  502    0  0.63963875939E+03  0.48046188877E+03 -0.10525755248E+04  0.13220887619E+04  0.46999998093E+01 0.  1.
       -5    1    3    3    0  502 -0.63963875939E+03 -0.48046188877E+03 -0.32257002974E+03  0.86258615985E+03  0.46999998093E+01 0. -1.
</event>
<event>
 5   0  0.5021349E-04  0.1687882E+04  0.7818609E-02  0.8768306E-01
       -2   -1    0    0    0  501  0.00000000000E+00  0.00000000000E+00  0.51917694725E+03  0.51917694726E+03  0.25500000920E-02 0.  1.
        2   -1    0    0  501    0  0.00000000000E+00  0.00000000000E+00 -0.13718574089E+04  0.13718574089E+04  0.25500000920E-02 0. -1.
    10030    2    1    2    0    0  0.00000000000E+00  0.00000000000E+00 -0.85268046164E+03  0.18910343562E+04  0.16878823912E+04 0.  0.
        2    1    3    3  502    0  0.17455074999E+03  0.46393096796E+03 -0.11915847112E+04  0.12905712035E+04  0.25500000920E-02 0. -1.
       -2    1    3    3    0  502 -0.17455074999E+03 -0.46393096796E+03  0.33890424953E+03  0.60046315267E+03  0.25500000920E-02 0.  1.
</event>
<event>
 5   0  0.2595644E-04  0.1707654E+04  0.7818609E-02  0.8757011E-01
        1   -1    0    0  501    0  0.00000000000E+00  0.00000000000E+00  0.15395941346E+04  0.15395941346E+04  0.50400001928E-02 0. -1.
       -1   -1    0    0    0  501  0.00000000000E+00  0.00000000000E+00 -0.47351481876E+03  0.47351481879E+03  0.50400001928E-02 0.  1.
    10030    2    1    2    0    0  0.00000000000E+00  0.00000000000E+00  0.10660793158E+04  0.20131089534E+04  0.17076541074E+04 0.  0.
        2    1    3    3  502    0  0.78834443742E+03 -0.31382569704E+03  0.42090948576E+03  0.94717385697E+03  0.25500000920E-02 0. -1.
       -2    1    3    3    0  502 -0.78834443742E+03  0.31382569704E+03  0.64516983008E+03  0.10659350964E+04  0.25500000920E-02 0.  1.
</event>
<event>
 5   0  0.2630135E-04  0.1693920E+04  0.7818609E-02  0.8764839E-01
       -1   -1    0    0    0  501  0.00000000000E+00  0.00000000000E+00  0.11320169922E+04  0.11320169922E+04  0.50400001928E-02 0. -1.
        1   -1    0    0  501    0  0.00000000000E+00  0.00000000000E+00 -0.63368443157E+03  0.63368443159E+03  0.50400001928E-02 0.  1.
    10030    2    1    2    0    0  0.00000000000E+00  0.00000000000E+00  0.49833256058E+03  0.17657014237E+04  0.16939203573E+04 0.  0.
        1    1    3    3  502    0 -0.74110036893E+02  0.25061236440E+03  0.10889373541E+04  0.11198586589E+04  0.50400001928E-02 0. -1.
       -1    1    3    3    0  502  0.74110036893E+02 -0.25061236440E+03 -0.59060479351E+03  0.64584276484E+03  0.50400001928E-02 0.  1.
</event>
<event>
 5   0  0.2583422E-04  0.1696534E+04  0.7818609E-02  0.8763343E-01
       -1   -1    0    0    0  501  0.00000000000E+00  0.00000000000E+00  0.13214207791E+04  0.13214207792E+04  0.50400001928E-02 0. -1.
        1   -1    0    0  501    0  0.00000000000E+00  0.00000000000E+00 -0.54453290983E+03  0.54453290985E+03  0.50400001928E-02 0.  1.
    10030    2    1    2    0    0  0.00000000000E+00  0.00000000000E+00  0.77688786932E+03  0.18659536890E+04  0.16965342343E+04 0.  0.
        3    1    3    3  502    0  0.70004261870E+03  0.39895803543E+03  0.96762852047E+02  0.81153573044E+03  0.10100000352E+00 0.  1.
       -3    1    3    3    0  502 -0.70004261870E+03 -0.39895803543E+03  0.68012501727E+03  0.10544179586E+04  0.10100000352E+00 0. -1.
</event>
<event>
 5   0  0.2630135E-04  0.1700132E+04  0.7818609E-02  0.8761289E-01
       -1   -1    0    0    0  501  0.00000000000E+00  0.00000000000E+00  0.13458179300E+04  0.13458179301E+04  0.50400001928E-02 0.  1.
        1   -1    0    0  501    0  0.00000000000E+00  0.00000000000E+00 -0.53693148590E+03  0.53693148592E+03  0.50400001928E-02 0. -1.
    10030    2    1    2    0    0  0.00000000000E+00  0.00000000000E+00  0.80888644415E+03  0.18827494160E+04  0.17001317843E+04 0.  0.
        1    1    3    3  502    0  0.80083168952E+03 -0.19249512305E+03  0.17155366717E+03  0.84131826801E+03  0.50400001928E-02 0.  1.
       -1    1    3    3    0  502 -0.80083168952E+03  0.19249512305E+03  0.63733277697E+03  0.10414311480E+04  0.50400001928E-02 0. -1.
</event>
<event>
 5   0  0.2561518E-04  0.1704378E+04  0.7818609E-02  0.8758871E-01
        1   -1    0    0  501    0  0.00000000000E+00  0.00000000000E+00  0.99790096393E+03  0.99790096394E+03  0.50400001928E-02 0. -1.
       -1   -1    0    0    0  501  0.00000000000E+00  0.00000000000E+00 -0.72775373161E+03  0.72775373163E+03  0.50400001928E-02 0.  1.
    10030    2    1    2    0    0  0.00000000000E+00  0.00000000000E+00  0.27014723232E+03  0.17256546956E+04  0.17043780687E+04 0.  0.
        4    1    3    3  502    0  0.55986088164E+03 -0.16618414998E+03 -0.49328898703E+03  0.76445864252E+03  0.12699999809E+01 0.  1.
       -4    1    3    3    0  502 -0.55986088164E+03  0.16618414998E+03  0.76343621935E+03  0.96119605305E+03  0.12699999809E+01 0. -1.
</event>
<event>
 5   0  0.2561518E-04  0.1705076E+04  0.7818609E-02  0.8758475E-01
        1   -1    0    0  501    0  0.00000000000E+00  0.00000000000E+00  0.13622778947E+04  0.13622778947E+04  0.50400001928E-02 0.  1.
       -1   -1    0    0    0  501  0.00000000000E+00  0.00000000000E+00 -0.53353343766E+03  0.53353343769E+03  0.50400001928E-02 0. -1.
    10030    2    1    2    0    0  0.00000000000E+00  0.00000000000E+00  0.82874445706E+03  0.18958113324E+04  0.17050757265E+04 0.  0.
        4    1    3    3  502    0  0.12105912778E+03  0.78619478685E+03  0.73369607881E+02  0.79883807342E+03  0.12699999809E+01 0.  1.
       -4    1    3    3    0  502 -0.12105912778E+03 -0.78619478685E+03  0.75537484918E+03  0.10969732590E+04  0.12699999809E+01 0. -1.
</event>
<event>
 5   0  0.2583422E-04  0.1744812E+04  0.7818609E-02  0.8736211E-01
       -1   -1    0    0    0  501  0.00000000000E+00  0.00000000000E+00  0.14614913014E+04  0.14614913014E+04  0.50400001928E-02 0.  1.
        1   -1    0    0  501    0  0.00000000000E+00  0.00000000000E+00 -0.52076396548E+03  0.52076396550E+03  0.50400001928E-02 0. -1.
    10030    2    1    2    0    0  0.00000000000E+00  0.00000000000E+00  0.94072733592E+03  0.19822552669E+04  0.17448117442E+04 0.  0.
        3    1    3    3  502    0 -0.95529891768E+02  0.20647104491E+03  0.14271983899E+04  0.14452167681E+04  0.10100000352E+00 0.  1.
       -3    1    3    3    0  502  0.95529891768E+02 -0.20647104491E+03 -0.48647105397E+03  0.53703849877E+03  0.10100000352E+00 0. -1.
</event>
<event>
 5   0  0.5021349E-04  0.1607564E+04  0.7818609E-02  0.8815914E-01
       -2   -1    0    0    0  501  0.00000000000E+00  0.00000000000E+00  0.42385664442E+03  0.42385664443E+03  0.25500000920E-02 0. -1.
        2   -1    0    0  501    0  0.00000000000E+00  0.00000000000E+00 -0.15242556160E+04  0.15242556160E+04  0.25500000920E-02 0.  1.
    10030    2    1    2    0    0  0.00000000000E+00  0.00000000000E+00 -0.11003989716E+04  0.19481122604E+04  0.16075644568E+04 0.  0.
        2    1    3    3  502    0 -0.51665523318E+03  0.20821837709E+03 -0.12524174385E+04  0.13707067385E+04  0.25500000920E-02 0.  1.
       -2    1    3    3    0  502  0.51665523318E+03 -0.20821837709E+03  0.15201846693E+03  0.57740552199E+03  0.25500000920E-02 0. -1.
</event>
<event>
 5   0  0.2785059E-04  0.1681794E+04  0.7818609E-02  0.8771816E-01
        1   -1    0    0  501    0  0.00000000000E+00  0.00000000000E+00  0.86070599858E+03  0.86070599859E+03  0.50400001928E-02 0.  1.
       -1   -1    0    0    0  501  0.00000000000E+00  0.00000000000E+00 -0.82154425908E+03  0.82154425910E+03  0.50400001928E-02 0. -1.
    10030    2    1    2    0    0  0.00000000000E+00  0.00000000000E+00  0.39161739500E+02  0.16822502577E+04  0.16817943654E+04 0.  0.
        5    1    3    3  502    0 -0.78259781555E+03  0.28400891859E+03  0.13778893898E+03  0.84387693916E+03  0.46999998093E+01 0.  1.
       -5    1    3    3    0  502  0.78259781555E+03 -0.28400891859E+03 -0.98627199482E+02  0.83837331853E+03  0.46999998093E+01 0. -1.
</event>
<event>
 5   0  0.5310003E-04  0.1692484E+04  0.7818609E-02  0.8765663E-01
       -2   -1    0    0    0  501  0.00000000000E+00  0.00000000000E+00  0.36371275842E+03  0.36371275843E+03  0.25500000920E-02 0.  1.
        2   -1    0    0  501    0  0.00000000000E+00  0.00000000000E+00 -0.19689309178E+04  0.19689309178E+04  0.25500000920E-02 0. -1.
    10030    2    1    2    0    0  0.00000000000E+00  0.00000000000E+00 -0.16052181594E+04  0.23326436763E+04  0.16924837314E+04 0.  0.
        1    1    3    3  502    0  0.59916734070E+03  0.59299620058E+03 -0.90462933537E+03  0.12365274888E+04  0.50400001928E-02 0. -1.
       -1    1    3    3    0  502 -0.59916734070E+03 -0.59299620058E+03 -0.70058882404E+03  0.10961161875E+04  0.50400001928E-02 0.  1.
</event>
<event>
 5   0  0.2583422E-04  0.1793632E+04  0.7818609E-02  0.8709693E-01
       -1   -1    0    0    0  501  0.00000000000E+00  0.00000000000E+00  0.57208284573E+03  0.57208284576E+03  0.50400001928E-02 0. -1.
        1   -1    0    0  501    0  0.00000000000E+00  0.00000000000E+00 -0.14058779003E+04  0.14058779003E+04  0.50400001928E-02 0.  1.
    10030    2    1    2    0    0  0.00000000000E+00  0.00000000000E+00 -0.83379505458E+03  0.19779607461E+04  0.17936316567E+04 0.  0.
        3    1    3    3  502    0 -0.65550938201E+03 -0.14863568284E+02 -0.10916307759E+04  0.12734092966E+04  0.10100000352E+00 0.  1.
       -3    1    3    3    0  502  0.65550938201E+03  0.14863568284E+02  0.25783572133E+03  0.70455144948E+03  0.10100000352E+00 0. -1.
</event>
<event>
 5   0  0.5310003E-04  0.1684549E+04  0.7818609E-02  0.8770226E-01
       -2   -1    0    0    0  501  0.00000000000E+00  0.00000000000E+00  0.82044984093E+03  0.82044984094E+03  0.25500000920E-02 0. -1.
        2   -1    0    0  501    0  0.00000000000E+00  0.00000000000E+00 -0.86467940251E+03  0.86467940251E+03  0.25500000920E-02 0.  1.
    10030    2    1    2    0    0  0.00000000000E+00  0.00000000000E+00 -0.44229561577E+02  0.16851292435E+04  0.16845486971E+04 0.  0.
        1    1    3    3  502    0 -0.51693828540E+03 -0.55222992077E+02  0.64079852441E+03  0.82516514631E+03  0.50400001928E-02 0. -1.
       -1    1    3    3    0  502  0.51693828540E+03  0.55222992077E+02 -0.68502808599E+03  0.85996409715E+03  0.50400001928E-02 0.  1.
</event>
<event>
 5   0  0.2630135E-04  0.1702999E+04  0.7818609E-02  0.8759656E-01
        1   -1    0    0  501    0  0.00000000000E+00  0.00000000000E+00  0.17977497316E+04  0.17977497316E+04  0.50400001928E-02 0.  1.
       -1   -1    0    0    0  501  0.00000000000E+00  0.00000000000E+00 -0.40331061883E+03  0.40331061886E+03  0.50400001928E-02 0. -1.
    10030    2    1    2    0    0  0.00000000000E+00  0.00000000000E+00  0.13944391127E+04  0.22010603504E+04  0.17029991859E+04 0.  0.
        1    1    3    3  502    0 -0.28443378623E+03  0.27577312358E+03 -0.27693799729E+03  0.48337154323E+03  0.50400001928E-02 0. -1.
       -1    1    3    3    0  502  0.28443378623E+03 -0.27577312358E+03  0.16713771100E+04  0.17176888072E+04  0.50400001928E-02 0.  1.
</event>
<event>
 5   0  0.5342255E-04  0.1743332E+04  0.7818609E-02  0.8737029E-01
       -2   -1    0    0    0  501  0.00000000000E+00  0.00000000000E+00  0.92104797334E+03  0.92104797334E+03  0.25500000920E-02 0. -1.
        2   -1    0    0  501    0  0.00000000000E+00  0.00000000000E+00 -0.82493194806E+03  0.82493194806E+03  0.25500000920E-02 0.  1.
    10030    2    1    2    0    0  0.00000000000E+00  0.00000000000E+00  0.96116025283E+02  0.17459799214E+04  0.17433323251E+04 0.  0.
        5    1    3    3  502    0 -0.12220334465E+02 -0.74891122489E+03  0.49456291575E+03  0.89757001230E+03  0.46999998093E+01 0. -1.
       -5    1    3    3    0  502  0.12220334465E+02  0.74891122489E+03 -0.39844689047E+03  0.84840990911E+03  0.46999998093E+01 0.  1.
</event>
<event>
 5   0  0.2595644E-04  0.1726196E+04  0.7818609E-02  0.8746563E-01
        1   -1    0    0  501    0  0.00000000000E+00  0.00000000000E+00  0.20258821186E+04  0.20258821186E+04  0.50400001928E-02 0.  1.
       -1   -1    0    0    0  501  0.00000000000E+00  0.00000000000E+00 -0.36771051685E+03  0.36771051688E+03  0.50400001928E-02 0. -1.
    10030    2    1    2    0    0  0.00000000000E+00  0.00000000000E+00  0.16581716018E+04  0.23935926355E+04  0.17261960039E+04 0.  0.
        2    1    3    3  502    0 -0.43552728877E+03  0.31886039551E+03 -0.10478786672E+03  0.54985131455E+03  0.25500000920E-02 0. -1.
       -2    1    3    3    0  502  0.43552728877E+03 -0.31886039551E+03  0.17629594685E+04  0.18437413210E+04  0.25500000920E-02 0.  1.
</event>
<event>
 5   0  0.5299877E-04  0.1658256E+04  0.7818609E-02  0.8785537E-01
       -2   -1    0    0    0  501  0.00000000000E+00  0.00000000000E+00  0.81101577862E+03  0.81101577862E+03  0.25500000920E-02 0.  1.
        2   -1    0    0  501    0  0.00000000000E+00  0.00000000000E+00 -0.84764442033E+03  0.84764442034E+03  0.25500000920E-02 0. -1.
    10030    2    1    2    0    0  0.00000000000E+00  0.00000000000E+00 -0.36628641714E+02  0.16586601990E+04  0.16582557095E+04 0.  0.
        3    1    3    3  502    0  0.43514973561E+03 -0.60493182376E+03 -0.38193454202E+03  0.83736002316E+03  0.10100000352E+00 0. -1.
       -3    1    3    3    0  502 -0.43514973561E+03  0.60493182376E+03  0.34530590030E+03  0.82130017581E+03  0.10100000352E+00 0.  1.
</event>
<event>
 5   0  0.5021349E-04  0.1686973E+04  0.7818609E-02  0.8768829E-01
       -2   -1    0    0    0  501  0.00000000000E+00  0.00000000000E+00  0.31994028148E+03  0.31994028149E+03  0.25500000920E-02 0. -1.
        2   -1    0    0  501    0  0.00000000000E+00  0.00000000000E+00 -0.22237569458E+04  0.22237569458E+04  0.25500000920E-02 0.  1.
    10030    2    1    2    0    0  0.00000000000E+00  0.00000000000E+00 -0.19038166644E+04  0.25436972273E+04  0.16869729378E+04 0.  0.
        2    1    3    3  502    0  0.42826773505E+03  0.53094116045E+03 -0.20380089303E+03  0.71193157870E+03  0.25500000920E-02 0. -1.
       -2    1    3    3    0  502 -0.42826773505E+03 -0.53094116045E+03 -0.17000157713E+04  0.18317656486E+04  0.25500000920E-02 0.  1.
</event>
<event>
 5   0  0.2595644E-04  0.1680489E+04  0.7818609E-02  0.8772571E-01
       -1   -1    0    0    0  501  0.00000000000E+00  0.00000000000E+00  0.95532696189E+03  0.95532696190E+03  0.50400001928E-02 0.  1.
        1   -1    0    0  501    0  0.00000000000E+00  0.00000000000E+00 -0.73902540090E+03  0.73902540092E+03  0.50400001928E-02 0. -1.
    10030    2    1    2    0    0  0.00000000000E+00  0.00000000000E+00  0.21630156099E+03  0.16943523628E+04  0.16804890848E+04 0.  0.
        2    1    3    3  502    0 -0.68772447275E+03 -0.40412027353E+03 -0.15809725849E+03  0.81318687216E+03  0.25500000920E-02 0. -1.
       -2    1    3    3    0  502  0.68772447275E+03  0.40412027353E+03  0.37439881948E+03  0.88116549066E+03  0.25500000920E-02 0.  1.
</event>
<event>
 5   0  0.5342255E-04  0.1699389E+04  0.7818609E-02  0.8761713E-01
       -2   -1    0    0    0  501  0.00000000000E+00  0.00000000000E+00  0.12120982399E+04  0.12120982399E+04  0.25500000920E-02 0.  1.
        2   -1    0    0  501    0  0.00000000000E+00  0.00000000000E+00 -0.59564546135E+03  0.59564546135E+03  0.25500000920E-02 0. -1.
    10030    2    1    2    0    0  0.00000000000E+00  0.00000000000E+00  0.61645277852E+03  0.18077437012E+04  0.16993890847E+04 0.  0.
        5    1    3    3  502    0 -0.36190596696E+03  0.75195122110E+03  0.13818375666E+03  0.84588616754E+03  0.46999998093E+01 0. -1.
       -5    1    3    3    0  502  0.36190596696E+03 -0.75195122110E+03  0.47826902186E+03  0.96185753368E+03  0.46999998093E+01 0.  1.
</event>
<event>
 5   0  0.5342255E-04  0.1550785E+04  0.7818609E-02  0.8851367E-01
       -2   -1    0    0    0  501  0.00000000000E+00  0.00000000000E+00  0.64907934391E+03  0.64907934392E+03  0.25500000920E-02 0. -1.
        2   -1    0    0  501    0  0.00000000000E+00  0.00000000000E+00 -0.92628624147E+03  0.92628624147E+03  0.25500000920E-02 0.  1.
    10030    2    1    2    0    0  0.00000000000E+00  0.00000000000E+00 -0.27720689755E+03  0.15753655854E+04  0.15507846606E+04 0.  0.
        5    1    3    3  502    0  0.74234084537E+03 -0.21627881403E+03 -0.19752908891E+03  0.79805155665E+03  0.46999998093E+01 0.  1.
       -5    1    3    3    0  502 -0.74234084537E+03  0.21627881403E+03 -0.79677808643E+02  0.77731402875E+03  0.46999998093E+01 0. -1.
</event>
<event>
 5   0  0.5299877E-04  0.1692464E+04  0.7818609E-02  0.8765674E-01
        2   -1    0    0  501    0  0.00000000000E+00  0.00000000000E+00  0.98294807655E+03  0.98294807655E+03  0.25500000920E-02 0. -1.
       -2   -1    0    0    0  501  0.00000000000E+00  0.00000000000E+00 -0.72853158269E+03  0.72853158269E+03  0.25500000920E-02 0.  1.
    10030    2    1    2    0    0  0.00000000000E+00  0.00000000000E+00  0.25441649387E+03  0.17114796592E+04  0.16924641419E+04 0.  0.
        3    1    3    3  502    0 -0.31762690662E+03  0.62858702988E+03 -0.34721120362E+03  0.78521598052E+03  0.10100000352E+00 0. -1.
       -3    1    3    3    0  502  0.31762690662E+03 -0.62858702988E+03  0.60162769748E+03  0.92626367873E+03  0.10100000352E+00 0.  1.
</event>
<event>
 5   0  0.5310003E-04  0.1623337E+04  0.7818609E-02  0.8806338E-01
       -2   -1    0    0    0  501  0.00000000000E+00  0.00000000000E+00  0.63640576305E+03  0.63640576305E+03  0.25500000920E-02 0.  1.
        2   -1    0    0  501    0  0.00000000000E+00  0.00000000000E+00 -0.10351977580E+04  0.10351977580E+04  0.25500000920E-02 0. -1.
    10030    2    1    2    0    0  0.00000000000E+00  0.00000000000E+00 -0.39879199496E+03  0.16716035211E+04  0.16233370803E+04 0.  0.
        1    1    3    3  502    0  0.61826269284E+03 -0.24273375973E+03 -0.67978307517E+03  0.95040699954E+03  0.50400001928E-02 0. -1.
       -1    1    3    3    0  502 -0.61826269284E+03  0.24273375973E+03  0.28099108021E+03  0.72119652152E+03  0.50400001928E-02 0.  1.
</event>
<event>
 5   0  0.2785059E-04  0.1760084E+04  0.7818609E-02  0.8727819E-01
       -1   -1    0    0    0  501  0.00000000000E+00  0.00000000000E+00  0.54328728590E+03  0.54328728592E+03  0.50400001928E-02 0.  1.
        1   -1    0    0  501    0  0.00000000000E+00  0.00000000000E+00 -0.14255334854E+04  0.14255334854E+04  0.50400001928E-02 0. -1.
    10030    2    1    2    0    0  0.00000000000E+00  0.00000000000E+00 -0.88224619954E+03  0.19688207714E+04  0.17600843369E+04 0.  0.
        5    1    3    3  502    0  0.60743972557E+03 -0.32326747098E+03  0.17254327143E+03  0.70942099525E+03  0.46999998093E+01 0.  1.
       -5    1    3    3    0  502 -0.60743972557E+03  0.32326747098E+03 -0.10547894710E+04  0.12593997761E+04  0.46999998093E+01 0. -1.
</event>
<event>
 5   0  0.2630135E-04  0.1697209E+04  0.7818609E-02  0.8762958E-01
       -1   -1    0    0    0  501  0.00000000000E+00  0.00000000000E+00  0.71279869072E+03  0.71279869074E+03  0.50400001928E-02 0. -1.
        1   -1    0    0  501    0  0.00000000000E+00  0.00000000000E+00 -0.10102841104E+04  0.10102841104E+04  0.50400001928E-02 0.  1.
    10030    2    1    2    0    0  0.00000000000E+00  0.00000000000E+00 -0.29748541969E+03  0.17230828012E+04  0.16972085213E+04 0.  0.
        1    1    3    3  502    0 -0.57516102979E+03 -0.83195086333E+02  0.47906768101E+03  0.75315169494E+03  0.50400001928E-02 0. -1.
       -1    1    3    3    0  502  0.57516102979E+03  0.83195086333E+02 -0.77655310070E+03  0.96993110622E+03  0.50400001928E-02 0.  1.
</event>
<event>
 5   0  0.1910750E-04  0.1649914E+04  0.7818609E-02  0.8790457E-01
        3   -1    0    0  501    0  0.00000000000E+00  0.00000000000E+00  0.73873829719E+03  0.73873830409E+03  0.10100000352E+00 0.  1.
       -3   -1    0    0    0  501  0.00000000000E+00  0.00000000000E+00 -0.92123834751E+03  0.92123835305E+03  0.10100000352E+00 0. -1.
    10030    2    1    2    0    0  0.00000000000E+00  0.00000000000E+00 -0.18250005032E+03  0.16599766571E+04  0.16499140080E+04 0.  0.
        5    1    3    3  502    0  0.14421254397E+03 -0.24262711023E+03  0.68863355002E+03  0.74424688691E+03  0.46999998093E+01 0.  1.
       -5    1    3    3    0  502 -0.14421254397E+03  0.24262711023E+03 -0.87113360034E+03  0.91572977024E+03  0.46999998093E+01 0. -1.
</event>
<event>
 5   0  0.5021349E-04  0.1759040E+04  0.7818609E-02  0.8728390E-01
        2   -1    0    0  501    0  0.00000000000E+00  0.00000000000E+00  0.21026105941E+04  0.21026105941E+04  0.25500000920E-02 0.  1.
       -2   -1    0    0    0  501  0.00000000000E+00  0.00000000000E+00 -0.36790238647E+03  0.36790238648E+03  0.25500000920E-02 0. -1.
    10030    2    1    2    0    0  0.00000000000E+00  0.00000000000E+00  0.17347082076E+04  0.24705129805E+04  0.17590400284E+04 0.  0.
        2    1    3    3  502    0  0.65773014559E+03 -0.10107046106E+03  0.59656026686E+02  0.66811901936E+03  0.25500000920E-02 0. -1.
       -2    1    3    3    0  502 -0.65773014559E+03  0.10107046106E+03  0.16750521809E+04  0.18023939612E+04  0.25500000920E-02 0.  1.
</event>
<event>
 5   0  0.2595644E-04  0.1651245E+04  0.7818609E-02  0.8789670E-01
       -1   -1    0    0    0  501  0.00000000000E+00  0.00000000000E+00  0.73711202089E+03  0.73711202091E+03  0.50400001928E-02 0.  1.
        1   -1    0    0  501    0  0.00000000000E+00  0.00000000000E+00 -0.92476111714E+03  0.92476111715E+03  0.50400001928E-02 0. -1.
    10030    2    1    2    0    0  0.00000000000E+00  0.00000000000E+00 -0.18764909625E+03  0.16618731381E+04  0.16512450284E+04 0.  0.
        2    1    3    3  502    0 -0.68281848972E+02  0.71681538195E+03 -0.50036237055E+03  0.87684046700E+03  0.25500000920E-02 0. -1.
       -2    1    3    3    0  502  0.68281848972E+02 -0.71681538195E+03  0.31271327431E+03  0.78503267106E+03  0.25500000920E-02 0.  1.
</event>
<event>
 5   0  0.5310003E-04  0.1670729E+04  0.7818609E-02  0.8778237E-01
       -2   -1    0    0    0  501  0.00000000000E+00  0.00000000000E+00  0.60405715764E+03  0.60405715764E+03  0.25500000920E-02 0. -1.
        2   -1    0    0  501    0  0.00000000000E+00  0.00000000000E+00 -0.11552454153E+04  0.11552454153E+04  0.25500000920E-02 0.  1.
    10030    2    1    2    0    0  0.00000000000E+00  0.00000000000E+00 -0.55118825764E+03  0.17593025729E+04  0.16707294957E+04 0.  0.
        1    1    3    3  502    0  0.61074327429E+03  0.56229497300E+03 -0.17765087315E+03  0.84896573341E+03  0.50400001928E-02 0.  1.
       -1    1    3    3    0  502 -0.61074327429E+03 -0.56229497300E+03 -0.37353738449E+03  0.91033683952E+03  0.50400001928E-02 0. -1.
</event>
<event>
 5   0  0.5342255E-04  0.1699621E+04  0.7818609E-02  0.8761580E-01
        2   -1    0    0  501    0  0.00000000000E+00  0.00000000000E+00  0.11992722499E+04  0.11992722499E+04  0.25500000920E-02 0.  1.
       -2   -1    0    0    0  501  0.00000000000E+00  0.00000000000E+00 -0.60218033659E+03  0.60218033659E+03  0.25500000920E-02 0. -1.
    10030    2    1    2    0    0  0.00000000000E+00  0.00000000000E+00  0.59709191328E+03  0.18014525865E+04  0.16996213309E+04 0.  0.
        5    1    3    3  502    0  0.75187752927E+03  0.59888515642E+02 -0.11637977802E+03  0.76319905403E+03  0.46999998093E+01 0. -1.
       -5    1    3    3    0  502 -0.75187752927E+03 -0.59888515642E+02  0.71347169130E+03  0.10382535324E+04  0.46999998093E+01 0.  1.
</event>
<event>
 5   0  0.2583422E-04  0.1681721E+04  0.7818609E-02  0.8771859E-01
       -1   -1    0    0    0  501  0.00000000000E+00  0.00000000000E+00  0.32579369483E+03  0.32579369487E+03  0.50400001928E-02 0. -1.
        1   -1    0    0  501    0  0.00000000000E+00  0.00000000000E+00 -0.21702272478E+04  0.21702272478E+04  0.50400001928E-02 0.  1.
    10030    2    1    2    0    0  0.00000000000E+00  0.00000000000E+00 -0.18444335529E+04  0.24960209427E+04  0.16817209682E+04 0.  0.
        3    1    3    3  502    0  0.24042973939E+03 -0.49789589060E+03  0.18048231679E+02  0.55320206646E+03  0.10100000352E+00 0. -1.
       -3    1    3    3    0  502 -0.24042973939E+03  0.49789589060E+03 -0.18624817846E+04  0.19428188762E+04  0.10100000352E+00 0.  1.
</event>
<event>
 5   0  0.2785059E-04  0.1700967E+04  0.7818609E-02  0.8760813E-01
        1   -1    0    0  501    0  0.00000000000E+00  0.00000000000E+00  0.13082252617E+04  0.13082252617E+04  0.50400001928E-02 0.  1.
       -1   -1    0    0    0  501  0.00000000000E+00  0.00000000000E+00 -0.55290334404E+03  0.55290334406E+03  0.50400001928E-02 0. -1.
    10030    2    1    2    0    0  0.00000000000E+00  0.00000000000E+00  0.75532191763E+03  0.18611286057E+04  0.17009669273E+04 0.  0.
        5    1    3    3  502    0 -0.14959211626E+03  0.35873530078E+03  0.12053482504E+04  0.12664735734E+04  0.46999998093E+01 0.  1.
       -5    1    3    3    0  502  0.14959211626E+03 -0.35873530078E+03 -0.45002633281E+03  0.59465503235E+03  0.46999998093E+01 0. -1.
</event>
<event>
 5   0  0.5310003E-04  0.1720924E+04  0.7818609E-02  0.8749520E-01
       -2   -1    0    0    0  501  0.00000000000E+00  0.00000000000E+00  0.43324728564E+03  0.43324728565E+03  0.25500000920E-02 0. -1.
        2   -1    0    0  501    0  0.00000000000E+00  0.00000000000E+00 -0.17089438225E+04  0.17089438225E+04  0.25500000920E-02 0.  1.
    10030    2    1    2    0    0  0.00000000000E+00  0.00000000000E+00 -0.12756965369E+04  0.21421911082E+04  0.17209244869E+04 0.  0.
        1    1    3    3  502    0 -0.21416561357E+03  0.55379663276E+03 -0.14130618673E+04  0.15327431165E+04  0.50400001928E-02 0.  1.
       -1    1    3    3    0  502  0.21416561357E+03 -0.55379663276E+03  0.13736533040E+03  0.60944799164E+03  0.50400001928E-02 0. -1.
</event>
<event>
 5   0  0.5198430E-04  0.1688346E+04  0.7818609E-02  0.8768039E-01
        2   -1    0    0  501    0  0.00000000000E+00  0.00000000000E+00  0.11441536786E+04  0.11441536786E+04  0.25500000920E-02 0.  1.
       -2   -1    0    0    0  501  0.00000000000E+00  0.00000000000E+00 -0.62284274197E+03  0.62284274198E+03  0.25500000920E-02 0. -1.
    10030    2    1    2    0    0  0.00000000000E+00  0.00000000000E+00  0.52131093664E+03  0.17669964206E+04  0.16883457163E+04 0.  0.
        4    1    3    3  502    0  0.32000960177E+03 -0.61385985570E+03  0.76627182904E+03  0.10326684834E+04  0.12699999809E+01 0.  1.
       -4    1    3    3    0  502 -0.32000960177E+03  0.61385985570E+03 -0.24496089240E+03  0.73432793721E+03  0.12699999809E+01 0. -1.
</event>
<event>
 5   0  0.1910750E-04  0.1718983E+04  0.7818609E-02  0.8750611E-01
       -4   -1    0    0    0  501  0.00000000000E+00  0.00000000000E+00  0.14730268580E+04  0.14730274055E+04  0.12699999809E+01 0. -1.
        4   -1    0    0  501    0  0.00000000000E+00  0.00000000000E+00 -0.50150052504E+03  0.50150213311E+03  0.12699999809E+01 0.  1.
    10030    2    1    2    0    0  0.00000000000E+00  0.00000000000E+00  0.97152633296E+03  0.19745295386E+04  0.17189832702E+04 0.  0.
        5    1    3    3  502    0  0.51478639514E+03  0.11752847843E+03 -0.29320011659E+03  0.60399203160E+03  0.46999998093E+01 0.  1.
       -5    1    3    3    0  502 -0.51478639514E+03 -0.11752847843E+03  0.12647264495E+04  0.13705375070E+04  0.46999998093E+01 0. -1.
</event>
<event>
 5   0  0.2561518E-04  0.1735369E+04  0.7818609E-02  0.8741445E-01
       -1   -1    0    0    0  501  0.00000000000E+00  0.00000000000E+00  0.73974070341E+03  0.73974070343E+03  0.50400001928E-02 0. -1.
        1   -1    0    0  501    0  0.00000000000E+00  0.00000000000E+00 -0.10177568908E+04  0.10177568909E+04  0.50400001928E-02 0.  1.
    10030    2    1    2    0    0  0.00000000000E+00  0.00000000000E+00 -0.27801618743E+03  0.17574975943E+04  0.17353687774E+04 0.  0.
        4    1    3    3  502    0 -0.80990664125E+02 -0.14284491107E+03  0.72386013399E+03  0.74225282941E+03  0.12699999809E+01 0. -1.
       -4    1    3    3    0  502  0.80990664125E+02  0.14284491107E+03 -0.10018763214E+04  0.10152447649E+04  0.12699999809E+01 0.  1.
</event>
<event>
 5   0  0.5299877E-04  0.1644863E+04  0.7818609E-02  0.8793451E-01
       -2   -1    0    0    0  501  0.00000000000E+00  0.00000000000E+00  0.60117930434E+03  0.60117930435E+03  0.25500000920E-02 0. -1.
        2   -1    0    0  501    0  0.00000000000E+00  0.00000000000E+00 -0.11251107974E+04  0.11251107974E+04  0.25500000920E-02 0.  1.
    10030    2    1    2    0    0  0.00000000000E+00  0.00000000000E+00 -0.52393149307E+03  0.17262901018E+04  0.16448627013E+04 0.  0.
        3    1    3    3  502    0  0.16352626607E+03 -0.62333424486E+03 -0.79824784300E+03  0.10259074274E+04  0.10100000352E+00 0.  1.
       -3    1    3    3    0  502 -0.16352626607E+03  0.62333424486E+03  0.27431634993E+03  0.70038267437E+03  0.10100000352E+00 0. -1.
</event>
<event>
 5   0  0.2630135E-04  0.1726573E+04  0.7818609E-02  0.8746352E-01
        1   -1    0    0  501    0  0.00000000000E+00  0.00000000000E+00  0.15608638327E+04  0.15608638327E+04  0.50400001928E-02 0.  1.
       -1   -1    0    0    0  501  0.00000000000E+00  0.00000000000E+00 -0.47746852756E+03  0.47746852759E+03  0.50400001928E-02 0. -1.
    10030    2    1    2    0    0  0.00000000000E+00  0.00000000000E+00  0.10833953051E+04  0.20383323603E+04  0.17265727392E+04 0.  0.
        1    1    3    3  502    0  0.78669591219E+03 -0.13772832410E+03  0.15479655981E+03  0.81352413884E+03  0.50400001928E-02 0.  1.
       -1    1    3    3    0  502 -0.78669591219E+03  0.13772832410E+03  0.92859874531E+03  0.12248082215E+04  0.50400001928E-02 0. -1.
</event>
<event>
 5   0  0.5342255E-04  0.1648514E+04  0.7818609E-02  0.8791286E-01
        2   -1    0    0  501    0  0.00000000000E+00  0.00000000000E+00  0.15462195238E+04  0.15462195238E+04  0.25500000920E-02 0. -1.
       -2   -1    0    0    0  501  0.00000000000E+00  0.00000000000E+00 -0.43939379588E+03  0.43939379589E+03  0.25500000920E-02 0.  1.
    10030    2    1    2    0    0  0.00000000000E+00  0.00000000000E+00  0.11068257280E+04  0.19856133197E+04  0.16485135921E+04 0.  0.
        5    1    3    3  502    0  0.72610307136E+03  0.44375097382E+02  0.10201921788E+04  0.12529999965E+04  0.46999998093E+01 0. -1.
       -5    1    3    3    0  502 -0.72610307136E+03 -0.44375097382E+02  0.86633549115E+02  0.73261332321E+03  0.46999998093E+01 0.  1.
</event>
<event>
 5   0  0.2595644E-04  0.1566467E+04  0.7818609E-02  0.8841418E-01
        1   -1    0    0  501    0  0.00000000000E+00  0.00000000000E+00  0.59279384339E+03  0.59279384342E+03  0.50400001928E-02 0.  1.
       -1   -1    0    0    0  501  0.00000000000E+00  0.00000000000E+00 -0.10348528129E+04  0.10348528129E+04  0.50400001928E-02 0. -1.
    10030    2    1    2    0    0  0.00000000000E+00  0.00000000000E+00 -0.44205896948E+03  0.16276466563E+04  0.15664665669E+04 0.  0.
        2    1    3    3  502    0  0.55588847518E+03  0.37896740803E+03 -0.63772348052E+03  0.92699489254E+03  0.25500000920E-02 0. -1.
       -2    1    3    3    0  502 -0.55588847518E+03 -0.37896740803E+03  0.19566451103E+03  0.70065176377E+03  0.25500000920E-02 0.  1.
</event>
<event>
 5   0  0.5310003E-04  0.1711384E+04  0.7818609E-02  0.8754898E-01
       -2   -1    0    0    0  501  0.00000000000E+00  0.00000000000E+00  0.65937881157E+03  0.65937881158E+03  0.25500000920E-02 0.  1.
        2   -1    0    0  501    0  0.00000000000E+00  0.00000000000E+00 -0.11104527846E+04  0.11104527846E+04  0.25500000920E-02 0. -1.
    10030    2    1    2    0    0  0.00000000000E+00  0.00000000000E+00 -0.45107397301E+03  0.17698315962E+04  0.17113842788E+04 0.  0.
        1    1    3    3  502    0 -0.57221017988E+02  0.43942078445E+03 -0.98255054784E+03  0.10778545587E+04  0.50400001928E-02 0. -1.
       -1    1    3    3    0  502  0.57221017988E+02 -0.43942078445E+03  0.53147657483E+03  0.69197703742E+03  0.50400001928E-02 0.  1.
</event>
<event>
 5   0  0.5021349E-04  0.1705461E+04  0.7818609E-02  0.8758256E-01
       -2   -1    0    0    0  501  0.00000000000E+00  0.00000000000E+00  0.39538202785E+03  0.39538202786E+03  0.25500000920E-02 0.  1.
        2   -1    0    0  501    0  0.00000000000E+00  0.00000000000E+00 -0.18391062997E+04  0.18391062997E+04  0.25500000920E-02 0. -1.
    10030    2    1    2    0    0  0.00000000000E+00  0.00000000000E+00 -0.14437242718E+04  0.22344883275E+04  0.17054613196E+04 0.  0.
        2    1    3    3  502    0 -0.41083584357E+03  0.21137763525E+03 -0.16609015170E+04  0.17239664858E+04  0.25500000920E-02 0. -1.
       -2    1    3    3    0  502  0.41083584357E+03 -0.21137763525E+03  0.21717724517E+03  0.51052184172E+03  0.25500000920E-02 0.  1.
</event>
<event>
 5   0  0.1910750E-04  0.1683738E+04  0.7818609E-02  0.8770694E-01
        3   -1    0    0  501    0  0.00000000000E+00  0.00000000000E+00  0.98433016307E+03  0.98433016825E+03  0.10100000352E+00 0.  1.
       -3   -1    0    0    0  501  0.00000000000E+00  0.00000000000E+00 -0.72002596501E+03  0.72002597209E+03  0.10100000352E+00 0. -1.
    10030    2    1    2    0    0  0.00000000000E+00  0.00000000000E+00  0.26430419806E+03  0.17043561403E+04  0.16837378490E+04 0.  0.
        2    1    3    3  502    0  0.38550469284E+03  0.31861686496E+03  0.81765440315E+03  0.95848281040E+03  0.25500000920E-02 0.  1.
       -2    1    3    3    0  502 -0.38550469284E+03 -0.31861686496E+03 -0.55335020509E+03  0.74587332994E+03  0.25500000920E-02 0. -1.
</event>
<event>
 5   0  0.2561518E-04  0.1711792E+04  0.7818609E-02  0.8754667E-01
       -1   -1    0    0    0  501  0.00000000000E+00  0.00000000000E+00  0.36934507172E+03  0.36934507175E+03  0.50400001928E-02 0.  1.
        1   -1    0    0  501    0  0.00000000000E+00  0.00000000000E+00 -0.19833974927E+04  0.19833974927E+04  0.50400001928E-02 0. -1.
    10030    2    1    2    0    0  0.00000000000E+00  0.00000000000E+00 -0.16140524209E+04  0.23527425644E+04  0.17117921477E+04 0.  0.
        4    1    3    3  502    0 -0.38202485892E+03  0.43954846513E+03 -0.16691039384E+04  0.17677826269E+04  0.12699999809E+01 0. -1.
       -4    1    3    3    0  502  0.38202485892E+03 -0.43954846513E+03  0.55051517415E+02  0.58495993752E+03  0.12699999809E+01 0.  1.
</event>
<event>
 5   0  0.1910750E-04  0.1662678E+04  0.7818609E-02  0.8782941E-01
        3   -1    0    0  501    0  0.00000000000E+00  0.00000000000E+00  0.10166852406E+04  0.10166852457E+04  0.10100000352E+00 0. -1.
       -3   -1    0    0    0  501  0.00000000000E+00  0.00000000000E+00 -0.67978227220E+03  0.67978227971E+03  0.10100000352E+00 0.  1.
    10030    2    1    2    0    0  0.00000000000E+00  0.00000000000E+00  0.33690296844E+03  0.16964675254E+04  0.16626780971E+04 0.  0.
        3    1    3    3  502    0 -0.22360052513E+02 -0.57078925418E+03  0.78473312369E+03  0.97062167205E+03  0.10100000352E+00 0. -1.
       -3    1    3    3    0  502  0.22360052513E+02  0.57078925418E+03 -0.44783015524E+03  0.72584585332E+03  0.10100000352E+00 0.  1.
</event>
<event>
 5   0  0.5198430E-04  0.1691025E+04  0.7818609E-02  0.8766500E-01
       -2   -1    0    0    0  501  0.00000000000E+00  0.00000000000E+00  0.76114164596E+03  0.76114164596E+03  0.25500000920E-02 0.  1.
        2   -1    0    0  501    0  0.00000000000E+00  0.00000000000E+00 -0.93923572001E+03  0.93923572002E+03  0.25500000920E-02 0. -1.
    10030    2    1    2    0    0  0.00000000000E+00  0.00000000000E+00 -0.17809407405E+03  0.17003773660E+04  0.16910250405E+04 0.  0.
        4    1    3    3  502    0 -0.97412798745E+02 -0.30674840676E+03 -0.87523175111E+03  0.93253207422E+03  0.12699999809E+01 0. -1.
       -4    1    3    3    0  502  0.97412798745E+02  0.30674840676E+03  0.69713767705E+03  0.76784529176E+03  0.12699999809E+01 0.  1.
</event>
<event>
 5   0  0.5342255E-04  0.1708329E+04  0.7818609E-02  0.8756628E-01
       -2   -1    0    0    0  501  0.00000000000E+00  0.00000000000E+00  0.43601297401E+03  0.43601297402E+03  0.25500000920E-02 0.  1.
        2   -1    0    0  501    0  0.00000000000E+00  0.00000000000E+00 -0.16733386962E+04  0.16733386962E+04  0.25500000920E-02 0. -1.
    10030    2    1    2    0    0  0.00000000000E+00  0.00000000000E+00 -0.12373257222E+04  0.21093516702E+04  0.17083294547E+04 0.  0.
        5    1    3    3  502    0  0.12971137165E+03  0.52291298624E+03 -0.14370598523E+04  0.15347397631E+04  0.46999998093E+01 0. -1.
       -5    1    3    3    0  502 -0.12971137165E+03 -0.52291298624E+03  0.19973413015E+03  0.57461190716E+03  0.46999998093E+01 0.  1.
</event>
<event>
 5   0  0.2630135E-04  0.1591429E+04  0.7818609E-02  0.8825831E-01
        1   -1    0    0  501    0  0.00000000000E+00  0.00000000000E+00  0.44861180821E+03  0.44861180824E+03  0.50400001928E-02 0. -1.
       -1   -1    0    0    0  501  0.00000000000E+00  0.00000000000E+00 -0.14113792435E+04  0.14113792435E+04  0.50400001928E-02 0.  1.
    10030    2    1    2    0    0  0.00000000000E+00  0.00000000000E+00 -0.96276743526E+03  0.18599910517E+04  0.15914287851E+04 0.  0.
        1    1    3    3  502    0  0.45508635790E+03 -0.57493206512E+02  0.27853414295E+03  0.53664730574E+03  0.50400001928E-02 0. -1.
       -1    1    3    3    0  502 -0.45508635790E+03  0.57493206512E+02 -0.12413015782E+04  0.13233437460E+04  0.50400001928E-02 0.  1.
</event>
<event>
 5   0  0.5198430E-04  0.1698092E+04  0.7818609E-02  0.8762453E-01
       -2   -1    0    0    0  501  0.00000000000E+00  0.00000000000E+00  0.41435000154E+03  0.41435000155E+03  0.25500000920E-02 0.  1.
        2   -1    0    0  501    0  0.00000000000E+00  0.00000000000E+00 -0.17397839159E+04  0.17397839159E+04  0.25500000920E-02 0. -1.
    10030    2    1    2    0    0  0.00000000000E+00  0.00000000000E+00 -0.13254339144E+04  0.21541339175E+04  0.16980924218E+04 0.  0.
        4    1    3    3  502    0  0.16334017135E+03 -0.52752870946E+03  0.15539311094E+03  0.57368561313E+03  0.12699999809E+01 0.  1.
       -4    1    3    3    0  502 -0.16334017135E+03  0.52752870946E+03 -0.14808270253E+04  0.15804483043E+04  0.12699999809E+01 0. -1.
</event>
<event>
 5   0  0.1910750E-04  0.1703813E+04  0.7818609E-02  0.8759193E-01
        3   -1    0    0  501    0  0.00000000000E+00  0.00000000000E+00  0.82735529048E+03  0.82735529664E+03  0.10100000352E+00 0.  1.
       -3   -1    0    0    0  501  0.00000000000E+00  0.00000000000E+00 -0.87718591843E+03  0.87718592425E+03  0.10100000352E+00 0. -1.
    10030    2    1    2    0    0  0.00000000000E+00  0.00000000000E+00 -0.49830627953E+02  0.17045412209E+04  0.17038126899E+04 0.  0.
        3    1    3    3  502    0 -0.34810855026E+03  0.19450728098E+03  0.72822247223E+03  0.83025334952E+03  0.10100000352E+00 0.  1.
       -3    1    3    3    0  502  0.34810855026E+03 -0.19450728098E+03 -0.77805310018E+03  0.87428787137E+03  0.10100000352E+00 0. -1.
</event>
<event>
 5   0  0.2583422E-04  0.1708385E+04  0.7818609E-02  0.8756596E-01
        1   -1    0    0  501    0  0.00000000000E+00  0.00000000000E+00  0.12815638283E+04  0.12815638283E+04  0.50400001928E-02 0. -1.
       -1   -1    0    0    0  501  0.00000000000E+00  0.00000000000E+00 -0.56933957831E+03  0.56933957834E+03  0.50400001928E-02 0.  1.
    10030    2    1    2    0    0  0.00000000000E+00  0.00000000000E+00  0.71222424994E+03  0.18509034066E+04  0.17083852137E+04 0.  0.
        3    1    3    3  502    0  0.79784715933E+03 -0.14182949338E+03  0.63448967092E+02  0.81283545473E+03  0.10100000352E+00 0.  1.
       -3    1    3    3    0  502 -0.79784715933E+03  0.14182949338E+03  0.64877528285E+03  0.10380679519E+04  0.10100000352E+00 0. -1.
</event>
<event>
 5   0  0.2595644E-04  0.1692831E+04  0.7818609E-02  0.8765464E-01
        1   -1    0    0  501    0  0.00000000000E+00  0.00000000000E+00  0.88269277222E+03  0.88269277223E+03  0.50400001928E-02 0.  1.
       -1   -1    0    0    0  501  0.00000000000E+00  0.00000000000E+00 -0.81162930246E+03  0.81162930247E+03  0.50400001928E-02 0. -1.
    10030    2    1    2    0    0  0.00000000000E+00  0.00000000000E+00  0.71063469764E+02  0.16943220747E+04  0.16928311422E+04 0.  0.
        2    1    3    3  502    0 -0.22453065806E+03  0.74677833213E+03  0.36495293094E+03  0.86097766263E+03  0.25500000920E-02 0.  1.
       -2    1    3    3    0  502  0.22453065806E+03 -0.74677833213E+03 -0.29388946118E+03  0.83334441208E+03  0.25500000920E-02 0. -1.
</event>
<event>
 5   0  0.2595644E-04  0.1707443E+04  0.7818609E-02  0.8757131E-01
       -1   -1    0    0    0  501  0.00000000000E+00  0.00000000000E+00  0.49203030352E+03  0.49203030354E+03  0.50400001928E-02 0. -1.
        1   -1    0    0  501    0  0.00000000000E+00  0.00000000000E+00 -0.14812915010E+04  0.14812915010E+04  0.50400001928E-02 0.  1.
    10030    2    1    2    0    0  0.00000000000E+00  0.00000000000E+00 -0.98926119744E+03  0.19733218045E+04  0.17074428914E+04 0.  0.
        2    1    3    3  502    0 -0.10879202201E+03 -0.49783351950E+03 -0.12862477117E+04  0.13835125923E+04  0.25500000920E-02 0.  1.
       -2    1    3    3    0  502  0.10879202201E+03  0.49783351950E+03  0.29698651424E+03  0.58980921223E+03  0.25500000920E-02 0. -1.
</event>
<event>
 5   0  0.2630135E-04  0.1658024E+04  0.7818609E-02  0.8785674E-01
        1   -1    0    0  501    0  0.00000000000E+00  0.00000000000E+00  0.10730236439E+04  0.10730236439E+04  0.50400001928E-02 0. -1.
       -1   -1    0    0    0  501  0.00000000000E+00  0.00000000000E+00 -0.64048990340E+03  0.64048990342E+03  0.50400001928E-02 0.  1.
    10030    2    1    2    0    0  0.00000000000E+00  0.00000000000E+00  0.43253374050E+03  0.17135135473E+04  0.16580238962E+04 0.  0.
        1    1    3    3  502    0 -0.20269795974E+03 -0.61601909710E+02 -0.61204256979E+03  0.64767072299E+03  0.50400001928E-02 0.  1.
       -1    1    3    3    0  502  0.20269795974E+03  0.61601909710E+02  0.10445763103E+04  0.10658428243E+04  0.50400001928E-02 0. -1.
</event>
<event>
 5   0  0.2785059E-04  0.1701802E+04  0.7818609E-02  0.8760337E-01
        1   -1    0    0  501    0  0.00000000000E+00  0.00000000000E+00  0.11297198041E+04  0.11297198041E+04  0.50400001928E-02 0.  1.
       -1   -1    0    0    0  501  0.00000000000E+00  0.00000000000E+00 -0.64089595413E+03  0.64089595415E+03  0.50400001928E-02 0. -1.
    10030    2    1    2    0    0  0.00000000000E+00  0.00000000000E+00  0.48882384996E+03  0.17706157583E+04  0.17018023995E+04 0.  0.
        5    1    3    3  502    0 -0.89948626320E+00 -0.52187328991E+03  0.94364208680E+03  0.10783482822E+04  0.46999998093E+01 0.  1.
       -5    1    3    3    0  502  0.89948626320E+00  0.52187328991E+03 -0.45481823685E+03  0.69226747603E+03  0.46999998093E+01 0. -1.
</event>
<event>
 5   0  0.2595644E-04  0.1699146E+04  0.7818609E-02  0.8761852E-01
       -1   -1    0    0    0  501  0.00000000000E+00  0.00000000000E+00  0.52561738279E+03  0.52561738282E+03  0.50400001928E-02 0. -1.
        1   -1    0    0  501    0  0.00000000000E+00  0.00000000000E+00 -0.13731927293E+04  0.13731927293E+04  0.50400001928E-02 0.  1.
    10030    2    1    2    0    0  0.00000000000E+00  0.00000000000E+00 -0.84757534654E+03  0.18988101122E+04  0.16991456306E+04 0.  0.
        2    1    3    3  502    0 -0.72073099568E+03  0.27975657088E+03 -0.81739364393E+03  0.11250996739E+04  0.25500000920E-02 0.  1.
       -2    1    3    3    0  502  0.72073099568E+03 -0.27975657088E+03 -0.30181702615E+02  0.77371043825E+03  0.25500000920E-02 0. -1.
</event>
<event>
 5   0  0.5198430E-04  0.1696905E+04  0.7818609E-02  0.8763131E-01
        2   -1    0    0  501    0  0.00000000000E+00  0.00000000000E+00  0.16250282297E+04  0.16250282297E+04  0.25500000920E-02 0.  1.
       -2   -1    0    0    0  501  0.00000000000E+00  0.00000000000E+00 -0.44299039784E+03  0.44299039785E+03  0.25500000920E-02 0. -1.
    10030    2    1    2    0    0  0.00000000000E+00  0.00000000000E+00  0.11820378318E+04  0.20680186275E+04  0.16969053032E+04 0.  0.
        4    1    3    3  502    0  0.47985926207E+03  0.69426359227E+03  0.48475104934E+03  0.97326873970E+03  0.12699999809E+01 0. -1.
       -4    1    3    3    0  502 -0.47985926207E+03 -0.69426359227E+03  0.69728678247E+03  0.10947498878E+04  0.12699999809E+01 0.  1.
</event>
<event>
 5   0  0.5198430E-04  0.1701805E+04  0.7818609E-02  0.8760336E-01
        2   -1    0    0  501    0  0.00000000000E+00  0.00000000000E+00  0.18322592805E+04  0.18322592805E+04  0.25500000920E-02 0.  1.
       -2   -1    0    0    0  501  0.00000000000E+00  0.00000000000E+00 -0.39515969475E+03  0.39515969476E+03  0.25500000920E-02 0. -1.
    10030    2    1    2    0    0  0.00000000000E+00  0.00000000000E+00  0.14370995857E+04  0.22274189752E+04  0.17018049453E+04 0.  0.
        4    1    3    3  502    0  0.21923839628E+02 -0.40423136581E+03  0.16981394887E+04  0.17457270657E+04  0.12699999809E+01 0.  1.
       -4    1    3    3    0  502 -0.21923839628E+02  0.40423136581E+03 -0.26103990300E+03  0.48169190953E+03  0.12699999809E+01 0. -1.
</event>
<event>
 5   0  0.5310003E-04  0.1729516E+04  0.7818609E-02  0.8744707E-01
       -2   -1    0    0    0  501  0.00000000000E+00  0.00000000000E+00  0.10731321821E+04  0.10731321821E+04  0.25500000920E-02 0. -1.
        2   -1    0    0  501    0  0.00000000000E+00  0.00000000000E+00 -0.69684427836E+03  0.69684427836E+03  0.25500000920E-02 0.  1.
    10030    2    1    2    0    0  0.00000000000E+00  0.00000000000E+00  0.37628790378E+03  0.17699764605E+04  0.17295155634E+04 0.  0.
        1    1    3    3  502    0 -0.79531461616E+03 -0.18357604867E+03  0.48044895036E+03  0.94713077146E+03  0.50400001928E-02 0. -1.
       -1    1    3    3    0  502  0.79531461616E+03  0.18357604867E+03 -0.10416104658E+03  0.82284568904E+03  0.50400001928E-02 0.  1.
</event>
<event>
 5   0  0.2561518E-04  0.1817229E+04  0.7818609E-02  0.8697191E-01
        1   -1    0    0  501    0  0.00000000000E+00  0.00000000000E+00  0.17601879225E+04  0.17601879225E+04  0.50400001928E-02 0. -1.
       -1   -1    0    0    0  501  0.00000000000E+00  0.00000000000E+00 -0.46902953898E+03  0.46902953900E+03  0.50400001928E-02 0.  1.
    10030    2    1    2    0    0  0.00000000000E+00  0.00000000000E+00  0.12911583835E+04  0.22292174615E+04  0.18172288021E+04 0.  0.
        4    1    3    3  502    0 -0.51076714877E+03 -0.65607548058E+03  0.10950658379E+04  0.13749505150E+04  0.12699999809E+01 0.  1.
       -4    1    3    3    0  502  0.51076714877E+03  0.65607548058E+03  0.19609254557E+03  0.85426694646E+03  0.12699999809E+01 0. -1.
</event>
<event>
 5   0  0.2561518E-04  0.1694372E+04  0.7818609E-02  0.8764581E-01
       -1   -1    0    0    0  501  0.00000000000E+00  0.00000000000E+00  0.25119967431E+03  0.25119967436E+03  0.50400001928E-02 0.  1.
        1   -1    0    0  501    0  0.00000000000E+00  0.00000000000E+00 -0.28571856075E+04  0.28571856075E+04  0.50400001928E-02 0. -1.
    10030    2    1    2    0    0  0.00000000000E+00  0.00000000000E+00 -0.26059859332E+04  0.31083852818E+04  0.16943719711E+04 0.  0.
        4    1    3    3  502    0  0.24729433029E+03  0.58535256919E+03 -0.23308737526E+04  0.24159400199E+04  0.12699999809E+01 0. -1.
       -4    1    3    3    0  502 -0.24729433029E+03 -0.58535256919E+03 -0.27511218056E+03  0.69244526199E+03  0.12699999809E+01 0.  1.
</event>
<event>
 5   0  0.5342255E-04  0.1709165E+04  0.7818609E-02  0.8756155E-01
       -2   -1    0    0    0  501  0.00000000000E+00  0.00000000000E+00  0.52593898639E+03  0.52593898639E+03  0.25500000920E-02 0.  1.
        2   -1    0    0  501    0  0.00000000000E+00  0.00000000000E+00 -0.13885848753E+04  0.13885848753E+04  0.25500000920E-02 0. -1.
    10030    2    1    2    0    0  0.00000000000E+00  0.00000000000E+00 -0.86264588893E+03  0.19145238617E+04  0.17091646168E+04 0.  0.
        5    1    3    3  502    0 -0.67575200862E+03 -0.35719889840E+03 -0.85941589921E+03  0.11501519934E+04  0.46999998093E+01 0. -1.
       -5    1    3    3    0  502  0.67575200862E+03  0.35719889840E+03 -0.32299897166E+01  0.76437186828E+03  0.46999998093E+01 0.  1.
</event>
<event>
 5   0  0.2785059E-04  0.1715773E+04  0.7818609E-02  0.8752420E-01
       -1   -1    0    0    0  501  0.00000000000E+00  0.00000000000E+00  0.68812765243E+03  0.68812765245E+03  0.50400001928E-02 0. -1.
        1   -1    0    0  501    0  0.00000000000E+00  0.00000000000E+00 -0.10695237056E+04  0.10695237056E+04  0.50400001928E-02 0.  1.
    10030    2    1    2    0    0  0.00000000000E+00  0.00000000000E+00 -0.38139605313E+03  0.17576513580E+04  0.17157725219E+04 0.  0.
        5    1    3    3  502    0 -0.25776511528E+03 -0.50717754974E+03  0.46706042006E+03  0.73609744437E+03  0.46999998093E+01 0. -1.
       -5    1    3    3    0  502  0.25776511528E+03  0.50717754974E+03 -0.84845647319E+03  0.10215539137E+04  0.46999998093E+01 0.  1.
</event>
<event>
 5   0  0.2785059E-04  0.1640787E+04  0.7818609E-02  0.8795875E-01
       -1   -1    0    0    0  501  0.00000000000E+00  0.00000000000E+00  0.98721750303E+03  0.98721750304E+03  0.50400001928E-02 0.  1.
        1   -1    0    0  501    0  0.00000000000E+00  0.00000000000E+00 -0.68176037487E+03  0.68176037489E+03  0.50400001928E-02 0. -1.
    10030    2    1    2    0    0  0.00000000000E+00  0.00000000000E+00  0.30545712815E+03  0.16689778779E+04  0.16407873415E+04 0.  0.
        5    1    3    3  502    0 -0.35306419553E+03  0.33211804093E+03 -0.52050930341E+03  0.71127262299E+03  0.46999998093E+01 0. -1.
       -5    1    3    3    0  502  0.35306419553E+03 -0.33211804093E+03  0.82596643156E+03  0.95770525494E+03  0.46999998093E+01 0.  1.
</event>
<event>
 5   0  0.5021349E-04  0.1708257E+04  0.7818609E-02  0.8756669E-01
        2   -1    0    0  501    0  0.00000000000E+00  0.00000000000E+00  0.14458301714E+04  0.14458301715E+04  0.25500000920E-02 0. -1.
       -2   -1    0    0    0  501  0.00000000000E+00  0.00000000000E+00 -0.50457899346E+03  0.50457899346E+03  0.25500000920E-02 0.  1.
    10030    2    1    2    0    0  0.00000000000E+00  0.00000000000E+00  0.94125117799E+03  0.19504091649E+04  0.17082570446E+04 0.  0.
        2    1    3    3  502    0  0.80060891444E+03  0.26816341127E+03  0.61794849746E+03  0.10463013880E+04  0.25500000920E-02 0.  1.
       -2    1    3    3    0  502 -0.80060891444E+03 -0.26816341127E+03  0.32330268053E+03  0.90410777691E+03  0.25500000920E-02 0. -1.
</event>
<event>
 5   0  0.2583422E-04  0.1582658E+04  0.7818609E-02  0.8831273E-01
       -1   -1    0    0    0  501  0.00000000000E+00  0.00000000000E+00  0.11019016968E+04  0.11019016968E+04  0.50400001928E-02 0.  1.
        1   -1    0    0  501    0  0.00000000000E+00  0.00000000000E+00 -0.56829187434E+03  0.56829187436E+03  0.50400001928E-02 0. -1.
    10030    2    1    2    0    0  0.00000000000E+00  0.00000000000E+00  0.53360982245E+03  0.16701935712E+04  0.15826582457E+04 0.  0.
        3    1    3    3  502    0 -0.23704354203E+03 -0.18846456334E+03 -0.50472145186E+03  0.58860197640E+03  0.10100000352E+00 0. -1.
       -3    1    3    3    0  502  0.23704354203E+03  0.18846456334E+03  0.10383312743E+04  0.10815915948E+04  0.10100000352E+00 0.  1.
</event>
<event>
 5   0  0.5299877E-04  0.1679975E+04  0.7818609E-02  0.8772868E-01
        2   -1    0    0  501    0  0.00000000000E+00  0.00000000000E+00  0.11576545129E+04  0.11576545129E+04  0.25500000920E-02 0. -1.
       -2   -1    0    0    0  501  0.00000000000E+00  0.00000000000E+00 -0.60949025287E+03  0.60949025287E+03  0.25500000920E-02 0.  1.
    10030    2    1    2    0    0  0.00000000000E+00  0.00000000000E+00  0.54816426003E+03  0.17671447658E+04  0.16799751686E+04 0.  0.
        3    1    3    3  502    0 -0.61281593606E+03  0.27620458141E+03 -0.25578812931E+03  0.71920784171E+03  0.10100000352E+00 0.  1.
       -3    1    3    3    0  502  0.61281593606E+03 -0.27620458141E+03  0.80395238934E+03  0.10479369241E+04  0.10100000352E+00 0. -1.
</event>
<event>
 5   0  0.1910750E-04  0.1706910E+04  0.7818609E-02  0.8757433E-01
       -3   -1    0    0    0  501  0.00000000000E+00  0.00000000000E+00  0.25457409493E+04  0.25457409513E+04  0.10100000352E+00 0.  1.
        3   -1    0    0  501    0  0.00000000000E+00  0.00000000000E+00 -0.28611917124E+03  0.28611918906E+03  0.10100000352E+00 0. -1.
    10030    2    1    2    0    0  0.00000000000E+00  0.00000000000E+00  0.22596217781E+04  0.28318601404E+04  0.17069098613E+04 0.  0.
        3    1    3    3  502    0 -0.51739236565E+03 -0.20947343435E+03  0.22009132347E+04  0.22705931068E+04  0.10100000352E+00 0.  1.
       -3    1    3    3    0  502  0.51739236565E+03  0.20947343435E+03  0.58708543380E+02  0.56126703359E+03  0.10100000352E+00 0. -1.
</event>
<event>
 5   0  0.5198430E-04  0.1701855E+04  0.7818609E-02  0.8760307E-01
        2   -1    0    0  501    0  0.00000000000E+00  0.00000000000E+00  0.11314263500E+04  0.11314263500E+04  0.25500000920E-02 0.  1.
       -2   -1    0    0    0  501  0.00000000000E+00  0.00000000000E+00 -0.63996873882E+03  0.63996873882E+03  0.25500000920E-02 0. -1.
    10030    2    1    2    0    0  0.00000000000E+00  0.00000000000E+00  0.49145761120E+03  0.17713950888E+04  0.17018548637E+04 0.  0.
        4    1    3    3  502    0  0.57344168837E+03 -0.16167285437E+02 -0.40842517840E+03  0.70420841398E+03  0.12699999809E+01 0. -1.
       -4    1    3    3    0  502 -0.57344168837E+03  0.16167285437E+02  0.89988278960E+03  0.10671866749E+04  0.12699999809E+01 0.  1.
</event>
<event>
 5   0  0.5198430E-04  0.1694288E+04  0.7818609E-02  0.8764629E-01
        2   -1    0    0  501    0  0.00000000000E+00  0.00000000000E+00  0.19068217653E+04  0.19068217653E+04  0.25500000920E-02 0. -1.
       -2   -1    0    0    0  501  0.00000000000E+00  0.00000000000E+00 -0.37636072534E+03  0.37636072535E+03  0.25500000920E-02 0.  1.
    10030    2    1    2    0    0  0.00000000000E+00  0.00000000000E+00  0.15304610400E+04  0.22831824907E+04  0.16942878418E+04 0.  0.
        4    1    3    3  502    0  0.82078103834E+03  0.68187831840E+01  0.10476537547E+04  0.13309049595E+04  0.12699999809E+01 0.  1.
       -4    1    3    3    0  502 -0.82078103834E+03 -0.68187831840E+01  0.48280728530E+03  0.95227753115E+03  0.12699999809E+01 0. -1.
</event>
<event>
 5   0  0.2595644E-04  0.1700697E+04  0.7818609E-02  0.8760967E-01
        1   -1    0    0  501    0  0.00000000000E+00  0.00000000000E+00  0.14198215033E+04  0.14198215033E+04  0.50400001928E-02 0.  1.
       -1   -1    0    0    0  501  0.00000000000E+00  0.00000000000E+00 -0.50928442549E+03  0.50928442551E+03  0.50400001928E-02 0. -1.
    10030    2    1    2    0    0  0.00000000000E+00  0.00000000000E+00  0.91053707783E+03  0.19291059288E+04  0.17006974789E+04 0.  0.
        2    1    3    3  502    0 -0.67841030245E+03  0.50927592954E+03  0.38825372388E+03  0.93292200370E+03  0.25500000920E-02 0.  1.
       -2    1    3    3    0  502  0.67841030245E+03 -0.50927592954E+03  0.52228335395E+03  0.99618392513E+03  0.25500000920E-02 0. -1.
</event>
<event>
 5   0  0.5310003E-04  0.1702681E+04  0.7818609E-02  0.8759837E-01
       -2   -1    0    0    0  501  0.00000000000E+00  0.00000000000E+00  0.99492048002E+03  0.99492048002E+03  0.25500000920E-02 0. -1.
        2   -1    0    0  501    0  0.00000000000E+00  0.00000000000E+00 -0.72848069709E+03  0.72848069709E+03  0.25500000920E-02 0.  1.
    10030    2    1    2    0    0  0.00000000000E+00  0.00000000000E+00  0.26643978293E+03  0.17234011771E+04  0.17026806686E+04 0.  0.
        1    1    3    3  502    0  0.50427828583E+03 -0.20734624649E+03  0.79500474791E+03  0.96401328036E+03  0.50400001928E-02 0. -1.
       -1    1    3    3    0  502 -0.50427828583E+03  0.20734624649E+03 -0.52856496498E+03  0.75938789675E+03  0.50400001928E-02 0.  1.
</event>
<event>
 5   0  0.2630135E-04  0.1700853E+04  0.7818609E-02  0.8760878E-01
       -1   -1    0    0    0  501  0.00000000000E+00  0.00000000000E+00  0.46086142872E+03  0.46086142874E+03  0.50400001928E-02 0. -1.
        1   -1    0    0  501    0  0.00000000000E+00  0.00000000000E+00 -0.15692907348E+04  0.15692907348E+04  0.50400001928E-02 0.  1.
    10030    2    1    2    0    0  0.00000000000E+00  0.00000000000E+00 -0.11084293061E+04  0.20301521635E+04  0.17008533977E+04 0.  0.
        1    1    3    3  502    0 -0.18334976800E+03 -0.82992964008E+03 -0.58850311067E+03  0.10337970092E+04  0.50400001928E-02 0. -1.
       -1    1    3    3    0  502  0.18334976800E+03  0.82992964008E+03 -0.51992619539E+03  0.99635515435E+03  0.50400001928E-02 0.  1.
</event>
<event>
 5   0  0.2785059E-04  0.1732836E+04  0.7818609E-02  0.8742855E-01
       -1   -1    0    0    0  501  0.00000000000E+00  0.00000000000E+00  0.70579013418E+03  0.70579013420E+03  0.50400001928E-02 0. -1.
        1   -1    0    0  501    0  0.00000000000E+00  0.00000000000E+00 -0.10636023425E+04  0.10636023425E+04  0.50400001928E-02 0.  1.
    10030    2    1    2    0    0  0.00000000000E+00  0.00000000000E+00 -0.35781220829E+03  0.17693924767E+04  0.17328358722E+04 0.  0.
        5    1    3    3  502    0 -0.61454652390E+03 -0.10385295790E+03  0.43562520873E+03  0.76042374989E+03  0.46999998093E+01 0. -1.
       -5    1    3    3    0  502  0.61454652390E+03  0.10385295790E+03 -0.79343741702E+03  0.10089687268E+04  0.46999998093E+01 0.  1.
</event>
<event>
 5   0  0.5310003E-04  0.1693275E+04  0.7818609E-02  0.8765209E-01
       -2   -1    0    0    0  501  0.00000000000E+00  0.00000000000E+00  0.67153776835E+03  0.67153776836E+03  0.25500000920E-02 0. -1.
        2   -1    0    0  501    0  0.00000000000E+00  0.00000000000E+00 -0.10673934497E+04  0.10673934498E+04  0.25500000920E-02 0.  1.
    10030    2    1    2    0    0  0.00000000000E+00  0.00000000000E+00 -0.39585568139E+03  0.17389312181E+04  0.16932749513E+04 0.  0.
        1    1    3    3  502    0 -0.36910606084E+03  0.30479182724E+03  0.51922620266E+03  0.70621044431E+03  0.50400001928E-02 0. -1.
       -1    1    3    3    0  502  0.36910606084E+03 -0.30479182724E+03 -0.91508188405E+03  0.10327207738E+04  0.50400001928E-02 0.  1.
</event>
<event>
 5   0  0.2785059E-04  0.1756762E+04  0.7818609E-02  0.8729637E-01
       -1   -1    0    0    0  501  0.00000000000E+00  0.00000000000E+00  0.71138488826E+03  0.71138488827E+03  0.50400001928E-02 0.  1.
        1   -1    0    0  501    0  0.00000000000E+00  0.00000000000E+00 -0.10845787335E+04  0.10845787335E+04  0.50400001928E-02 0. -1.
    10030    2    1    2    0    0  0.00000000000E+00  0.00000000000E+00 -0.37319384526E+03  0.17959636218E+04  0.17567617040E+04 0.  0.
        5    1    3    3  502    0  0.62738728349E+01  0.87834529673E+03 -0.18556980740E+03  0.89776838059E+03  0.46999998093E+01 0. -1.
       -5    1    3    3    0  502 -0.62738728349E+01 -0.87834529673E+03 -0.18762403786E+03  0.89819524122E+03  0.46999998093E+01 0.  1.
</event>
<event>
 5   0  0.2583422E-04  0.1727632E+04  0.7818609E-02  0.8745760E-01
       -1   -1    0    0    0  501  0.00000000000E+00  0.00000000000E+00  0.85971795039E+03  0.85971795041E+03  0.50400001928E-02 0.  1.
        1   -1    0    0  501    0  0.00000000000E+00  0.00000000000E+00 -0.86793355864E+03  0.86793355865E+03  0.50400001928E-02 0. -1.
    10030    2    1    2    0    0  0.00000000000E+00  0.00000000000E+00 -0.82156082410E+01  0.17276515091E+04  0.17276319749E+04 0.  0.
        3    1    3    3  502    0 -0.28617467612E+03  0.68439151376E+03 -0.44670783850E+03  0.86593047789E+03  0.10100000352E+00 0.  1.
       -3    1    3    3    0  502  0.28617467612E+03 -0.68439151376E+03  0.43849223026E+03  0.86172103117E+03  0.10100000352E+00 0. -1.
</event>
<event>
 5   0  0.2561518E-04  0.1723101E+04  0.7818609E-02  0.8748298E-01
       -1   -1    0    0    0  501  0.00000000000E+00  0.00000000000E+00  0.10521090522E+04  0.10521090522E+04  0.50400001928E-02 0.  1.
        1   -1    0    0  501    0  0.00000000000E+00  0.00000000000E+00 -0.70550592810E+03  0.70550592812E+03  0.50400001928E-02 0. -1.
    10030    2    1    2    0    0  0.00000000000E+00  0.00000000000E+00  0.34660312409E+03  0.17576149803E+04  0.17231008947E+04 0.  0.
        4    1    3    3  502    0  0.60466432749E+03  0.43083475610E+03 -0.27252285787E+03  0.79089054677E+03  0.12699999809E+01 0. -1.
       -4    1    3    3    0  502 -0.60466432749E+03 -0.43083475610E+03  0.61912598196E+03  0.96672443356E+03  0.12699999809E+01 0.  1.
</event>
<event>
 5   0  0.5342255E-04  0.1704134E+04  0.7818609E-02  0.8759010E-01
       -2   -1    0    0    0  501  0.00000000000E+00  0.00000000000E+00  0.41609999460E+03  0.41609999461E+03  0.25500000920E-02 0. -1.
        2   -1    0    0  501    0  0.00000000000E+00  0.00000000000E+00 -0.17448162661E+04  0.17448162661E+04  0.25500000920E-02 0.  1.
    10030    2    1    2    0    0  0.00000000000E+00  0.00000000000E+00 -0.13287162715E+04  0.21609162607E+04  0.17041338432E+04 0.  0.
        5    1    3    3  502    0  0.45895797756E+03  0.21658636033E+03  0.20352853277E+03  0.54680712349E+03  0.46999998093E+01 0. -1.
       -5    1    3    3    0  502 -0.45895797756E+03 -0.21658636033E+03 -0.15322448042E+04  0.16141091372E+04  0.46999998093E+01 0.  1.
</event>
<event>
 5   0  0.5310003E-04  0.1699954E+04  0.7818609E-02  0.8761390E-01
        2   -1    0    0  501    0  0.00000000000E+00  0.00000000000E+00  0.14049235143E+04  0.14049235143E+04  0.25500000920E-02 0.  1.
       -2   -1    0    0    0  501  0.00000000000E+00  0.00000000000E+00 -0.51423521823E+03  0.51423521823E+03  0.25500000920E-02 0. -1.
    10030    2    1    2    0    0  0.00000000000E+00  0.00000000000E+00  0.89068829607E+03  0.19191587325E+04  0.16999542935E+04 0.  0.
        1    1    3    3  502    0 -0.49920048063E+03  0.68505058475E+03  0.51643848818E+03  0.99257449878E+03  0.50400001928E-02 0. -1.
       -1    1    3    3    0  502  0.49920048063E+03 -0.68505058475E+03  0.37424980789E+03  0.92658423376E+03  0.50400001928E-02 0.  1.
</event>
<event>
 5   0  0.2595644E-04  0.1692937E+04  0.7818609E-02  0.8765403E-01
        1   -1    0    0  501    0  0.00000000000E+00  0.00000000000E+00  0.12782150816E+04  0.12782150816E+04  0.50400001928E-02 0.  1.
       -1   -1    0    0    0  501  0.00000000000E+00  0.00000000000E+00 -0.56055419471E+03  0.56055419473E+03  0.50400001928E-02 0. -1.
    10030    2    1    2    0    0  0.00000000000E+00  0.00000000000E+00  0.71766088686E+03  0.18387692763E+04  0.16929368869E+04 0.  0.
        2    1    3    3  502    0  0.59280137761E+03 -0.60386795594E+03  0.38158360038E+03  0.92826506214E+03  0.25500000920E-02 0. -1.
       -2    1    3    3    0  502 -0.59280137761E+03  0.60386795594E+03  0.33607728647E+03  0.91050421416E+03  0.25500000920E-02 0.  1.
</event>
<event>
 5   0  0.2785059E-04  0.1761349E+04  0.7818609E-02  0.8727128E-01
        1   -1    0    0  501    0  0.00000000000E+00  0.00000000000E+00  0.83285236849E+03  0.83285236851E+03  0.50400001928E-02 0. -1.
       -1   -1    0    0    0  501  0.00000000000E+00  0.00000000000E+00 -0.93124284847E+03  0.93124284848E+03  0.50400001928E-02 0.  1.
    10030    2    1    2    0    0  0.00000000000E+00  0.00000000000E+00 -0.98390479974E+02  0.17640952170E+04  0.17613492692E+04 0.  0.
        5    1    3    3  502    0  0.75296755718E+03 -0.29041221460E+02  0.40732474401E+03  0.85658570604E+03  0.46999998093E+01 0. -1.
       -5    1    3    3    0  502 -0.75296755718E+03  0.29041221460E+02 -0.50571522398E+03  0.90750951095E+03  0.46999998093E+01 0.  1.
</event>
<event>
 5   0  0.5299877E-04  0.1710720E+04  0.7818609E-02  0.8755274E-01
       -2   -1    0    0    0  501  0.00000000000E+00  0.00000000000E+00  0.46258134911E+03  0.46258134912E+03  0.25500000920E-02 0. -1.
        2   -1    0    0  501    0  0.00000000000E+00  0.00000000000E+00 -0.15816483248E+04  0.15816483248E+04  0.25500000920E-02 0.  1.
    10030    2    1    2    0    0  0.00000000000E+00  0.00000000000E+00 -0.11190669757E+04  0.20442296739E+04  0.17107203347E+04 0.  0.
        3    1    3    3  502    0 -0.58107060960E+03  0.41075727661E+03 -0.11266973233E+04  0.13325957610E+04  0.10100000352E+00 0.  1.
       -3    1    3    3    0  502  0.58107060960E+03 -0.41075727661E+03  0.76303476314E+01  0.71163391293E+03  0.10100000352E+00 0. -1.
</event>
<event>
 5   0  0.5310003E-04  0.1691101E+04  0.7818609E-02  0.8766456E-01
        2   -1    0    0  501    0  0.00000000000E+00  0.00000000000E+00  0.49902959211E+03  0.49902959212E+03  0.25500000920E-02 0.  1.
       -2   -1    0    0    0  501  0.00000000000E+00  0.00000000000E+00 -0.14326923956E+04  0.14326923956E+04  0.25500000920E-02 0. -1.
    10030    2    1    2    0    0  0.00000000000E+00  0.00000000000E+00 -0.93366280351E+03  0.19317219877E+04  0.16911013001E+04 0.  0.
        1    1    3    3  502    0 -0.23338551995E+03 -0.18533861471E+03  0.43704610571E+03  0.52898818660E+03  0.50400001928E-02 0.  1.
       -1    1    3    3    0  502  0.23338551995E+03  0.18533861471E+03 -0.13707089092E+04  0.14027338011E+04  0.50400001928E-02 0. -1.
</event>
<event>
 5   0  0.2785059E-04  0.1756393E+04  0.7818609E-02  0.8729839E-01
       -1   -1    0    0    0  501  0.00000000000E+00  0.00000000000E+00  0.77817051216E+03  0.77817051218E+03  0.50400001928E-02 0. -1.
        1   -1    0    0  501    0  0.00000000000E+00  0.00000000000E+00 -0.99108022129E+03  0.99108022131E+03  0.50400001928E-02 0.  1.
    10030    2    1    2    0    0  0.00000000000E+00  0.00000000000E+00 -0.21290970913E+03  0.17692507335E+04  0.17563933539E+04 0.  0.
        5    1    3    3  502    0 -0.56550091963E+03 -0.50940847434E+03  0.33483771889E+03  0.83152069838E+03  0.46999998093E+01 0. -1.
       -5    1    3    3    0  502  0.56550091963E+03  0.50940847434E+03 -0.54774742803E+03  0.93773003511E+03  0.46999998093E+01 0.  1.
</event>
<event>
 5   0  0.2595644E-04  0.1691289E+04  0.7818609E-02  0.8766348E-01
        1   -1    0    0  501    0  0.00000000000E+00  0.00000000000E+00  0.47799951632E+03  0.47799951635E+03  0.50400001928E-02 0. -1.
       -1   -1    0    0    0  501  0.00000000000E+00  0.00000000000E+00 -0.14960565097E+04  0.14960565097E+04  0.50400001928E-02 0.  1.
    10030    2    1    2    0    0  0.00000000000E+00  0.00000000000E+00 -0.10180569934E+04  0.19740560261E+04  0.16912886070E+04 0.  0.
        2    1    3    3  502    0 -0.66649206151E+03  0.22015868840E+03  0.41450987566E+02  0.70313562028E+03  0.25500000920E-02 0. -1.
       -2    1    3    3    0  502  0.66649206151E+03 -0.22015868840E+03 -0.10595079810E+04  0.12709204058E+04  0.25500000920E-02 0.  1.
</event>
<event>
 5   0  0.2785059E-04  0.1401422E+04  0.7818609E-02  0.8952790E-01
        1   -1    0    0  501    0  0.00000000000E+00  0.00000000000E+00  0.31524708834E+03  0.31524708838E+03  0.50400001928E-02 0. -1.
       -1   -1    0    0    0  501  0.00000000000E+00  0.00000000000E+00 -0.15574951381E+04  0.15574951381E+04  0.50400001928E-02 0.  1.
    10030    2    1    2    0    0  0.00000000000E+00  0.00000000000E+00 -0.12422480498E+04  0.18727422265E+04  0.14014218600E+04 0.  0.
        5    1    3    3  502    0 -0.17892433340E+03  0.41533070122E+03 -0.13363466885E+04  0.14108005070E+04  0.46999998093E+01 0.  1.
       -5    1    3    3    0  502  0.17892433340E+03 -0.41533070122E+03  0.94098638753E+02  0.46194171957E+03  0.46999998093E+01 0. -1.
</event>
<event>
 5   0  0.2595644E-04  0.1674451E+04  0.7818609E-02  0.8776072E-01
       -1   -1    0    0    0  501  0.00000000000E+00  0.00000000000E+00  0.61741635212E+03  0.61741635215E+03  0.50400001928E-02 0. -1.
        1   -1    0    0  501    0  0.00000000000E+00  0.00000000000E+00 -0.11352892173E+04  0.11352892173E+04  0.50400001928E-02 0.  1.
    10030    2    1    2    0    0  0.00000000000E+00  0.00000000000E+00 -0.51787286515E+03  0.17527055694E+04  0.16744505095E+04 0.  0.
        2    1    3    3  502    0 -0.41534884217E+03  0.15150669517E+03  0.48525973823E+03  0.65646473853E+03  0.25500000920E-02 0. -1.
       -2    1    3    3    0  502  0.41534884217E+03 -0.15150669517E+03 -0.10031326034E+04  0.10962408309E+04  0.25500000920E-02 0.  1.
</event>
<event>
 5   0  0.2785059E-04  0.1731042E+04  0.7818609E-02  0.8743856E-01
        1   -1    0    0  501    0  0.00000000000E+00  0.00000000000E+00  0.10425450549E+04  0.10425450550E+04  0.50400001928E-02 0.  1.
       -1   -1    0    0    0  501  0.00000000000E+00  0.00000000000E+00 -0.71855533725E+03  0.71855533726E+03  0.50400001928E-02 0. -1.
    10030    2    1    2    0    0  0.00000000000E+00  0.00000000000E+00  0.32398971770E+03  0.17611003922E+04  0.17310416674E+04 0.  0.
        5    1    3    3  502    0 -0.29321277146E+03 -0.34464183521E+03 -0.58861921449E+03  0.74245969156E+03  0.46999998093E+01 0. -1.
       -5    1    3    3    0  502  0.29321277146E+03  0.34464183521E+03  0.91260893219E+03  0.10186407007E+04  0.46999998093E+01 0.  1.
</event>
<event>
 5   0  0.2595644E-04  0.1706163E+04  0.7818609E-02  0.8757857E-01
        1   -1    0    0  501    0  0.00000000000E+00  0.00000000000E+00  0.23250304861E+04  0.23250304861E+04  0.50400001928E-02 0. -1.
       -1   -1    0    0    0  501  0.00000000000E+00  0.00000000000E+00 -0.31300574597E+03  0.31300574601E+03  0.50400001928E-02 0.  1.
    10030    2    1    2    0    0  0.00000000000E+00  0.00000000000E+00  0.20120247401E+04  0.26380362321E+04  0.17061628313E+04 0.  0.
        2    1    3    3  502    0 -0.39698113786E+03 -0.74367587125E+03  0.12082021993E+04  0.14732278777E+04  0.25500000920E-02 0. -1.
       -2    1    3    3    0  502  0.39698113786E+03  0.74367587125E+03  0.80382254086E+03  0.11648083544E+04  0.25500000920E-02 0.  1.
</event>
<event>
 5   0  0.5299877E-04  0.1702394E+04  0.7818609E-02  0.8760000E-01
       -2   -1    0    0    0  501  0.00000000000E+00  0.00000000000E+00  0.74942941495E+03  0.74942941496E+03  0.25500000920E-02 0. -1.
        2   -1    0    0  501    0  0.00000000000E+00  0.00000000000E+00 -0.96678371522E+03  0.96678371522E+03  0.25500000920E-02 0.  1.
    10030    2    1    2    0    0  0.00000000000E+00  0.00000000000E+00 -0.21735430026E+03  0.17162131302E+04  0.17023937900E+04 0.  0.
        3    1    3    3  502    0  0.80899641019E+03  0.13724022695E+03  0.11949189394E+03  0.82920949977E+03  0.10100000352E+00 0. -1.
       -3    1    3    3    0  502 -0.80899641019E+03 -0.13724022695E+03 -0.33684619420E+03  0.88700363040E+03  0.10100000352E+00 0.  1.
</event>
<event>
 5   0  0.5021349E-04  0.1707104E+04  0.7818609E-02  0.8757323E-01
        2   -1    0    0  501    0  0.00000000000E+00  0.00000000000E+00  0.65976246139E+03  0.65976246140E+03  0.25500000920E-02 0. -1.
       -2   -1    0    0    0  501  0.00000000000E+00  0.00000000000E+00 -0.11042627832E+04  0.11042627832E+04  0.25500000920E-02 0.  1.
    10030    2    1    2    0    0  0.00000000000E+00  0.00000000000E+00 -0.44450032181E+03  0.17640252446E+04  0.17071041349E+04 0.  0.
        2    1    3    3  502    0 -0.43490375297E+03  0.21314142533E+03 -0.94852286819E+03  0.10650193299E+04  0.25500000920E-02 0.  1.
       -2    1    3    3    0  502  0.43490375297E+03 -0.21314142533E+03  0.50402254638E+03  0.69900591472E+03  0.25500000920E-02 0. -1.
</event>
<event>
 5   0  0.5310003E-04  0.1689464E+04  0.7818609E-02  0.8767397E-01
       -2   -1    0    0    0  501  0.00000000000E+00  0.00000000000E+00  0.86012765334E+03  0.86012765334E+03  0.25500000920E-02 0.  1.
        2   -1    0    0  501    0  0.00000000000E+00  0.00000000000E+00 -0.82961143498E+03  0.82961143498E+03  0.25500000920E-02 0. -1.
    10030    2    1    2    0    0  0.00000000000E+00  0.00000000000E+00  0.30516218361E+02  0.16897390883E+04  0.16894635086E+04 0.  0.
        1    1    3    3  502    0  0.40186522409E+03 -0.73891059462E+03 -0.62775201483E+02  0.84346028426E+03  0.50400001928E-02 0. -1.
       -1    1    3    3    0  502 -0.40186522409E+03  0.73891059462E+03  0.93291419845E+02  0.84627880407E+03  0.50400001928E-02 0.  1.
</event>
<event>
 5   0  0.2595644E-04  0.1701696E+04  0.7818609E-02  0.8760398E-01
        1   -1    0    0  501    0  0.00000000000E+00  0.00000000000E+00  0.10817799606E+04  0.10817799607E+04  0.50400001928E-02 0.  1.
       -1   -1    0    0    0  501  0.00000000000E+00  0.00000000000E+00 -0.66921364580E+03  0.66921364581E+03  0.50400001928E-02 0. -1.
    10030    2    1    2    0    0  0.00000000000E+00  0.00000000000E+00  0.41256631485E+03  0.17509936065E+04  0.17016955209E+04 0.  0.
        2    1    3    3  502    0 -0.28543715596E+03 -0.71681081517E+03 -0.16278557792E+03  0.78853741772E+03  0.25500000920E-02 0. -1.
       -2    1    3    3    0  502  0.28543715596E+03  0.71681081517E+03  0.57535189277E+03  0.96245618875E+03  0.25500000920E-02 0.  1.
</event>
<event>
 5   0  0.5198430E-04  0.1712985E+04  0.7818609E-02  0.8753993E-01
       -2   -1    0    0    0  501  0.00000000000E+00  0.00000000000E+00  0.54469399240E+03  0.54469399240E+03  0.25500000920E-02 0. -1.
        2   -1    0    0  501    0  0.00000000000E+00  0.00000000000E+00 -0.13467731335E+04  0.13467731335E+04  0.25500000920E-02 0.  1.
    10030    2    1    2    0    0  0.00000000000E+00  0.00000000000E+00 -0.80207914113E+03  0.18914671259E+04  0.17129848043E+04 0.  0.
        4    1    3    3  502    0 -0.10625732422E+03 -0.37253925421E+03 -0.12445030406E+04  0.13034053651E+04  0.12699999809E+01 0.  1.
       -4    1    3    3    0  502  0.10625732422E+03  0.37253925421E+03  0.44242389943E+03  0.58806176084E+03  0.12699999809E+01 0. -1.
</event>
<event>
 5   0  0.2630135E-04  0.1687069E+04  0.7818609E-02  0.8768774E-01
        1   -1    0    0  501    0  0.00000000000E+00  0.00000000000E+00  0.67257574525E+03  0.67257574527E+03  0.50400001928E-02 0. -1.
       -1   -1    0    0    0  501  0.00000000000E+00  0.00000000000E+00 -0.10579480881E+04  0.10579480881E+04  0.50400001928E-02 0.  1.
    10030    2    1    2    0    0  0.00000000000E+00  0.00000000000E+00 -0.38537234285E+03  0.17305238334E+04  0.16870687287E+04 0.  0.
        1    1    3    3  502    0  0.60533034029E+03  0.49489152745E+03  0.13202372690E+03  0.79295189596E+03  0.50400001928E-02 0. -1.
       -1    1    3    3    0  502 -0.60533034029E+03 -0.49489152745E+03 -0.51739606975E+03  0.93757193742E+03  0.50400001928E-02 0.  1.
</event>
<event>
 5   0  0.2561518E-04  0.1637393E+04  0.7818609E-02  0.8797900E-01
        1   -1    0    0  501    0  0.00000000000E+00  0.00000000000E+00  0.10020399670E+04  0.10020399670E+04  0.50400001928E-02 0. -1.
       -1   -1    0    0    0  501  0.00000000000E+00  0.00000000000E+00 -0.66889903330E+03  0.66889903332E+03  0.50400001928E-02 0.  1.
    10030    2    1    2    0    0  0.00000000000E+00  0.00000000000E+00  0.33314093370E+03  0.16709390003E+04  0.16373925189E+04 0.  0.
        4    1    3    3  502    0 -0.59969168167E+03 -0.26874843468E+03 -0.33170154359E+03  0.73612727237E+03  0.12699999809E+01 0.  1.
       -4    1    3    3    0  502  0.59969168167E+03  0.26874843468E+03  0.66484247729E+03  0.93481172795E+03  0.12699999809E+01 0. -1.
</event>
<event>
 5   0  0.5299877E-04  0.1676995E+04  0.7818609E-02  0.8774595E-01
       -2   -1    0    0    0  501  0.00000000000E+00  0.00000000000E+00  0.15060981448E+04  0.15060981448E+04  0.25500000920E-02 0.  1.
        2   -1    0    0  501    0  0.00000000000E+00  0.00000000000E+00 -0.46682089199E+03  0.46682089199E+03  0.25500000920E-02 0. -1.
    10030    2    1    2    0    0  0.00000000000E+00  0.00000000000E+00  0.10392772528E+04  0.19729190368E+04  0.16769950261E+04 0.  0.
        3    1    3    3  502    0 -0.52726880233E+03 -0.55899655591E+03  0.12488642300E+03  0.77851536162E+03  0.10100000352E+00 0. -1.
       -3    1    3    3    0  502  0.52726880233E+03  0.55899655591E+03  0.91439082983E+03  0.11944036752E+04  0.10100000352E+00 0.  1.
</event>
<event>
 5   0  0.2785059E-04  0.1695430E+04  0.7818609E-02  0.8763975E-01
        1   -1    0    0  501    0  0.00000000000E+00  0.00000000000E+00  0.10055565285E+04  0.10055565285E+04  0.50400001928E-02 0.  1.
       -1   -1    0    0    0  501  0.00000000000E+00  0.00000000000E+00 -0.71464933445E+03  0.71464933447E+03  0.50400001928E-02 0. -1.
    10030    2    1    2    0    0  0.00000000000E+00  0.00000000000E+00  0.29090719408E+03  0.17202058630E+04  0.16954295077E+04 0.  0.
        5    1    3    3  502    0 -0.27702819357E+02 -0.17851117726E+03 -0.69487958947E+03  0.71799263260E+03  0.46999998093E+01 0. -1.
       -5    1    3    3    0  502  0.27702819357E+02  0.17851117726E+03  0.98578678354E+03  0.10022132304E+04  0.46999998093E+01 0.  1.
</event>
<event>
 5   0  0.5299877E-04  0.1699834E+04  0.7818609E-02  0.8761459E-01
        2   -1    0    0  501    0  0.00000000000E+00  0.00000000000E+00  0.22753725061E+04  0.22753725061E+04  0.25500000920E-02 0. -1.
       -2   -1    0    0    0  501  0.00000000000E+00  0.00000000000E+00 -0.31746835804E+03  0.31746835805E+03  0.25500000920E-02 0.  1.
    10030    2    1    2    0    0  0.00000000000E+00  0.00000000000E+00  0.19579041481E+04  0.25928408642E+04  0.16998338430E+04 0.  0.
        3    1    3    3  502    0  0.35003249817E+03  0.45137392340E+03  0.18953708287E+02  0.57150714935E+03  0.10100000352E+00 0.  1.
       -3    1    3    3    0  502 -0.35003249817E+03 -0.45137392340E+03  0.19389504398E+04  0.20213337148E+04  0.10100000352E+00 0. -1.
</event>
<event>
 5   0  0.2561518E-04  0.1696027E+04  0.7818609E-02  0.8763633E-01
        1   -1    0    0  501    0  0.00000000000E+00  0.00000000000E+00  0.95235424179E+03  0.95235424180E+03  0.50400001928E-02 0. -1.
       -1   -1    0    0    0  501  0.00000000000E+00  0.00000000000E+00 -0.75510464549E+03  0.75510464551E+03  0.50400001928E-02 0.  1.
    10030    2    1    2    0    0  0.00000000000E+00  0.00000000000E+00  0.19724959629E+03  0.17074588873E+04  0.16960272547E+04 0.  0.
        4    1    3    3  502    0 -0.56446180902E+03  0.13864170429E+03  0.72027107694E+03  0.92554345829E+03  0.12699999809E+01 0. -1.
       -4    1    3    3    0  502  0.56446180902E+03 -0.13864170429E+03 -0.52302148064E+03  0.78191542902E+03  0.12699999809E+01 0.  1.
</event>
<event>
 5   0  0.2785059E-04  0.1695432E+04  0.7818609E-02  0.8763974E-01
       -1   -1    0    0    0  501  0.00000000000E+00  0.00000000000E+00  0.59210732523E+03  0.59210732525E+03  0.50400001928E-02 0. -1.
        1   -1    0    0  501    0  0.00000000000E+00  0.00000000000E+00 -0.12136687532E+04  0.12136687532E+04  0.50400001928E-02 0.  1.
    10030    2    1    2    0    0  0.00000000000E+00  0.00000000000E+00 -0.62156142798E+03  0.18057760785E+04  0.16954316963E+04 0.  0.
        5    1    3    3  502    0 -0.54197339233E+03  0.61418714670E+03 -0.78311638014E+02  0.82287047086E+03  0.46999998093E+01 0.  1.
       -5    1    3    3    0  502  0.54197339233E+03 -0.61418714670E+03 -0.54324978997E+03  0.98290560761E+03  0.46999998093E+01 0. -1.
</event>
<event>
 5   0  0.5342255E-04  0.1674496E+04  0.7818609E-02  0.8776045E-01
        2   -1    0    0  501    0  0.00000000000E+00  0.00000000000E+00  0.57538320662E+03  0.57538320663E+03  0.25500000920E-02 0. -1.
       -2   -1    0    0    0  501  0.00000000000E+00  0.00000000000E+00 -0.12182907646E+04  0.12182907646E+04  0.25500000920E-02 0.  1.
    10030    2    1    2    0    0  0.00000000000E+00  0.00000000000E+00 -0.64290755801E+03  0.17936739713E+04  0.16744958008E+04 0.  0.
        5    1    3    3  502    0  0.80259138760E+03  0.23725949308E+03 -0.29709892690E+03  0.88810746246E+03  0.46999998093E+01 0.  1.
       -5    1    3    3    0  502 -0.80259138760E+03 -0.23725949308E+03 -0.34580863110E+03  0.90556650880E+03  0.46999998093E+01 0. -1.
</event>
<event>
 5   0  0.2630135E-04  0.1735244E+04  0.7818609E-02  0.8741515E-01
       -1   -1    0    0    0  501  0.00000000000E+00  0.00000000000E+00  0.86162134650E+03  0.86162134651E+03  0.50400001928E-02 0. -1.
        1   -1    0    0  501    0  0.00000000000E+00  0.00000000000E+00 -0.87366471942E+03  0.87366471943E+03  0.50400001928E-02 0.  1.
    10030    2    1    2    0    0  0.00000000000E+00  0.00000000000E+00 -0.12043372920E+02  0.17352860659E+04  0.17352442732E+04 0.  0.
        1    1    3    3  502    0 -0.48849490306E+03 -0.71629586218E+03  0.26554233335E+02  0.86741694693E+03  0.50400001928E-02 0. -1.
       -1    1    3    3    0  502  0.48849490306E+03  0.71629586218E+03 -0.38597606255E+02  0.86786911901E+03  0.50400001928E-02 0.  1.
</event>
<event>
 5   0  0.5342255E-04  0.1711745E+04  0.7818609E-02  0.8754694E-01
       -2   -1    0    0    0  501  0.00000000000E+00  0.00000000000E+00  0.57365847579E+03  0.57365847580E+03  0.25500000920E-02 0. -1.
        2   -1    0    0  501    0  0.00000000000E+00  0.00000000000E+00 -0.12769228107E+04  0.12769228107E+04  0.25500000920E-02 0.  1.
    10030    2    1    2    0    0  0.00000000000E+00  0.00000000000E+00 -0.70326433487E+03  0.18505812865E+04  0.17117448330E+04 0.  0.
        5    1    3    3  502    0 -0.53942574603E+03 -0.65008600497E+03 -0.50027393845E+03  0.98177800588E+03  0.46999998093E+01 0. -1.
       -5    1    3    3    0  502  0.53942574603E+03  0.65008600497E+03 -0.20299039642E+03  0.86880328059E+03  0.46999998093E+01 0.  1.
</event>
<event>
 5   0  0.2595644E-04  0.1704320E+04  0.7818609E-02  0.8758904E-01
        1   -1    0    0  501    0  0.00000000000E+00  0.00000000000E+00  0.87887864629E+03  0.87887864630E+03  0.50400001928E-02 0.  1.
       -1   -1    0    0    0  501  0.00000000000E+00  0.00000000000E+00 -0.82625395059E+03  0.82625395061E+03  0.50400001928E-02 0. -1.
    10030    2    1    2    0    0  0.00000000000E+00  0.00000000000E+00  0.52624695693E+02  0.17051325969E+04  0.17043203380E+04 0.  0.
        2    1    3    3  502    0 -0.62095640165E+03 -0.51783475804E+03  0.29558233533E+03  0.86087664991E+03  0.25500000920E-02 0.  1.
       -2    1    3    3    0  502  0.62095640165E+03  0.51783475804E+03 -0.24295763964E+03  0.84425594701E+03  0.25500000920E-02 0. -1.
</event>
<event>
 5   0  0.2583422E-04  0.1625046E+04  0.7818609E-02  0.8805308E-01
        1   -1    0    0  501    0  0.00000000000E+00  0.00000000000E+00  0.14063750133E+04  0.14063750133E+04  0.50400001928E-02 0. -1.
       -1   -1    0    0    0  501  0.00000000000E+00  0.00000000000E+00 -0.46942906363E+03  0.46942906365E+03  0.50400001928E-02 0.  1.
    10030    2    1    2    0    0  0.00000000000E+00  0.00000000000E+00  0.93694594965E+03  0.18758040769E+04  0.16250456063E+04 0.  0.
        3    1    3    3  502    0 -0.52662667562E+03 -0.35993656802E+03 -0.11248183475E+03  0.64772074371E+03  0.10100000352E+00 0.  1.
       -3    1    3    3    0  502  0.52662667562E+03  0.35993656802E+03  0.10494277844E+04  0.12280833332E+04  0.10100000352E+00 0. -1.
</event>
<event>
 5   0  0.2785059E-04  0.1695815E+04  0.7818609E-02  0.8763755E-01
       -1   -1    0    0    0  501  0.00000000000E+00  0.00000000000E+00  0.48723806977E+03  0.48723806980E+03  0.50400001928E-02 0.  1.
        1   -1    0    0  501    0  0.00000000000E+00  0.00000000000E+00 -0.14755570010E+04  0.14755570010E+04  0.50400001928E-02 0. -1.
    10030    2    1    2    0    0  0.00000000000E+00  0.00000000000E+00 -0.98831893121E+03  0.19627950708E+04  0.16958154912E+04 0.  0.
        5    1    3    3  502    0 -0.47470325317E+02  0.75568113413E+03 -0.52483302747E+02  0.75900197321E+03  0.46999998093E+01 0.  1.
       -5    1    3    3    0  502  0.47470325317E+02 -0.75568113413E+03 -0.93583562846E+03  0.12037930976E+04  0.46999998093E+01 0. -1.
</event>
<event>
 5   0  0.5021349E-04  0.1668933E+04  0.7818609E-02  0.8779284E-01
        2   -1    0    0  501    0  0.00000000000E+00  0.00000000000E+00  0.12325239376E+04  0.12325239376E+04  0.25500000920E-02 0. -1.
       -2   -1    0    0    0  501  0.00000000000E+00  0.00000000000E+00 -0.56496590558E+03  0.56496590558E+03  0.25500000920E-02 0.  1.
    10030    2    1    2    0    0  0.00000000000E+00  0.00000000000E+00  0.66755803202E+03  0.17974898432E+04  0.16689325961E+04 0.  0.
        2    1    3    3  502    0 -0.50820525931E+03 -0.62928097468E+03  0.11287797759E+03  0.81670592536E+03  0.25500000920E-02 0.  1.
       -2    1    3    3    0  502  0.50820525931E+03  0.62928097468E+03  0.55468005443E+03  0.98078391783E+03  0.25500000920E-02 0. -1.
</event>
<event>
 5   0  0.5310003E-04  0.1716289E+04  0.7818609E-02  0.8752128E-01
       -2   -1    0    0    0  501  0.00000000000E+00  0.00000000000E+00  0.39963674000E+03  0.39963674001E+03  0.25500000920E-02 0. -1.
        2   -1    0    0  501    0  0.00000000000E+00  0.00000000000E+00 -0.18427039929E+04  0.18427039929E+04  0.25500000920E-02 0.  1.
    10030    2    1    2    0    0  0.00000000000E+00  0.00000000000E+00 -0.14430672529E+04  0.22423407329E+04  0.17162892723E+04 0.  0.
        1    1    3    3  502    0  0.95059343653E+02  0.55266168211E+03 -0.15701999784E+04  0.16673329559E+04  0.50400001928E-02 0.  1.
       -1    1    3    3    0  502 -0.95059343653E+02 -0.55266168211E+03  0.12713272550E+03  0.57500777700E+03  0.50400001928E-02 0. -1.
</event>
<event>
 5   0  0.2630135E-04  0.1713067E+04  0.7818609E-02  0.8753947E-01
       -1   -1    0    0    0  501  0.00000000000E+00  0.00000000000E+00  0.12710987661E+04  0.12710987662E+04  0.50400001928E-02 0.  1.
        1   -1    0    0  501    0  0.00000000000E+00  0.00000000000E+00 -0.57717752452E+03  0.57717752454E+03  0.50400001928E-02 0. -1.
    10030    2    1    2    0    0  0.00000000000E+00  0.00000000000E+00  0.69392124163E+03  0.18482762907E+04  0.17130670031E+04 0.  0.
        1    1    3    3  502    0 -0.22712677382E+03  0.64423681917E+03  0.90448781517E+03  0.11334574797E+04  0.50400001928E-02 0.  1.
       -1    1    3    3    0  502  0.22712677382E+03 -0.64423681917E+03 -0.21056657355E+03  0.71481881095E+03  0.50400001928E-02 0. -1.
</event>
<event>
 5   0  0.2583422E-04  0.1704697E+04  0.7818609E-02  0.8758690E-01
       -1   -1    0    0    0  501  0.00000000000E+00  0.00000000000E+00  0.10220542517E+04  0.10220542517E+04  0.50400001928E-02 0.  1.
        1   -1    0    0  501    0  0.00000000000E+00  0.00000000000E+00 -0.71082091860E+03  0.71082091861E+03  0.50400001928E-02 0. -1.
    10030    2    1    2    0    0  0.00000000000E+00  0.00000000000E+00  0.31123333311E+03  0.17328751703E+04  0.17046965033E+04 0.  0.
        3    1    3    3  502    0 -0.33500729922E+03  0.58142282071E+03  0.68986595482E+03  0.96239151742E+03  0.10100000352E+00 0.  1.
       -3    1    3    3    0  502  0.33500729922E+03 -0.58142282071E+03 -0.37863262171E+03  0.77048365291E+03  0.10100000352E+00 0. -1.
</event>
<event>
 5   0  0.2583422E-04  0.1697228E+04  0.7818609E-02  0.8762947E-01
        1   -1    0    0  501    0  0.00000000000E+00  0.00000000000E+00  0.11003315603E+04  0.11003315603E+04  0.50400001928E-02 0.  1.
       -1   -1    0    0    0  501  0.00000000000E+00  0.00000000000E+00 -0.65448032740E+03  0.65448032742E+03  0.50400001928E-02 0. -1.
    10030    2    1    2    0    0  0.00000000000E+00  0.00000000000E+00  0.44585123286E+03  0.17548118877E+04  0.16972275744E+04 0.  0.
        3    1    3    3  502    0  0.51391312783E+03  0.65643164878E+03  0.38684856504E+03  0.91905442437E+03  0.10100000352E+00 0.  1.
       -3    1    3    3    0  502 -0.51391312783E+03 -0.65643164878E+03  0.59002667824E+02  0.83575746332E+03  0.10100000352E+00 0. -1.
</event>
<event>
 5   0  0.2595644E-04  0.1681151E+04  0.7818609E-02  0.8772188E-01
        1   -1    0    0  501    0  0.00000000000E+00  0.00000000000E+00  0.82015992028E+03  0.82015992029E+03  0.50400001928E-02 0. -1.
       -1   -1    0    0    0  501  0.00000000000E+00  0.00000000000E+00 -0.86149896254E+03  0.86149896256E+03  0.50400001928E-02 0.  1.
    10030    2    1    2    0    0  0.00000000000E+00  0.00000000000E+00 -0.41339042264E+02  0.16816588829E+04  0.16811507017E+04 0.  0.
        2    1    3    3  502    0  0.20606211112E+03  0.78548857250E+03  0.19645145070E+03  0.83549210868E+03  0.25500000920E-02 0.  1.
       -2    1    3    3    0  502 -0.20606211112E+03 -0.78548857250E+03 -0.23779049296E+03  0.84616677418E+03  0.25500000920E-02 0. -1.
</event>
<event>
 5   0  0.5310003E-04  0.1648855E+04  0.7818609E-02  0.8791084E-01
        2   -1    0    0  501    0  0.00000000000E+00  0.00000000000E+00  0.21842818423E+04  0.21842818423E+04  0.25500000920E-02 0.  1.
       -2   -1    0    0    0  501  0.00000000000E+00  0.00000000000E+00 -0.31116903200E+03  0.31116903201E+03  0.25500000920E-02 0. -1.
    10030    2    1    2    0    0  0.00000000000E+00  0.00000000000E+00  0.18731128103E+04  0.24954508743E+04  0.16488551986E+04 0.  0.
        1    1    3    3  502    0 -0.57221909011E+03 -0.59332328168E+03  0.91443407021E+03  0.12311201698E+04  0.50400001928E-02 0. -1.
       -1    1    3    3    0  502  0.57221909011E+03  0.59332328168E+03  0.95867874006E+03  0.12643307045E+04  0.50400001928E-02 0.  1.
</event>
<event>
 5   0  0.5299877E-04  0.1646461E+04  0.7818609E-02  0.8792503E-01
       -2   -1    0    0    0  501  0.00000000000E+00  0.00000000000E+00  0.54267960774E+03  0.54267960775E+03  0.25500000920E-02 0.  1.
        2   -1    0    0  501    0  0.00000000000E+00  0.00000000000E+00 -0.12488189030E+04  0.12488189030E+04  0.25500000920E-02 0. -1.
    10030    2    1    2    0    0  0.00000000000E+00  0.00000000000E+00 -0.70613929526E+03  0.17914985108E+04  0.16464611170E+04 0.  0.
        3    1    3    3  502    0 -0.68632049906E+03  0.15488379267E+03  0.11199668676E+03  0.71243812694E+03  0.10100000352E+00 0.  1.
       -3    1    3    3    0  502  0.68632049906E+03 -0.15488379267E+03 -0.81813598202E+03  0.10790603838E+04  0.10100000352E+00 0. -1.
</event>
<event>
 5   0  0.2583422E-04  0.1685329E+04  0.7818609E-02  0.8769776E-01
       -1   -1    0    0    0  501  0.00000000000E+00  0.00000000000E+00  0.93647621746E+03  0.93647621748E+03  0.50400001928E-02 0. -1.
        1   -1    0    0  501    0  0.00000000000E+00  0.00000000000E+00 -0.75825084050E+03  0.75825084052E+03  0.50400001928E-02 0.  1.
    10030    2    1    2    0    0  0.00000000000E+00  0.00000000000E+00  0.17822537696E+03  0.16947270580E+04  0.16853294978E+04 0.  0.
        3    1    3    3  502    0  0.44965709975E+03  0.48175261575E+03  0.61721419845E+03  0.90290113917E+03  0.10100000352E+00 0. -1.
       -3    1    3    3    0  502 -0.44965709975E+03 -0.48175261575E+03 -0.43898882148E+03  0.79182591883E+03  0.10100000352E+00 0.  1.
</event>
<event>
 5   0  0.5198430E-04  0.1538817E+04  0.7818609E-02  0.8859043E-01
        2   -1    0    0  501    0  0.00000000000E+00  0.00000000000E+00  0.94514360524E+03  0.94514360524E+03  0.25500000920E-02 0.  1.
       -2   -1    0    0    0  501  0.00000000000E+00  0.00000000000E+00 -0.62634845508E+03  0.62634845508E+03  0.25500000920E-02 0. -1.
    10030    2    1    2    0    0  0.00000000000E+00  0.00000000000E+00  0.31879515016E+03  0.15714920603E+04  0.15388167363E+04 0.  0.
        4    1    3    3  502    0  0.17748404344E+03 -0.30742586819E+03  0.85651708754E+03  0.92716470180E+03  0.12699999809E+01 0.  1.
       -4    1    3    3    0  502 -0.17748404344E+03  0.30742586819E+03 -0.53772193738E+03  0.64432735853E+03  0.12699999809E+01 0. -1.
</event>
<event>
 5   0  0.2583422E-04  0.1696674E+04  0.7818609E-02  0.8763264E-01
        1   -1    0    0  501    0  0.00000000000E+00  0.00000000000E+00  0.15291575013E+04  0.15291575013E+04  0.50400001928E-02 0. -1.
       -1   -1    0    0    0  501  0.00000000000E+00  0.00000000000E+00 -0.47063528139E+03  0.47063528142E+03  0.50400001928E-02 0.  1.
    10030    2    1    2    0    0  0.00000000000E+00  0.00000000000E+00  0.10585222199E+04  0.19997927827E+04  0.16966737706E+04 0.  0.
        3    1    3    3  502    0 -0.55950571614E+02  0.82405057704E+03  0.75746293855E+03  0.11206872594E+04  0.10100000352E+00 0. -1.
       -3    1    3    3    0  502  0.55950571614E+02 -0.82405057704E+03  0.30105928135E+03  0.87910552328E+03  0.10100000352E+00 0.  1.
</event>
<event>
 5   0  0.2583422E-04  0.1708477E+04  0.7818609E-02  0.8756545E-01
       -1   -1    0    0    0  501  0.00000000000E+00  0.00000000000E+00  0.54373507499E+03  0.54373507501E+03  0.50400001928E-02 0. -1.
        1   -1    0    0  501    0  0.00000000000E+00  0.00000000000E+00 -0.13420561931E+04  0.13420561931E+04  0.50400001928E-02 0.  1.
    10030    2    1    2    0    0  0.00000000000E+00  0.00000000000E+00 -0.79832111813E+03  0.18857912681E+04  0.17084765434E+04 0.  0.
        3    1    3    3  502    0  0.26076314537E+03  0.34757317097E+03 -0.12109632984E+04  0.12865600054E+04  0.10100000352E+00 0.  1.
       -3    1    3    3    0  502 -0.26076314537E+03 -0.34757317097E+03  0.41264218025E+03  0.59923126277E+03  0.10100000352E+00 0. -1.
</event>
<event>
 5   0  0.5299877E-04  0.1725791E+04  0.7818609E-02  0.8746790E-01
       -2   -1    0    0    0  501  0.00000000000E+00  0.00000000000E+00  0.77157892606E+03  0.77157892606E+03  0.25500000920E-02 0. -1.
        2   -1    0    0  501    0  0.00000000000E+00  0.00000000000E+00 -0.96501965557E+03  0.96501965557E+03  0.25500000920E-02 0.  1.
    10030    2    1    2    0    0  0.00000000000E+00  0.00000000000E+00 -0.19344072951E+03  0.17365985816E+04  0.17257912150E+04 0.  0.
        3    1    3    3  502    0 -0.13376746415E+03 -0.83530591290E+03  0.74519092807E+02  0.84922482770E+03  0.10100000352E+00 0.  1.
       -3    1    3    3    0  502  0.13376746415E+03  0.83530591290E+03 -0.26795982232E+03  0.88737375393E+03  0.10100000352E+00 0. -1.
</event>
<event>
 5   0  0.2561518E-04  0.1714815E+04  0.7818609E-02  0.8752960E-01
       -1   -1    0    0    0  501  0.00000000000E+00  0.00000000000E+00  0.54454012878E+03  0.54454012880E+03  0.50400001928E-02 0.  1.
        1   -1    0    0  501    0  0.00000000000E+00  0.00000000000E+00 -0.13500338274E+04  0.13500338274E+04  0.50400001928E-02 0. -1.
    10030    2    1    2    0    0  0.00000000000E+00  0.00000000000E+00 -0.80549369861E+03  0.18945739562E+04  0.17148149687E+04 0.  0.
        4    1    3    3  502    0 -0.34953293302E+03  0.44146882441E+03 -0.11171164213E+04  0.12510070767E+04  0.12699999809E+01 0. -1.
       -4    1    3    3    0  502  0.34953293302E+03 -0.44146882441E+03  0.31162272272E+03  0.64356687952E+03  0.12699999809E+01 0.  1.
</event>
<event>
 5   0  0.2583422E-04  0.1629916E+04  0.7818609E-02  0.8802378E-01
        1   -1    0    0  501    0  0.00000000000E+00  0.00000000000E+00  0.10398247602E+04  0.10398247602E+04  0.50400001928E-02 0.  1.
       -1   -1    0    0    0  501  0.00000000000E+00  0.00000000000E+00 -0.63871944980E+03  0.63871944982E+03  0.50400001928E-02 0. -1.
    10030    2    1    2    0    0  0.00000000000E+00  0.00000000000E+00  0.40110531041E+03  0.16785442100E+04  0.16299157018E+04 0.  0.
        3    1    3    3  502    0  0.22214733141E+03 -0.71694344905E+03 -0.12640810076E+03  0.76114148759E+03  0.10100000352E+00 0. -1.
       -3    1    3    3    0  502 -0.22214733141E+03  0.71694344905E+03  0.52751341117E+03  0.91740272245E+03  0.10100000352E+00 0.  1.
</event>
<event>
 5   0  0.5021349E-04  0.1693069E+04  0.7818609E-02  0.8765327E-01
        2   -1    0    0  501    0  0.00000000000E+00  0.00000000000E+00  0.24729528777E+04  0.24729528777E+04  0.25500000920E-02 0.  1.
       -2   -1    0    0    0  501  0.00000000000E+00  0.00000000000E+00 -0.28978324992E+03  0.28978324993E+03  0.25500000920E-02 0. -1.
    10030    2    1    2    0    0  0.00000000000E+00  0.00000000000E+00  0.21831696277E+04  0.27627361276E+04  0.16930686009E+04 0.  0.
        2    1    3    3  502    0 -0.67694547645E+03  0.26504635360E+03  0.17993304946E+04  0.19406429286E+04  0.25500000920E-02 0.  1.
       -2    1    3    3    0  502  0.67694547645E+03 -0.26504635360E+03  0.38383913313E+03  0.82209319896E+03  0.25500000920E-02 0. -1.
</event>
<event>
 5   0  0.2561518E-04  0.1557325E+04  0.7818609E-02  0.8847202E-01
        1   -1    0    0  501    0  0.00000000000E+00  0.00000000000E+00  0.72541921356E+03  0.72541921357E+03  0.50400001928E-02 0.  1.
       -1   -1    0    0    0  501  0.00000000000E+00  0.00000000000E+00 -0.83581375588E+03  0.83581375590E+03  0.50400001928E-02 0. -1.
    10030    2    1    2    0    0  0.00000000000E+00  0.00000000000E+00 -0.11039454232E+03  0.15612329695E+04  0.15573250881E+04 0.  0.
        4    1    3    3  502    0  0.11818390171E+03  0.41981755566E+03 -0.70187372261E+03  0.82634287682E+03  0.12699999809E+01 0. -1.
       -4    1    3    3    0  502 -0.11818390171E+03 -0.41981755566E+03  0.59147918029E+03  0.73489009266E+03  0.12699999809E+01 0.  1.
</event>
<event>
 5   0  0.5310003E-04  0.1698984E+04  0.7818609E-02  0.8761944E-01
        2   -1    0    0  501    0  0.00000000000E+00  0.00000000000E+00  0.10370988282E+04  0.10370988282E+04  0.25500000920E-02 0.  1.
       -2   -1    0    0    0  501  0.00000000000E+00  0.00000000000E+00 -0.69582256426E+03  0.69582256426E+03  0.25500000920E-02 0. -1.
    10030    2    1    2    0    0  0.00000000000E+00  0.00000000000E+00  0.34127626397E+03  0.17329213925E+04  0.16989841271E+04 0.  0.
        1    1    3    3  502    0  0.12419084490E+03 -0.83370696031E+03  0.62954152958E+02  0.84525374121E+03  0.50400001928E-02 0. -1.
       -1    1    3    3    0  502 -0.12419084490E+03  0.83370696031E+03  0.27832211101E+03  0.88766765128E+03  0.50400001928E-02 0.  1.
</event>
<event>
 5   0  0.2595644E-04  0.1732471E+04  0.7818609E-02  0.8743059E-01
        1   -1    0    0  501    0  0.00000000000E+00  0.00000000000E+00  0.58067585819E+03  0.58067585821E+03  0.50400001928E-02 0.  1.
       -1   -1    0    0    0  501  0.00000000000E+00  0.00000000000E+00 -0.12922245408E+04  0.12922245408E+04  0.50400001928E-02 0. -1.
    10030    2    1    2    0    0  0.00000000000E+00  0.00000000000E+00 -0.71154868265E+03  0.18729003991E+04  0.17324705992E+04 0.  0.
        2    1    3    3  502    0 -0.12410920129E+03 -0.67540015863E+03 -0.92658411094E+03  0.11533111388E+04  0.25500000920E-02 0. -1.
       -2    1    3    3    0  502  0.12410920129E+03  0.67540015863E+03  0.21503542830E+03  0.71958926031E+03  0.25500000920E-02 0.  1.
</event>
<event>
 5   0  0.2561518E-04  0.1672278E+04  0.7818609E-02  0.8777335E-01
        1   -1    0    0  501    0  0.00000000000E+00  0.00000000000E+00  0.23931469951E+04  0.23931469951E+04  0.50400001928E-02 0.  1.
       -1   -1    0    0    0  501  0.00000000000E+00  0.00000000000E+00 -0.29213773566E+03  0.29213773570E+03  0.50400001928E-02 0. -1.
    10030    2    1    2    0    0  0.00000000000E+00  0.00000000000E+00  0.21010092594E+04  0.26852847308E+04  0.16722781399E+04 0.  0.
        4    1    3    3  502    0  0.29811574160E+03 -0.72426214596E+03  0.58042884219E+03  0.97484763179E+03  0.12699999809E+01 0. -1.
       -4    1    3    3    0  502 -0.29811574160E+03  0.72426214596E+03  0.15205804172E+04  0.17104370990E+04  0.12699999809E+01 0.  1.
</event>
<event>
 5   0  0.5299877E-04  0.1732896E+04  0.7818609E-02  0.8742822E-01
        2   -1    0    0  501    0  0.00000000000E+00  0.00000000000E+00  0.11962326009E+04  0.11962326009E+04  0.25500000920E-02 0.  1.
       -2   -1    0    0    0  501  0.00000000000E+00  0.00000000000E+00 -0.62758024477E+03  0.62758024477E+03  0.25500000920E-02 0. -1.
    10030    2    1    2    0    0  0.00000000000E+00  0.00000000000E+00  0.56865235610E+03  0.18238128456E+04  0.17328957827E+04 0.  0.
        3    1    3    3  502    0  0.20354179632E+02  0.64665405153E+03 -0.32224112526E+03  0.72278289133E+03  0.10100000352E+00 0. -1.
       -3    1    3    3    0  502 -0.20354179632E+02 -0.64665405153E+03  0.89089348136E+03  0.11010299543E+04  0.10100000352E+00 0.  1.
</event>
<event>
 5   0  0.2583422E-04  0.1792539E+04  0.7818609E-02  0.8710277E-01
       -1   -1    0    0    0  501  0.00000000000E+00  0.00000000000E+00  0.12089194161E+04  0.12089194161E+04  0.50400001928E-02 0.  1.
        1   -1    0    0  501    0  0.00000000000E+00  0.00000000000E+00 -0.66447706000E+03  0.66447706002E+03  0.50400001928E-02 0. -1.
    10030    2    1    2    0    0  0.00000000000E+00  0.00000000000E+00  0.54444235608E+03  0.18733964761E+04  0.17925392262E+04 0.  0.
        3    1    3    3  502    0 -0.24326037684E+03 -0.55019363360E+03  0.96657749690E+03  0.11384905415E+04  0.10100000352E+00 0.  1.
       -3    1    3    3    0  502  0.24326037684E+03  0.55019363360E+03 -0.42213514082E+03  0.73490593460E+03  0.10100000352E+00 0. -1.
</event>
<event>
 5   0  0.5021349E-04  0.1297999E+04  0.7818609E-02  0.9031153E-01
        2   -1    0    0  501    0  0.00000000000E+00  0.00000000000E+00  0.13101015573E+04  0.13101015573E+04  0.25500000920E-02 0. -1.
       -2   -1    0    0    0  501  0.00000000000E+00  0.00000000000E+00 -0.32150206516E+03  0.32150206517E+03  0.25500000920E-02 0.  1.
    10030    2    1    2    0    0  0.00000000000E+00  0.00000000000E+00  0.98859949216E+03  0.16316036225E+04  0.12979990081E+04 0.  0.
        2    1    3    3  502    0 -0.47019756192E+03  0.40605489054E+03  0.25834892642E+03  0.67283763952E+03  0.25500000920E-02 0.  1.
       -2    1    3    3    0  502  0.47019756192E+03 -0.40605489054E+03  0.73025056574E+03  0.95876598299E+03  0.25500000920E-02 0. -1.
</event>
<event>
 5   0  0.5299877E-04  0.1707115E+04  0.7818609E-02  0.8757317E-01
       -2   -1    0    0    0  501  0.00000000000E+00  0.00000000000E+00  0.17892612665E+04  0.17892612665E+04  0.25500000920E-02 0.  1.
        2   -1    0    0  501    0  0.00000000000E+00  0.00000000000E+00 -0.40718490917E+03  0.40718490917E+03  0.25500000920E-02 0. -1.
    10030    2    1    2    0    0  0.00000000000E+00  0.00000000000E+00  0.13820763573E+04  0.21964461757E+04  0.17071147428E+04 0.  0.
        3    1    3    3  502    0 -0.18105807982E+03 -0.53306534942E+03 -0.13444040946E+03  0.57880474162E+03  0.10100000352E+00 0. -1.
       -3    1    3    3    0  502  0.18105807982E+03  0.53306534942E+03  0.15165167668E+04  0.16176414340E+04  0.10100000352E+00 0.  1.
</event>
<event>
 5   0  0.5021349E-04  0.1704613E+04  0.7818609E-02  0.8758738E-01
        2   -1    0    0  501    0  0.00000000000E+00  0.00000000000E+00  0.44428395271E+03  0.44428395272E+03  0.25500000920E-02 0.  1.
       -2   -1    0    0    0  501  0.00000000000E+00  0.00000000000E+00 -0.16350490649E+04  0.16350490649E+04  0.25500000920E-02 0. -1.
    10030    2    1    2    0    0  0.00000000000E+00  0.00000000000E+00 -0.11907651121E+04  0.20793330176E+04  0.17046126380E+04 0.  0.
        2    1    3    3  502    0 -0.23524006287E+03 -0.20683979385E+03 -0.15622874702E+04  0.15933809108E+04  0.25500000920E-02 0. -1.
       -2    1    3    3    0  502  0.23524006287E+03  0.20683979385E+03  0.37152235805E+03  0.48595210673E+03  0.25500000920E-02 0.  1.
</event>
<event>
 5   0  0.5021349E-04  0.1709183E+04  0.7818609E-02  0.8756144E-01
        2   -1    0    0  501    0  0.00000000000E+00  0.00000000000E+00  0.24667252857E+04  0.24667252857E+04  0.25500000920E-02 0. -1.
       -2   -1    0    0    0  501  0.00000000000E+00  0.00000000000E+00 -0.29607117662E+03  0.29607117663E+03  0.25500000920E-02 0.  1.
    10030    2    1    2    0    0  0.00000000000E+00  0.00000000000E+00  0.21706541091E+04  0.27627964623E+04  0.17091825622E+04 0.  0.
        2    1    3    3  502    0  0.52131881514E+02  0.66431990236E+03  0.22043541157E+03  0.70187636833E+03  0.25500000920E-02 0.  1.
       -2    1    3    3    0  502 -0.52131881514E+02 -0.66431990236E+03  0.19502186975E+04  0.20609200940E+04  0.25500000920E-02 0. -1.
</event>
<event>
 5   0  0.2785059E-04  0.1710131E+04  0.7818609E-02  0.8755607E-01
       -1   -1    0    0    0  501  0.00000000000E+00  0.00000000000E+00  0.32466779017E+03  0.32466779021E+03  0.50400001928E-02 0.  1.
        1   -1    0    0  501    0  0.00000000000E+00  0.00000000000E+00 -0.22519547914E+04  0.22519547914E+04  0.50400001928E-02 0. -1.
    10030    2    1    2    0    0  0.00000000000E+00  0.00000000000E+00 -0.19272870012E+04  0.25766225816E+04  0.17101312064E+04 0.  0.
        5    1    3    3  502    0 -0.54297307033E+03  0.53590553075E+03 -0.15454265668E+04  0.17234789979E+04  0.46999998093E+01 0. -1.
       -5    1    3    3    0  502  0.54297307033E+03 -0.53590553075E+03 -0.38186043447E+03  0.85314358370E+03  0.46999998093E+01 0.  1.
</event>
<event>
 5   0  0.2561518E-04  0.1636386E+04  0.7818609E-02  0.8798501E-01
        1   -1    0    0  501    0  0.00000000000E+00  0.00000000000E+00  0.12240481673E+04  0.12240481673E+04  0.50400001928E-02 0.  1.
       -1   -1    0    0    0  501  0.00000000000E+00  0.00000000000E+00 -0.54690661046E+03  0.54690661049E+03  0.50400001928E-02 0. -1.
    10030    2    1    2    0    0  0.00000000000E+00  0.00000000000E+00  0.67714155681E+03  0.17709547778E+04  0.16363863043E+04 0.  0.
        4    1    3    3  502    0  0.81158363206E+03  0.48989047714E+02  0.43758496089E+03  0.92333641189E+03  0.12699999809E+01 0.  1.
       -4    1    3    3    0  502 -0.81158363206E+03 -0.48989047714E+02  0.23955659592E+03  0.84761836588E+03  0.12699999809E+01 0. -1.
</event>
<event>
 5   0  0.5021349E-04  0.1690252E+04  0.7818609E-02  0.8766943E-01
       -2   -1    0    0    0  501  0.00000000000E+00  0.00000000000E+00  0.11364256909E+04  0.11364256909E+04  0.25500000920E-02 0.  1.
        2   -1    0    0  501    0  0.00000000000E+00  0.00000000000E+00 -0.62849532943E+03  0.62849532943E+03  0.25500000920E-02 0. -1.
    10030    2    1    2    0    0  0.00000000000E+00  0.00000000000E+00  0.50793036144E+03  0.17649210203E+04  0.16902523350E+04 0.  0.
        2    1    3    3  502    0  0.70471790451E+03 -0.43386699559E+03  0.43291375756E+03  0.93396050039E+03  0.25500000920E-02 0. -1.
       -2    1    3    3    0  502 -0.70471790451E+03  0.43386699559E+03  0.75016603882E+02  0.83096051992E+03  0.25500000920E-02 0.  1.
</event>
<event>
 5   0  0.5021349E-04  0.1705787E+04  0.7818609E-02  0.8758071E-01
       -2   -1    0    0    0  501  0.00000000000E+00  0.00000000000E+00  0.34406688529E+03  0.34406688530E+03  0.25500000920E-02 0. -1.
        2   -1    0    0  501    0  0.00000000000E+00  0.00000000000E+00 -0.21142038878E+04  0.21142038878E+04  0.25500000920E-02 0.  1.
    10030    2    1    2    0    0  0.00000000000E+00  0.00000000000E+00 -0.17701370025E+04  0.24582707731E+04  0.17057872629E+04 0.  0.
        2    1    3    3  502    0 -0.40315111541E+03 -0.62790670243E+03 -0.28977325323E+03  0.80047872371E+03  0.25500000920E-02 0.  1.
       -2    1    3    3    0  502  0.40315111541E+03  0.62790670243E+03 -0.14803637493E+04  0.16577920494E+04  0.25500000920E-02 0. -1.
</event>
<event>
 5   0  0.1910750E-04  0.1703736E+04  0.7818609E-02  0.8759236E-01
        3   -1    0    0  501    0  0.00000000000E+00  0.00000000000E+00  0.69132521983E+03  0.69132522721E+03  0.10100000352E+00 0. -1.
       -3   -1    0    0    0  501  0.00000000000E+00  0.00000000000E+00 -0.10496931506E+04  0.10496931555E+04  0.10100000352E+00 0.  1.
    10030    2    1    2    0    0  0.00000000000E+00  0.00000000000E+00 -0.35836793081E+03  0.17410183827E+04  0.17037363162E+04 0.  0.
        1    1    3    3  502    0  0.23817613071E+03  0.45542084050E+03 -0.87342011445E+03  0.10134094471E+04  0.50400001928E-02 0.  1.
       -1    1    3    3    0  502 -0.23817613071E+03 -0.45542084050E+03  0.51505218365E+03  0.72760893556E+03  0.50400001928E-02 0. -1.
</event>
<event>
 5   0  0.5299877E-04  0.1697390E+04  0.7818609E-02  0.8762855E-01
       -2   -1    0    0    0  501  0.00000000000E+00  0.00000000000E+00  0.68881946568E+03  0.68881946568E+03  0.25500000920E-02 0.  1.
        2   -1    0    0  501    0  0.00000000000E+00  0.00000000000E+00 -0.10456774018E+04  0.10456774018E+04  0.25500000920E-02 0. -1.
    10030    2    1    2    0    0  0.00000000000E+00  0.00000000000E+00 -0.35685793607E+03  0.17344968674E+04  0.16973897009E+04 0.  0.
        3    1    3    3  502    0  0.83647677543E+03 -0.10424540601E+03 -0.77670963470E+02  0.84651833370E+03  0.10100000352E+00 0. -1.
       -3    1    3    3    0  502 -0.83647677543E+03  0.10424540601E+03 -0.27918697260E+03  0.88797853374E+03  0.10100000352E+00 0.  1.
</event>
<event>
 5   0  0.1910750E-04  0.1671585E+04  0.7818609E-02  0.8777739E-01
       -4   -1    0    0    0  501  0.00000000000E+00  0.00000000000E+00  0.37770956012E+03  0.37771169522E+03  0.12699999809E+01 0.  1.
        4   -1    0    0  501    0  0.00000000000E+00  0.00000000000E+00 -0.18494263058E+04  0.18494267418E+04  0.12699999809E+01 0. -1.
    10030    2    1    2    0    0  0.00000000000E+00  0.00000000000E+00 -0.14717167457E+04  0.22271384371E+04  0.16715847087E+04 0.  0.
        5    1    3    3  502    0 -0.79853463201E+03 -0.20617221413E+03 -0.55531501082E+03  0.99426424638E+03  0.46999998093E+01 0.  1.
       -5    1    3    3    0  502  0.79853463201E+03  0.20617221413E+03 -0.91640173486E+03  0.12328741907E+04  0.46999998093E+01 0. -1.
</event>
<event>
 5   0  0.2630135E-04  0.1670758E+04  0.7818609E-02  0.8778220E-01
       -1   -1    0    0    0  501  0.00000000000E+00  0.00000000000E+00  0.81163477172E+03  0.81163477174E+03  0.50400001928E-02 0. -1.
        1   -1    0    0  501    0  0.00000000000E+00  0.00000000000E+00 -0.85981774426E+03  0.85981774428E+03  0.50400001928E-02 0.  1.
    10030    2    1    2    0    0  0.00000000000E+00  0.00000000000E+00 -0.48182972538E+02  0.16714525160E+04  0.16707578862E+04 0.  0.
        1    1    3    3  502    0 -0.16044947427E+03  0.82205717125E+02  0.79194131529E+03  0.81220247514E+03  0.50400001928E-02 0. -1.
       -1    1    3    3    0  502  0.16044947427E+03 -0.82205717125E+02 -0.84012428783E+03  0.85925004088E+03  0.50400001928E-02 0.  1.
</event>
<event>
 5   0  0.5021349E-04  0.1719975E+04  0.7818609E-02  0.8750053E-01
        2   -1    0    0  501    0  0.00000000000E+00  0.00000000000E+00  0.10758216925E+04  0.10758216925E+04  0.25500000920E-02 0. -1.
       -2   -1    0    0    0  501  0.00000000000E+00  0.00000000000E+00 -0.68745456543E+03  0.68745456544E+03  0.25500000920E-02 0.  1.
    10030    2    1    2    0    0  0.00000000000E+00  0.00000000000E+00  0.38836712704E+03  0.17632762579E+04  0.17199750395E+04 0.  0.
        2    1    3    3  502    0  0.56638631173E+03 -0.21824747620E+03 -0.43037730860E+03  0.74407663768E+03  0.25500000920E-02 0.  1.
       -2    1    3    3    0  502 -0.56638631173E+03  0.21824747620E+03  0.81874443564E+03  0.10191996202E+04  0.25500000920E-02 0. -1.
</event>
<event>
 5   0  0.5342255E-04  0.1657553E+04  0.7818609E-02  0.8785951E-01
       -2   -1    0    0    0  501  0.00000000000E+00  0.00000000000E+00  0.57486668481E+03  0.57486668481E+03  0.25500000920E-02 0. -1.
        2   -1    0    0  501    0  0.00000000000E+00  0.00000000000E+00 -0.11948341913E+04  0.11948341913E+04  0.25500000920E-02 0.  1.
    10030    2    1    2    0    0  0.00000000000E+00  0.00000000000E+00 -0.61996750651E+03  0.17697008761E+04  0.16575528594E+04 0.  0.
        5    1    3    3  502    0  0.46625990841E+03  0.67218100388E+03 -0.16825159157E+03  0.83519835502E+03  0.46999998093E+01 0.  1.
       -5    1    3    3    0  502 -0.46625990841E+03 -0.67218100388E+03 -0.45171591493E+03  0.93450252111E+03  0.46999998093E+01 0. -1.
</event>
<event>
 5   0  0.1910750E-04  0.1689835E+04  0.7818609E-02  0.8767183E-01
       -4   -1    0    0    0  501  0.00000000000E+00  0.00000000000E+00  0.11355555676E+04  0.11355562777E+04  0.12699999809E+01 0.  1.
        4   -1    0    0  501    0  0.00000000000E+00  0.00000000000E+00 -0.62866445957E+03  0.62866574237E+03  0.12699999809E+01 0. -1.
    10030    2    1    2    0    0  0.00000000000E+00  0.00000000000E+00  0.50689110799E+03  0.17642220201E+04  0.16898345306E+04 0.  0.
        5    1    3    3  502    0  0.10607451706E+03  0.68520001399E+03  0.75751641203E+03  0.10269391739E+04  0.46999998093E+01 0.  1.
       -5    1    3    3    0  502 -0.10607451706E+03 -0.68520001399E+03 -0.25062530404E+03  0.73728284625E+03  0.46999998093E+01 0. -1.
</event>
<event>
 5   0  0.2785059E-04  0.1707947E+04  0.7818609E-02  0.8756845E-01
       -1   -1    0    0    0  501  0.00000000000E+00  0.00000000000E+00  0.80037576754E+03  0.80037576756E+03  0.50400001928E-02 0.  1.
        1   -1    0    0  501    0  0.00000000000E+00  0.00000000000E+00 -0.91116036755E+03  0.91116036757E+03  0.50400001928E-02 0. -1.
    10030    2    1    2    0    0  0.00000000000E+00  0.00000000000E+00 -0.11078460001E+03  0.17115361351E+04  0.17079469296E+04 0.  0.
        5    1    3    3  502    0  0.27660342776E+03  0.43780121868E+03  0.62505542841E+03  0.81172393208E+03  0.46999998093E+01 0.  1.
       -5    1    3    3    0  502 -0.27660342776E+03 -0.43780121868E+03 -0.73584002842E+03  0.89981220305E+03  0.46999998093E+01 0. -1.
</event>
<event>
 5   0  0.5198430E-04  0.1685705E+04  0.7818609E-02  0.8769560E-01
       -2   -1    0    0    0  501  0.00000000000E+00  0.00000000000E+00  0.46030618176E+03  0.46030618177E+03  0.25500000920E-02 0. -1.
        2   -1    0    0  501    0  0.00000000000E+00  0.00000000000E+00 -0.15433208399E+04  0.15433208399E+04  0.25500000920E-02 0.  1.
    10030    2    1    2    0    0  0.00000000000E+00  0.00000000000E+00 -0.10830146582E+04  0.20036270217E+04  0.16857047465E+04 0.  0.
        4    1    3    3  502    0  0.81437693726E+03  0.19297197448E+03 -0.66007287502E+03  0.10659013989E+04  0.12699999809E+01 0. -1.
       -4    1    3    3    0  502 -0.81437693726E+03 -0.19297197448E+03 -0.42294178316E+03  0.93772562284E+03  0.12699999809E+01 0.  1.
</event>
<event>
 5   0  0.2583422E-04  0.1700314E+04  0.7818609E-02  0.8761185E-01
       -1   -1    0    0    0  501  0.00000000000E+00  0.00000000000E+00  0.68387337582E+03  0.68387337583E+03  0.50400001928E-02 0. -1.
        1   -1    0    0  501    0  0.00000000000E+00  0.00000000000E+00 -0.10568721383E+04  0.10568721383E+04  0.50400001928E-02 0.  1.
    10030    2    1    2    0    0  0.00000000000E+00  0.00000000000E+00 -0.37299876246E+03  0.17407455141E+04  0.17003137558E+04 0.  0.
        3    1    3    3  502    0 -0.57137239831E+03  0.54901355257E+03  0.12885846678E+03  0.80279936044E+03  0.10100000352E+00 0. -1.
       -3    1    3    3    0  502  0.57137239831E+03 -0.54901355257E+03 -0.50185722924E+03  0.93794615368E+03  0.10100000352E+00 0.  1.
</event>
<event>
 5   0  0.2595644E-04  0.1837092E+04  0.7818609E-02  0.8686819E-01
        1   -1    0    0  501    0  0.00000000000E+00  0.00000000000E+00  0.17222056332E+04  0.17222056333E+04  0.50400001928E-02 0. -1.
       -1   -1    0    0    0  501  0.00000000000E+00  0.00000000000E+00 -0.48991081328E+03  0.48991081331E+03  0.50400001928E-02 0.  1.
    10030    2    1    2    0    0  0.00000000000E+00  0.00000000000E+00  0.12322948200E+04  0.22121164466E+04  0.18370924446E+04 0.  0.
        2    1    3    3  502    0 -0.52375732582E+03  0.44956696303E+01  0.15247627539E+04  0.16122169218E+04  0.25500000920E-02 0. -1.
       -2    1    3    3    0  502  0.52375732582E+03 -0.44956696303E+01 -0.29246793392E+03  0.59989952473E+03  0.25500000920E-02 0.  1.
</event>
<event>
 5   0  0.5021349E-04  0.1691238E+04  0.7818609E-02  0.8766377E-01
       -2   -1    0    0    0  501  0.00000000000E+00  0.00000000000E+00  0.82514430228E+03  0.82514430229E+03  0.25500000920E-02 0.  1.
        2   -1    0    0  501    0  0.00000000000E+00  0.00000000000E+00 -0.86660221896E+03  0.86660221896E+03  0.25500000920E-02 0. -1.
    10030    2    1    2    0    0  0.00000000000E+00  0.00000000000E+00 -0.41457916677E+02  0.16917465213E+04  0.16912384614E+04 0.  0.
        2    1    3    3  502    0  0.27437236828E+03 -0.62869142364E+03 -0.51538613768E+03  0.85799532257E+03  0.25500000920E-02 0. -1.
       -2    1    3    3    0  502 -0.27437236828E+03  0.62869142364E+03  0.47392822100E+03  0.83375119868E+03  0.25500000920E-02 0.  1.
</event>
<event>
 5   0  0.5342255E-04  0.1764232E+04  0.7818609E-02  0.8725555E-01
        2   -1    0    0  501    0  0.00000000000E+00  0.00000000000E+00  0.94513955860E+03  0.94513955860E+03  0.25500000920E-02 0. -1.
       -2   -1    0    0    0  501  0.00000000000E+00  0.00000000000E+00 -0.82329464621E+03  0.82329464621E+03  0.25500000920E-02 0.  1.
    10030    2    1    2    0    0  0.00000000000E+00  0.00000000000E+00  0.12184491239E+03  0.17684342048E+04  0.17642316611E+04 0.  0.
        5    1    3    3  502    0  0.19104994892E+03  0.40829587833E+03 -0.69910571688E+03  0.83185124909E+03  0.46999998093E+01 0.  1.
       -5    1    3    3    0  502 -0.19104994892E+03 -0.40829587833E+03  0.82095062927E+03  0.93658295572E+03  0.46999998093E+01 0. -1.
</event>
<event>
 5   0  0.2561518E-04  0.1758475E+04  0.7818609E-02  0.8728699E-01
       -1   -1    0    0    0  501  0.00000000000E+00  0.00000000000E+00  0.80299652411E+03  0.80299652412E+03  0.50400001928E-02 0.  1.
        1   -1    0    0  501    0  0.00000000000E+00  0.00000000000E+00 -0.96271696595E+03  0.96271696596E+03  0.50400001928E-02 0. -1.
    10030    2    1    2    0    0  0.00000000000E+00  0.00000000000E+00 -0.15972044184E+03  0.17657134901E+04  0.17584747680E+04 0.  0.
        4    1    3    3  502    0  0.65859384538E+03 -0.57513601270E+03  0.12875131303E+02  0.87446822023E+03  0.12699999809E+01 0.  1.
       -4    1    3    3    0  502 -0.65859384538E+03  0.57513601270E+03 -0.17259557314E+03  0.89124526986E+03  0.12699999809E+01 0. -1.
</event>
<event>
 5   0  0.5342255E-04  0.1706660E+04  0.7818609E-02  0.8757575E-01
       -2   -1    0    0    0  501  0.00000000000E+00  0.00000000000E+00  0.73493868608E+03  0.73493868609E+03  0.25500000920E-02 0.  1.
        2   -1    0    0  501    0  0.00000000000E+00  0.00000000000E+00 -0.99079355427E+03  0.99079355427E+03  0.25500000920E-02 0. -1.
    10030    2    1    2    0    0  0.00000000000E+00  0.00000000000E+00 -0.25585486819E+03  0.17257322404E+04  0.17066604969E+04 0.  0.
        5    1    3    3  502    0  0.48376411343E+03  0.64047743235E+02  0.57990986180E+03  0.75792306250E+03  0.46999998093E+01 0.  1.
       -5    1    3    3    0  502 -0.48376411343E+03 -0.64047743235E+02 -0.83576472999E+03  0.96780917786E+03  0.46999998093E+01 0. -1.
</event>
<event>
 5   0  0.2583422E-04  0.1660341E+04  0.7818609E-02  0.8784312E-01
       -1   -1    0    0    0  501  0.00000000000E+00  0.00000000000E+00  0.12038247722E+04  0.12038247722E+04  0.50400001928E-02 0. -1.
        1   -1    0    0  501    0  0.00000000000E+00  0.00000000000E+00 -0.57249426939E+03  0.57249426941E+03  0.50400001928E-02 0.  1.
    10030    2    1    2    0    0  0.00000000000E+00  0.00000000000E+00  0.63133050285E+03  0.17763190417E+04  0.16603406680E+04 0.  0.
        3    1    3    3  502    0  0.24666886241E+03  0.69898557656E+03  0.71561887226E+03  0.10303090529E+04  0.10100000352E+00 0. -1.
       -3    1    3    3    0  502 -0.24666886241E+03 -0.69898557656E+03 -0.84288369417E+02  0.74600998877E+03  0.10100000352E+00 0.  1.
</event>
<event>
 5   0  0.5021349E-04  0.1736385E+04  0.7818609E-02  0.8740880E-01
        2   -1    0    0  501    0  0.00000000000E+00  0.00000000000E+00  0.60636664277E+03  0.60636664278E+03  0.25500000920E-02 0. -1.
       -2   -1    0    0    0  501  0.00000000000E+00  0.00000000000E+00 -0.12430740505E+04  0.12430740505E+04  0.25500000920E-02 0.  1.
    10030    2    1    2    0    0  0.00000000000E+00  0.00000000000E+00 -0.63670740768E+03  0.18494406932E+04  0.17363854857E+04 0.  0.
        2    1    3    3  502    0 -0.60912575303E+03 -0.37695804569E+03  0.20412250499E+03  0.74484733219E+03  0.25500000920E-02 0. -1.
       -2    1    3    3    0  502  0.60912575303E+03  0.37695804569E+03 -0.84082991267E+03  0.11045933610E+04  0.25500000920E-02 0.  1.
</event>
<event>
 5   0  0.5299877E-04  0.1685973E+04  0.7818609E-02  0.8769405E-01
       -2   -1    0    0    0  501  0.00000000000E+00  0.00000000000E+00  0.24758014322E+03  0.24758014323E+03  0.25500000920E-02 0.  1.
        2   -1    0    0  501    0  0.00000000000E+00  0.00000000000E+00 -0.28702879489E+04  0.28702879489E+04  0.25500000920E-02 0. -1.
    10030    2    1    2    0    0  0.00000000000E+00  0.00000000000E+00 -0.26227078057E+04  0.31178680921E+04  0.16859730739E+04 0.  0.
        3    1    3    3  502    0 -0.79401285467E+01 -0.59380147500E+03 -0.20491813851E+03  0.62821548138E+03  0.10100000352E+00 0.  1.
       -3    1    3    3    0  502  0.79401285467E+01  0.59380147500E+03 -0.24177896671E+04  0.24896526107E+04  0.10100000352E+00 0. -1.
</event>
<event>
 5   0  0.5310003E-04  0.1676092E+04  0.7818609E-02  0.8775119E-01
        2   -1    0    0  501    0  0.00000000000E+00  0.00000000000E+00  0.73159207986E+03  0.73159207987E+03  0.25500000920E-02 0.  1.
       -2   -1    0    0    0  501  0.00000000000E+00  0.00000000000E+00 -0.95999009260E+03  0.95999009260E+03  0.25500000920E-02 0. -1.
    10030    2    1    2    0    0  0.00000000000E+00  0.00000000000E+00 -0.22839801273E+03  0.16915821725E+04  0.16760920601E+04 0.  0.
        1    1    3    3  502    0 -0.24965587802E+03 -0.59785592497E+03 -0.65067665832E+03  0.91822648522E+03  0.50400001928E-02 0.  1.
       -1    1    3    3    0  502  0.24965587802E+03  0.59785592497E+03  0.42227864559E+03  0.77335568725E+03  0.50400001928E-02 0. -1.
</event>
<event>
 5   0  0.2630135E-04  0.1721044E+04  0.7818609E-02  0.8749452E-01
        1   -1    0    0  501    0  0.00000000000E+00  0.00000000000E+00  0.89072511625E+03  0.89072511627E+03  0.50400001928E-02 0.  1.
       -1   -1    0    0    0  501  0.00000000000E+00  0.00000000000E+00 -0.83134344839E+03  0.83134344840E+03  0.50400001928E-02 0. -1.
    10030    2    1    2    0    0  0.00000000000E+00  0.00000000000E+00  0.59381667866E+02  0.17220685647E+04  0.17210444384E+04 0.  0.
        1    1    3    3  502    0  0.44551550600E+03 -0.13122930842E+03  0.75454809299E+03  0.88602935738E+03  0.50400001928E-02 0.  1.
       -1    1    3    3    0  502 -0.44551550600E+03  0.13122930842E+03 -0.69516642513E+03  0.83603920729E+03  0.50400001928E-02 0. -1.
</event>
<event>
 5   0  0.5299877E-04  0.1687421E+04  0.7818609E-02  0.8768571E-01
       -2   -1    0    0    0  501  0.00000000000E+00  0.00000000000E+00  0.30212641677E+03  0.30212641678E+03  0.25500000920E-02 0. -1.
        2   -1    0    0  501    0  0.00000000000E+00  0.00000000000E+00 -0.23561239576E+04  0.23561239576E+04  0.25500000920E-02 0.  1.
    10030    2    1    2    0    0  0.00000000000E+00  0.00000000000E+00 -0.20539975408E+04  0.26582503743E+04  0.16874208589E+04 0.  0.
        3    1    3    3  502    0  0.36859990623E+02  0.52215343545E+03  0.15396362375E+02  0.52367922170E+03  0.10100000352E+00 0. -1.
       -3    1    3    3    0  502 -0.36859990623E+02 -0.52215343545E+03 -0.20693939032E+04  0.21345711526E+04  0.10100000352E+00 0.  1.
</event>
<event>
 5   0  0.2561518E-04  0.1696120E+04  0.7818609E-02  0.8763580E-01
       -1   -1    0    0    0  501  0.00000000000E+00  0.00000000000E+00  0.13332259943E+04  0.13332259943E+04  0.50400001928E-02 0.  1.
        1   -1    0    0  501    0  0.00000000000E+00  0.00000000000E+00 -0.53944786315E+03  0.53944786317E+03  0.50400001928E-02 0. -1.
    10030    2    1    2    0    0  0.00000000000E+00  0.00000000000E+00  0.79377813113E+03  0.18726738575E+04  0.16961201770E+04 0.  0.
        4    1    3    3  502    0  0.40640630047E+03 -0.74231233602E+03  0.45746961105E+03  0.96201545892E+03  0.12699999809E+01 0.  1.
       -4    1    3    3    0  502 -0.40640630047E+03  0.74231233602E+03  0.33630852008E+03  0.91065839855E+03  0.12699999809E+01 0. -1.
</event>
<event>
 5   0  0.5342255E-04  0.1770512E+04  0.7818609E-02  0.8722140E-01
        2   -1    0    0  501    0  0.00000000000E+00  0.00000000000E+00  0.75004635906E+03  0.75004635906E+03  0.25500000920E-02 0.  1.
       -2   -1    0    0    0  501  0.00000000000E+00  0.00000000000E+00 -0.10448395919E+04  0.10448395919E+04  0.25500000920E-02 0. -1.
    10030    2    1    2    0    0  0.00000000000E+00  0.00000000000E+00 -0.29479323285E+03  0.17948859510E+04  0.17705119392E+04 0.  0.
        5    1    3    3  502    0 -0.77980519360E+03  0.40441658194E+03 -0.36311057439E+02  0.87919821122E+03  0.46999998093E+01 0.  1.
       -5    1    3    3    0  502  0.77980519360E+03 -0.40441658194E+03 -0.25848217541E+03  0.91568773975E+03  0.46999998093E+01 0. -1.
</event>
<event>
 5   0  0.2561518E-04  0.1700219E+04  0.7818609E-02  0.8761240E-01
       -1   -1    0    0    0  501  0.00000000000E+00  0.00000000000E+00  0.12767995761E+04  0.12767995761E+04  0.50400001928E-02 0. -1.
        1   -1    0    0  501    0  0.00000000000E+00  0.00000000000E+00 -0.56601348762E+03  0.56601348764E+03  0.50400001928E-02 0.  1.
    10030    2    1    2    0    0  0.00000000000E+00  0.00000000000E+00  0.71078608848E+03  0.18428130638E+04  0.17002185519E+04 0.  0.
        4    1    3    3  502    0  0.59830513918E+03 -0.25910746140E+03  0.94665137347E+03  0.11494590693E+04  0.12699999809E+01 0. -1.
       -4    1    3    3    0  502 -0.59830513918E+03  0.25910746140E+03 -0.23586528499E+03  0.69335399449E+03  0.12699999809E+01 0.  1.
</event>
<event>
 5   0  0.2583422E-04  0.1649412E+04  0.7818609E-02  0.8790754E-01
        1   -1    0    0  501    0  0.00000000000E+00  0.00000000000E+00  0.15756320439E+04  0.15756320439E+04  0.50400001928E-02 0. -1.
       -1   -1    0    0    0  501  0.00000000000E+00  0.00000000000E+00 -0.43166171529E+03  0.43166171532E+03  0.50400001928E-02 0.  1.
    10030    2    1    2    0    0  0.00000000000E+00  0.00000000000E+00  0.11439703286E+04  0.20072937592E+04  0.16494120538E+04 0.  0.
        3    1    3    3  502    0 -0.32672367895E+03  0.56285375330E+03  0.11884372945E+04  0.13549671300E+04  0.10100000352E+00 0. -1.
       -3    1    3    3    0  502  0.32672367895E+03 -0.56285375330E+03 -0.44466965943E+02  0.65232662927E+03  0.10100000352E+00 0.  1.
</event>
<event>
 5   0  0.5310003E-04  0.1699322E+04  0.7818609E-02  0.8761751E-01
       -2   -1    0    0    0  501  0.00000000000E+00  0.00000000000E+00  0.56751562804E+03  0.56751562805E+03  0.25500000920E-02 0. -1.
        2   -1    0    0  501    0  0.00000000000E+00  0.00000000000E+00 -0.12720769728E+04  0.12720769728E+04  0.25500000920E-02 0.  1.
    10030    2    1    2    0    0  0.00000000000E+00  0.00000000000E+00 -0.70456134479E+03  0.18395926009E+04  0.16993217025E+04 0.  0.
        1    1    3    3  502    0 -0.51762630222E+03  0.41887458301E+03  0.21904343794E+03  0.70097998030E+03  0.50400001928E-02 0. -1.
       -1    1    3    3    0  502  0.51762630222E+03 -0.41887458301E+03 -0.92360478273E+03  0.11386126206E+04  0.50400001928E-02 0.  1.
</event>
<event>
 5   0  0.5198430E-04  0.1634190E+04  0.7818609E-02  0.8799815E-01
       -2   -1    0    0    0  501  0.00000000000E+00  0.00000000000E+00  0.60740020368E+03  0.60740020369E+03  0.25500000920E-02 0. -1.
        2   -1    0    0  501    0  0.00000000000E+00  0.00000000000E+00 -0.10991832529E+04  0.10991832529E+04  0.25500000920E-02 0.  1.
    10030    2    1    2    0    0  0.00000000000E+00  0.00000000000E+00 -0.49178304917E+03  0.17065834565E+04  0.16341898686E+04 0.  0.
        4    1    3    3  502    0  0.53690309467E+03 -0.20821224288E+03 -0.85124769355E+03  0.10277361139E+04  0.12699999809E+01 0.  1.
       -4    1    3    3    0  502 -0.53690309467E+03  0.20821224288E+03  0.35946464438E+03  0.67884734264E+03  0.12699999809E+01 0. -1.
</event>
<event>
 5   0  0.5299877E-04  0.1741511E+04  0.7818609E-02  0.8738037E-01
       -2   -1    0    0    0  501  0.00000000000E+00  0.00000000000E+00  0.70680573252E+03  0.70680573252E+03  0.25500000920E-02 0. -1.
        2   -1    0    0  501    0  0.00000000000E+00  0.00000000000E+00 -0.10727352945E+04  0.10727352945E+04  0.25500000920E-02 0.  1.
    10030    2    1    2    0    0  0.00000000000E+00  0.00000000000E+00 -0.36592956197E+03  0.17795410270E+04  0.17415113616E+04 0.  0.
        3    1    3    3  502    0  0.67186617220E+03 -0.55384577296E+03 -0.17465379215E+03  0.88806151301E+03  0.10100000352E+00 0. -1.
       -3    1    3    3    0  502 -0.67186617220E+03  0.55384577296E+03 -0.19127576982E+03  0.89147951400E+03  0.10100000352E+00 0.  1.
</event>
<event>
 5   0  0.2595644E-04  0.1691665E+04  0.7818609E-02  0.8766132E-01
       -1   -1    0    0    0  501  0.00000000000E+00  0.00000000000E+00  0.53259725025E+03  0.53259725027E+03  0.50400001928E-02 0.  1.
        1   -1    0    0  501    0  0.00000000000E+00  0.00000000000E+00 -0.13432901626E+04  0.13432901626E+04  0.50400001928E-02 0. -1.
    10030    2    1    2    0    0  0.00000000000E+00  0.00000000000E+00 -0.81069291235E+03  0.18758874129E+04  0.16916650341E+04 0.  0.
        2    1    3    3  502    0 -0.58349853214E+03 -0.62784341313E+02  0.27010041684E+03  0.64603919828E+03  0.25500000920E-02 0.  1.
       -2    1    3    3    0  502  0.58349853214E+03  0.62784341313E+02 -0.10807933292E+04  0.12298482146E+04  0.25500000920E-02 0. -1.
</event>
<event>
 5   0  0.2595644E-04  0.1698554E+04  0.7818609E-02  0.8762190E-01
       -1   -1    0    0    0  501  0.00000000000E+00  0.00000000000E+00  0.12207875323E+04  0.12207875323E+04  0.50400001928E-02 0. -1.
        1   -1    0    0  501    0  0.00000000000E+00  0.00000000000E+00 -0.59082436615E+03  0.59082436617E+03  0.50400001928E-02 0.  1.
    10030    2    1    2    0    0  0.00000000000E+00  0.00000000000E+00  0.62996316611E+03  0.18116118984E+04  0.16985535258E+04 0.  0.
        2    1    3    3  502    0 -0.36796682452E+03  0.60314523049E+03  0.81761083162E+03  0.10805883698E+04  0.25500000920E-02 0. -1.
       -2    1    3    3    0  502  0.36796682452E+03 -0.60314523049E+03 -0.18764766551E+03  0.73102352862E+03  0.25500000920E-02 0.  1.
</event>
<event>
 5   0  0.5342255E-04  0.1719684E+04  0.7818609E-02  0.8750217E-01
       -2   -1    0    0    0  501  0.00000000000E+00  0.00000000000E+00  0.16505403455E+04  0.16505403455E+04  0.25500000920E-02 0.  1.
        2   -1    0    0  501    0  0.00000000000E+00  0.00000000000E+00 -0.44793107324E+03  0.44793107325E+03  0.25500000920E-02 0. -1.
    10030    2    1    2    0    0  0.00000000000E+00  0.00000000000E+00  0.12026092723E+04  0.20984714188E+04  0.17196840505E+04 0.  0.
        5    1    3    3  502    0 -0.75201479669E+03  0.47854283493E+02  0.11066330383E+04  0.13388334692E+04  0.46999998093E+01 0.  1.
       -5    1    3    3    0  502  0.75201479669E+03 -0.47854283493E+02  0.95976233978E+02  0.75963794954E+03  0.46999998093E+01 0. -1.
</event>
<event>
 5   0  0.2630135E-04  0.1675137E+04  0.7818609E-02  0.8775673E-01
       -1   -1    0    0    0  501  0.00000000000E+00  0.00000000000E+00  0.78968140975E+03  0.78968140977E+03  0.50400001928E-02 0. -1.
        1   -1    0    0  501    0  0.00000000000E+00  0.00000000000E+00 -0.88835994385E+03  0.88835994387E+03  0.50400001928E-02 0.  1.
    10030    2    1    2    0    0  0.00000000000E+00  0.00000000000E+00 -0.98678534102E+02  0.16780413536E+04  0.16751374067E+04 0.  0.
        1    1    3    3  502    0 -0.28386933873E+03  0.17060723294E+03 -0.81997954239E+03  0.88433878088E+03  0.50400001928E-02 0.  1.
       -1    1    3    3    0  502  0.28386933873E+03 -0.17060723294E+03  0.72130100829E+03  0.79370257275E+03  0.50400001928E-02 0. -1.
</event>
<event>
 5   0  0.5299877E-04  0.1662739E+04  0.7818609E-02  0.8782906E-01
        2   -1    0    0  501    0  0.00000000000E+00  0.00000000000E+00  0.76125097171E+03  0.76125097172E+03  0.25500000920E-02 0. -1.
       -2   -1    0    0    0  501  0.00000000000E+00  0.00000000000E+00 -0.90794657419E+03  0.90794657419E+03  0.25500000920E-02 0.  1.
    10030    2    1    2    0    0  0.00000000000E+00  0.00000000000E+00 -0.14669560248E+03  0.16691975459E+04  0.16627389595E+04 0.  0.
        3    1    3    3  502    0  0.52966879711E+03 -0.35106201856E+02  0.56897635307E+03  0.77814881649E+03  0.10100000352E+00 0. -1.
       -3    1    3    3    0  502 -0.52966879711E+03  0.35106201856E+02 -0.71567195555E+03  0.89104872942E+03  0.10100000352E+00 0.  1.
</event>
<event>
 5   0  0.2595644E-04  0.1646158E+04  0.7818609E-02  0.8792682E-01
       -1   -1    0    0    0  501  0.00000000000E+00  0.00000000000E+00  0.72595794131E+03  0.72595794132E+03  0.50400001928E-02 0.  1.
        1   -1    0    0  501    0  0.00000000000E+00  0.00000000000E+00 -0.93319345060E+03  0.93319345061E+03  0.50400001928E-02 0. -1.
    10030    2    1    2    0    0  0.00000000000E+00  0.00000000000E+00 -0.20723550929E+03  0.16591513919E+04  0.16461581896E+04 0.  0.
        2    1    3    3  502    0 -0.25284791732E+03 -0.72245466337E+03  0.20140336481E+03  0.79147717925E+03  0.25500000920E-02 0.  1.
       -2    1    3    3    0  502  0.25284791732E+03  0.72245466337E+03 -0.40863887410E+03  0.86767421268E+03  0.25500000920E-02 0. -1.
</event>
<event>
 5   0  0.2561518E-04  0.1695637E+04  0.7818609E-02  0.8763857E-01
       -1   -1    0    0    0  501  0.00000000000E+00  0.00000000000E+00  0.40414559996E+03  0.40414559999E+03  0.50400001928E-02 0. -1.
        1   -1    0    0  501    0  0.00000000000E+00  0.00000000000E+00 -0.17785569856E+04  0.17785569856E+04  0.50400001928E-02 0.  1.
    10030    2    1    2    0    0  0.00000000000E+00  0.00000000000E+00 -0.13744113856E+04  0.21827025856E+04  0.16956367300E+04 0.  0.
        4    1    3    3  502    0  0.17243591011E+03 -0.45336782355E+03 -0.15822983594E+04  0.16549762045E+04  0.12699999809E+01 0.  1.
       -4    1    3    3    0  502 -0.17243591011E+03  0.45336782355E+03  0.20788697375E+03  0.52772638107E+03  0.12699999809E+01 0. -1.
</event>
<event>
 5   0  0.2785059E-04  0.1691884E+04  0.7818609E-02  0.8766007E-01
        1   -1    0    0  501    0  0.00000000000E+00  0.00000000000E+00  0.17556536890E+04  0.17556536890E+04  0.50400001928E-02 0. -1.
       -1   -1    0    0    0  501  0.00000000000E+00  0.00000000000E+00 -0.40760750941E+03  0.40760750944E+03  0.50400001928E-02 0.  1.
    10030    2    1    2    0    0  0.00000000000E+00  0.00000000000E+00  0.13480461796E+04  0.21632611984E+04  0.16918837166E+04 0.  0.
        5    1    3    3  502    0  0.81810609954E+02 -0.37472824617E+03  0.16380663946E+04  0.16823786249E+04  0.46999998093E+01 0. -1.
       -5    1    3    3    0  502 -0.81810609954E+02  0.37472824617E+03 -0.29002021504E+03  0.48088257352E+03  0.46999998093E+01 0.  1.
</event>
<event>
 5   0  0.5198430E-04  0.1701310E+04  0.7818609E-02  0.8760618E-01
        2   -1    0    0  501    0  0.00000000000E+00  0.00000000000E+00  0.72336829374E+03  0.72336829374E+03  0.25500000920E-02 0.  1.
       -2   -1    0    0    0  501  0.00000000000E+00  0.00000000000E+00 -0.10003395799E+04  0.10003395799E+04  0.25500000920E-02 0. -1.
    10030    2    1    2    0    0  0.00000000000E+00  0.00000000000E+00 -0.27697128616E+03  0.17237078736E+04  0.17013100071E+04 0.  0.
        4    1    3    3  502    0 -0.35385264027E+03 -0.56792337044E+03  0.39365627267E+03  0.77634755080E+03  0.12699999809E+01 0.  1.
       -4    1    3    3    0  502  0.35385264027E+03  0.56792337044E+03 -0.67062755883E+03  0.94736032284E+03  0.12699999809E+01 0. -1.
</event>
<event>
 5   0  0.2785059E-04  0.1721375E+04  0.7818609E-02  0.8749267E-01
       -1   -1    0    0    0  501  0.00000000000E+00  0.00000000000E+00  0.40168527931E+03  0.40168527934E+03  0.50400001928E-02 0. -1.
        1   -1    0    0  501    0  0.00000000000E+00  0.00000000000E+00 -0.18441871995E+04  0.18441871995E+04  0.50400001928E-02 0.  1.
    10030    2    1    2    0    0  0.00000000000E+00  0.00000000000E+00 -0.14425019202E+04  0.22458724789E+04  0.17213748579E+04 0.  0.
        5    1    3    3  502    0 -0.27714017525E+03  0.54317961422E+03 -0.15136972675E+04  0.16319167496E+04  0.46999998093E+01 0.  1.
       -5    1    3    3    0  502  0.27714017525E+03 -0.54317961422E+03  0.71195347257E+02  0.61395572928E+03  0.46999998093E+01 0. -1.
</event>
<event>
 5   0  0.5021349E-04  0.1459904E+04  0.7818609E-02  0.8911563E-01
        2   -1    0    0  501    0  0.00000000000E+00  0.00000000000E+00  0.24946305008E+04  0.24946305008E+04  0.25500000920E-02 0.  1.
       -2   -1    0    0    0  501  0.00000000000E+00  0.00000000000E+00 -0.21359062312E+03  0.21359062313E+03  0.25500000920E-02 0. -1.
    10030    2    1    2    0    0  0.00000000000E+00  0.00000000000E+00  0.22810398777E+04  0.27082211240E+04  0.14599036724E+04 0.  0.
        2    1    3    3  502    0  0.43365315552E+03 -0.55361286406E+03  0.77753552713E+03  0.10483814947E+04  0.25500000920E-02 0.  1.
       -2    1    3    3    0  502 -0.43365315552E+03  0.55361286406E+03  0.15035043506E+04  0.16598396292E+04  0.25500000920E-02 0. -1.
</event>
<event>
 5   0  0.2595644E-04  0.1692915E+04  0.7818609E-02  0.8765415E-01
        1   -1    0    0  501    0  0.00000000000E+00  0.00000000000E+00  0.24341599996E+04  0.24341599997E+04  0.50400001928E-02 0. -1.
       -1   -1    0    0    0  501  0.00000000000E+00  0.00000000000E+00 -0.29434814588E+03  0.29434814592E+03  0.50400001928E-02 0.  1.
    10030    2    1    2    0    0  0.00000000000E+00  0.00000000000E+00  0.21398118538E+04  0.27285081456E+04  0.16929152167E+04 0.  0.
        2    1    3    3  502    0 -0.38425714714E+03 -0.69143549522E+03  0.58436856396E+03  0.98347507225E+03  0.25500000920E-02 0.  1.
       -2    1    3    3    0  502  0.38425714714E+03  0.69143549522E+03  0.15554432898E+04  0.17450330733E+04  0.25500000920E-02 0. -1.
</event>
<event>
 5   0  0.2630135E-04  0.1725445E+04  0.7818609E-02  0.8746984E-01
        1   -1    0    0  501    0  0.00000000000E+00  0.00000000000E+00  0.88802587152E+03  0.88802587153E+03  0.50400001928E-02 0.  1.
       -1   -1    0    0    0  501  0.00000000000E+00  0.00000000000E+00 -0.83814020371E+03  0.83814020373E+03  0.50400001928E-02 0. -1.
    10030    2    1    2    0    0  0.00000000000E+00  0.00000000000E+00  0.49885667809E+02  0.17261660753E+04  0.17254450845E+04 0.  0.
        1    1    3    3  502    0  0.26761357805E+03  0.48368626181E+03 -0.63769392954E+03  0.84393303930E+03  0.50400001928E-02 0. -1.
       -1    1    3    3    0  502 -0.26761357805E+03 -0.48368626181E+03  0.68757959735E+03  0.88223303596E+03  0.50400001928E-02 0.  1.
</event>
<event>
 5   0  0.5021349E-04  0.1684945E+04  0.7818609E-02  0.8769998E-01
       -2   -1    0    0    0  501  0.00000000000E+00  0.00000000000E+00  0.74360460525E+03  0.74360460526E+03  0.25500000920E-02 0.  1.
        2   -1    0    0  501    0  0.00000000000E+00  0.00000000000E+00 -0.95448533597E+03  0.95448533597E+03  0.25500000920E-02 0. -1.
    10030    2    1    2    0    0  0.00000000000E+00  0.00000000000E+00 -0.21088073072E+03  0.16980899412E+04  0.16849447368E+04 0.  0.
        2    1    3    3  502    0  0.24327823139E+03  0.42051238671E+03 -0.79910127689E+03  0.93518865261E+03  0.25500000920E-02 0. -1.
       -2    1    3    3    0  502 -0.24327823139E+03 -0.42051238671E+03  0.58822054617E+03  0.76290128862E+03  0.25500000920E-02 0.  1.
</event>
<event>
 5   0  0.5198430E-04  0.1692934E+04  0.7818609E-02  0.8765405E-01
       -2   -1    0    0    0  501  0.00000000000E+00  0.00000000000E+00  0.70994065003E+03  0.70994065003E+03  0.25500000920E-02 0.  1.
        2   -1    0    0  501    0  0.00000000000E+00  0.00000000000E+00 -0.10092482256E+04  0.10092482256E+04  0.25500000920E-02 0. -1.
    10030    2    1    2    0    0  0.00000000000E+00  0.00000000000E+00 -0.29930757554E+03  0.17191888756E+04  0.16929339518E+04 0.  0.
        4    1    3    3  502    0 -0.19239616898E+02 -0.50274459974E+03  0.54162520633E+03  0.73924405473E+03  0.12699999809E+01 0.  1.
       -4    1    3    3    0  502  0.19239616898E+02  0.50274459974E+03 -0.84093278186E+03  0.97994482086E+03  0.12699999809E+01 0. -1.
</event>
<event>
 5   0  0.2595644E-04  0.1703292E+04  0.7818609E-02  0.8759489E-01
        1   -1    0    0  501    0  0.00000000000E+00  0.00000000000E+00  0.14006547715E+04  0.14006547715E+04  0.50400001928E-02 0. -1.
       -1   -1    0    0    0  501  0.00000000000E+00  0.00000000000E+00 -0.51783018391E+03  0.51783018394E+03  0.50400001928E-02 0.  1.
    10030    2    1    2    0    0  0.00000000000E+00  0.00000000000E+00  0.88282458758E+03  0.19184849554E+04  0.17032924798E+04 0.  0.
        2    1    3    3  502    0  0.11828439959E+02  0.72859082663E+03 -0.55093543461E+02  0.73076658597E+03  0.25500000920E-02 0. -1.
       -2    1    3    3    0  502 -0.11828439959E+02 -0.72859082663E+03  0.93791813104E+03  0.11877183695E+04  0.25500000920E-02 0.  1.
</event>
<event>
 5   0  0.2630135E-04  0.1683981E+04  0.7818609E-02  0.8770554E-01
       -1   -1    0    0    0  501  0.00000000000E+00  0.00000000000E+00  0.76360100023E+03  0.76360100024E+03  0.50400001928E-02 0.  1.
        1   -1    0    0  501    0  0.00000000000E+00  0.00000000000E+00 -0.92842728831E+03  0.92842728832E+03  0.50400001928E-02 0. -1.
    10030    2    1    2    0    0  0.00000000000E+00  0.00000000000E+00 -0.16482628808E+03  0.16920282886E+04  0.16839810047E+04 0.  0.
        1    1    3    3  502    0  0.58704291037E+03  0.31026894723E+03 -0.60263417127E+03  0.89669066162E+03  0.50400001928E-02 0. -1.
       -1    1    3    3    0  502 -0.58704291037E+03 -0.31026894723E+03  0.43780788319E+03  0.79533762695E+03  0.50400001928E-02 0.  1.
</event>
<event>
 5   0  0.2561518E-04  0.1692143E+04  0.7818609E-02  0.8765858E-01
       -1   -1    0    0    0  501  0.00000000000E+00  0.00000000000E+00  0.56226761984E+03  0.56226761986E+03  0.50400001928E-02 0. -1.
        1   -1    0    0  501    0  0.00000000000E+00  0.00000000000E+00 -0.12731246582E+04  0.12731246582E+04  0.50400001928E-02 0.  1.
    10030    2    1    2    0    0  0.00000000000E+00  0.00000000000E+00 -0.71085703838E+03  0.18353922781E+04  0.16921427497E+04 0.  0.
        4    1    3    3  502    0 -0.38832266505E+03 -0.41775780338E+02 -0.11694952840E+04  0.12329884590E+04  0.12699999809E+01 0.  1.
       -4    1    3    3    0  502  0.38832266505E+03  0.41775780338E+02  0.45863824558E+03  0.60240381906E+03  0.12699999809E+01 0. -1.
</event>
<event>
 5   0  0.5198430E-04  0.1666428E+04  0.7818609E-02  0.8780747E-01
        2   -1    0    0  501    0  0.00000000000E+00  0.00000000000E+00  0.53410046147E+03  0.53410046148E+03  0.25500000920E-02 0.  1.
       -2   -1    0    0    0  501  0.00000000000E+00  0.00000000000E+00 -0.12998409646E+04  0.12998409646E+04  0.25500000920E-02 0. -1.
    10030    2    1    2    0    0  0.00000000000E+00  0.00000000000E+00 -0.76574050316E+03  0.18339414261E+04  0.16664281071E+04 0.  0.
        4    1    3    3  502    0 -0.18260664770E+03  0.43618613956E+03  0.37212380290E+03  0.60173189521E+03  0.12699999809E+01 0.  1.
       -4    1    3    3    0  502  0.18260664770E+03 -0.43618613956E+03 -0.11378643061E+04  0.12322095309E+04  0.12699999809E+01 0. -1.
</event>
<event>
 5   0  0.2583422E-04  0.1709398E+04  0.7818609E-02  0.8756022E-01
        1   -1    0    0  501    0  0.00000000000E+00  0.00000000000E+00  0.73583894768E+03  0.73583894770E+03  0.50400001928E-02 0. -1.
       -1   -1    0    0    0  501  0.00000000000E+00  0.00000000000E+00 -0.99275859659E+03  0.99275859660E+03  0.50400001928E-02 0.  1.
    10030    2    1    2    0    0  0.00000000000E+00  0.00000000000E+00 -0.25691964891E+03  0.17285975443E+04  0.17093980707E+04 0.  0.
        3    1    3    3  502    0 -0.37249577290E+03  0.52435548948E+03  0.44071960779E+03  0.77970222718E+03  0.10100000352E+00 0. -1.
       -3    1    3    3    0  502  0.37249577290E+03 -0.52435548948E+03 -0.69763925670E+03  0.94889531712E+03  0.10100000352E+00 0.  1.
</event>
<event>
 5   0  0.2630135E-04  0.1632892E+04  0.7818609E-02  0.8800592E-01
        1   -1    0    0  501    0  0.00000000000E+00  0.00000000000E+00  0.95508420580E+03  0.95508420581E+03  0.50400001928E-02 0. -1.
       -1   -1    0    0    0  501  0.00000000000E+00  0.00000000000E+00 -0.69793212041E+03  0.69793212043E+03  0.50400001928E-02 0.  1.
    10030    2    1    2    0    0  0.00000000000E+00  0.00000000000E+00  0.25715208539E+03  0.16530163262E+04  0.16328918457E+04 0.  0.
        1    1    3    3  502    0 -0.53995077302E+03 -0.16456856658E+02 -0.49115032745E+03  0.73010020518E+03  0.50400001928E-02 0.  1.
       -1    1    3    3    0  502  0.53995077302E+03  0.16456856658E+02  0.74830241284E+03  0.92291612106E+03  0.50400001928E-02 0. -1.
</event>
<event>
 5   0  0.2630135E-04  0.1693788E+04  0.7818609E-02  0.8764915E-01
       -1   -1    0    0    0  501  0.00000000000E+00  0.00000000000E+00  0.88829128586E+03  0.88829128587E+03  0.50400001928E-02 0.  1.
        1   -1    0    0  501    0  0.00000000000E+00  0.00000000000E+00 -0.80742569336E+03  0.80742569338E+03  0.50400001928E-02 0. -1.
    10030    2    1    2    0    0  0.00000000000E+00  0.00000000000E+00  0.80865592496E+02  0.16957169793E+04  0.16937877168E+04 0.  0.
        1    1    3    3  502    0  0.99025128507E+01 -0.58635637130E+03 -0.57126015906E+03  0.81868798897E+03  0.50400001928E-02 0. -1.
       -1    1    3    3    0  502 -0.99025128507E+01  0.58635637130E+03  0.65212575156E+03  0.87702899028E+03  0.50400001928E-02 0.  1.
</event>
<event>
 5   0  0.5198430E-04  0.1690179E+04  0.7818609E-02  0.8766986E-01
        2   -1    0    0  501    0  0.00000000000E+00  0.00000000000E+00  0.15515881570E+04  0.15515881570E+04  0.25500000920E-02 0.  1.
       -2   -1    0    0    0  501  0.00000000000E+00  0.00000000000E+00 -0.46028724182E+03  0.46028724182E+03  0.25500000920E-02 0. -1.
    10030    2    1    2    0    0  0.00000000000E+00  0.00000000000E+00  0.10913009152E+04  0.20118753988E+04  0.16901789648E+04 0.  0.
        4    1    3    3  502    0  0.50583966427E+03  0.41413179267E+03 -0.91812150322E+02  0.66015906530E+03  0.12699999809E+01 0. -1.
       -4    1    3    3    0  502 -0.50583966427E+03 -0.41413179267E+03  0.11831130655E+04  0.13517163335E+04  0.12699999809E+01 0.  1.
</event>
<event>
 5   0  0.5299877E-04  0.1691856E+04  0.7818609E-02  0.8766023E-01
        2   -1    0    0  501    0  0.00000000000E+00  0.00000000000E+00  0.16497753749E+04  0.16497753750E+04  0.25500000920E-02 0. -1.
       -2   -1    0    0    0  501  0.00000000000E+00  0.00000000000E+00 -0.43375248803E+03  0.43375248804E+03  0.25500000920E-02 0.  1.
    10030    2    1    2    0    0  0.00000000000E+00  0.00000000000E+00  0.12160228869E+04  0.20835278630E+04  0.16918559910E+04 0.  0.
        3    1    3    3  502    0  0.22581496759E+03 -0.69974191810E+02 -0.39224401665E+03  0.45797834654E+03  0.10100000352E+00 0.  1.
       -3    1    3    3    0  502 -0.22581496759E+03  0.69974191810E+02  0.16082669036E+04  0.16255495164E+04  0.10100000352E+00 0. -1.
</event>
<event>
 5   0  0.5342255E-04  0.1682700E+04  0.7818609E-02  0.8771293E-01
       -2   -1    0    0    0  501  0.00000000000E+00  0.00000000000E+00  0.95847901117E+03  0.95847901117E+03  0.25500000920E-02 0.  1.
        2   -1    0    0  501    0  0.00000000000E+00  0.00000000000E+00 -0.73853453739E+03  0.73853453740E+03  0.25500000920E-02 0. -1.
    10030    2    1    2    0    0  0.00000000000E+00  0.00000000000E+00  0.21994447377E+03  0.16970135486E+04  0.16827000364E+04 0.  0.
        5    1    3    3  502    0 -0.28473352003E+03 -0.99092465667E+02  0.90211862128E+03  0.95117432211E+03  0.46999998093E+01 0.  1.
       -5    1    3    3    0  502  0.28473352003E+03  0.99092465667E+02 -0.68217414751E+03  0.74583922645E+03  0.46999998093E+01 0. -1.
</event>
<event>
 5   0  0.5299877E-04  0.1690268E+04  0.7818609E-02  0.8766934E-01
       -2   -1    0    0    0  501  0.00000000000E+00  0.00000000000E+00  0.46999342177E+03  0.46999342178E+03  0.25500000920E-02 0. -1.
        2   -1    0    0  501    0  0.00000000000E+00  0.00000000000E+00 -0.15197055656E+04  0.15197055656E+04  0.25500000920E-02 0.  1.
    10030    2    1    2    0    0  0.00000000000E+00  0.00000000000E+00 -0.10497121438E+04  0.19896989873E+04  0.16902681667E+04 0.  0.
        3    1    3    3  502    0 -0.73702862575E+03  0.36415212640E+01 -0.10116714620E+04  0.12516803158E+04  0.10100000352E+00 0.  1.
       -3    1    3    3    0  502  0.73702862575E+03 -0.36415212640E+01 -0.38040681825E+02  0.73801867153E+03  0.10100000352E+00 0. -1.
</event>
<event>
 5   0  0.2785059E-04  0.1708190E+04  0.7818609E-02  0.8756707E-01
       -1   -1    0    0    0  501  0.00000000000E+00  0.00000000000E+00  0.83737906545E+03  0.83737906546E+03  0.50400001928E-02 0.  1.
        1   -1    0    0  501    0  0.00000000000E+00  0.00000000000E+00 -0.87114451389E+03  0.87114451391E+03  0.50400001928E-02 0. -1.
    10030    2    1    2    0    0  0.00000000000E+00  0.00000000000E+00 -0.33765448448E+02  0.17085235794E+04  0.17081898945E+04 0.  0.
        5    1    3    3  502    0 -0.67032472095E+03  0.52655183459E+03  0.36644296668E+02  0.85320393840E+03  0.46999998093E+01 0.  1.
       -5    1    3    3    0  502  0.67032472095E+03 -0.52655183459E+03 -0.70409745116E+02  0.85531964097E+03  0.46999998093E+01 0. -1.
</event>
<event>
 5   0  0.5342255E-04  0.1725014E+04  0.7818609E-02  0.8747225E-01
        2   -1    0    0  501    0  0.00000000000E+00  0.00000000000E+00  0.80391323203E+03  0.80391323203E+03  0.25500000920E-02 0.  1.
       -2   -1    0    0    0  501  0.00000000000E+00  0.00000000000E+00 -0.92537171661E+03  0.92537171661E+03  0.25500000920E-02 0. -1.
    10030    2    1    2    0    0  0.00000000000E+00  0.00000000000E+00 -0.12145848458E+03  0.17292849486E+04  0.17250142811E+04 0.  0.
        5    1    3    3  502    0 -0.65196723951E+03 -0.56408507866E+03 -0.35304667820E+02  0.86285674763E+03  0.46999998093E+01 0.  1.
       -5    1    3    3    0  502  0.65196723951E+03  0.56408507866E+03 -0.86153816761E+02  0.86642820101E+03  0.46999998093E+01 0. -1.
</event>
<event>
 5   0  0.5021349E-04  0.1708850E+04  0.7818609E-02  0.8756333E-01
       -2   -1    0    0    0  501  0.00000000000E+00  0.00000000000E+00  0.40263393128E+03  0.40263393129E+03  0.25500000920E-02 0. -1.
        2   -1    0    0  501    0  0.00000000000E+00  0.00000000000E+00 -0.18131647697E+04  0.18131647697E+04  0.25500000920E-02 0.  1.
    10030    2    1    2    0    0  0.00000000000E+00  0.00000000000E+00 -0.14105308384E+04  0.22157987010E+04  0.17088495069E+04 0.  0.
        2    1    3    3  502    0 -0.61466017425E+03 -0.52494727505E+03 -0.34624037985E+03  0.87935156340E+03  0.25500000920E-02 0. -1.
       -2    1    3    3    0  502  0.61466017425E+03  0.52494727505E+03 -0.10642904586E+04  0.13364471376E+04  0.25500000920E-02 0.  1.
</event>
<event>
 5   0  0.5342255E-04  0.1671446E+04  0.7818609E-02  0.8777819E-01
        2   -1    0    0  501    0  0.00000000000E+00  0.00000000000E+00  0.10675657242E+04  0.10675657242E+04  0.25500000920E-02 0. -1.
       -2   -1    0    0    0  501  0.00000000000E+00  0.00000000000E+00 -0.65422937037E+03  0.65422937037E+03  0.25500000920E-02 0.  1.
    10030    2    1    2    0    0  0.00000000000E+00  0.00000000000E+00  0.41333635387E+03  0.17217950946E+04  0.16714459029E+04 0.  0.
        5    1    3    3  502    0  0.63957784348E+03  0.11046067974E+03 -0.33563993206E+03  0.73071036234E+03  0.46999998093E+01 0.  1.
       -5    1    3    3    0  502 -0.63957784348E+03 -0.11046067974E+03  0.74897628594E+03  0.99108473227E+03  0.46999998093E+01 0. -1.
</event>
<event>
 5   0  0.2630135E-04  0.1739037E+04  0.7818609E-02  0.8739408E-01
        1   -1    0    0  501    0  0.00000000000E+00  0.00000000000E+00  0.12860193841E+04  0.12860193841E+04  0.50400001928E-02 0.  1.
       -1   -1    0    0    0  501  0.00000000000E+00  0.00000000000E+00 -0.58790909175E+03  0.58790909177E+03  0.50400001928E-02 0. -1.
    10030    2    1    2    0    0  0.00000000000E+00  0.00000000000E+00  0.69811029236E+03  0.18739284759E+04  0.17390370762E+04 0.  0.
        1    1    3    3  502    0 -0.61592332503E+03 -0.33690675856E+03  0.90187394980E+03  0.11429104635E+04  0.50400001928E-02 0.  1.
       -1    1    3    3    0  502  0.61592332503E+03  0.33690675856E+03 -0.20376365743E+03  0.73101801236E+03  0.50400001928E-02 0. -1.
</event>
<event>
 5   0  0.5021349E-04  0.1714349E+04  0.7818609E-02  0.8753223E-01
       -2   -1    0    0    0  501  0.00000000000E+00  0.00000000000E+00  0.50996740869E+03  0.50996740870E+03  0.25500000920E-02 0. -1.
        2   -1    0    0  501    0  0.00000000000E+00  0.00000000000E+00 -0.14407751143E+04  0.14407751143E+04  0.25500000920E-02 0.  1.
    10030    2    1    2    0    0  0.00000000000E+00  0.00000000000E+00 -0.93080770556E+03  0.19507425230E+04  0.17143492661E+04 0.  0.
        2    1    3    3  502    0 -0.36361118751E+03  0.31838787982E+03  0.34014291214E+03  0.59100011708E+03  0.25500000920E-02 0. -1.
       -2    1    3    3    0  502  0.36361118751E+03 -0.31838787982E+03 -0.12709506177E+04  0.13597424059E+04  0.25500000920E-02 0.  1.
</event>
<event>
 5   0  0.2785059E-04  0.1737193E+04  0.7818609E-02  0.8740432E-01
       -1   -1    0    0    0  501  0.00000000000E+00  0.00000000000E+00  0.51671273845E+03  0.51671273847E+03  0.50400001928E-02 0. -1.
        1   -1    0    0  501    0  0.00000000000E+00  0.00000000000E+00 -0.14601139365E+04  0.14601139366E+04  0.50400001928E-02 0.  1.
    10030    2    1    2    0    0  0.00000000000E+00  0.00000000000E+00 -0.94340119810E+03  0.19768266750E+04  0.17371925289E+04 0.  0.
        5    1    3    3  502    0 -0.58837959139E+03  0.44103223430E+03 -0.99779164034E+03  0.12394798194E+04  0.46999998093E+01 0.  1.
       -5    1    3    3    0  502  0.58837959139E+03 -0.44103223430E+03  0.54390442246E+02  0.73734685559E+03  0.46999998093E+01 0. -1.
</event>
<event>
 5   0  0.2583422E-04  0.1697586E+04  0.7818609E-02  0.8762743E-01
       -1   -1    0    0    0  501  0.00000000000E+00  0.00000000000E+00  0.51125106042E+03  0.51125106044E+03  0.50400001928E-02 0.  1.
        1   -1    0    0  501    0  0.00000000000E+00  0.00000000000E+00 -0.14091887846E+04  0.14091887846E+04  0.50400001928E-02 0. -1.
    10030    2    1    2    0    0  0.00000000000E+00  0.00000000000E+00 -0.89793772414E+03  0.19204398450E+04  0.16975856508E+04 0.  0.
        3    1    3    3  502    0 -0.20867050861E+03  0.54299442693E+03 -0.11482252759E+04  0.12871703940E+04  0.10100000352E+00 0. -1.
       -3    1    3    3    0  502  0.20867050861E+03 -0.54299442693E+03  0.25028755173E+03  0.63326945102E+03  0.10100000352E+00 0.  1.
</event>
<event>
 5   0  0.5198430E-04  0.1694590E+04  0.7818609E-02  0.8764456E-01
        2   -1    0    0  501    0  0.00000000000E+00  0.00000000000E+00  0.67735660446E+03  0.67735660446E+03  0.25500000920E-02 0. -1.
       -2   -1    0    0    0  501  0.00000000000E+00  0.00000000000E+00 -0.10598688460E+04  0.10598688460E+04  0.25500000920E-02 0.  1.
    10030    2    1    2    0    0  0.00000000000E+00  0.00000000000E+00 -0.38251224154E+03  0.17372254505E+04  0.16945904080E+04 0.  0.
        4    1    3    3  502    0  0.19986277050E+03  0.47025146530E+03 -0.88415017984E+03  0.10211781045E+04  0.12699999809E+01 0.  1.
       -4    1    3    3    0  502 -0.19986277050E+03 -0.47025146530E+03  0.50163793830E+03  0.71604734598E+03  0.12699999809E+01 0. -1.
</event>
<event>
 5   0  0.2583422E-04  0.1758282E+04  0.7818609E-02  0.8728805E-01
        1   -1    0    0  501    0  0.00000000000E+00  0.00000000000E+00  0.13504677007E+04  0.13504677007E+04  0.50400001928E-02 0.  1.
       -1   -1    0    0    0  501  0.00000000000E+00  0.00000000000E+00 -0.57231174173E+03  0.57231174175E+03  0.50400001928E-02 0. -1.
    10030    2    1    2    0    0  0.00000000000E+00  0.00000000000E+00  0.77815595897E+03  0.19227794424E+04  0.17582815724E+04 0.  0.
        3    1    3    3  502    0 -0.78965683382E+03 -0.23943122094E+03  0.57380082927E+02  0.82715035446E+03  0.10100000352E+00 0. -1.
       -3    1    3    3    0  502  0.78965683382E+03  0.23943122094E+03  0.72077587604E+03  0.10956290880E+04  0.10100000352E+00 0.  1.
</event>
<event>
 5   0  0.2561518E-04  0.1746922E+04  0.7818609E-02  0.8735047E-01
        1   -1    0    0  501    0  0.00000000000E+00  0.00000000000E+00  0.15179725357E+04  0.15179725357E+04  0.50400001928E-02 0. -1.
       -1   -1    0    0    0  501  0.00000000000E+00  0.00000000000E+00 -0.50260050578E+03  0.50260050581E+03  0.50400001928E-02 0.  1.
    10030    2    1    2    0    0  0.00000000000E+00  0.00000000000E+00  0.10153720299E+04  0.20205730415E+04  0.17469215944E+04 0.  0.
        4    1    3    3  502    0 -0.10105179714E+03 -0.85144536461E+01  0.15111392830E+04  0.15145387110E+04  0.12699999809E+01 0. -1.
       -4    1    3    3    0  502  0.10105179714E+03  0.85144536461E+01 -0.49576725303E+03  0.50603433056E+03  0.12699999809E+01 0.  1.
</event>
<event>
 5   0  0.2583422E-04  0.1771800E+04  0.7818609E-02  0.8721441E-01
       -1   -1    0    0    0  501  0.00000000000E+00  0.00000000000E+00  0.77833678856E+03  0.77833678858E+03  0.50400001928E-02 0. -1.
        1   -1    0    0  501    0  0.00000000000E+00  0.00000000000E+00 -0.10083279659E+04  0.10083279659E+04  0.50400001928E-02 0.  1.
    10030    2    1    2    0    0  0.00000000000E+00  0.00000000000E+00 -0.22999117735E+03  0.17866647545E+04  0.17717999332E+04 0.  0.
        3    1    3    3  502    0 -0.74168579510E+03 -0.47129791124E+03 -0.22818345900E+03  0.90790266050E+03  0.10100000352E+00 0. -1.
       -3    1    3    3    0  502  0.74168579510E+03  0.47129791124E+03 -0.18077183491E+01  0.87876209399E+03  0.10100000352E+00 0.  1.
</event>
<event>
 5   0  0.5342255E-04  0.1846942E+04  0.7818609E-02  0.8681727E-01
       -2   -1    0    0    0  501  0.00000000000E+00  0.00000000000E+00  0.42040287144E+03  0.42040287144E+03  0.25500000920E-02 0. -1.
        2   -1    0    0  501    0  0.00000000000E+00  0.00000000000E+00 -0.20285282830E+04  0.20285282830E+04  0.25500000920E-02 0.  1.
    10030    2    1    2    0    0  0.00000000000E+00  0.00000000000E+00 -0.16081254116E+04  0.24489311545E+04  0.18469424626E+04 0.  0.
        5    1    3    3  502    0  0.70821255817E+01 -0.89727107525E+03 -0.51468153095E+03  0.10344393203E+04  0.46999998093E+01 0. -1.
       -5    1    3    3    0  502 -0.70821255817E+01  0.89727107525E+03 -0.10934438807E+04  0.14144918342E+04  0.46999998093E+01 0.  1.
</event>
<event>
 5   0  0.2561518E-04  0.1753936E+04  0.7818609E-02  0.8731187E-01
        1   -1    0    0  501    0  0.00000000000E+00  0.00000000000E+00  0.14836008545E+04  0.14836008545E+04  0.50400001928E-02 0. -1.
       -1   -1    0    0    0  501  0.00000000000E+00  0.00000000000E+00 -0.51838255755E+03  0.51838255758E+03  0.50400001928E-02 0.  1.
    10030    2    1    2    0    0  0.00000000000E+00  0.00000000000E+00  0.96521829695E+03  0.20019834121E+04  0.17539359229E+04 0.  0.
        4    1    3    3  502    0 -0.76112000104E+03  0.22468214378E+03  0.56618897847E+02  0.79560859360E+03  0.12699999809E+01 0.  1.
       -4    1    3    3    0  502  0.76112000104E+03 -0.22468214378E+03  0.90859939910E+03  0.12063748185E+04  0.12699999809E+01 0. -1.
</event>
<event>
 5   0  0.2785059E-04  0.1699765E+04  0.7818609E-02  0.8761499E-01
       -1   -1    0    0    0  501  0.00000000000E+00  0.00000000000E+00  0.42084922481E+03  0.42084922484E+03  0.50400001928E-02 0.  1.
        1   -1    0    0  501    0  0.00000000000E+00  0.00000000000E+00 -0.17162914378E+04  0.17162914378E+04  0.50400001928E-02 0. -1.
    10030    2    1    2    0    0  0.00000000000E+00  0.00000000000E+00 -0.12954422130E+04  0.21371406626E+04  0.16997645968E+04 0.  0.
        5    1    3    3  502    0  0.67594517926E+03  0.49246208016E+03 -0.83780896309E+03  0.11837933664E+04  0.46999998093E+01 0. -1.
       -5    1    3    3    0  502 -0.67594517926E+03 -0.49246208016E+03 -0.45763324988E+03  0.95334729620E+03  0.46999998093E+01 0.  1.
</event>
<event>
 5   0  0.5342255E-04  0.1704974E+04  0.7818609E-02  0.8758532E-01
       -2   -1    0    0    0  501  0.00000000000E+00  0.00000000000E+00  0.28308600765E+03  0.28308600766E+03  0.25500000920E-02 0.  1.
        2   -1    0    0  501    0  0.00000000000E+00  0.00000000000E+00 -0.25671861701E+04  0.25671861702E+04  0.25500000920E-02 0. -1.
    10030    2    1    2    0    0  0.00000000000E+00  0.00000000000E+00 -0.22841001625E+04  0.28502721778E+04  0.17049744676E+04 0.  0.
        5    1    3    3  502    0  0.33751977685E+03 -0.77574375927E+03 -0.13174983763E+04  0.15657337070E+04  0.46999998093E+01 0. -1.
       -5    1    3    3    0  502 -0.33751977685E+03  0.77574375927E+03 -0.96660178623E+03  0.12845384708E+04  0.46999998093E+01 0.  1.
</event>
<event>
 5   0  0.2785059E-04  0.1690236E+04  0.7818609E-02  0.8766953E-01
       -1   -1    0    0    0  501  0.00000000000E+00  0.00000000000E+00  0.14579771093E+04  0.14579771093E+04  0.50400001928E-02 0.  1.
        1   -1    0    0  501    0  0.00000000000E+00  0.00000000000E+00 -0.48987376907E+03  0.48987376909E+03  0.50400001928E-02 0. -1.
    10030    2    1    2    0    0  0.00000000000E+00  0.00000000000E+00  0.96810334023E+03  0.19478508784E+04  0.16902363643E+04 0.  0.
        5    1    3    3  502    0  0.29192346282E+03  0.57638516484E+03  0.11118403727E+04  0.12859433389E+04  0.46999998093E+01 0.  1.
       -5    1    3    3    0  502 -0.29192346282E+03 -0.57638516484E+03 -0.14373703248E+03  0.66190753953E+03  0.46999998093E+01 0. -1.
</event>
<event>
 5   0  0.5198430E-04  0.1704496E+04  0.7818609E-02  0.8758804E-01
       -2   -1    0    0    0  501  0.00000000000E+00  0.00000000000E+00  0.66580594150E+03  0.66580594151E+03  0.25500000920E-02 0. -1.
        2   -1    0    0  501    0  0.00000000000E+00  0.00000000000E+00 -0.10908989244E+04  0.10908989244E+04  0.25500000920E-02 0.  1.
    10030    2    1    2    0    0  0.00000000000E+00  0.00000000000E+00 -0.42509298291E+03  0.17567048659E+04  0.17044963895E+04 0.  0.
        4    1    3    3  502    0  0.21691927043E+03 -0.40411498559E+03 -0.95285336184E+03  0.10574942239E+04  0.12699999809E+01 0.  1.
       -4    1    3    3    0  502 -0.21691927043E+03  0.40411498559E+03  0.52776037894E+03  0.69921064204E+03  0.12699999809E+01 0. -1.
</event>
<event>
 5   0  0.2561518E-04  0.1734518E+04  0.7818609E-02  0.8741919E-01
       -1   -1    0    0    0  501  0.00000000000E+00  0.00000000000E+00  0.11941167055E+04  0.11941167055E+04  0.50400001928E-02 0.  1.
        1   -1    0    0  501    0  0.00000000000E+00  0.00000000000E+00 -0.62986960449E+03  0.62986960451E+03  0.50400001928E-02 0. -1.
    10030    2    1    2    0    0  0.00000000000E+00  0.00000000000E+00  0.56424710096E+03  0.18239863100E+04  0.17345175894E+04 0.  0.
        4    1    3    3  502    0 -0.35960487707E+03  0.63940611508E+03  0.76856415491E+03  0.10624727388E+04  0.12699999809E+01 0.  1.
       -4    1    3    3    0  502  0.35960487707E+03 -0.63940611508E+03 -0.20431705395E+03  0.76151357115E+03  0.12699999809E+01 0. -1.
</event>
<event>
 5   0  0.2595644E-04  0.1628714E+04  0.7818609E-02  0.8803100E-01
       -1   -1    0    0    0  501  0.00000000000E+00  0.00000000000E+00  0.44339717865E+03  0.44339717867E+03  0.50400001928E-02 0.  1.
        1   -1    0    0  501    0  0.00000000000E+00  0.00000000000E+00 -0.14956730063E+04  0.14956730063E+04  0.50400001928E-02 0. -1.
    10030    2    1    2    0    0  0.00000000000E+00  0.00000000000E+00 -0.10522758277E+04  0.19390701850E+04  0.16287138376E+04 0.  0.
        2    1    3    3  502    0 -0.62811690630E+02  0.48919789131E+01 -0.14927672272E+04  0.14940961262E+04  0.25500000920E-02 0. -1.
       -2    1    3    3    0  502  0.62811690630E+02 -0.48919789131E+01  0.44049139949E+03  0.44497405876E+03  0.25500000920E-02 0.  1.
</event>
<event>
 5   0  0.2630135E-04  0.1736386E+04  0.7818609E-02  0.8740880E-01
        1   -1    0    0  501    0  0.00000000000E+00  0.00000000000E+00  0.14641639402E+04  0.14641639402E+04  0.50400001928E-02 0.  1.
       -1   -1    0    0    0  501  0.00000000000E+00  0.00000000000E+00 -0.51480527653E+03  0.51480527655E+03  0.50400001928E-02 0. -1.
    10030    2    1    2    0    0  0.00000000000E+00  0.00000000000E+00  0.94935866364E+03  0.19789692167E+04  0.17363862728E+04 0.  0.
        1    1    3    3  502    0  0.31720991812E+03  0.74429510435E+03  0.11578606846E+03  0.81731496266E+03  0.50400001928E-02 0. -1.
       -1    1    3    3    0  502 -0.31720991812E+03 -0.74429510435E+03  0.83357259518E+03  0.11616542541E+04  0.50400001928E-02 0.  1.
</event>
<event>
 5   0  0.5299877E-04  0.1720845E+04  0.7818609E-02  0.8749564E-01
        2   -1    0    0  501    0  0.00000000000E+00  0.00000000000E+00  0.73124708163E+03  0.73124708164E+03  0.25500000920E-02 0. -1.
       -2   -1    0    0    0  501  0.00000000000E+00  0.00000000000E+00 -0.10124174463E+04  0.10124174463E+04  0.25500000920E-02 0.  1.
    10030    2    1    2    0    0  0.00000000000E+00  0.00000000000E+00 -0.28117036471E+03  0.17436645280E+04  0.17208454934E+04 0.  0.
        3    1    3    3  502    0 -0.45270135949E+03 -0.10755829783E+03 -0.87393651496E+03  0.99008704198E+03  0.10100000352E+00 0.  1.
       -3    1    3    3    0  502  0.45270135949E+03  0.10755829783E+03  0.59276615026E+03  0.75357748600E+03  0.10100000352E+00 0. -1.
</event>
<event>
 5   0  0.2595644E-04  0.1696878E+04  0.7818609E-02  0.8763147E-01
       -1   -1    0    0    0  501  0.00000000000E+00  0.00000000000E+00  0.94892480209E+03  0.94892480210E+03  0.50400001928E-02 0. -1.
        1   -1    0    0  501    0  0.00000000000E+00  0.00000000000E+00 -0.75859384773E+03  0.75859384775E+03  0.50400001928E-02 0.  1.
    10030    2    1    2    0    0  0.00000000000E+00  0.00000000000E+00  0.19033095436E+03  0.17075186498E+04  0.16968777408E+04 0.  0.
        2    1    3    3  502    0 -0.18347051838E+03  0.34645617813E+03 -0.66198579127E+03  0.76936239987E+03  0.25500000920E-02 0.  1.
       -2    1    3    3    0  502  0.18347051838E+03 -0.34645617813E+03  0.85231674563E+03  0.93815624998E+03  0.25500000920E-02 0. -1.
</event>
<event>
 5   0  0.2595644E-04  0.1327821E+04  0.7818609E-02  0.9007789E-01
       -1   -1    0    0    0  501  0.00000000000E+00  0.00000000000E+00  0.25132166117E+03  0.25132166122E+03  0.50400001928E-02 0. -1.
        1   -1    0    0  501    0  0.00000000000E+00  0.00000000000E+00 -0.17538366718E+04  0.17538366718E+04  0.50400001928E-02 0.  1.
    10030    2    1    2    0    0  0.00000000000E+00  0.00000000000E+00 -0.15025150106E+04  0.20051583330E+04  0.13278209907E+04 0.  0.
        2    1    3    3  502    0  0.55051795703E+03 -0.37077225528E+03 -0.77441001505E+03  0.10199279179E+04  0.25500000920E-02 0.  1.
       -2    1    3    3    0  502 -0.55051795703E+03  0.37077225528E+03 -0.72810499559E+03  0.98523041514E+03  0.25500000920E-02 0. -1.
</event>
<event>
 5   0  0.5342255E-04  0.1706016E+04  0.7818609E-02  0.8757940E-01
       -2   -1    0    0    0  501  0.00000000000E+00  0.00000000000E+00  0.41598371382E+03  0.41598371383E+03  0.25500000920E-02 0.  1.
        2   -1    0    0  501    0  0.00000000000E+00  0.00000000000E+00 -0.17491621548E+04  0.17491621548E+04  0.25500000920E-02 0. -1.
    10030    2    1    2    0    0  0.00000000000E+00  0.00000000000E+00 -0.13331784410E+04  0.21651458686E+04  0.17060163765E+04 0.  0.
        5    1    3    3  502    0 -0.25405317666E+03  0.19055537128E+03  0.33814207082E+03  0.46391434140E+03  0.46999998093E+01 0.  1.
       -5    1    3    3    0  502  0.25405317666E+03 -0.19055537128E+03 -0.16713205118E+04  0.17012315272E+04  0.46999998093E+01 0. -1.
</event>
<event>
 5   0  0.5198430E-04  0.1740853E+04  0.7818609E-02  0.8738402E-01
       -2   -1    0    0    0  501  0.00000000000E+00  0.00000000000E+00  0.92896647047E+03  0.92896647047E+03  0.25500000920E-02 0.  1.
        2   -1    0    0  501    0  0.00000000000E+00  0.00000000000E+00 -0.81557521942E+03  0.81557521942E+03  0.25500000920E-02 0. -1.
    10030    2    1    2    0    0  0.00000000000E+00  0.00000000000E+00  0.11339125105E+03  0.17445416899E+04  0.17408527025E+04 0.  0.
        4    1    3    3  502    0 -0.67264125072E+03  0.14362990565E+03  0.59127201874E+03  0.90701709742E+03  0.12699999809E+01 0.  1.
       -4    1    3    3    0  502  0.67264125072E+03 -0.14362990565E+03 -0.47788076769E+03  0.83752459247E+03  0.12699999809E+01 0. -1.
</event>
<event>
 5   0  0.2595644E-04  0.1725280E+04  0.7818609E-02  0.8747076E-01
        1   -1    0    0  501    0  0.00000000000E+00  0.00000000000E+00  0.92896478504E+03  0.92896478505E+03  0.50400001928E-02 0. -1.
       -1   -1    0    0    0  501  0.00000000000E+00  0.00000000000E+00 -0.80105023103E+03  0.80105023105E+03  0.50400001928E-02 0.  1.
    10030    2    1    2    0    0  0.00000000000E+00  0.00000000000E+00  0.12791455401E+03  0.17300150161E+04  0.17252796361E+04 0.  0.
        2    1    3    3  502    0 -0.52968284805E+03  0.67351915201E+02  0.74334715809E+03  0.91524051344E+03  0.25500000920E-02 0. -1.
       -2    1    3    3    0  502  0.52968284805E+03 -0.67351915201E+02 -0.61543260408E+03  0.81477450265E+03  0.25500000920E-02 0.  1.
</event>
<event>
 5   0  0.2630135E-04  0.1700099E+04  0.7818609E-02  0.8761308E-01
       -1   -1    0    0    0  501  0.00000000000E+00  0.00000000000E+00  0.67953650677E+03  0.67953650679E+03  0.50400001928E-02 0.  1.
        1   -1    0    0  501    0  0.00000000000E+00  0.00000000000E+00 -0.10633491172E+04  0.10633491172E+04  0.50400001928E-02 0. -1.
    10030    2    1    2    0    0  0.00000000000E+00  0.00000000000E+00 -0.38381261044E+03  0.17428856240E+04  0.17000994613E+04 0.  0.
        1    1    3    3  502    0 -0.68877716977E+03 -0.35116286166E+03  0.17033492035E+03  0.79167122603E+03  0.50400001928E-02 0.  1.
       -1    1    3    3    0  502  0.68877716977E+03  0.35116286166E+03 -0.55414753079E+03  0.95121439798E+03  0.50400001928E-02 0. -1.
</event>
<event>
 5   0  0.2583422E-04  0.1700723E+04  0.7818609E-02  0.8760952E-01
        1   -1    0    0  501    0  0.00000000000E+00  0.00000000000E+00  0.15678681528E+04  0.15678681528E+04  0.50400001928E-02 0. -1.
       -1   -1    0    0    0  501  0.00000000000E+00  0.00000000000E+00 -0.46120882668E+03  0.46120882671E+03  0.50400001928E-02 0.  1.
    10030    2    1    2    0    0  0.00000000000E+00  0.00000000000E+00  0.11066593262E+04  0.20290769796E+04  0.17007229418E+04 0.  0.
        3    1    3    3  502    0  0.68924800644E+03 -0.47722877532E+03  0.72333444256E+03  0.11072591586E+04  0.10100000352E+00 0. -1.
       -3    1    3    3    0  502 -0.68924800644E+03  0.47722877532E+03  0.38332488360E+03  0.92181782092E+03  0.10100000352E+00 0.  1.
</event>
<event>
 5   0  0.5021349E-04  0.1417986E+04  0.7818609E-02  0.8940901E-01
        2   -1    0    0  501    0  0.00000000000E+00  0.00000000000E+00  0.11283805708E+04  0.11283805708E+04  0.25500000920E-02 0.  1.
       -2   -1    0    0    0  501  0.00000000000E+00  0.00000000000E+00 -0.44547998809E+03  0.44547998809E+03  0.25500000920E-02 0. -1.
    10030    2    1    2    0    0  0.00000000000E+00  0.00000000000E+00  0.68290058274E+03  0.15738605589E+04  0.14179858437E+04 0.  0.
        2    1    3    3  502    0  0.11798207981E+03  0.13125375754E+02  0.11172716255E+04  0.11235603819E+04  0.25500000920E-02 0.  1.
       -2    1    3    3    0  502 -0.11798207981E+03 -0.13125375754E+02 -0.43437104275E+03  0.45030017702E+03  0.25500000920E-02 0. -1.
</event>
<event>
 5   0  0.2630135E-04  0.1595777E+04  0.7818609E-02  0.8823147E-01
        1   -1    0    0  501    0  0.00000000000E+00  0.00000000000E+00  0.17327428525E+04  0.17327428525E+04  0.50400001928E-02 0.  1.
       -1   -1    0    0    0  501  0.00000000000E+00  0.00000000000E+00 -0.36740925295E+03  0.36740925299E+03  0.50400001928E-02 0. -1.
    10030    2    1    2    0    0  0.00000000000E+00  0.00000000000E+00  0.13653335996E+04  0.21001521055E+04  0.15957766223E+04 0.  0.
        1    1    3    3  502    0  0.35156070514E+03 -0.16887226898E+03  0.15987424967E+04  0.16456276442E+04  0.50400001928E-02 0.  1.
       -1    1    3    3    0  502 -0.35156070514E+03  0.16887226898E+03 -0.23340889714E+03  0.45452446130E+03  0.50400001928E-02 0. -1.
</event>
<event>
 5   0  0.5342255E-04  0.1745766E+04  0.7818609E-02  0.8735685E-01
        2   -1    0    0  501    0  0.00000000000E+00  0.00000000000E+00  0.11295962234E+04  0.11295962234E+04  0.25500000920E-02 0.  1.
       -2   -1    0    0    0  501  0.00000000000E+00  0.00000000000E+00 -0.67451043009E+03  0.67451043010E+03  0.25500000920E-02 0. -1.
    10030    2    1    2    0    0  0.00000000000E+00  0.00000000000E+00  0.45508579328E+03  0.18041066535E+04  0.17457656595E+04 0.  0.
        5    1    3    3  502    0 -0.79569998387E+02  0.80596494603E+03 -0.10890026890E+03  0.81718555875E+03  0.46999998093E+01 0. -1.
       -5    1    3    3    0  502  0.79569998387E+02 -0.80596494603E+03  0.56398606218E+03  0.98692109472E+03  0.46999998093E+01 0.  1.
</event>
<event>
 5   0  0.2583422E-04  0.1704182E+04  0.7818609E-02  0.8758983E-01
       -1   -1    0    0    0  501  0.00000000000E+00  0.00000000000E+00  0.47205448943E+03  0.47205448946E+03  0.50400001928E-02 0.  1.
        1   -1    0    0  501    0  0.00000000000E+00  0.00000000000E+00 -0.15380831914E+04  0.15380831914E+04  0.50400001928E-02 0. -1.
    10030    2    1    2    0    0  0.00000000000E+00  0.00000000000E+00 -0.10660287020E+04  0.20101376809E+04  0.17041820040E+04 0.  0.
        3    1    3    3  502    0 -0.32007073564E+03 -0.47856164141E+03  0.20792774195E+03  0.61212782694E+03  0.10100000352E+00 0.  1.
       -3    1    3    3    0  502  0.32007073564E+03  0.47856164141E+03 -0.12739564440E+04  0.13980098539E+04  0.10100000352E+00 0. -1.
</event>
<event>
 5   0  0.5021349E-04  0.1677467E+04  0.7818609E-02  0.8774321E-01
        2   -1    0    0  501    0  0.00000000000E+00  0.00000000000E+00  0.84376518326E+03  0.84376518326E+03  0.25500000920E-02 0.  1.
       -2   -1    0    0    0  501  0.00000000000E+00  0.00000000000E+00 -0.83373149138E+03  0.83373149138E+03  0.25500000920E-02 0. -1.
    10030    2    1    2    0    0  0.00000000000E+00  0.00000000000E+00  0.10033691879E+02  0.16774966746E+04  0.16774666669E+04 0.  0.
        2    1    3    3  502    0  0.42583596992E+03  0.44252715656E+03 -0.56622629108E+03  0.83533153316E+03  0.25500000920E-02 0. -1.
       -2    1    3    3    0  502 -0.42583596992E+03 -0.44252715656E+03  0.57625998296E+03  0.84216514149E+03  0.25500000920E-02 0.  1.
</event>
<event>
 5   0  0.1910750E-04  0.1614126E+04  0.7818609E-02  0.8811917E-01
        3   -1    0    0  501    0  0.00000000000E+00  0.00000000000E+00  0.11122612768E+04  0.11122612814E+04  0.10100000352E+00 0. -1.
       -3   -1    0    0    0  501  0.00000000000E+00  0.00000000000E+00 -0.58560947622E+03  0.58560948493E+03  0.10100000352E+00 0.  1.
    10030    2    1    2    0    0  0.00000000000E+00  0.00000000000E+00  0.52665180057E+03  0.16978707663E+04  0.16141260855E+04 0.  0.
        4    1    3    3  502    0 -0.52449636472E+03  0.24654469881E+03  0.85413220056E+03  0.10321938549E+04  0.12699999809E+01 0. -1.
       -4    1    3    3    0  502  0.52449636472E+03 -0.24654469881E+03 -0.32748039999E+03  0.66567691142E+03  0.12699999809E+01 0.  1.
</event>
<event>
 5   0  0.5342255E-04  0.1707868E+04  0.7818609E-02  0.8756890E-01
       -2   -1    0    0    0  501  0.00000000000E+00  0.00000000000E+00  0.71584027268E+03  0.71584027269E+03  0.25500000920E-02 0. -1.
        2   -1    0    0  501    0  0.00000000000E+00  0.00000000000E+00 -0.10186671715E+04  0.10186671715E+04  0.25500000920E-02 0.  1.
    10030    2    1    2    0    0  0.00000000000E+00  0.00000000000E+00 -0.30282689879E+03  0.17345074442E+04  0.17078676598E+04 0.  0.
        5    1    3    3  502    0 -0.18753966187E+03 -0.57592403441E+03 -0.76273382720E+03  0.97398388043E+03  0.46999998093E+01 0.  1.
       -5    1    3    3    0  502  0.18753966187E+03  0.57592403441E+03  0.45990692842E+03  0.76052356373E+03  0.46999998093E+01 0. -1.
</event>
<event>
 5   0  0.2630135E-04  0.1399809E+04  0.7818609E-02  0.8953957E-01
        1   -1    0    0  501    0  0.00000000000E+00  0.00000000000E+00  0.72216336047E+03  0.72216336049E+03  0.50400001928E-02 0.  1.
       -1   -1    0    0    0  501  0.00000000000E+00  0.00000000000E+00 -0.67833148812E+03  0.67833148814E+03  0.50400001928E-02 0. -1.
    10030    2    1    2    0    0  0.00000000000E+00  0.00000000000E+00  0.43831872353E+02  0.14004948486E+04  0.13998087684E+04 0.  0.
        1    1    3    3  502    0  0.75822808721E+02 -0.69749081325E+02 -0.67070373985E+03  0.67857021696E+03  0.50400001928E-02 0. -1.
       -1    1    3    3    0  502 -0.75822808721E+02  0.69749081325E+02  0.71453561221E+03  0.72192463166E+03  0.50400001928E-02 0.  1.
</event>
<event>
 5   0  0.2595644E-04  0.1716185E+04  0.7818609E-02  0.8752187E-01
       -1   -1    0    0    0  501  0.00000000000E+00  0.00000000000E+00  0.11467255873E+04  0.11467255873E+04  0.50400001928E-02 0.  1.
        1   -1    0    0  501    0  0.00000000000E+00  0.00000000000E+00 -0.64210856309E+03  0.64210856311E+03  0.50400001928E-02 0. -1.
    10030    2    1    2    0    0  0.00000000000E+00  0.00000000000E+00  0.50461702423E+03  0.17888341504E+04  0.17161845112E+04 0.  0.
        2    1    3    3  502    0  0.50874814826E+03 -0.47947199928E+01 -0.46793815856E+03  0.69124075975E+03  0.25500000920E-02 0. -1.
       -2    1    3    3    0  502 -0.50874814826E+03  0.47947199928E+01  0.97255518279E+03  0.10975933907E+04  0.25500000920E-02 0.  1.
</event>
<event>
 5   0  0.5299877E-04  0.1693950E+04  0.7818609E-02  0.8764822E-01
        2   -1    0    0  501    0  0.00000000000E+00  0.00000000000E+00  0.11798243930E+04  0.11798243930E+04  0.25500000920E-02 0. -1.
       -2   -1    0    0    0  501  0.00000000000E+00  0.00000000000E+00 -0.60802865639E+03  0.60802865640E+03  0.25500000920E-02 0.  1.
    10030    2    1    2    0    0  0.00000000000E+00  0.00000000000E+00  0.57179573662E+03  0.17878530494E+04  0.16939504603E+04 0.  0.
        3    1    3    3  502    0  0.33303672403E+03  0.55649655582E+03  0.86085778236E+03  0.10778116755E+04  0.10100000352E+00 0. -1.
       -3    1    3    3    0  502 -0.33303672403E+03 -0.55649655582E+03 -0.28906204573E+03  0.71004137392E+03  0.10100000352E+00 0.  1.
</event>
<event>
 5   0  0.2583422E-04  0.1676178E+04  0.7818609E-02  0.8775069E-01
        1   -1    0    0  501    0  0.00000000000E+00  0.00000000000E+00  0.20492606035E+04  0.20492606035E+04  0.50400001928E-02 0. -1.
       -1   -1    0    0    0  501  0.00000000000E+00  0.00000000000E+00 -0.34275452776E+03  0.34275452779E+03  0.50400001928E-02 0.  1.
    10030    2    1    2    0    0  0.00000000000E+00  0.00000000000E+00  0.17065060758E+04  0.23920151313E+04  0.16761782130E+04 0.  0.
        3    1    3    3  502    0 -0.79668431666E+03  0.24381033328E+03  0.98282519883E+03  0.12884466464E+04  0.10100000352E+00 0.  1.
       -3    1    3    3    0  502  0.79668431666E+03 -0.24381033328E+03  0.72368087694E+03  0.11035684849E+04  0.10100000352E+00 0. -1.
</event>
<event>
 5   0  0.5310003E-04  0.1636177E+04  0.7818609E-02  0.8798626E-01
        2   -1    0    0  501    0  0.00000000000E+00  0.00000000000E+00  0.18914215875E+04  0.18914215875E+04  0.25500000920E-02 0. -1.
       -2   -1    0    0    0  501  0.00000000000E+00  0.00000000000E+00 -0.35384434483E+03  0.35384434484E+03  0.25500000920E-02 0.  1.
    10030    2    1    2    0    0  0.00000000000E+00  0.00000000000E+00  0.15375772427E+04  0.22452659324E+04  0.16361770472E+04 0.  0.
        1    1    3    3  502    0 -0.73798105590E+03 -0.31172258797E+03  0.54129970092E+03  0.96684661501E+03  0.50400001928E-02 0.  1.
       -1    1    3    3    0  502  0.73798105590E+03  0.31172258797E+03  0.99627754176E+03  0.12784193173E+04  0.50400001928E-02 0. -1.
</event>
<event>
 5   0  0.2630135E-04  0.1706915E+04  0.7818609E-02  0.8757430E-01
       -1   -1    0    0    0  501  0.00000000000E+00  0.00000000000E+00  0.66991266977E+03  0.66991266979E+03  0.50400001928E-02 0. -1.
        1   -1    0    0  501    0  0.00000000000E+00  0.00000000000E+00 -0.10872901187E+04  0.10872901187E+04  0.50400001928E-02 0.  1.
    10030    2    1    2    0    0  0.00000000000E+00  0.00000000000E+00 -0.41737744893E+03  0.17572027885E+04  0.17069146742E+04 0.  0.
        1    1    3    3  502    0  0.42224893275E+03  0.13315232809E+03  0.54244128622E+03  0.70019015468E+03  0.50400001928E-02 0. -1.
       -1    1    3    3    0  502 -0.42224893275E+03 -0.13315232809E+03 -0.95981873515E+03  0.10570126338E+04  0.50400001928E-02 0.  1.
</event>
<event>
 5   0  0.5021349E-04  0.1250058E+04  0.7818609E-02  0.9070135E-01
        2   -1    0    0  501    0  0.00000000000E+00  0.00000000000E+00  0.85721576812E+03  0.85721576812E+03  0.25500000920E-02 0. -1.
       -2   -1    0    0    0  501  0.00000000000E+00  0.00000000000E+00 -0.45573238339E+03  0.45573238339E+03  0.25500000920E-02 0.  1.
    10030    2    1    2    0    0  0.00000000000E+00  0.00000000000E+00  0.40148338473E+03  0.13129481515E+04  0.12500575748E+04 0.  0.
        2    1    3    3  502    0  0.52895753941E+03  0.13841367955E+03 -0.11732468408E+03  0.55921329266E+03  0.25500000920E-02 0.  1.
       -2    1    3    3    0  502 -0.52895753941E+03 -0.13841367955E+03  0.51880806881E+03  0.75373485886E+03  0.25500000920E-02 0. -1.
</event>
<event>
 5   0  0.2583422E-04  0.1678532E+04  0.7818609E-02  0.8773704E-01
        1   -1    0    0  501    0  0.00000000000E+00  0.00000000000E+00  0.85847096024E+03  0.85847096026E+03  0.50400001928E-02 0.  1.
       -1   -1    0    0    0  501  0.00000000000E+00  0.00000000000E+00 -0.82049104356E+03  0.82049104357E+03  0.50400001928E-02 0. -1.
    10030    2    1    2    0    0  0.00000000000E+00  0.00000000000E+00  0.37979916688E+02  0.16789620038E+04  0.16785323757E+04 0.  0.
        3    1    3    3  502    0  0.65223876253E+02 -0.30378388355E+03  0.79882334760E+03  0.85712166745E+03  0.10100000352E+00 0.  1.
       -3    1    3    3    0  502 -0.65223876253E+02  0.30378388355E+03 -0.76084343091E+03  0.82184033638E+03  0.10100000352E+00 0. -1.
</event>
<event>
 5   0  0.5198430E-04  0.1768790E+04  0.7818609E-02  0.8723075E-01
       -2   -1    0    0    0  501  0.00000000000E+00  0.00000000000E+00  0.92816153064E+03  0.92816153065E+03  0.25500000920E-02 0. -1.
        2   -1    0    0  501    0  0.00000000000E+00  0.00000000000E+00 -0.84269255765E+03  0.84269255765E+03  0.25500000920E-02 0.  1.
    10030    2    1    2    0    0  0.00000000000E+00  0.00000000000E+00  0.85468972994E+02  0.17708540883E+04  0.17687903371E+04 0.  0.
        4    1    3    3  502    0 -0.26832930308E+03 -0.41300669084E+02  0.88540938129E+03  0.92609812953E+03  0.12699999809E+01 0. -1.
       -4    1    3    3    0  502  0.26832930308E+03  0.41300669084E+02 -0.79994040829E+03  0.84475595877E+03  0.12699999809E+01 0.  1.
</event>
<event>
 5   0  0.5310003E-04  0.1719769E+04  0.7818609E-02  0.8750169E-01
        2   -1    0    0  501    0  0.00000000000E+00  0.00000000000E+00  0.15372086326E+04  0.15372086326E+04  0.25500000920E-02 0.  1.
       -2   -1    0    0    0  501  0.00000000000E+00  0.00000000000E+00 -0.48100252032E+03  0.48100252033E+03  0.25500000920E-02 0. -1.
    10030    2    1    2    0    0  0.00000000000E+00  0.00000000000E+00  0.10562061123E+04  0.20182111529E+04  0.17197688525E+04 0.  0.
        1    1    3    3  502    0 -0.16849176569E+03 -0.19173860879E+03  0.14917243197E+04  0.15134049740E+04  0.50400001928E-02 0.  1.
       -1    1    3    3    0  502  0.16849176569E+03  0.19173860879E+03 -0.43551820747E+03  0.50480617892E+03  0.50400001928E-02 0. -1.
</event>
<event>
 5   0  0.2583422E-04  0.1690332E+04  0.7818609E-02  0.8766898E-01
        1   -1    0    0  501    0  0.00000000000E+00  0.00000000000E+00  0.96672091000E+03  0.96672091002E+03  0.50400001928E-02 0. -1.
       -1   -1    0    0    0  501  0.00000000000E+00  0.00000000000E+00 -0.73889492723E+03  0.73889492724E+03  0.50400001928E-02 0.  1.
    10030    2    1    2    0    0  0.00000000000E+00  0.00000000000E+00  0.22782598278E+03  0.17056158373E+04  0.16903315373E+04 0.  0.
        3    1    3    3  502    0  0.48845439923E+03 -0.14313233165E+03 -0.56689563499E+03  0.76186956604E+03  0.10100000352E+00 0.  1.
       -3    1    3    3    0  502 -0.48845439923E+03  0.14313233165E+03  0.79472161776E+03  0.94374627122E+03  0.10100000352E+00 0. -1.
</event>
<event>
 5   0  0.2785059E-04  0.1687141E+04  0.7818609E-02  0.8768732E-01
       -1   -1    0    0    0  501  0.00000000000E+00  0.00000000000E+00  0.57208295647E+03  0.57208295650E+03  0.50400001928E-02 0. -1.
        1   -1    0    0  501    0  0.00000000000E+00  0.00000000000E+00 -0.12438957392E+04  0.12438957392E+04  0.50400001928E-02 0.  1.
    10030    2    1    2    0    0  0.00000000000E+00  0.00000000000E+00 -0.67181278269E+03  0.18159786957E+04  0.16871414310E+04 0.  0.
        5    1    3    3  502    0  0.66923372295E+03  0.32240946372E+02  0.21575123627E+03  0.70390620150E+03  0.46999998093E+01 0. -1.
       -5    1    3    3    0  502 -0.66923372295E+03 -0.32240946372E+02 -0.88756401896E+03  0.11120724942E+04  0.46999998093E+01 0.  1.
</event>
<event>
 5   0  0.2583422E-04  0.1671930E+04  0.7818609E-02  0.8777538E-01
       -1   -1    0    0    0  501  0.00000000000E+00  0.00000000000E+00  0.49066103458E+03  0.49066103460E+03  0.50400001928E-02 0.  1.
        1   -1    0    0  501    0  0.00000000000E+00  0.00000000000E+00 -0.14242768296E+04  0.14242768296E+04  0.50400001928E-02 0. -1.
    10030    2    1    2    0    0  0.00000000000E+00  0.00000000000E+00 -0.93361579500E+03  0.19149378642E+04  0.16719295951E+04 0.  0.
        3    1    3    3  502    0 -0.83593626361E+03 -0.55702785548E+01 -0.46213189238E+03  0.95518917550E+03  0.10100000352E+00 0. -1.
       -3    1    3    3    0  502  0.83593626361E+03  0.55702785548E+01 -0.47148390262E+03  0.95974868869E+03  0.10100000352E+00 0.  1.
</event>
<event>
 5   0  0.2785059E-04  0.1696147E+04  0.7818609E-02  0.8763565E-01
       -1   -1    0    0    0  501  0.00000000000E+00  0.00000000000E+00  0.29254265283E+03  0.29254265288E+03  0.50400001928E-02 0.  1.
        1   -1    0    0  501    0  0.00000000000E+00  0.00000000000E+00 -0.24585434858E+04  0.24585434858E+04  0.50400001928E-02 0. -1.
    10030    2    1    2    0    0  0.00000000000E+00  0.00000000000E+00 -0.21660008330E+04  0.27510861387E+04  0.16961472030E+04 0.  0.
        5    1    3    3  502    0  0.46291394750E+03 -0.67047955642E+03 -0.14646773295E+04  0.16760471139E+04  0.46999998093E+01 0. -1.
       -5    1    3    3    0  502 -0.46291394750E+03  0.67047955642E+03 -0.70132350348E+03  0.10750390248E+04  0.46999998093E+01 0.  1.
</event>
<event>
 5   0  0.5021349E-04  0.1686373E+04  0.7818609E-02  0.8769175E-01
        2   -1    0    0  501    0  0.00000000000E+00  0.00000000000E+00  0.11814905821E+04  0.11814905821E+04  0.25500000920E-02 0.  1.
       -2   -1    0    0    0  501  0.00000000000E+00  0.00000000000E+00 -0.60175121745E+03  0.60175121745E+03  0.25500000920E-02 0. -1.
    10030    2    1    2    0    0  0.00000000000E+00  0.00000000000E+00  0.57973936468E+03  0.17832417996E+04  0.16863729080E+04 0.  0.
        2    1    3    3  502    0 -0.19788853147E+03 -0.77110959115E+03  0.58366647618E+03  0.98713546582E+03  0.25500000920E-02 0. -1.
       -2    1    3    3    0  502  0.19788853147E+03  0.77110959115E+03 -0.39271115019E+01  0.79610633376E+03  0.25500000920E-02 0.  1.
</event>
<event>
 5   0  0.2583422E-04  0.1661853E+04  0.7818609E-02  0.8783425E-01
       -1   -1    0    0    0  501  0.00000000000E+00  0.00000000000E+00  0.71980290573E+03  0.71980290575E+03  0.50400001928E-02 0. -1.
        1   -1    0    0  501    0  0.00000000000E+00  0.00000000000E+00 -0.95920582269E+03  0.95920582270E+03  0.50400001928E-02 0.  1.
    10030    2    1    2    0    0  0.00000000000E+00  0.00000000000E+00 -0.23940291696E+03  0.16790087284E+04  0.16618533490E+04 0.  0.
        3    1    3    3  502    0 -0.28397325916E+03  0.76223861657E+03 -0.29113100371E+03  0.86394779474E+03  0.10100000352E+00 0. -1.
       -3    1    3    3    0  502  0.28397325916E+03 -0.76223861657E+03  0.51728086749E+02  0.81506093371E+03  0.10100000352E+00 0.  1.
</event>
<event>
 5   0  0.5310003E-04  0.1663167E+04  0.7818609E-02  0.8782655E-01
       -2   -1    0    0    0  501  0.00000000000E+00  0.00000000000E+00  0.31517087750E+03  0.31517087751E+03  0.25500000920E-02 0. -1.
        2   -1    0    0  501    0  0.00000000000E+00  0.00000000000E+00 -0.21941469618E+04  0.21941469618E+04  0.25500000920E-02 0.  1.
    10030    2    1    2    0    0  0.00000000000E+00  0.00000000000E+00 -0.18789760843E+04  0.25093178393E+04  0.16631671273E+04 0.  0.
        1    1    3    3  502    0  0.22510422181E+03  0.60161259020E+03 -0.14266688199E+03  0.65799958860E+03  0.50400001928E-02 0. -1.
       -1    1    3    3    0  502 -0.22510422181E+03 -0.60161259020E+03 -0.17363092023E+04  0.18513182507E+04  0.50400001928E-02 0.  1.
</event>
<event>
 5   0  0.5198430E-04  0.1704311E+04  0.7818609E-02  0.8758909E-01
       -2   -1    0    0    0  501  0.00000000000E+00  0.00000000000E+00  0.51852393537E+03  0.51852393538E+03  0.25500000920E-02 0.  1.
        2   -1    0    0  501    0  0.00000000000E+00  0.00000000000E+00 -0.14004546772E+04  0.14004546772E+04  0.25500000920E-02 0. -1.
    10030    2    1    2    0    0  0.00000000000E+00  0.00000000000E+00 -0.88193074179E+03  0.19189786125E+04  0.17043113219E+04 0.  0.
        4    1    3    3  502    0  0.36858293243E+03  0.73735951004E+03 -0.19786527356E+03  0.84776453364E+03  0.12699999809E+01 0.  1.
       -4    1    3    3    0  502 -0.36858293243E+03 -0.73735951004E+03 -0.68406546823E+03  0.10712140789E+04  0.12699999809E+01 0. -1.
</event>
<event>
 5   0  0.2583422E-04  0.1681557E+04  0.7818609E-02  0.8771954E-01
        1   -1    0    0  501    0  0.00000000000E+00  0.00000000000E+00  0.14239408333E+04  0.14239408333E+04  0.50400001928E-02 0.  1.
       -1   -1    0    0    0  501  0.00000000000E+00  0.00000000000E+00 -0.49644510682E+03  0.49644510684E+03  0.50400001928E-02 0. -1.
    10030    2    1    2    0    0  0.00000000000E+00  0.00000000000E+00  0.92749572652E+03  0.19203859402E+04  0.16815569680E+04 0.  0.
        3    1    3    3  502    0 -0.55514487438E+03  0.56782139221E+03  0.77920722833E+03  0.11125515179E+04  0.10100000352E+00 0.  1.
       -3    1    3    3    0  502  0.55514487438E+03 -0.56782139221E+03  0.14828849819E+03  0.80783442233E+03  0.10100000352E+00 0. -1.
</event>
<event>
 5   0  0.5299877E-04  0.1715550E+04  0.7818609E-02  0.8752545E-01
        2   -1    0    0  501    0  0.00000000000E+00  0.00000000000E+00  0.22219333119E+04  0.22219333119E+04  0.25500000920E-02 0. -1.
       -2   -1    0    0    0  501  0.00000000000E+00  0.00000000000E+00 -0.33114328077E+03  0.33114328078E+03  0.25500000920E-02 0.  1.
    10030    2    1    2    0    0  0.00000000000E+00  0.00000000000E+00  0.18907900311E+04  0.25530765927E+04  0.17155503916E+04 0.  0.
        3    1    3    3  502    0  0.17370743731E+03  0.79855667157E+03  0.13332159160E+04  0.15637556460E+04  0.10100000352E+00 0. -1.
       -3    1    3    3    0  502 -0.17370743731E+03 -0.79855667157E+03  0.55757411514E+03  0.98932094670E+03  0.10100000352E+00 0.  1.
</event>
<event>
 5   0  0.5299877E-04  0.1645793E+04  0.7818609E-02  0.8792899E-01
        2   -1    0    0  501    0  0.00000000000E+00  0.00000000000E+00  0.19100546659E+04  0.19100546659E+04  0.25500000920E-02 0. -1.
       -2   -1    0    0    0  501  0.00000000000E+00  0.00000000000E+00 -0.35452312281E+03  0.35452312281E+03  0.25500000920E-02 0.  1.
    10030    2    1    2    0    0  0.00000000000E+00  0.00000000000E+00  0.15555315431E+04  0.22645777887E+04  0.16457928726E+04 0.  0.
        3    1    3    3  502    0  0.26754451970E+03 -0.53829897951E+03  0.15510280827E+04  0.16634404062E+04  0.10100000352E+00 0. -1.
       -3    1    3    3    0  502 -0.26754451970E+03  0.53829897951E+03  0.45034604137E+01  0.60113738256E+03  0.10100000352E+00 0.  1.
</event>
<event>
 5   0  0.2595644E-04  0.1629178E+04  0.7818609E-02  0.8802821E-01
        1   -1    0    0  501    0  0.00000000000E+00  0.00000000000E+00  0.14653844418E+04  0.14653844418E+04  0.50400001928E-02 0. -1.
       -1   -1    0    0    0  501  0.00000000000E+00  0.00000000000E+00 -0.45282005630E+03  0.45282005632E+03  0.50400001928E-02 0.  1.
    10030    2    1    2    0    0  0.00000000000E+00  0.00000000000E+00  0.10125643855E+04  0.19182044981E+04  0.16291782781E+04 0.  0.
        2    1    3    3  502    0 -0.45918407466E+03 -0.50567374347E+03 -0.16305134508E+02  0.68324359249E+03  0.25500000920E-02 0.  1.
       -2    1    3    3    0  502  0.45918407466E+03  0.50567374347E+03  0.10288695200E+04  0.12349609056E+04  0.25500000920E-02 0. -1.
</event>
<event>
 5   0  0.2785059E-04  0.1674905E+04  0.7818609E-02  0.8775808E-01
       -1   -1    0    0    0  501  0.00000000000E+00  0.00000000000E+00  0.38409017024E+03  0.38409017027E+03  0.50400001928E-02 0.  1.
        1   -1    0    0  501    0  0.00000000000E+00  0.00000000000E+00 -0.18259431155E+04  0.18259431155E+04  0.50400001928E-02 0. -1.
    10030    2    1    2    0    0  0.00000000000E+00  0.00000000000E+00 -0.14418529452E+04  0.22100332857E+04  0.16749051342E+04 0.  0.
        5    1    3    3  502    0 -0.36291276610E+03  0.75439305299E+03 -0.75013950321E+03  0.11240755840E+04  0.46999998093E+01 0. -1.
       -5    1    3    3    0  502  0.36291276610E+03 -0.75439305299E+03 -0.69171344201E+03  0.10859577018E+04  0.46999998093E+01 0.  1.
</event>
<event>
 5   0  0.2630135E-04  0.1675365E+04  0.7818609E-02  0.8775541E-01
        1   -1    0    0  501    0  0.00000000000E+00  0.00000000000E+00  0.10771556366E+04  0.10771556366E+04  0.50400001928E-02 0.  1.
       -1   -1    0    0    0  501  0.00000000000E+00  0.00000000000E+00 -0.65144890176E+03  0.65144890178E+03  0.50400001928E-02 0. -1.
    10030    2    1    2    0    0  0.00000000000E+00  0.00000000000E+00  0.42570673486E+03  0.17286045384E+04  0.16753648636E+04 0.  0.
        1    1    3    3  502    0  0.48431116865E+03  0.28554515109E+03 -0.42786206534E+03  0.70651205820E+03  0.50400001928E-02 0. -1.
       -1    1    3    3    0  502 -0.48431116865E+03 -0.28554515109E+03  0.85356880020E+03  0.10220924802E+04  0.50400001928E-02 0.  1.
</event>
<event>
 5   0  0.5342255E-04  0.1686149E+04  0.7818609E-02  0.8769304E-01
       -2   -1    0    0    0  501  0.00000000000E+00  0.00000000000E+00  0.65550595867E+03  0.65550595867E+03  0.25500000920E-02 0.  1.
        2   -1    0    0  501    0  0.00000000000E+00  0.00000000000E+00 -0.10843148788E+04  0.10843148788E+04  0.25500000920E-02 0. -1.
    10030    2    1    2    0    0  0.00000000000E+00  0.00000000000E+00 -0.42880892017E+03  0.17398208375E+04  0.16861492984E+04 0.  0.
        5    1    3    3  502    0 -0.33223894796E+03 -0.12000429683E+03 -0.10042566585E+04  0.10645831465E+04  0.46999998093E+01 0. -1.
       -5    1    3    3    0  502  0.33223894796E+03  0.12000429683E+03  0.57544773830E+03  0.67523769098E+03  0.46999998093E+01 0.  1.
</event>
<event>
 5   0  0.5299877E-04  0.1698942E+04  0.7818609E-02  0.8761968E-01
       -2   -1    0    0    0  501  0.00000000000E+00  0.00000000000E+00  0.33029696997E+03  0.33029696998E+03  0.25500000920E-02 0.  1.
        2   -1    0    0  501    0  0.00000000000E+00  0.00000000000E+00 -0.21847036347E+04  0.21847036347E+04  0.25500000920E-02 0. -1.
    10030    2    1    2    0    0  0.00000000000E+00  0.00000000000E+00 -0.18544066647E+04  0.25150006047E+04  0.16989420129E+04 0.  0.
        3    1    3    3  502    0  0.70974454487E+02 -0.29806081815E+03 -0.21000565989E+04  0.21222901199E+04  0.10100000352E+00 0. -1.
       -3    1    3    3    0  502 -0.70974454487E+02  0.29806081815E+03  0.24564993412E+03  0.39271048476E+03  0.10100000352E+00 0.  1.
</event>
<event>
 5   0  0.5198430E-04  0.1821890E+04  0.7818609E-02  0.8694745E-01
        2   -1    0    0  501    0  0.00000000000E+00  0.00000000000E+00  0.24638910305E+04  0.24638910305E+04  0.25500000920E-02 0. -1.
       -2   -1    0    0    0  501  0.00000000000E+00  0.00000000000E+00 -0.33679264344E+03  0.33679264345E+03  0.25500000920E-02 0.  1.
    10030    2    1    2    0    0  0.00000000000E+00  0.00000000000E+00  0.21270983870E+04  0.28006836739E+04  0.18218895393E+04 0.  0.
        4    1    3    3  502    0  0.58414068910E+03 -0.63131323981E+02  0.21336864425E+04  0.22131031057E+04  0.12699999809E+01 0. -1.
       -4    1    3    3    0  502 -0.58414068910E+03  0.63131323981E+02 -0.65880554829E+01  0.58758056819E+03  0.12699999809E+01 0.  1.
</event>
<event>
 5   0  0.5299877E-04  0.1492451E+04  0.7818609E-02  0.8889488E-01
       -2   -1    0    0    0  501  0.00000000000E+00  0.00000000000E+00  0.14328885099E+04  0.14328885099E+04  0.25500000920E-02 0. -1.
        2   -1    0    0  501    0  0.00000000000E+00  0.00000000000E+00 -0.38862237924E+03  0.38862237924E+03  0.25500000920E-02 0.  1.
    10030    2    1    2    0    0  0.00000000000E+00  0.00000000000E+00  0.10442661307E+04  0.18215108892E+04  0.14924510604E+04 0.  0.
        3    1    3    3  502    0 -0.33956698894E+03 -0.64142192845E+03  0.31030034245E+03  0.78931244954E+03  0.10100000352E+00 0.  1.
       -3    1    3    3    0  502  0.33956698894E+03  0.64142192845E+03  0.73396578826E+03  0.10321984397E+04  0.10100000352E+00 0. -1.
</event>
<event>
 5   0  0.2785059E-04  0.1706451E+04  0.7818609E-02  0.8757693E-01
        1   -1    0    0  501    0  0.00000000000E+00  0.00000000000E+00  0.10948833257E+04  0.10948833257E+04  0.50400001928E-02 0. -1.
       -1   -1    0    0    0  501  0.00000000000E+00  0.00000000000E+00 -0.66490553787E+03  0.66490553789E+03  0.50400001928E-02 0.  1.
    10030    2    1    2    0    0  0.00000000000E+00  0.00000000000E+00  0.42997778779E+03  0.17597888636E+04  0.17064512728E+04 0.  0.
        5    1    3    3  502    0 -0.84372425530E+02  0.82241157619E+03 -0.25362876788E+01  0.82674544425E+03  0.46999998093E+01 0.  1.
       -5    1    3    3    0  502  0.84372425530E+02 -0.82241157619E+03  0.43251407547E+03  0.93304341931E+03  0.46999998093E+01 0. -1.
</event>
<event>
 5   0  0.2561518E-04  0.1694997E+04  0.7818609E-02  0.8764223E-01
        1   -1    0    0  501    0  0.00000000000E+00  0.00000000000E+00  0.85343836571E+03  0.85343836573E+03  0.50400001928E-02 0. -1.
       -1   -1    0    0    0  501  0.00000000000E+00  0.00000000000E+00 -0.84159995148E+03  0.84159995149E+03  0.50400001928E-02 0.  1.
    10030    2    1    2    0    0  0.00000000000E+00  0.00000000000E+00  0.11838414235E+02  0.16950383172E+04  0.16949969760E+04 0.  0.
        4    1    3    3  502    0 -0.26036931156E+03  0.39145343561E+03 -0.69923918548E+03  0.84259422147E+03  0.12699999809E+01 0.  1.
       -4    1    3    3    0  502  0.26036931156E+03 -0.39145343561E+03  0.71107759971E+03  0.85244409574E+03  0.12699999809E+01 0. -1.
</event>
<event>
 5   0  0.2785059E-04  0.1700400E+04  0.7818609E-02  0.8761136E-01
        1   -1    0    0  501    0  0.00000000000E+00  0.00000000000E+00  0.91136052357E+03  0.91136052359E+03  0.50400001928E-02 0. -1.
       -1   -1    0    0    0  501  0.00000000000E+00  0.00000000000E+00 -0.79314417039E+03  0.79314417041E+03  0.50400001928E-02 0.  1.
    10030    2    1    2    0    0  0.00000000000E+00  0.00000000000E+00  0.11821635318E+03  0.17045046940E+04  0.17004002898E+04 0.  0.
        5    1    3    3  502    0  0.49191689965E+03  0.63369904519E+03  0.34132189500E+03  0.87182535066E+03  0.46999998093E+01 0. -1.
       -5    1    3    3    0  502 -0.49191689965E+03 -0.63369904519E+03 -0.22310554182E+03  0.83267934334E+03  0.46999998093E+01 0.  1.
</event>
<event>
 5   0  0.2561518E-04  0.1686639E+04  0.7818609E-02  0.8769022E-01
        1   -1    0    0  501    0  0.00000000000E+00  0.00000000000E+00  0.98941425610E+03  0.98941425611E+03  0.50400001928E-02 0.  1.
       -1   -1    0    0    0  501  0.00000000000E+00  0.00000000000E+00 -0.71879648865E+03  0.71879648866E+03  0.50400001928E-02 0. -1.
    10030    2    1    2    0    0  0.00000000000E+00  0.00000000000E+00  0.27061776746E+03  0.17082107448E+04  0.16866386609E+04 0.  0.
        4    1    3    3  502    0 -0.15903922486E+03  0.46496960902E+03 -0.55880011630E+03  0.74414339695E+03  0.12699999809E+01 0. -1.
       -4    1    3    3    0  502  0.15903922486E+03 -0.46496960902E+03  0.82941788375E+03  0.96406734783E+03  0.12699999809E+01 0.  1.
</event>
<event>
 5   0  0.5299877E-04  0.1701774E+04  0.7818609E-02  0.8760353E-01
        2   -1    0    0  501    0  0.00000000000E+00  0.00000000000E+00  0.13368367654E+04  0.13368367654E+04  0.25500000920E-02 0. -1.
       -2   -1    0    0    0  501  0.00000000000E+00  0.00000000000E+00 -0.54158362649E+03  0.54158362650E+03  0.25500000920E-02 0.  1.
    10030    2    1    2    0    0  0.00000000000E+00  0.00000000000E+00  0.79525313886E+03  0.18784203919E+04  0.17017742546E+04 0.  0.
        3    1    3    3  502    0  0.49879296220E+02  0.37397722953E+03  0.12394600306E+04  0.12956110875E+04  0.10100000352E+00 0. -1.
       -3    1    3    3    0  502 -0.49879296220E+02 -0.37397722953E+03 -0.44420689173E+03  0.58280930437E+03  0.10100000352E+00 0.  1.
</event>
<event>
 5   0  0.2583422E-04  0.1836065E+04  0.7818609E-02  0.8687352E-01
        1   -1    0    0  501    0  0.00000000000E+00  0.00000000000E+00  0.12065112097E+04  0.12065112097E+04  0.50400001928E-02 0. -1.
       -1   -1    0    0    0  501  0.00000000000E+00  0.00000000000E+00 -0.69852918643E+03  0.69852918645E+03  0.50400001928E-02 0.  1.
    10030    2    1    2    0    0  0.00000000000E+00  0.00000000000E+00  0.50798202325E+03  0.19050403961E+04  0.18360645890E+04 0.  0.
        3    1    3    3  502    0  0.45516652242E+03  0.25041072931E+03 -0.53134605441E+03  0.74310883202E+03  0.10100000352E+00 0.  1.
       -3    1    3    3    0  502 -0.45516652242E+03 -0.25041072931E+03  0.10393280777E+04  0.11619315641E+04  0.10100000352E+00 0. -1.
</event>
<event>
 5   0  0.5342255E-04  0.1654484E+04  0.7818609E-02  0.8787758E-01
       -2   -1    0    0    0  501  0.00000000000E+00  0.00000000000E+00  0.56641994459E+03  0.56641994460E+03  0.25500000920E-02 0. -1.
        2   -1    0    0  501    0  0.00000000000E+00  0.00000000000E+00 -0.12081663948E+04  0.12081663948E+04  0.25500000920E-02 0.  1.
    10030    2    1    2    0    0  0.00000000000E+00  0.00000000000E+00 -0.64174645020E+03  0.17745863394E+04  0.16544842609E+04 0.  0.
        5    1    3    3  502    0 -0.21352894041E+03  0.79919500320E+03 -0.32040462302E+03  0.88712370839E+03  0.46999998093E+01 0. -1.
       -5    1    3    3    0  502  0.21352894041E+03 -0.79919500320E+03 -0.32134182718E+03  0.88746263100E+03  0.46999998093E+01 0.  1.
</event>
<event>
 5   0  0.5299877E-04  0.1633505E+04  0.7818609E-02  0.8800225E-01
        2   -1    0    0  501    0  0.00000000000E+00  0.00000000000E+00  0.17879978317E+04  0.17879978317E+04  0.25500000920E-02 0.  1.
       -2   -1    0    0    0  501  0.00000000000E+00  0.00000000000E+00 -0.37309051103E+03  0.37309051104E+03  0.25500000920E-02 0. -1.
    10030    2    1    2    0    0  0.00000000000E+00  0.00000000000E+00  0.14149073206E+04  0.21610883427E+04  0.16335054634E+04 0.  0.
        3    1    3    3  502    0  0.15176381110E+03 -0.78556881995E+03  0.92457649277E+03  0.12226987881E+04  0.10100000352E+00 0.  1.
       -3    1    3    3    0  502 -0.15176381110E+03  0.78556881995E+03  0.49033082786E+03  0.93838955460E+03  0.10100000352E+00 0. -1.
</event>
<event>
 5   0  0.2583422E-04  0.1690868E+04  0.7818609E-02  0.8766590E-01
       -1   -1    0    0    0  501  0.00000000000E+00  0.00000000000E+00  0.59677220600E+03  0.59677220602E+03  0.50400001928E-02 0. -1.
        1   -1    0    0  501    0  0.00000000000E+00  0.00000000000E+00 -0.11977071701E+04  0.11977071701E+04  0.50400001928E-02 0.  1.
    10030    2    1    2    0    0  0.00000000000E+00  0.00000000000E+00 -0.60093496407E+03  0.17944793761E+04  0.16908676471E+04 0.  0.
        3    1    3    3  502    0 -0.83644109231E+03 -0.10101933958E+03 -0.37490631890E+03  0.92216775373E+03  0.10100000352E+00 0.  1.
       -3    1    3    3    0  502  0.83644109231E+03  0.10101933958E+03 -0.22602864517E+03  0.87231162236E+03  0.10100000352E+00 0. -1.
</event>
<event>
 5   0  0.5198430E-04  0.1716882E+04  0.7818609E-02  0.8751794E-01
        2   -1    0    0  501    0  0.00000000000E+00  0.00000000000E+00  0.87068225523E+03  0.87068225523E+03  0.25500000920E-02 0. -1.
       -2   -1    0    0    0  501  0.00000000000E+00  0.00000000000E+00 -0.84637159380E+03  0.84637159380E+03  0.25500000920E-02 0.  1.
    10030    2    1    2    0    0  0.00000000000E+00  0.00000000000E+00  0.24310661431E+02  0.17170538490E+04  0.17168817409E+04 0.  0.
        4    1    3    3  502    0  0.79653842384E+03 -0.17869638566E+03  0.27772527275E+03  0.86228695857E+03  0.12699999809E+01 0.  1.
       -4    1    3    3    0  502 -0.79653842384E+03  0.17869638566E+03 -0.25341461132E+03  0.85476689046E+03  0.12699999809E+01 0. -1.
</event>
<event>
 5   0  0.1910750E-04  0.1685978E+04  0.7818609E-02  0.8769402E-01
        4   -1    0    0  501    0  0.00000000000E+00  0.00000000000E+00  0.45651931026E+03  0.45652107677E+03  0.12699999809E+01 0.  1.
       -4   -1    0    0    0  501  0.00000000000E+00  0.00000000000E+00 -0.15566226131E+04  0.15566231312E+04  0.12699999809E+01 0. -1.
    10030    2    1    2    0    0  0.00000000000E+00  0.00000000000E+00 -0.11001033028E+04  0.20131442079E+04  0.16859781508E+04 0.  0.
        4    1    3    3  502    0 -0.77052324974E+03 -0.24836027060E+03 -0.26941135008E+03  0.85321333256E+03  0.12699999809E+01 0. -1.
       -4    1    3    3    0  502  0.77052324974E+03  0.24836027060E+03 -0.83069195276E+03  0.11599308754E+04  0.12699999809E+01 0.  1.
</event>
<event>
 5   0  0.2595644E-04  0.1742000E+04  0.7818609E-02  0.8737766E-01
        1   -1    0    0  501    0  0.00000000000E+00  0.00000000000E+00  0.65928122292E+03  0.65928122294E+03  0.50400001928E-02 0.  1.
       -1   -1    0    0    0  501  0.00000000000E+00  0.00000000000E+00 -0.11507096267E+04  0.11507096267E+04  0.50400001928E-02 0. -1.
    10030    2    1    2    0    0  0.00000000000E+00  0.00000000000E+00 -0.49142840380E+03  0.18099908497E+04  0.17420002870E+04 0.  0.
        2    1    3    3  502    0 -0.22252279561E+03 -0.45884022624E+03 -0.97938318273E+03  0.11041929933E+04  0.25500000920E-02 0. -1.
       -2    1    3    3    0  502  0.22252279561E+03  0.45884022624E+03  0.48795477893E+03  0.70579785638E+03  0.25500000920E-02 0.  1.
</event>
<event>
 5   0  0.2561518E-04  0.1707003E+04  0.7818609E-02  0.8757381E-01
        1   -1    0    0  501    0  0.00000000000E+00  0.00000000000E+00  0.79608207216E+03  0.79608207218E+03  0.50400001928E-02 0. -1.
       -1   -1    0    0    0  501  0.00000000000E+00  0.00000000000E+00 -0.91506206732E+03  0.91506206734E+03  0.50400001928E-02 0.  1.
    10030    2    1    2    0    0  0.00000000000E+00  0.00000000000E+00 -0.11897999516E+03  0.17111441395E+04  0.17070026441E+04 0.  0.
        4    1    3    3  502    0  0.77491621854E+02  0.50288496759E+03  0.62742041314E+03  0.80780952570E+03  0.12699999809E+01 0. -1.
       -4    1    3    3    0  502 -0.77491621854E+02 -0.50288496759E+03 -0.74640040831E+03  0.90333461381E+03  0.12699999809E+01 0.  1.
</event>
<event>
 5   0  0.2583422E-04  0.1721216E+04  0.7818609E-02  0.8749356E-01
        1   -1    0    0  501    0  0.00000000000E+00  0.00000000000E+00  0.83249178272E+03  0.83249178274E+03  0.50400001928E-02 0. -1.
       -1   -1    0    0    0  501  0.00000000000E+00  0.00000000000E+00 -0.88967380103E+03  0.88967380105E+03  0.50400001928E-02 0.  1.
    10030    2    1    2    0    0  0.00000000000E+00  0.00000000000E+00 -0.57182018309E+02  0.17221655838E+04  0.17212159989E+04 0.  0.
        3    1    3    3  502    0  0.63013087500E+03 -0.52778462340E+03 -0.28373088713E+03  0.86955434266E+03  0.10100000352E+00 0. -1.
       -3    1    3    3    0  502 -0.63013087500E+03  0.52778462340E+03  0.22654886883E+03  0.85261124113E+03  0.10100000352E+00 0.  1.
</event>
<event>
 5   0  0.2785059E-04  0.1709663E+04  0.7818609E-02  0.8755872E-01
       -1   -1    0    0    0  501  0.00000000000E+00  0.00000000000E+00  0.70620947660E+03  0.70620947662E+03  0.50400001928E-02 0. -1.
        1   -1    0    0  501    0  0.00000000000E+00  0.00000000000E+00 -0.10347316622E+04  0.10347316622E+04  0.50400001928E-02 0.  1.
    10030    2    1    2    0    0  0.00000000000E+00  0.00000000000E+00 -0.32852218557E+03  0.17409411388E+04  0.17096634822E+04 0.  0.
        5    1    3    3  502    0 -0.60954970456E+03 -0.59885401153E+03 -0.14063652271E+03  0.86601252357E+03  0.46999998093E+01 0.  1.
       -5    1    3    3    0  502  0.60954970456E+03  0.59885401153E+03 -0.18788566286E+03  0.87492861524E+03  0.46999998093E+01 0. -1.
</event>
<event>
 5   0  0.5310003E-04  0.1700586E+04  0.7818609E-02  0.8761030E-01
       -2   -1    0    0    0  501  0.00000000000E+00  0.00000000000E+00  0.10694701462E+04  0.10694701462E+04  0.25500000920E-02 0.  1.
        2   -1    0    0  501    0  0.00000000000E+00  0.00000000000E+00 -0.67603380219E+03  0.67603380219E+03  0.25500000920E-02 0. -1.
    10030    2    1    2    0    0  0.00000000000E+00  0.00000000000E+00  0.39343634397E+03  0.17455039484E+04  0.17005857453E+04 0.  0.
        1    1    3    3  502    0 -0.71149391307E+03  0.45939907599E+03  0.27439311766E+03  0.89025989598E+03  0.50400001928E-02 0. -1.
       -1    1    3    3    0  502  0.71149391307E+03 -0.45939907599E+03  0.11904322630E+03  0.85524405237E+03  0.50400001928E-02 0.  1.
</event>
<event>
 5   0  0.2630135E-04  0.1713153E+04  0.7818609E-02  0.8753898E-01
       -1   -1    0    0    0  501  0.00000000000E+00  0.00000000000E+00  0.65219743705E+03  0.65219743707E+03  0.50400001928E-02 0. -1.
        1   -1    0    0  501    0  0.00000000000E+00  0.00000000000E+00 -0.11250019832E+04  0.11250019833E+04  0.50400001928E-02 0.  1.
    10030    2    1    2    0    0  0.00000000000E+00  0.00000000000E+00 -0.47280454619E+03  0.17771994203E+04  0.17131531282E+04 0.  0.
        1    1    3    3  502    0  0.23923736829E+03  0.76986529624E+03  0.63895731114E+02  0.80870869738E+03  0.50400001928E-02 0. -1.
       -1    1    3    3    0  502 -0.23923736829E+03 -0.76986529624E+03 -0.53670027731E+03  0.96849072294E+03  0.50400001928E-02 0.  1.
</event>
<event>
 5   0  0.5310003E-04  0.1723338E+04  0.7818609E-02  0.8748165E-01
       -2   -1    0    0    0  501  0.00000000000E+00  0.00000000000E+00  0.21499956226E+04  0.21499956226E+04  0.25500000920E-02 0. -1.
        2   -1    0    0  501    0  0.00000000000E+00  0.00000000000E+00 -0.34533713473E+03  0.34533713474E+03  0.25500000920E-02 0.  1.
    10030    2    1    2    0    0  0.00000000000E+00  0.00000000000E+00  0.18046584879E+04  0.24953327574E+04  0.17233378404E+04 0.  0.
        1    1    3    3  502    0  0.43608438119E+03  0.24253277149E+03  0.19194991990E+04  0.19832974834E+04  0.50400001928E-02 0. -1.
       -1    1    3    3    0  502 -0.43608438119E+03 -0.24253277149E+03 -0.11484071115E+03  0.51203527391E+03  0.50400001928E-02 0.  1.
</event>
<event>
 5   0  0.2583422E-04  0.1571419E+04  0.7818609E-02  0.8838301E-01
        1   -1    0    0  501    0  0.00000000000E+00  0.00000000000E+00  0.99534689302E+03  0.99534689303E+03  0.50400001928E-02 0. -1.
       -1   -1    0    0    0  501  0.00000000000E+00  0.00000000000E+00 -0.62022567465E+03  0.62022567467E+03  0.50400001928E-02 0.  1.
    10030    2    1    2    0    0  0.00000000000E+00  0.00000000000E+00  0.37512121837E+03  0.16155725677E+04  0.15714193562E+04 0.  0.
        3    1    3    3  502    0 -0.57963028138E+03 -0.22382372555E+03  0.68197978195E+03  0.92258590733E+03  0.10100000352E+00 0. -1.
       -3    1    3    3    0  502  0.57963028138E+03  0.22382372555E+03 -0.30685856358E+03  0.69298666037E+03  0.10100000352E+00 0.  1.
</event>
<event>
 5   0  0.2595644E-04  0.1701602E+04  0.7818609E-02  0.8760451E-01
       -1   -1    0    0    0  501  0.00000000000E+00  0.00000000000E+00  0.44869154359E+03  0.44869154361E+03  0.50400001928E-02 0.  1.
        1   -1    0    0  501    0  0.00000000000E+00  0.00000000000E+00 -0.16132746680E+04  0.16132746680E+04  0.50400001928E-02 0. -1.
    10030    2    1    2    0    0  0.00000000000E+00  0.00000000000E+00 -0.11645831244E+04  0.20619662116E+04  0.17016024225E+04 0.  0.
        2    1    3    3  502    0  0.10499650361E+03  0.83547494372E+03 -0.43477243383E+03  0.94766540328E+03  0.25500000920E-02 0.  1.
       -2    1    3    3    0  502 -0.10499650361E+03 -0.83547494372E+03 -0.72981069057E+03  0.11143008083E+04  0.25500000920E-02 0. -1.
</event>
<event>
 5   0  0.2785059E-04  0.1603201E+04  0.7818609E-02  0.8818584E-01
        1   -1    0    0  501    0  0.00000000000E+00  0.00000000000E+00  0.55681121514E+03  0.55681121517E+03  0.50400001928E-02 0. -1.
       -1   -1    0    0    0  501  0.00000000000E+00  0.00000000000E+00 -0.11540051884E+04  0.11540051884E+04  0.50400001928E-02 0.  1.
    10030    2    1    2    0    0  0.00000000000E+00  0.00000000000E+00 -0.59719397324E+03  0.17108164036E+04  0.16032005879E+04 0.  0.
        5    1    3    3  502    0  0.19434020052E+03 -0.76254849085E+03 -0.13573310674E+03  0.79855737470E+03  0.46999998093E+01 0. -1.
       -5    1    3    3    0  502 -0.19434020052E+03  0.76254849085E+03 -0.46146086650E+03  0.91225902886E+03  0.46999998093E+01 0.  1.
</event>
<event>
 5   0  0.5342255E-04  0.1713713E+04  0.7818609E-02  0.8753582E-01
       -2   -1    0    0    0  501  0.00000000000E+00  0.00000000000E+00  0.57083852490E+03  0.57083852491E+03  0.25500000920E-02 0. -1.
        2   -1    0    0  501    0  0.00000000000E+00  0.00000000000E+00 -0.12861835772E+04  0.12861835772E+04  0.25500000920E-02 0.  1.
    10030    2    1    2    0    0  0.00000000000E+00  0.00000000000E+00 -0.71534505231E+03  0.18570221021E+04  0.17137130868E+04 0.  0.
        5    1    3    3  502    0  0.24564452541E+03 -0.32385197644E+03  0.45969939867E+03  0.61365052158E+03  0.46999998093E+01 0. -1.
       -5    1    3    3    0  502 -0.24564452541E+03  0.32385197644E+03 -0.11750444510E+04  0.12433715805E+04  0.46999998093E+01 0.  1.
</event>
<event>
 5   0  0.5342255E-04  0.1693861E+04  0.7818609E-02  0.8764874E-01
        2   -1    0    0  501    0  0.00000000000E+00  0.00000000000E+00  0.57571745139E+03  0.57571745140E+03  0.25500000920E-02 0.  1.
       -2   -1    0    0    0  501  0.00000000000E+00  0.00000000000E+00 -0.12459080220E+04  0.12459080220E+04  0.25500000920E-02 0. -1.
    10030    2    1    2    0    0  0.00000000000E+00  0.00000000000E+00 -0.67019057060E+03  0.18216254734E+04  0.16938606685E+04 0.  0.
        5    1    3    3  502    0 -0.36737847709E+03  0.31410670127E+03 -0.10829927060E+04  0.11859701752E+04  0.46999998093E+01 0. -1.
       -5    1    3    3    0  502  0.36737847709E+03 -0.31410670127E+03  0.41280213536E+03  0.63565529823E+03  0.46999998093E+01 0.  1.
</event>
<event>
 5   0  0.5342255E-04  0.1471923E+04  0.7818609E-02  0.8903342E-01
        2   -1    0    0  501    0  0.00000000000E+00  0.00000000000E+00  0.13360638975E+04  0.13360638975E+04  0.25500000920E-02 0. -1.
       -2   -1    0    0    0  501  0.00000000000E+00  0.00000000000E+00 -0.40539901371E+03  0.40539901371E+03  0.25500000920E-02 0.  1.
    10030    2    1    2    0    0  0.00000000000E+00  0.00000000000E+00  0.93066488381E+03  0.17414629112E+04  0.14719225337E+04 0.  0.
        5    1    3    3  502    0  0.29368660710E+03 -0.49468216618E+03 -0.77686247890E+02  0.58053381627E+03  0.46999998093E+01 0.  1.
       -5    1    3    3    0  502 -0.29368660710E+03  0.49468216618E+03  0.10083511317E+04  0.11609290950E+04  0.46999998093E+01 0. -1.
</event>
<event>
 5   0  0.2561518E-04  0.1696256E+04  0.7818609E-02  0.8763503E-01
        1   -1    0    0  501    0  0.00000000000E+00  0.00000000000E+00  0.13892219696E+04  0.13892219696E+04  0.50400001928E-02 0.  1.
       -1   -1    0    0    0  501  0.00000000000E+00  0.00000000000E+00 -0.51778673322E+03  0.51778673325E+03  0.50400001928E-02 0. -1.
    10030    2    1    2    0    0  0.00000000000E+00  0.00000000000E+00  0.87143523640E+03  0.19070087029E+04  0.16962555296E+04 0.  0.
        4    1    3    3  502    0  0.72028728250E+03  0.33235423744E+03  0.77307760639E+03  0.11076658823E+04  0.12699999809E+01 0.  1.
       -4    1    3    3    0  502 -0.72028728250E+03 -0.33235423744E+03  0.98357630013E+02  0.79934282055E+03  0.12699999809E+01 0. -1.
</event>
<event>
 5   0  0.5021349E-04  0.1731256E+04  0.7818609E-02  0.8743736E-01
        2   -1    0    0  501    0  0.00000000000E+00  0.00000000000E+00  0.19300106596E+04  0.19300106596E+04  0.25500000920E-02 0.  1.
       -2   -1    0    0    0  501  0.00000000000E+00  0.00000000000E+00 -0.38824234235E+03  0.38824234236E+03  0.25500000920E-02 0. -1.
    10030    2    1    2    0    0  0.00000000000E+00  0.00000000000E+00  0.15417683172E+04  0.23182530020E+04  0.17312560287E+04 0.  0.
        2    1    3    3  502    0 -0.26848804241E+03  0.55513102532E+03  0.15843614188E+04  0.17001345210E+04  0.25500000920E-02 0.  1.
       -2    1    3    3    0  502  0.26848804241E+03 -0.55513102532E+03 -0.42593101549E+02  0.61811848095E+03  0.25500000920E-02 0. -1.
</event>
<event>
 5   0  0.5299877E-04  0.1693321E+04  0.7818609E-02  0.8765183E-01
       -2   -1    0    0    0  501  0.00000000000E+00  0.00000000000E+00  0.10387212441E+04  0.10387212441E+04  0.25500000920E-02 0. -1.
        2   -1    0    0  501    0  0.00000000000E+00  0.00000000000E+00 -0.69011222798E+03  0.69011222798E+03  0.25500000920E-02 0.  1.
    10030    2    1    2    0    0  0.00000000000E+00  0.00000000000E+00  0.34860901609E+03  0.17288334721E+04  0.16933212713E+04 0.  0.
        3    1    3    3  502    0  0.20830816755E+03 -0.77940675471E+03  0.43653144168E+03  0.91729324195E+03  0.10100000352E+00 0. -1.
       -3    1    3    3    0  502 -0.20830816755E+03  0.77940675471E+03 -0.87922425589E+02  0.81154023010E+03  0.10100000352E+00 0.  1.
</event>
<event>
 5   0  0.2630135E-04  0.1717276E+04  0.7818609E-02  0.8751572E-01
        1   -1    0    0  501    0  0.00000000000E+00  0.00000000000E+00  0.12864245791E+04  0.12864245792E+04  0.50400001928E-02 0. -1.
       -1   -1    0    0    0  501  0.00000000000E+00  0.00000000000E+00 -0.57310704440E+03  0.57310704442E+03  0.50400001928E-02 0.  1.
    10030    2    1    2    0    0  0.00000000000E+00  0.00000000000E+00  0.71331753475E+03  0.18595316236E+04  0.17172757361E+04 0.  0.
        1    1    3    3  502    0 -0.74549513377E+03  0.37324414188E+03  0.13425529939E+03  0.84445169747E+03  0.50400001928E-02 0.  1.
       -1    1    3    3    0  502  0.74549513377E+03 -0.37324414188E+03  0.57906223536E+03  0.10150799261E+04  0.50400001928E-02 0. -1.
</event>
<event>
 5   0  0.5299877E-04  0.1697206E+04  0.7818609E-02  0.8762960E-01
        2   -1    0    0  501    0  0.00000000000E+00  0.00000000000E+00  0.97420776365E+03  0.97420776366E+03  0.25500000920E-02 0.  1.
       -2   -1    0    0    0  501  0.00000000000E+00  0.00000000000E+00 -0.73919221798E+03  0.73919221799E+03  0.25500000920E-02 0. -1.
    10030    2    1    2    0    0  0.00000000000E+00  0.00000000000E+00  0.23501554567E+03  0.17133999816E+04  0.16972057007E+04 0.  0.
        3    1    3    3  502    0  0.16977886144E+03 -0.78014296283E+03  0.40779075549E+03  0.89651615418E+03  0.10100000352E+00 0.  1.
       -3    1    3    3    0  502 -0.16977886144E+03  0.78014296283E+03 -0.17277520982E+03  0.81688382746E+03  0.10100000352E+00 0. -1.
</event>
<event>
 5   0  0.2561518E-04  0.1800676E+04  0.7818609E-02  0.8705940E-01
        1   -1    0    0  501    0  0.00000000000E+00  0.00000000000E+00  0.70903139861E+03  0.70903139863E+03  0.50400001928E-02 0. -1.
       -1   -1    0    0    0  501  0.00000000000E+00  0.00000000000E+00 -0.11432614710E+04  0.11432614710E+04  0.50400001928E-02 0.  1.
    10030    2    1    2    0    0  0.00000000000E+00  0.00000000000E+00 -0.43423007234E+03  0.18522928696E+04  0.18006757396E+04 0.  0.
        4    1    3    3  502    0  0.14519069122E+03 -0.72525143260E+03  0.31095884143E+03  0.80235091529E+03  0.12699999809E+01 0. -1.
       -4    1    3    3    0  502 -0.14519069122E+03  0.72525143260E+03 -0.74518891377E+03  0.10499419543E+04  0.12699999809E+01 0.  1.
</event>
<event>
 5   0  0.5342255E-04  0.1691905E+04  0.7818609E-02  0.8765995E-01
       -2   -1    0    0    0  501  0.00000000000E+00  0.00000000000E+00  0.68249155331E+03  0.68249155332E+03  0.25500000920E-02 0. -1.
        2   -1    0    0  501    0  0.00000000000E+00  0.00000000000E+00 -0.10485634165E+04  0.10485634165E+04  0.25500000920E-02 0.  1.
    10030    2    1    2    0    0  0.00000000000E+00  0.00000000000E+00 -0.36607186317E+03  0.17310549698E+04  0.16919050504E+04 0.  0.
        5    1    3    3  502    0 -0.18684203208E+03 -0.51435805066E+03 -0.84305169680E+03  0.10051031801E+04  0.46999998093E+01 0.  1.
       -5    1    3    3    0  502  0.18684203208E+03  0.51435805066E+03  0.47697983363E+03  0.72595178967E+03  0.46999998093E+01 0. -1.
</event>
<event>
 5   0  0.2583422E-04  0.1712924E+04  0.7818609E-02  0.8754028E-01
       -1   -1    0    0    0  501  0.00000000000E+00  0.00000000000E+00  0.90881203154E+03  0.90881203155E+03  0.50400001928E-02 0.  1.
        1   -1    0    0  501    0  0.00000000000E+00  0.00000000000E+00 -0.80712703220E+03  0.80712703222E+03  0.50400001928E-02 0. -1.
    10030    2    1    2    0    0  0.00000000000E+00  0.00000000000E+00  0.10168499933E+03  0.17159390638E+04  0.17129235335E+04 0.  0.
        3    1    3    3  502    0 -0.85008271510E+03 -0.94151358830E+02  0.58006180788E+01  0.85530039066E+03  0.10100000352E+00 0. -1.
       -3    1    3    3    0  502  0.85008271510E+03  0.94151358830E+02  0.95884381252E+02  0.86063867311E+03  0.10100000352E+00 0.  1.
</event>
<event>
 5   0  0.5021349E-04  0.1684626E+04  0.7818609E-02  0.8770181E-01
       -2   -1    0    0    0  501  0.00000000000E+00  0.00000000000E+00  0.79949575616E+03  0.79949575616E+03  0.25500000920E-02 0.  1.
        2   -1    0    0  501    0  0.00000000000E+00  0.00000000000E+00 -0.88742361927E+03  0.88742361927E+03  0.25500000920E-02 0. -1.
    10030    2    1    2    0    0  0.00000000000E+00  0.00000000000E+00 -0.87927863110E+02  0.16869193754E+04  0.16846262702E+04 0.  0.
        2    1    3    3  502    0 -0.18800097800E+03 -0.60655665047E+03  0.51017534801E+03  0.81457610061E+03  0.25500000920E-02 0.  1.
       -2    1    3    3    0  502  0.18800097800E+03  0.60655665047E+03 -0.59810321112E+03  0.87234327482E+03  0.25500000920E-02 0. -1.
</event>
<event>
 5   0  0.2785059E-04  0.1697792E+04  0.7818609E-02  0.8762625E-01
       -1   -1    0    0    0  501  0.00000000000E+00  0.00000000000E+00  0.80511486691E+03  0.80511486693E+03  0.50400001928E-02 0.  1.
        1   -1    0    0  501    0  0.00000000000E+00  0.00000000000E+00 -0.89505812276E+03  0.89505812278E+03  0.50400001928E-02 0. -1.
    10030    2    1    2    0    0  0.00000000000E+00  0.00000000000E+00 -0.89943255848E+02  0.17001729897E+04  0.16977922151E+04 0.  0.
        5    1    3    3  502    0 -0.59696913912E+03 -0.35291993007E+03  0.44528396059E+03  0.82415079061E+03  0.46999998093E+01 0.  1.
       -5    1    3    3    0  502  0.59696913912E+03  0.35291993007E+03 -0.53522721644E+03  0.87602219910E+03  0.46999998093E+01 0. -1.
</event>
<event>
 5   0  0.2595644E-04  0.1716958E+04  0.7818609E-02  0.8751751E-01
       -1   -1    0    0    0  501  0.00000000000E+00  0.00000000000E+00  0.10954844964E+04  0.10954844964E+04  0.50400001928E-02 0. -1.
        1   -1    0    0  501    0  0.00000000000E+00  0.00000000000E+00 -0.67274878673E+03  0.67274878675E+03  0.50400001928E-02 0.  1.
    10030    2    1    2    0    0  0.00000000000E+00  0.00000000000E+00  0.42273570962E+03  0.17682332831E+04  0.17169576184E+04 0.  0.
        2    1    3    3  502    0  0.28328351393E+03  0.50192835216E+02  0.10443599825E+04  0.10832620380E+04  0.25500000920E-02 0. -1.
       -2    1    3    3    0  502 -0.28328351393E+03 -0.50192835216E+02 -0.62162427288E+03  0.68497124509E+03  0.25500000920E-02 0.  1.
</event>
<event>
 5   0  0.2785059E-04  0.1780819E+04  0.7818609E-02  0.8716567E-01
        1   -1    0    0  501    0  0.00000000000E+00  0.00000000000E+00  0.27109402142E+04  0.27109402142E+04  0.50400001928E-02 0.  1.
       -1   -1    0    0    0  501  0.00000000000E+00  0.00000000000E+00 -0.29245527070E+03  0.29245527075E+03  0.50400001928E-02 0. -1.
    10030    2    1    2    0    0  0.00000000000E+00  0.00000000000E+00  0.24184849435E+04  0.30033954850E+04  0.17808186368E+04 0.  0.
        5    1    3    3  502    0  0.29765073323E+03 -0.30748961851E+03 -0.10760957019E+03  0.44130231597E+03  0.46999998093E+01 0. -1.
       -5    1    3    3    0  502 -0.29765073323E+03  0.30748961851E+03  0.25260945137E+04  0.25620931690E+04  0.46999998093E+01 0.  1.
</event>
<event>
 5   0  0.5342255E-04  0.1754654E+04  0.7818609E-02  0.8730792E-01
        2   -1    0    0  501    0  0.00000000000E+00  0.00000000000E+00  0.14652434459E+04  0.14652434459E+04  0.25500000920E-02 0. -1.
       -2   -1    0    0    0  501  0.00000000000E+00  0.00000000000E+00 -0.52530724075E+03  0.52530724075E+03  0.25500000920E-02 0.  1.
    10030    2    1    2    0    0  0.00000000000E+00  0.00000000000E+00  0.93993620520E+03  0.19905506867E+04  0.17546543724E+04 0.  0.
        5    1    3    3  502    0  0.32898702125E+03 -0.11341389280E+03  0.13835875861E+04  0.14266856240E+04  0.46999998093E+01 0. -1.
       -5    1    3    3    0  502 -0.32898702125E+03  0.11341389280E+03 -0.44365138088E+03  0.56386506275E+03  0.46999998093E+01 0.  1.
</event>
<event>
 5   0  0.2785059E-04  0.1705386E+04  0.7818609E-02  0.8758299E-01
       -1   -1    0    0    0  501  0.00000000000E+00  0.00000000000E+00  0.77713149010E+03  0.77713149011E+03  0.50400001928E-02 0. -1.
        1   -1    0    0  501    0  0.00000000000E+00  0.00000000000E+00 -0.93560133953E+03  0.93560133955E+03  0.50400001928E-02 0.  1.
    10030    2    1    2    0    0  0.00000000000E+00  0.00000000000E+00 -0.15846984944E+03  0.17127328297E+04  0.17053858955E+04 0.  0.
        5    1    3    3  502    0  0.61434568625E+03  0.13577709139E+03  0.49875037894E+03  0.80288857960E+03  0.46999998093E+01 0. -1.
       -5    1    3    3    0  502 -0.61434568625E+03 -0.13577709139E+03 -0.65722022838E+03  0.90984425006E+03  0.46999998093E+01 0.  1.
</event>
<event>
 5   0  0.5310003E-04  0.1701903E+04  0.7818609E-02  0.8760280E-01
        2   -1    0    0  501    0  0.00000000000E+00  0.00000000000E+00  0.13184133508E+04  0.13184133508E+04  0.25500000920E-02 0. -1.
       -2   -1    0    0    0  501  0.00000000000E+00  0.00000000000E+00 -0.54923454425E+03  0.54923454426E+03  0.25500000920E-02 0.  1.
    10030    2    1    2    0    0  0.00000000000E+00  0.00000000000E+00  0.76917880659E+03  0.18676478951E+04  0.17019026481E+04 0.  0.
        1    1    3    3  502    0  0.89327720110E+02  0.21713983557E+03 -0.51298359472E+03  0.56416426531E+03  0.50400001928E-02 0.  1.
       -1    1    3    3    0  502 -0.89327720110E+02 -0.21713983557E+03  0.12821624013E+04  0.13034836298E+04  0.50400001928E-02 0. -1.
</event>
<event>
 5   0  0.5342255E-04  0.1771430E+04  0.7818609E-02  0.8721642E-01
       -2   -1    0    0    0  501  0.00000000000E+00  0.00000000000E+00  0.60817785916E+03  0.60817785917E+03  0.25500000920E-02 0. -1.
        2   -1    0    0  501    0  0.00000000000E+00  0.00000000000E+00 -0.12899038264E+04  0.12899038264E+04  0.25500000920E-02 0.  1.
    10030    2    1    2    0    0  0.00000000000E+00  0.00000000000E+00 -0.68172596720E+03  0.18980816855E+04  0.17714298718E+04 0.  0.
        5    1    3    3  502    0 -0.51247551661E+03  0.29549077027E+03  0.36545013569E+03  0.69535734850E+03  0.46999998093E+01 0. -1.
       -5    1    3    3    0  502  0.51247551661E+03 -0.29549077027E+03 -0.10471761029E+04  0.12027243370E+04  0.46999998093E+01 0.  1.
</event>
<event>
 5   0  0.5342255E-04  0.1721856E+04  0.7818609E-02  0.8748997E-01
        2   -1    0    0  501    0  0.00000000000E+00  0.00000000000E+00  0.11417697999E+04  0.11417697999E+04  0.25500000920E-02 0. -1.
       -2   -1    0    0    0  501  0.00000000000E+00  0.00000000000E+00 -0.64916469956E+03  0.64916469957E+03  0.25500000920E-02 0.  1.
    10030    2    1    2    0    0  0.00000000000E+00  0.00000000000E+00  0.49260510030E+03  0.17909344994E+04  0.17218555678E+04 0.  0.
        5    1    3    3  502    0 -0.18136356711E+03  0.15841616010E+03 -0.61340849319E+03  0.65899961516E+03  0.46999998093E+01 0.  1.
       -5    1    3    3    0  502  0.18136356711E+03 -0.15841616010E+03  0.11060135935E+04  0.11319348843E+04  0.46999998093E+01 0. -1.
</event>
<event>
 5   0  0.2583422E-04  0.1699223E+04  0.7818609E-02  0.8761808E-01
       -1   -1    0    0    0  501  0.00000000000E+00  0.00000000000E+00  0.57721213420E+03  0.57721213422E+03  0.50400001928E-02 0.  1.
        1   -1    0    0  501    0  0.00000000000E+00  0.00000000000E+00 -0.12505615099E+04  0.12505615099E+04  0.50400001928E-02 0. -1.
    10030    2    1    2    0    0  0.00000000000E+00  0.00000000000E+00 -0.67334937566E+03  0.18277736441E+04  0.16992225023E+04 0.  0.
        3    1    3    3  502    0 -0.48316477958E+02  0.39101144652E+03  0.47301038029E+03  0.61559992155E+03  0.10100000352E+00 0.  1.
       -3    1    3    3    0  502  0.48316477958E+02 -0.39101144652E+03 -0.11463597559E+04  0.12121737225E+04  0.10100000352E+00 0. -1.
</event>
<event>
 5   0  0.2785059E-04  0.1679846E+04  0.7818609E-02  0.8772943E-01
        1   -1    0    0  501    0  0.00000000000E+00  0.00000000000E+00  0.11090984388E+04  0.11090984388E+04  0.50400001928E-02 0. -1.
       -1   -1    0    0    0  501  0.00000000000E+00  0.00000000000E+00 -0.63607571579E+03  0.63607571581E+03  0.50400001928E-02 0.  1.
    10030    2    1    2    0    0  0.00000000000E+00  0.00000000000E+00  0.47302272296E+03  0.17451741546E+04  0.16798459255E+04 0.  0.
        5    1    3    3  502    0 -0.78355599152E+03 -0.23240888588E+03  0.43762331777E+03  0.92709769729E+03  0.46999998093E+01 0. -1.
       -5    1    3    3    0  502  0.78355599152E+03  0.23240888588E+03  0.35399405192E+02  0.81807645728E+03  0.46999998093E+01 0.  1.
</event>
<event>
 5   0  0.5342255E-04  0.1695112E+04  0.7818609E-02  0.8764157E-01
        2   -1    0    0  501    0  0.00000000000E+00  0.00000000000E+00  0.48659578477E+03  0.48659578478E+03  0.25500000920E-02 0.  1.
       -2   -1    0    0    0  501  0.00000000000E+00  0.00000000000E+00 -0.14762782238E+04  0.14762782238E+04  0.25500000920E-02 0. -1.
    10030    2    1    2    0    0  0.00000000000E+00  0.00000000000E+00 -0.98968243907E+03  0.19628740086E+04  0.16951115136E+04 0.  0.
        5    1    3    3  502    0 -0.65542482078E+03  0.53227359201E+03 -0.40949859919E+03  0.93840719583E+03  0.46999998093E+01 0. -1.
       -5    1    3    3    0  502  0.65542482078E+03 -0.53227359201E+03 -0.58018383988E+03  0.10244668128E+04  0.46999998093E+01 0.  1.
</event>
<event>
 5   0  0.2561518E-04  0.1664345E+04  0.7818609E-02  0.8781965E-01
       -1   -1    0    0    0  501  0.00000000000E+00  0.00000000000E+00  0.94021827975E+03  0.94021827976E+03  0.50400001928E-02 0.  1.
        1   -1    0    0  501    0  0.00000000000E+00  0.00000000000E+00 -0.73654319093E+03  0.73654319095E+03  0.50400001928E-02 0. -1.
    10030    2    1    2    0    0  0.00000000000E+00  0.00000000000E+00  0.20367508882E+03  0.16767614707E+04  0.16643453632E+04 0.  0.
        4    1    3    3  502    0 -0.62905382642E+03  0.75199723481E+02 -0.44176725502E+03  0.77234942575E+03  0.12699999809E+01 0. -1.
       -4    1    3    3    0  502  0.62905382642E+03 -0.75199723481E+02  0.64544234384E+03  0.90441204496E+03  0.12699999809E+01 0.  1.
</event>
<event>
 5   0  0.5310003E-04  0.1693656E+04  0.7818609E-02  0.8764991E-01
       -2   -1    0    0    0  501  0.00000000000E+00  0.00000000000E+00  0.11326806073E+04  0.11326806073E+04  0.25500000920E-02 0. -1.
        2   -1    0    0  501    0  0.00000000000E+00  0.00000000000E+00 -0.63311571271E+03  0.63311571272E+03  0.25500000920E-02 0.  1.
    10030    2    1    2    0    0  0.00000000000E+00  0.00000000000E+00  0.49956489459E+03  0.17657963200E+04  0.16936562697E+04 0.  0.
        1    1    3    3  502    0 -0.47297848552E+03  0.70176628639E+03  0.21793086863E+03  0.87388696752E+03  0.50400001928E-02 0.  1.
       -1    1    3    3    0  502  0.47297848552E+03 -0.70176628639E+03  0.28163402596E+03  0.89190935251E+03  0.50400001928E-02 0. -1.
</event>
<event>
 5   0  0.2785059E-04  0.1736843E+04  0.7818609E-02  0.8740626E-01
        1   -1    0    0  501    0  0.00000000000E+00  0.00000000000E+00  0.67050417816E+03  0.67050417818E+03  0.50400001928E-02 0.  1.
       -1   -1    0    0    0  501  0.00000000000E+00  0.00000000000E+00 -0.11247600274E+04  0.11247600274E+04  0.50400001928E-02 0. -1.
    10030    2    1    2    0    0  0.00000000000E+00  0.00000000000E+00 -0.45425584921E+03  0.17952642056E+04  0.17368434562E+04 0.  0.
        5    1    3    3  502    0 -0.56786324817E+03 -0.46488327071E+03 -0.70701691425E+03  0.10190584532E+04  0.46999998093E+01 0. -1.
       -5    1    3    3    0  502  0.56786324817E+03  0.46488327071E+03  0.25276106504E+03  0.77620575236E+03  0.46999998093E+01 0.  1.
</event>
<event>
 5   0  0.2630135E-04  0.1605821E+04  0.7818609E-02  0.8816980E-01
       -1   -1    0    0    0  501  0.00000000000E+00  0.00000000000E+00  0.45531561513E+03  0.45531561515E+03  0.50400001928E-02 0.  1.
        1   -1    0    0  501    0  0.00000000000E+00  0.00000000000E+00 -0.14158642351E+04  0.14158642351E+04  0.50400001928E-02 0. -1.
    10030    2    1    2    0    0  0.00000000000E+00  0.00000000000E+00 -0.96054861993E+03  0.18711798502E+04  0.16058207810E+04 0.  0.
        1    1    3    3  502    0  0.67699478914E+03 -0.36696866351E+03 -0.21538298359E+03  0.79961101429E+03  0.50400001928E-02 0. -1.
       -1    1    3    3    0  502 -0.67699478914E+03  0.36696866351E+03 -0.74516563634E+03  0.10715688359E+04  0.50400001928E-02 0.  1.
</event>
<event>
 5   0  0.2630135E-04  0.1701077E+04  0.7818609E-02  0.8760750E-01
       -1   -1    0    0    0  501  0.00000000000E+00  0.00000000000E+00  0.26304458858E+03  0.26304458863E+03  0.50400001928E-02 0.  1.
        1   -1    0    0  501    0  0.00000000000E+00  0.00000000000E+00 -0.27501639117E+04  0.27501639117E+04  0.50400001928E-02 0. -1.
    10030    2    1    2    0    0  0.00000000000E+00  0.00000000000E+00 -0.24871193232E+04  0.30132085004E+04  0.17010769939E+04 0.  0.
        1    1    3    3  502    0 -0.81891781188E+03  0.18338845286E+03 -0.99838216350E+03  0.13042333578E+04  0.50400001928E-02 0.  1.
       -1    1    3    3    0  502  0.81891781188E+03 -0.18338845286E+03 -0.14887371597E+04  0.17089751425E+04  0.50400001928E-02 0. -1.
</event>
<event>
 5   0  0.2561518E-04  0.1711743E+04  0.7818609E-02  0.8754695E-01
       -1   -1    0    0    0  501  0.00000000000E+00  0.00000000000E+00  0.11590143960E+04  0.11590143960E+04  0.50400001928E-02 0.  1.
        1   -1    0    0  501    0  0.00000000000E+00  0.00000000000E+00 -0.63201602800E+03  0.63201602802E+03  0.50400001928E-02 0. -1.
    10030    2    1    2    0    0  0.00000000000E+00  0.00000000000E+00  0.52699836800E+03  0.17910304240E+04  0.17117425916E+04 0.  0.
        4    1    3    3  502    0  0.38481054615E+03 -0.39965614769E+03 -0.41838510292E+03  0.69487545651E+03  0.12699999809E+01 0. -1.
       -4    1    3    3    0  502 -0.38481054615E+03  0.39965614769E+03  0.94538347092E+03  0.10961549675E+04  0.12699999809E+01 0.  1.
</event>
<event>
 5   0  0.5198430E-04  0.1704282E+04  0.7818609E-02  0.8758926E-01
       -2   -1    0    0    0  501  0.00000000000E+00  0.00000000000E+00  0.95827877342E+03  0.95827877343E+03  0.25500000920E-02 0.  1.
        2   -1    0    0  501    0  0.00000000000E+00  0.00000000000E+00 -0.75775868668E+03  0.75775868668E+03  0.25500000920E-02 0. -1.
    10030    2    1    2    0    0  0.00000000000E+00  0.00000000000E+00  0.20052008674E+03  0.17160374601E+04  0.17042817429E+04 0.  0.
        4    1    3    3  502    0  0.15635999207E+03  0.81123810580E+03  0.31047449482E+03  0.88258242462E+03  0.12699999809E+01 0. -1.
       -4    1    3    3    0  502 -0.15635999207E+03 -0.81123810580E+03 -0.10995440808E+03  0.83345503549E+03  0.12699999809E+01 0.  1.
</event>
<event>
 5   0  0.5310003E-04  0.1658200E+04  0.7818609E-02  0.8785570E-01
        2   -1    0    0  501    0  0.00000000000E+00  0.00000000000E+00  0.14131305312E+04  0.14131305312E+04  0.25500000920E-02 0. -1.
       -2   -1    0    0    0  501  0.00000000000E+00  0.00000000000E+00 -0.48644281113E+03  0.48644281113E+03  0.25500000920E-02 0.  1.
    10030    2    1    2    0    0  0.00000000000E+00  0.00000000000E+00  0.92668772004E+03  0.18995733423E+04  0.16582004560E+04 0.  0.
        1    1    3    3  502    0  0.62408759148E+03 -0.26136237815E+03 -0.85584821690E+02  0.68199734331E+03  0.50400001928E-02 0.  1.
       -1    1    3    3    0  502 -0.62408759148E+03  0.26136237815E+03  0.10122725417E+04  0.12175759990E+04  0.50400001928E-02 0. -1.
</event>
<event>
 5   0  0.2561518E-04  0.1707974E+04  0.7818609E-02  0.8756830E-01
        1   -1    0    0  501    0  0.00000000000E+00  0.00000000000E+00  0.37152066672E+03  0.37152066676E+03  0.50400001928E-02 0. -1.
       -1   -1    0    0    0  501  0.00000000000E+00  0.00000000000E+00 -0.19629966458E+04  0.19629966458E+04  0.50400001928E-02 0.  1.
    10030    2    1    2    0    0  0.00000000000E+00  0.00000000000E+00 -0.15914759791E+04  0.23345173126E+04  0.17079740310E+04 0.  0.
        4    1    3    3  502    0  0.44618307937E+03 -0.69323156533E+03 -0.49119804783E+03  0.95964914348E+03  0.12699999809E+01 0. -1.
       -4    1    3    3    0  502 -0.44618307937E+03  0.69323156533E+03 -0.11002779312E+04  0.13748681691E+04  0.12699999809E+01 0.  1.
</event>
<event>
 5   0  0.5342255E-04  0.1969902E+04  0.7818609E-02  0.8620823E-01
        2   -1    0    0  501    0  0.00000000000E+00  0.00000000000E+00  0.12721961518E+04  0.12721961518E+04  0.25500000920E-02 0. -1.
       -2   -1    0    0    0  501  0.00000000000E+00  0.00000000000E+00 -0.76256205474E+03  0.76256205474E+03  0.25500000920E-02 0.  1.
    10030    2    1    2    0    0  0.00000000000E+00  0.00000000000E+00  0.50963409701E+03  0.20347582065E+04  0.19699020397E+04 0.  0.
        5    1    3    3  502    0  0.32711452045E+03  0.74512735603E+03 -0.31832777384E+03  0.87382684084E+03  0.46999998093E+01 0.  1.
       -5    1    3    3    0  502 -0.32711452045E+03 -0.74512735603E+03  0.82796187085E+03  0.11609313657E+04  0.46999998093E+01 0. -1.
</event>
<event>
 5   0  0.5299877E-04  0.1685463E+04  0.7818609E-02  0.8769699E-01
        2   -1    0    0  501    0  0.00000000000E+00  0.00000000000E+00  0.61531835990E+03  0.61531835991E+03  0.25500000920E-02 0. -1.
       -2   -1    0    0    0  501  0.00000000000E+00  0.00000000000E+00 -0.11541936453E+04  0.11541936453E+04  0.25500000920E-02 0.  1.
    10030    2    1    2    0    0  0.00000000000E+00  0.00000000000E+00 -0.53887528541E+03  0.17695120052E+04  0.16854631896E+04 0.  0.
        3    1    3    3  502    0  0.52700838407E+03  0.27520185133E+03 -0.89648389283E+03  0.10757124505E+04  0.10100000352E+00 0.  1.
       -3    1    3    3    0  502 -0.52700838407E+03 -0.27520185133E+03  0.35760860741E+03  0.69379955473E+03  0.10100000352E+00 0. -1.
</event>
<event>
 5   0  0.5198430E-04  0.1698798E+04  0.7818609E-02  0.8762050E-01
        2   -1    0    0  501    0  0.00000000000E+00  0.00000000000E+00  0.94609612895E+03  0.94609612895E+03  0.25500000920E-02 0.  1.
       -2   -1    0    0    0  501  0.00000000000E+00  0.00000000000E+00 -0.76258515543E+03  0.76258515543E+03  0.25500000920E-02 0. -1.
    10030    2    1    2    0    0  0.00000000000E+00  0.00000000000E+00  0.18351097352E+03  0.17086812844E+04  0.16987982382E+04 0.  0.
        4    1    3    3  502    0  0.51539776804E+03  0.38646648947E+03 -0.46507706060E+03  0.79453728168E+03  0.12699999809E+01 0. -1.
       -4    1    3    3    0  502 -0.51539776804E+03 -0.38646648947E+03  0.64858803412E+03  0.91414400271E+03  0.12699999809E+01 0.  1.
</event>
<event>
 5   0  0.5021349E-04  0.1700211E+04  0.7818609E-02  0.8761244E-01
        2   -1    0    0  501    0  0.00000000000E+00  0.00000000000E+00  0.15513943937E+04  0.15513943937E+04  0.25500000920E-02 0. -1.
       -2   -1    0    0    0  501  0.00000000000E+00  0.00000000000E+00 -0.46582581461E+03  0.46582581462E+03  0.25500000920E-02 0.  1.
    10030    2    1    2    0    0  0.00000000000E+00  0.00000000000E+00  0.10855685790E+04  0.20172202083E+04  0.17002112307E+04 0.  0.
        2    1    3    3  502    0 -0.70291064575E+03 -0.32238014728E+03  0.96169992544E+03  0.12340498701E+04  0.25500000920E-02 0. -1.
       -2    1    3    3    0  502  0.70291064575E+03  0.32238014728E+03  0.12386865360E+03  0.78317033819E+03  0.25500000920E-02 0.  1.
</event>
<event>
 5   0  0.5021349E-04  0.1740716E+04  0.7818609E-02  0.8738478E-01
       -2   -1    0    0    0  501  0.00000000000E+00  0.00000000000E+00  0.83185485731E+03  0.83185485732E+03  0.25500000920E-02 0.  1.
        2   -1    0    0  501    0  0.00000000000E+00  0.00000000000E+00 -0.91064281407E+03  0.91064281408E+03  0.25500000920E-02 0. -1.
    10030    2    1    2    0    0  0.00000000000E+00  0.00000000000E+00 -0.78787956760E+02  0.17424976714E+04  0.17407155404E+04 0.  0.
        2    1    3    3  502    0  0.79821957992E+02 -0.29254036974E+03 -0.85605470728E+03  0.90817458386E+03  0.25500000920E-02 0. -1.
       -2    1    3    3    0  502 -0.79821957992E+02  0.29254036974E+03  0.77726675052E+03  0.83432308753E+03  0.25500000920E-02 0.  1.
</event>
<event>
 5   0  0.5021349E-04  0.1674115E+04  0.7818609E-02  0.8776267E-01
       -2   -1    0    0    0  501  0.00000000000E+00  0.00000000000E+00  0.49003582346E+03  0.49003582347E+03  0.25500000920E-02 0.  1.
        2   -1    0    0  501    0  0.00000000000E+00  0.00000000000E+00 -0.14298247955E+04  0.14298247955E+04  0.25500000920E-02 0. -1.
    10030    2    1    2    0    0  0.00000000000E+00  0.00000000000E+00 -0.93978897206E+03  0.19198606190E+04  0.16741151347E+04 0.  0.
        2    1    3    3  502    0 -0.24936501431E+03  0.73932068684E+03 -0.12226843224E+03  0.78976424196E+03  0.25500000920E-02 0.  1.
       -2    1    3    3    0  502  0.24936501431E+03 -0.73932068684E+03 -0.81752053982E+03  0.11300963770E+04  0.25500000920E-02 0. -1.
</event>
<event>
 5   0  0.5299877E-04  0.1702320E+04  0.7818609E-02  0.8760043E-01
       -2   -1    0    0    0  501  0.00000000000E+00  0.00000000000E+00  0.30837351247E+03  0.30837351248E+03  0.25500000920E-02 0. -1.
        2   -1    0    0  501    0  0.00000000000E+00  0.00000000000E+00 -0.23493358205E+04  0.23493358205E+04  0.25500000920E-02 0.  1.
    10030    2    1    2    0    0  0.00000000000E+00  0.00000000000E+00 -0.20409623081E+04  0.26577093330E+04  0.17023195223E+04 0.  0.
        3    1    3    3  502    0 -0.34605978121E+03  0.67597854949E+03 -0.16206278484E+04  0.17897315454E+04  0.10100000352E+00 0.  1.
       -3    1    3    3    0  502  0.34605978121E+03 -0.67597854949E+03 -0.42033445966E+03  0.86797778757E+03  0.10100000352E+00 0. -1.
</event>
<event>
 5   0  0.5198430E-04  0.1693424E+04  0.7818609E-02  0.8765124E-01
        2   -1    0    0  501    0  0.00000000000E+00  0.00000000000E+00  0.14425369781E+04  0.14425369781E+04  0.25500000920E-02 0.  1.
       -2   -1    0    0    0  501  0.00000000000E+00  0.00000000000E+00 -0.49698612946E+03  0.49698612947E+03  0.25500000920E-02 0. -1.
    10030    2    1    2    0    0  0.00000000000E+00  0.00000000000E+00  0.94555084860E+03  0.19395231075E+04  0.16934235965E+04 0.  0.
        4    1    3    3  502    0 -0.62810360410E+03  0.21539991039E+03  0.10744895185E+04  0.12631075161E+04  0.12699999809E+01 0.  1.
       -4    1    3    3    0  502  0.62810360410E+03 -0.21539991039E+03 -0.12893866990E+03  0.67641559146E+03  0.12699999809E+01 0. -1.
</event>
<event>
 5   0  0.5310003E-04  0.1727428E+04  0.7818609E-02  0.8745874E-01
        2   -1    0    0  501    0  0.00000000000E+00  0.00000000000E+00  0.65678630558E+03  0.65678630559E+03  0.25500000920E-02 0.  1.
       -2   -1    0    0    0  501  0.00000000000E+00  0.00000000000E+00 -0.11358365824E+04  0.11358365824E+04  0.25500000920E-02 0. -1.
    10030    2    1    2    0    0  0.00000000000E+00  0.00000000000E+00 -0.47905027677E+03  0.17926228879E+04  0.17274280450E+04 0.  0.
        1    1    3    3  502    0 -0.37219578857E+03  0.15924610164E+03  0.55223307607E+03  0.68472651201E+03  0.50400001928E-02 0.  1.
       -1    1    3    3    0  502  0.37219578857E+03 -0.15924610164E+03 -0.10312833528E+04  0.11078963759E+04  0.50400001928E-02 0. -1.
</event>
<event>
 5   0  0.2630135E-04  0.1710049E+04  0.7818609E-02  0.8755654E-01
        1   -1    0    0  501    0  0.00000000000E+00  0.00000000000E+00  0.14068476293E+04  0.14068476293E+04  0.50400001928E-02 0. -1.
       -1   -1    0    0    0  501  0.00000000000E+00  0.00000000000E+00 -0.51964882244E+03  0.51964882246E+03  0.50400001928E-02 0.  1.
    10030    2    1    2    0    0  0.00000000000E+00  0.00000000000E+00  0.88719880690E+03  0.19264964518E+04  0.17100487876E+04 0.  0.
        1    1    3    3  502    0 -0.46945824019E+03  0.36182835787E+03  0.11378431644E+04  0.12829644838E+04  0.50400001928E-02 0. -1.
       -1    1    3    3    0  502  0.46945824019E+03 -0.36182835787E+03 -0.25064435753E+03  0.64353196799E+03  0.50400001928E-02 0.  1.
</event>
<event>
 5   0  0.2583422E-04  0.1689113E+04  0.7818609E-02  0.8767598E-01
        1   -1    0    0  501    0  0.00000000000E+00  0.00000000000E+00  0.70001216802E+03  0.70001216804E+03  0.50400001928E-02 0. -1.
       -1   -1    0    0    0  501  0.00000000000E+00  0.00000000000E+00 -0.10189472795E+04  0.10189472796E+04  0.50400001928E-02 0.  1.
    10030    2    1    2    0    0  0.00000000000E+00  0.00000000000E+00 -0.31893511153E+03  0.17189594476E+04  0.16891127781E+04 0.  0.
        3    1    3    3  502    0  0.14633127820E+03  0.82694990279E+03 -0.25058454595E+03  0.87638553706E+03  0.10100000352E+00 0.  1.
       -3    1    3    3    0  502 -0.14633127820E+03 -0.82694990279E+03 -0.68350565575E+02  0.84257391053E+03  0.10100000352E+00 0. -1.
</event>
<event>
 5   0  0.2630135E-04  0.1729827E+04  0.7818609E-02  0.8744533E-01
        1   -1    0    0  501    0  0.00000000000E+00  0.00000000000E+00  0.21663910972E+04  0.21663910972E+04  0.50400001928E-02 0. -1.
       -1   -1    0    0    0  501  0.00000000000E+00  0.00000000000E+00 -0.34530956470E+03  0.34530956474E+03  0.50400001928E-02 0.  1.
    10030    2    1    2    0    0  0.00000000000E+00  0.00000000000E+00  0.18210815325E+04  0.25117006620E+04  0.17298272362E+04 0.  0.
        1    1    3    3  502    0  0.72990931000E+02  0.83992822077E+03  0.11908490670E+04  0.14590848476E+04  0.50400001928E-02 0.  1.
       -1    1    3    3    0  502 -0.72990931000E+02 -0.83992822077E+03  0.63023246550E+03  0.10526158144E+04  0.50400001928E-02 0. -1.
</event>
<event>
 5   0  0.5198430E-04  0.1811088E+04  0.7818609E-02  0.8700425E-01
        2   -1    0    0  501    0  0.00000000000E+00  0.00000000000E+00  0.24644114677E+04  0.24644114677E+04  0.25500000920E-02 0.  1.
       -2   -1    0    0    0  501  0.00000000000E+00  0.00000000000E+00 -0.33274080505E+03  0.33274080506E+03  0.25500000920E-02 0. -1.
    10030    2    1    2    0    0  0.00000000000E+00  0.00000000000E+00  0.21316706626E+04  0.27971522728E+04  0.18110883532E+04 0.  0.
        4    1    3    3  502    0  0.68081330821E+03 -0.50994559087E+03  0.15455071398E+04  0.17641273192E+04  0.12699999809E+01 0.  1.
       -4    1    3    3    0  502 -0.68081330821E+03  0.50994559087E+03  0.58616352288E+03  0.10330249536E+04  0.12699999809E+01 0. -1.
</event>
<event>
 5   0  0.5021349E-04  0.1740663E+04  0.7818609E-02  0.8738507E-01
        2   -1    0    0  501    0  0.00000000000E+00  0.00000000000E+00  0.67241071323E+03  0.67241071323E+03  0.25500000920E-02 0.  1.
       -2   -1    0    0    0  501  0.00000000000E+00  0.00000000000E+00 -0.11265094841E+04  0.11265094841E+04  0.25500000920E-02 0. -1.
    10030    2    1    2    0    0  0.00000000000E+00  0.00000000000E+00 -0.45409877092E+03  0.17989201974E+04  0.17406631445E+04 0.  0.
        2    1    3    3  502    0 -0.18670264530E+03 -0.64857823667E+03 -0.79495450450E+03  0.10428155499E+04  0.25500000920E-02 0. -1.
       -2    1    3    3    0  502  0.18670264530E+03  0.64857823667E+03  0.34085573358E+03  0.75610464750E+03  0.25500000920E-02 0.  1.
</event>
<event>
 5   0  0.5021349E-04  0.1694258E+04  0.7818609E-02  0.8764646E-01
        2   -1    0    0  501    0  0.00000000000E+00  0.00000000000E+00  0.89160976128E+03  0.89160976129E+03  0.25500000920E-02 0.  1.
       -2   -1    0    0    0  501  0.00000000000E+00  0.00000000000E+00 -0.80486755873E+03  0.80486755873E+03  0.25500000920E-02 0. -1.
    10030    2    1    2    0    0  0.00000000000E+00  0.00000000000E+00  0.86742202555E+02  0.16964773200E+04  0.16942582706E+04 0.  0.
        2    1    3    3  502    0  0.80034357126E+03 -0.99920051351E+02  0.30273530539E+03  0.86150015314E+03  0.25500000920E-02 0. -1.
       -2    1    3    3    0  502 -0.80034357126E+03  0.99920051351E+02 -0.21599310284E+03  0.83497716688E+03  0.25500000920E-02 0.  1.
</event>
<event>
 5   0  0.5310003E-04  0.1691053E+04  0.7818609E-02  0.8766484E-01
       -2   -1    0    0    0  501  0.00000000000E+00  0.00000000000E+00  0.44847438426E+03  0.44847438427E+03  0.25500000920E-02 0. -1.
        2   -1    0    0  501    0  0.00000000000E+00  0.00000000000E+00 -0.15941039637E+04  0.15941039637E+04  0.25500000920E-02 0.  1.
    10030    2    1    2    0    0  0.00000000000E+00  0.00000000000E+00 -0.11456295794E+04  0.20425783480E+04  0.16910526823E+04 0.  0.
        1    1    3    3  502    0 -0.73868993624E+03 -0.18874943666E+03 -0.10143511323E+04  0.12689355347E+04  0.50400001928E-02 0.  1.
       -1    1    3    3    0  502  0.73868993624E+03  0.18874943666E+03 -0.13127844716E+03  0.77364281323E+03  0.50400001928E-02 0. -1.
</event>
<event>
 5   0  0.5342255E-04  0.1697656E+04  0.7818609E-02  0.8762703E-01
        2   -1    0    0  501    0  0.00000000000E+00  0.00000000000E+00  0.22068029998E+04  0.22068029998E+04  0.25500000920E-02 0. -1.
       -2   -1    0    0    0  501  0.00000000000E+00  0.00000000000E+00 -0.32649429455E+03  0.32649429456E+03  0.25500000920E-02 0.  1.
    10030    2    1    2    0    0  0.00000000000E+00  0.00000000000E+00  0.18803087052E+04  0.25332972943E+04  0.16976555465E+04 0.  0.
        5    1    3    3  502    0  0.33577499871E+03  0.68880704653E+03  0.14849450297E+04  0.16710128151E+04  0.46999998093E+01 0. -1.
       -5    1    3    3    0  502 -0.33577499871E+03 -0.68880704653E+03  0.39536367549E+03  0.86228447916E+03  0.46999998093E+01 0.  1.
</event>
<event>
 5   0  0.2595644E-04  0.1702993E+04  0.7818609E-02  0.8759659E-01
       -1   -1    0    0    0  501  0.00000000000E+00  0.00000000000E+00  0.10876365934E+04  0.10876365934E+04  0.50400001928E-02 0.  1.
        1   -1    0    0  501    0  0.00000000000E+00  0.00000000000E+00 -0.66662563188E+03  0.66662563190E+03  0.50400001928E-02 0. -1.
    10030    2    1    2    0    0  0.00000000000E+00  0.00000000000E+00  0.42101096154E+03  0.17542622253E+04  0.17029931666E+04 0.  0.
        2    1    3    3  502    0 -0.27405046103E+03  0.72070119834E+03 -0.16166423632E+03  0.78781292055E+03  0.25500000920E-02 0.  1.
       -2    1    3    3    0  502  0.27405046103E+03 -0.72070119834E+03  0.58267519786E+03  0.96644930477E+03  0.25500000920E-02 0. -1.
</event>
<event>
 5   0  0.2583422E-04  0.1695004E+04  0.7818609E-02  0.8764219E-01
        1   -1    0    0  501    0  0.00000000000E+00  0.00000000000E+00  0.19123530767E+04  0.19123530767E+04  0.50400001928E-02 0. -1.
       -1   -1    0    0    0  501  0.00000000000E+00  0.00000000000E+00 -0.37558925190E+03  0.37558925193E+03  0.50400001928E-02 0.  1.
    10030    2    1    2    0    0  0.00000000000E+00  0.00000000000E+00  0.15367638248E+04  0.22879423286E+04  0.16950035534E+04 0.  0.
        3    1    3    3  502    0  0.60184972232E+03 -0.46592479640E+03  0.26522421390E+03  0.80601048256E+03  0.10100000352E+00 0.  1.
       -3    1    3    3    0  502 -0.60184972232E+03  0.46592479640E+03  0.12715396109E+04  0.14819318461E+04  0.10100000352E+00 0. -1.
</event>
<event>
 5   0  0.2630135E-04  0.1416988E+04  0.7818609E-02  0.8941613E-01
        1   -1    0    0  501    0  0.00000000000E+00  0.00000000000E+00  0.18558891481E+04  0.18558891481E+04  0.50400001928E-02 0.  1.
       -1   -1    0    0    0  501  0.00000000000E+00  0.00000000000E+00 -0.27047087480E+03  0.27047087485E+03  0.50400001928E-02 0. -1.
    10030    2    1    2    0    0  0.00000000000E+00  0.00000000000E+00  0.15854182733E+04  0.21263600229E+04  0.14169883012E+04 0.  0.
        1    1    3    3  502    0 -0.52462746252E+03  0.45861592955E+03  0.60052780062E+03  0.91988922410E+03  0.50400001928E-02 0.  1.
       -1    1    3    3    0  502  0.52462746252E+03 -0.45861592955E+03  0.98489047265E+03  0.12064707988E+04  0.50400001928E-02 0. -1.
</event>
<event>
 5   0  0.2595644E-04  0.1684294E+04  0.7818609E-02  0.8770373E-01
        1   -1    0    0  501    0  0.00000000000E+00  0.00000000000E+00  0.10608313885E+04  0.10608313885E+04  0.50400001928E-02 0.  1.
       -1   -1    0    0    0  501  0.00000000000E+00  0.00000000000E+00 -0.66854329414E+03  0.66854329416E+03  0.50400001928E-02 0. -1.
    10030    2    1    2    0    0  0.00000000000E+00  0.00000000000E+00  0.39228809438E+03  0.17293746827E+04  0.16842941679E+04 0.  0.
        2    1    3    3  502    0  0.22772519349E+03  0.28996126961E+03  0.97355885486E+03  0.10410346514E+04  0.25500000920E-02 0.  1.
       -2    1    3    3    0  502 -0.22772519349E+03 -0.28996126961E+03 -0.58127076047E+03  0.68834003125E+03  0.25500000920E-02 0. -1.
</event>
<event>
 5   0  0.5299877E-04  0.1693325E+04  0.7818609E-02  0.8765181E-01
        2   -1    0    0  501    0  0.00000000000E+00  0.00000000000E+00  0.71480211297E+03  0.71480211297E+03  0.25500000920E-02 0.  1.
       -2   -1    0    0    0  501  0.00000000000E+00  0.00000000000E+00 -0.10028470459E+04  0.10028470459E+04  0.25500000920E-02 0. -1.
    10030    2    1    2    0    0  0.00000000000E+00  0.00000000000E+00 -0.28804493293E+03  0.17176491589E+04  0.16933247620E+04 0.  0.
        3    1    3    3  502    0 -0.28882652770E+03 -0.45657204909E+03  0.51723014427E+03  0.74793437644E+03  0.10100000352E+00 0.  1.
       -3    1    3    3    0  502  0.28882652770E+03  0.45657204909E+03 -0.80527507720E+03  0.96971478244E+03  0.10100000352E+00 0. -1.
</event>
<event>
 5   0  0.2595644E-04  0.1685941E+04  0.7818609E-02  0.8769423E-01
        1   -1    0    0  501    0  0.00000000000E+00  0.00000000000E+00  0.11269908875E+04  0.11269908875E+04  0.50400001928E-02 0. -1.
       -1   -1    0    0    0  501  0.00000000000E+00  0.00000000000E+00 -0.63052814637E+03  0.63052814639E+03  0.50400001928E-02 0.  1.
    10030    2    1    2    0    0  0.00000000000E+00  0.00000000000E+00  0.49646274113E+03  0.17575190339E+04  0.16859412508E+04 0.  0.
        2    1    3    3  502    0 -0.25166741841E+03  0.62843181187E+03 -0.27542644433E+03  0.73083702554E+03  0.25500000920E-02 0.  1.
       -2    1    3    3    0  502  0.25166741841E+03 -0.62843181187E+03  0.77188918546E+03  0.10266820084E+04  0.25500000920E-02 0. -1.
</event>
<event>
 5   0  0.5342255E-04  0.1392821E+04  0.7818609E-02  0.8959031E-01
        2   -1    0    0  501    0  0.00000000000E+00  0.00000000000E+00  0.34455756581E+03  0.34455756582E+03  0.25500000920E-02 0.  1.
       -2   -1    0    0    0  501  0.00000000000E+00  0.00000000000E+00 -0.14075670406E+04  0.14075670406E+04  0.25500000920E-02 0. -1.
    10030    2    1    2    0    0  0.00000000000E+00  0.00000000000E+00 -0.10630094748E+04  0.17521246064E+04  0.13928214146E+04 0.  0.
        5    1    3    3  502    0  0.47693426917E+03 -0.37945948113E+03 -0.95532975896E+03  0.11331958495E+04  0.46999998093E+01 0. -1.
       -5    1    3    3    0  502 -0.47693426917E+03  0.37945948113E+03 -0.10767971580E+03  0.61892875691E+03  0.46999998093E+01 0.  1.
</event>
<event>
 5   0  0.5198430E-04  0.1709662E+04  0.7818609E-02  0.8755873E-01
        2   -1    0    0  501    0  0.00000000000E+00  0.00000000000E+00  0.10866948933E+04  0.10866948933E+04  0.25500000920E-02 0.  1.
       -2   -1    0    0    0  501  0.00000000000E+00  0.00000000000E+00 -0.67243865462E+03  0.67243865462E+03  0.25500000920E-02 0. -1.
    10030    2    1    2    0    0  0.00000000000E+00  0.00000000000E+00  0.41425623872E+03  0.17591335480E+04  0.17096615479E+04 0.  0.
        4    1    3    3  502    0  0.33356689261E+03 -0.58450597547E+02 -0.60047296401E+03  0.68938576835E+03  0.12699999809E+01 0. -1.
       -4    1    3    3    0  502 -0.33356689261E+03  0.58450597547E+02  0.10147292027E+04  0.10697477796E+04  0.12699999809E+01 0.  1.
</event>
<event>
 5   0  0.2785059E-04  0.1743483E+04  0.7818609E-02  0.8736946E-01
        1   -1    0    0  501    0  0.00000000000E+00  0.00000000000E+00  0.61224801817E+03  0.61224801820E+03  0.50400001928E-02 0. -1.
       -1   -1    0    0    0  501  0.00000000000E+00  0.00000000000E+00 -0.12412175463E+04  0.12412175463E+04  0.50400001928E-02 0.  1.
    10030    2    1    2    0    0  0.00000000000E+00  0.00000000000E+00 -0.62896952813E+03  0.18534655645E+04  0.17434827018E+04 0.  0.
        5    1    3    3  502    0  0.21742939001E+03  0.84412628005E+03 -0.32435349831E+03  0.93008171586E+03  0.46999998093E+01 0. -1.
       -5    1    3    3    0  502 -0.21742939001E+03 -0.84412628005E+03 -0.30461602982E+03  0.92338384865E+03  0.46999998093E+01 0.  1.
</event>
<event>
 5   0  0.2583422E-04  0.1373416E+04  0.7818609E-02  0.8973290E-01
        1   -1    0    0  501    0  0.00000000000E+00  0.00000000000E+00  0.64076969689E+03  0.64076969691E+03  0.50400001928E-02 0. -1.
       -1   -1    0    0    0  501  0.00000000000E+00  0.00000000000E+00 -0.73593933096E+03  0.73593933098E+03  0.50400001928E-02 0.  1.
    10030    2    1    2    0    0  0.00000000000E+00  0.00000000000E+00 -0.95169634075E+02  0.13767090279E+04  0.13734156284E+04 0.  0.
        3    1    3    3  502    0 -0.17909306369E+03  0.19944034879E+03 -0.68133251470E+03  0.73216445145E+03  0.10100000352E+00 0.  1.
       -3    1    3    3    0  502  0.17909306369E+03 -0.19944034879E+03  0.58616288062E+03  0.64454457643E+03  0.10100000352E+00 0. -1.
</event>
<event>
 5   0  0.2561518E-04  0.1708709E+04  0.7818609E-02  0.8756413E-01
        1   -1    0    0  501    0  0.00000000000E+00  0.00000000000E+00  0.18687909851E+04  0.18687909851E+04  0.50400001928E-02 0. -1.
       -1   -1    0    0    0  501  0.00000000000E+00  0.00000000000E+00 -0.39058500523E+03  0.39058500526E+03  0.50400001928E-02 0.  1.
    10030    2    1    2    0    0  0.00000000000E+00  0.00000000000E+00  0.14782059799E+04  0.22593759904E+04  0.17087091464E+04 0.  0.
        4    1    3    3  502    0  0.57932043969E+03  0.33518610043E+03  0.36980712155E+02  0.67032162410E+03  0.12699999809E+01 0.  1.
       -4    1    3    3    0  502 -0.57932043969E+03 -0.33518610043E+03  0.14412252677E+04  0.15890543663E+04  0.12699999809E+01 0. -1.
</event>
<event>
 5   0  0.2785059E-04  0.1718839E+04  0.7818609E-02  0.8750692E-01
       -1   -1    0    0    0  501  0.00000000000E+00  0.00000000000E+00  0.10028367811E+04  0.10028367812E+04  0.50400001928E-02 0. -1.
        1   -1    0    0  501    0  0.00000000000E+00  0.00000000000E+00 -0.73651259348E+03  0.73651259349E+03  0.50400001928E-02 0.  1.
    10030    2    1    2    0    0  0.00000000000E+00  0.00000000000E+00  0.26632418766E+03  0.17393493746E+04  0.17188390484E+04 0.  0.
        5    1    3    3  502    0  0.18583379403E+03  0.61715280865E+03  0.70842426539E+03  0.95775718114E+03  0.46999998093E+01 0. -1.
       -5    1    3    3    0  502 -0.18583379403E+03 -0.61715280865E+03 -0.44210007773E+03  0.78159219351E+03  0.46999998093E+01 0.  1.
</event>
<event>
 5   0  0.5021349E-04  0.1532394E+04  0.7818609E-02  0.8863192E-01
        2   -1    0    0  501    0  0.00000000000E+00  0.00000000000E+00  0.80496526788E+03  0.80496526788E+03  0.25500000920E-02 0.  1.
       -2   -1    0    0    0  501  0.00000000000E+00  0.00000000000E+00 -0.72929599483E+03  0.72929599483E+03  0.25500000920E-02 0. -1.
    10030    2    1    2    0    0  0.00000000000E+00  0.00000000000E+00  0.75669273054E+02  0.15342612627E+04  0.15323941345E+04 0.  0.
        2    1    3    3  502    0 -0.16183034917E+03  0.42204576380E+03  0.65725334069E+03  0.79768016304E+03  0.25500000920E-02 0.  1.
       -2    1    3    3    0  502  0.16183034917E+03 -0.42204576380E+03 -0.58158406764E+03  0.73658109967E+03  0.25500000920E-02 0. -1.
</event>
<event>
 5   0  0.2595644E-04  0.1691340E+04  0.7818609E-02  0.8766319E-01
       -1   -1    0    0    0  501  0.00000000000E+00  0.00000000000E+00  0.74146489276E+03  0.74146489278E+03  0.50400001928E-02 0.  1.
        1   -1    0    0  501    0  0.00000000000E+00  0.00000000000E+00 -0.96452025464E+03  0.96452025466E+03  0.50400001928E-02 0. -1.
    10030    2    1    2    0    0  0.00000000000E+00  0.00000000000E+00 -0.22305536188E+03  0.17059851474E+04  0.16913401872E+04 0.  0.
        2    1    3    3  502    0  0.58593079474E+03  0.54301072651E+03 -0.39138707754E+03  0.88958382956E+03  0.25500000920E-02 0. -1.
       -2    1    3    3    0  502 -0.58593079474E+03 -0.54301072651E+03  0.16833171567E+03  0.81640131788E+03  0.25500000920E-02 0.  1.
</event>
<event>
 5   0  0.5342255E-04  0.1678954E+04  0.7818609E-02  0.8773460E-01
       -2   -1    0    0    0  501  0.00000000000E+00  0.00000000000E+00  0.46597181968E+03  0.46597181968E+03  0.25500000920E-02 0.  1.
        2   -1    0    0  501    0  0.00000000000E+00  0.00000000000E+00 -0.15123690422E+04  0.15123690422E+04  0.25500000920E-02 0. -1.
    10030    2    1    2    0    0  0.00000000000E+00  0.00000000000E+00 -0.10463972225E+04  0.19783408619E+04  0.16789536678E+04 0.  0.
        5    1    3    3  502    0 -0.56004878443E+03  0.28122232169E+03  0.13493021213E+03  0.64106855117E+03  0.46999998093E+01 0.  1.
       -5    1    3    3    0  502  0.56004878443E+03 -0.28122232169E+03 -0.11813274346E+04  0.13372723107E+04  0.46999998093E+01 0. -1.
</event>
<event>
 5   0  0.2630135E-04  0.1723460E+04  0.7818609E-02  0.8748096E-01
        1   -1    0    0  501    0  0.00000000000E+00  0.00000000000E+00  0.25968749923E+04  0.25968749923E+04  0.50400001928E-02 0.  1.
       -1   -1    0    0    0  501  0.00000000000E+00  0.00000000000E+00 -0.28595079762E+03  0.28595079767E+03  0.50400001928E-02 0. -1.
    10030    2    1    2    0    0  0.00000000000E+00  0.00000000000E+00  0.23109241947E+04  0.28828257900E+04  0.17234598637E+04 0.  0.
        1    1    3    3  502    0  0.62130956033E+03 -0.54459624617E+03  0.74584657368E+03  0.11130578388E+04  0.50400001928E-02 0. -1.
       -1    1    3    3    0  502 -0.62130956033E+03  0.54459624617E+03  0.15650776210E+04  0.17697679512E+04  0.50400001928E-02 0.  1.
</event>
<event>
 5   0  0.5299877E-04  0.1681108E+04  0.7818609E-02  0.8772213E-01
       -2   -1    0    0    0  501  0.00000000000E+00  0.00000000000E+00  0.66183949235E+03  0.66183949235E+03  0.25500000920E-02 0.  1.
        2   -1    0    0  501    0  0.00000000000E+00  0.00000000000E+00 -0.10675268474E+04  0.10675268474E+04  0.25500000920E-02 0. -1.
    10030    2    1    2    0    0  0.00000000000E+00  0.00000000000E+00 -0.40568735500E+03  0.17293663397E+04  0.16811084757E+04 0.  0.
        3    1    3    3  502    0  0.53757951248E+03 -0.37117443401E+03 -0.74695934692E+03  0.99232578766E+03  0.10100000352E+00 0. -1.
       -3    1    3    3    0  502 -0.53757951248E+03  0.37117443401E+03  0.34127199191E+03  0.73704055205E+03  0.10100000352E+00 0.  1.
</event>
<event>
 5   0  0.5342255E-04  0.1695519E+04  0.7818609E-02  0.8763924E-01
       -2   -1    0    0    0  501  0.00000000000E+00  0.00000000000E+00  0.48559841950E+03  0.48559841951E+03  0.25500000920E-02 0. -1.
        2   -1    0    0  501    0  0.00000000000E+00  0.00000000000E+00 -0.14800222509E+04  0.14800222509E+04  0.25500000920E-02 0.  1.
    10030    2    1    2    0    0  0.00000000000E+00  0.00000000000E+00 -0.99442383138E+03  0.19656206704E+04  0.16955193492E+04 0.  0.
        5    1    3    3  502    0 -0.57647569104E+03 -0.41822244059E+03 -0.10302898214E+04  0.12524988776E+04  0.46999998093E+01 0.  1.
       -5    1    3    3    0  502  0.57647569104E+03  0.41822244059E+03  0.35865990036E+02  0.71312179283E+03  0.46999998093E+01 0. -1.
</event>
<event>
 5   0  0.5342255E-04  0.1679403E+04  0.7818609E-02  0.8773200E-01
        2   -1    0    0  501    0  0.00000000000E+00  0.00000000000E+00  0.67678423384E+03  0.67678423384E+03  0.25500000920E-02 0.  1.
       -2   -1    0    0    0  501  0.00000000000E+00  0.00000000000E+00 -0.10418362731E+04  0.10418362731E+04  0.25500000920E-02 0. -1.
    10030    2    1    2    0    0  0.00000000000E+00  0.00000000000E+00 -0.36505203930E+03  0.17186205070E+04  0.16794027080E+04 0.  0.
        5    1    3    3  502    0 -0.78280429236E+03 -0.20464265904E+03 -0.41230242934E+03  0.90811704161E+03  0.46999998093E+01 0.  1.
       -5    1    3    3    0  502  0.78280429236E+03  0.20464265904E+03  0.47250390031E+02  0.81050346538E+03  0.46999998093E+01 0. -1.
</event>
<event>
 5   0  0.5299877E-04  0.1714331E+04  0.7818609E-02  0.8753233E-01
        2   -1    0    0  501    0  0.00000000000E+00  0.00000000000E+00  0.10608048688E+04  0.10608048688E+04  0.25500000920E-02 0.  1.
       -2   -1    0    0    0  501  0.00000000000E+00  0.00000000000E+00 -0.69261777227E+03  0.69261777228E+03  0.25500000920E-02 0. -1.
    10030    2    1    2    0    0  0.00000000000E+00  0.00000000000E+00  0.36818709654E+03  0.17534226411E+04  0.17143305458E+04 0.  0.
        3    1    3    3  502    0  0.33429548857E+03  0.20802258304E+03  0.96283936976E+03  0.10402338828E+04  0.10100000352E+00 0.  1.
       -3    1    3    3    0  502 -0.33429548857E+03 -0.20802258304E+03 -0.59465227322E+03  0.71318875831E+03  0.10100000352E+00 0. -1.
</event>
<event>
 5   0  0.2630135E-04  0.1697458E+04  0.7818609E-02  0.8762815E-01
       -1   -1    0    0    0  501  0.00000000000E+00  0.00000000000E+00  0.42503995046E+03  0.42503995049E+03  0.50400001928E-02 0.  1.
        1   -1    0    0  501    0  0.00000000000E+00  0.00000000000E+00 -0.16947611711E+04  0.16947611712E+04  0.50400001928E-02 0. -1.
    10030    2    1    2    0    0  0.00000000000E+00  0.00000000000E+00 -0.12697212207E+04  0.21198011216E+04  0.16974583403E+04 0.  0.
        1    1    3    3  502    0  0.12357578697E+03 -0.39881688659E+03 -0.15576411078E+04  0.16126288180E+04  0.50400001928E-02 0. -1.
       -1    1    3    3    0  502 -0.12357578697E+03  0.39881688659E+03  0.28791988707E+03  0.50717230361E+03  0.50400001928E-02 0.  1.
</event>
<event>
 5   0  0.2595644E-04  0.1732162E+04  0.7818609E-02  0.8743231E-01
        1   -1    0    0  501    0  0.00000000000E+00  0.00000000000E+00  0.57778767735E+03  0.57778767737E+03  0.50400001928E-02 0. -1.
       -1   -1    0    0    0  501  0.00000000000E+00  0.00000000000E+00 -0.12982214449E+04  0.12982214449E+04  0.50400001928E-02 0.  1.
    10030    2    1    2    0    0  0.00000000000E+00  0.00000000000E+00 -0.72043376751E+03  0.18760091222E+04  0.17321620633E+04 0.  0.
        2    1    3    3  502    0  0.56076687704E+03  0.29791077410E+03  0.27766435714E+03  0.69304243372E+03  0.25500000920E-02 0. -1.
       -2    1    3    3    0  502 -0.56076687704E+03 -0.29791077410E+03 -0.99809812466E+03  0.11829666885E+04  0.25500000920E-02 0.  1.
</event>
<event>
 5   0  0.2785059E-04  0.1682911E+04  0.7818609E-02  0.8771171E-01
       -1   -1    0    0    0  501  0.00000000000E+00  0.00000000000E+00  0.12172633621E+04  0.12172633621E+04  0.50400001928E-02 0.  1.
        1   -1    0    0  501    0  0.00000000000E+00  0.00000000000E+00 -0.58167140455E+03  0.58167140458E+03  0.50400001928E-02 0. -1.
    10030    2    1    2    0    0  0.00000000000E+00  0.00000000000E+00  0.63559195750E+03  0.17989347666E+04  0.16829109181E+04 0.  0.
        5    1    3    3  502    0 -0.69561593370E+03  0.12619642146E+03 -0.16997231192E+03  0.72713117168E+03  0.46999998093E+01 0.  1.
       -5    1    3    3    0  502  0.69561593370E+03 -0.12619642146E+03  0.80556426943E+03  0.10718035950E+04  0.46999998093E+01 0. -1.
</event>
<event>
 5   0  0.5021349E-04  0.1748566E+04  0.7818609E-02  0.8734140E-01
        2   -1    0    0  501    0  0.00000000000E+00  0.00000000000E+00  0.14288255830E+04  0.14288255830E+04  0.25500000920E-02 0.  1.
       -2   -1    0    0    0  501  0.00000000000E+00  0.00000000000E+00 -0.53496423690E+03  0.53496423691E+03  0.25500000920E-02 0. -1.
    10030    2    1    2    0    0  0.00000000000E+00  0.00000000000E+00  0.89386134613E+03  0.19637898199E+04  0.17485657983E+04 0.  0.
        2    1    3    3  502    0 -0.46170364507E+03 -0.16151944871E+03  0.12607704521E+04  0.13523316609E+04  0.25500000920E-02 0.  1.
       -2    1    3    3    0  502  0.46170364507E+03  0.16151944871E+03 -0.36690910598E+03  0.61145815903E+03  0.25500000920E-02 0. -1.
</event>
<event>
 5   0  0.2583422E-04  0.1697751E+04  0.7818609E-02  0.8762648E-01
        1   -1    0    0  501    0  0.00000000000E+00  0.00000000000E+00  0.56138649313E+03  0.56138649315E+03  0.50400001928E-02 0.  1.
       -1   -1    0    0    0  501  0.00000000000E+00  0.00000000000E+00 -0.12835887091E+04  0.12835887091E+04  0.50400001928E-02 0. -1.
    10030    2    1    2    0    0  0.00000000000E+00  0.00000000000E+00 -0.72220221596E+03  0.18449752022E+04  0.16977507050E+04 0.  0.
        3    1    3    3  502    0 -0.72746736253E+02  0.48789632404E+03  0.38964243226E+03  0.62861446520E+03  0.10100000352E+00 0.  1.
       -3    1    3    3    0  502  0.72746736253E+02 -0.48789632404E+03 -0.11118446482E+04  0.12163607370E+04  0.10100000352E+00 0. -1.
</event>
<event>
 5   0  0.2561518E-04  0.1551514E+04  0.7818609E-02  0.8850901E-01
       -1   -1    0    0    0  501  0.00000000000E+00  0.00000000000E+00  0.91217546328E+03  0.91217546329E+03  0.50400001928E-02 0.  1.
        1   -1    0    0  501    0  0.00000000000E+00  0.00000000000E+00 -0.65974006808E+03  0.65974006810E+03  0.50400001928E-02 0. -1.
    10030    2    1    2    0    0  0.00000000000E+00  0.00000000000E+00  0.25243539520E+03  0.15719155314E+04  0.15515137154E+04 0.  0.
        4    1    3    3  502    0  0.91189234915E+02 -0.14705092081E+03  0.89237430189E+03  0.90899557614E+03  0.12699999809E+01 0.  1.
       -4    1    3    3    0  502 -0.91189234915E+02  0.14705092081E+03 -0.63993890669E+03  0.66291995525E+03  0.12699999809E+01 0. -1.
</event>
<event>
 5   0  0.5198430E-04  0.1735608E+04  0.7818609E-02  0.8741313E-01
       -2   -1    0    0    0  501  0.00000000000E+00  0.00000000000E+00  0.15092861238E+04  0.15092861238E+04  0.25500000920E-02 0. -1.
        2   -1    0    0  501    0  0.00000000000E+00  0.00000000000E+00 -0.49896675489E+03  0.49896675490E+03  0.25500000920E-02 0.  1.
    10030    2    1    2    0    0  0.00000000000E+00  0.00000000000E+00  0.10103193689E+04  0.20082528787E+04  0.17356077891E+04 0.  0.
        4    1    3    3  502    0  0.75098602089E+03 -0.83940659109E+02  0.11452730141E+02  0.75575049835E+03  0.12699999809E+01 0. -1.
       -4    1    3    3    0  502 -0.75098602089E+03  0.83940659109E+02  0.99886663873E+03  0.12525023803E+04  0.12699999809E+01 0.  1.
</event>
<event>
 5   0  0.2561518E-04  0.1709546E+04  0.7818609E-02  0.8755938E-01
       -1   -1    0    0    0  501  0.00000000000E+00  0.00000000000E+00  0.12604415454E+04  0.12604415454E+04  0.50400001928E-02 0. -1.
        1   -1    0    0  501    0  0.00000000000E+00  0.00000000000E+00 -0.57966770693E+03  0.57966770695E+03  0.50400001928E-02 0.  1.
    10030    2    1    2    0    0  0.00000000000E+00  0.00000000000E+00  0.68077383850E+03  0.18401092524E+04  0.17095464432E+04 0.  0.
        4    1    3    3  502    0 -0.36077354654E+03  0.72011546659E+03  0.64844738495E+03  0.10340258512E+04  0.12699999809E+01 0. -1.
       -4    1    3    3    0  502  0.36077354654E+03 -0.72011546659E+03  0.32326453552E+02  0.80608340114E+03  0.12699999809E+01 0.  1.
</event>
<event>
 5   0  0.2561518E-04  0.1678145E+04  0.7818609E-02  0.8773928E-01
        1   -1    0    0  501    0  0.00000000000E+00  0.00000000000E+00  0.55686964681E+03  0.55686964683E+03  0.50400001928E-02 0. -1.
       -1   -1    0    0    0  501  0.00000000000E+00  0.00000000000E+00 -0.12642859937E+04  0.12642859937E+04  0.50400001928E-02 0.  1.
    10030    2    1    2    0    0  0.00000000000E+00  0.00000000000E+00 -0.70741634692E+03  0.18211556406E+04  0.16781448028E+04 0.  0.
        4    1    3    3  502    0 -0.21767821551E+03 -0.29245297535E+03 -0.11738415453E+04  0.12291534219E+04  0.12699999809E+01 0.  1.
       -4    1    3    3    0  502  0.21767821551E+03  0.29245297535E+03  0.46642519837E+03  0.59200221864E+03  0.12699999809E+01 0. -1.
</event>
<event>
 5   0  0.2630135E-04  0.1705079E+04  0.7818609E-02  0.8758473E-01
       -1   -1    0    0    0  501  0.00000000000E+00  0.00000000000E+00  0.81131063426E+03  0.81131063428E+03  0.50400001928E-02 0. -1.
        1   -1    0    0  501    0  0.00000000000E+00  0.00000000000E+00 -0.89586387455E+03  0.89586387456E+03  0.50400001928E-02 0.  1.
    10030    2    1    2    0    0  0.00000000000E+00  0.00000000000E+00 -0.84553240285E+02  0.17071745088E+04  0.17050793393E+04 0.  0.
        1    1    3    3  502    0  0.79890442729E+03  0.62392837457E+02 -0.33363718569E+03  0.86801781192E+03  0.50400001928E-02 0.  1.
       -1    1    3    3    0  502 -0.79890442729E+03 -0.62392837457E+02  0.24908394541E+03  0.83915669692E+03  0.50400001928E-02 0. -1.
</event>
<event>
 5   0  0.5310003E-04  0.1618968E+04  0.7818609E-02  0.8808979E-01
        2   -1    0    0  501    0  0.00000000000E+00  0.00000000000E+00  0.63783166007E+03  0.63783166007E+03  0.25500000920E-02 0.  1.
       -2   -1    0    0    0  501  0.00000000000E+00  0.00000000000E+00 -0.10273313434E+04  0.10273313434E+04  0.25500000920E-02 0. -1.
    10030    2    1    2    0    0  0.00000000000E+00  0.00000000000E+00 -0.38949968335E+03  0.16651630035E+04  0.16189681358E+04 0.  0.
        1    1    3    3  502    0 -0.65789570333E+03 -0.40473915405E+03  0.54282566401E+02  0.77433012102E+03  0.50400001928E-02 0.  1.
       -1    1    3    3    0  502  0.65789570333E+03  0.40473915405E+03 -0.44378224975E+03  0.89083288248E+03  0.50400001928E-02 0. -1.
</event>
<event>
 5   0  0.2583422E-04  0.1705650E+04  0.7818609E-02  0.8758148E-01
       -1   -1    0    0    0  501  0.00000000000E+00  0.00000000000E+00  0.91457444162E+03  0.91457444163E+03  0.50400001928E-02 0.  1.
        1   -1    0    0  501    0  0.00000000000E+00  0.00000000000E+00 -0.79524513624E+03  0.79524513625E+03  0.50400001928E-02 0. -1.
    10030    2    1    2    0    0  0.00000000000E+00  0.00000000000E+00  0.11932930538E+03  0.17098195779E+04  0.17056504641E+04 0.  0.
        3    1    3    3  502    0  0.48776643668E+03  0.35438574833E+03 -0.54497257807E+03  0.81271180403E+03  0.10100000352E+00 0. -1.
       -3    1    3    3    0  502 -0.48776643668E+03 -0.35438574833E+03  0.66430188345E+03  0.89710777386E+03  0.10100000352E+00 0.  1.
</event>
<event>
 5   0  0.5021349E-04  0.1700247E+04  0.7818609E-02  0.8761223E-01
        2   -1    0    0  501    0  0.00000000000E+00  0.00000000000E+00  0.12206512182E+04  0.12206512182E+04  0.25500000920E-02 0.  1.
       -2   -1    0    0    0  501  0.00000000000E+00  0.00000000000E+00 -0.59206950624E+03  0.59206950624E+03  0.25500000920E-02 0. -1.
    10030    2    1    2    0    0  0.00000000000E+00  0.00000000000E+00  0.62858171192E+03  0.18127207244E+04  0.17002474691E+04 0.  0.
        2    1    3    3  502    0 -0.34073396364E+03 -0.46057977549E+01 -0.51606874803E+03  0.61842364125E+03  0.25500000920E-02 0. -1.
       -2    1    3    3    0  502  0.34073396364E+03  0.46057977549E+01  0.11446504600E+04  0.11942970832E+04  0.25500000920E-02 0.  1.
</event>
<event>
 5   0  0.5299877E-04  0.1727238E+04  0.7818609E-02  0.8745980E-01
        2   -1    0    0  501    0  0.00000000000E+00  0.00000000000E+00  0.14147578053E+04  0.14147578053E+04  0.25500000920E-02 0.  1.
       -2   -1    0    0    0  501  0.00000000000E+00  0.00000000000E+00 -0.52718410395E+03  0.52718410395E+03  0.25500000920E-02 0. -1.
    10030    2    1    2    0    0  0.00000000000E+00  0.00000000000E+00  0.88757370133E+03  0.19419419092E+04  0.17272380564E+04 0.  0.
        3    1    3    3  502    0  0.65278710977E+03 -0.60234086505E+02  0.10758807864E+04  0.12598724668E+04  0.10100000352E+00 0.  1.
       -3    1    3    3    0  502 -0.65278710977E+03  0.60234086505E+02 -0.18830708504E+03  0.68206944246E+03  0.10100000352E+00 0. -1.
</event>
<event>
 5   0  0.1910750E-04  0.1679138E+04  0.7818609E-02  0.8773353E-01
        3   -1    0    0  501    0  0.00000000000E+00  0.00000000000E+00  0.80170251656E+03  0.80170252292E+03  0.10100000352E+00 0. -1.
       -3   -1    0    0    0  501  0.00000000000E+00  0.00000000000E+00 -0.87922419267E+03  0.87922419848E+03  0.10100000352E+00 0.  1.
    10030    2    1    2    0    0  0.00000000000E+00  0.00000000000E+00 -0.77521676112E+02  0.16809267214E+04  0.16791381815E+04 0.  0.
        1    1    3    3  502    0  0.31975813107E+03  0.76939336758E+03 -0.14214155729E+03  0.84523111561E+03  0.50400001928E-02 0. -1.
       -1    1    3    3    0  502 -0.31975813107E+03 -0.76939336758E+03  0.64619881179E+02  0.83569560579E+03  0.50400001928E-02 0.  1.
</event>
<event>
 5   0  0.2785059E-04  0.1706745E+04  0.7818609E-02  0.8757527E-01
       -1   -1    0    0    0  501  0.00000000000E+00  0.00000000000E+00  0.78355819362E+03  0.78355819364E+03  0.50400001928E-02 0.  1.
        1   -1    0    0  501    0  0.00000000000E+00  0.00000000000E+00 -0.92940680307E+03  0.92940680308E+03  0.50400001928E-02 0. -1.
    10030    2    1    2    0    0  0.00000000000E+00  0.00000000000E+00 -0.14584860944E+03  0.17129649967E+04  0.17067446391E+04 0.  0.
        5    1    3    3  502    0  0.43373016726E+03 -0.71303676155E+03  0.10571017623E+03  0.84127285269E+03  0.46999998093E+01 0.  1.
       -5    1    3    3    0  502 -0.43373016726E+03  0.71303676155E+03 -0.25155878568E+03  0.87169214403E+03  0.46999998093E+01 0. -1.
</event>
<event>
 5   0  0.5198430E-04  0.1736224E+04  0.7818609E-02  0.8740970E-01
       -2   -1    0    0    0  501  0.00000000000E+00  0.00000000000E+00  0.43708357694E+03  0.43708357694E+03  0.25500000920E-02 0. -1.
        2   -1    0    0  501    0  0.00000000000E+00  0.00000000000E+00 -0.17241978366E+04  0.17241978366E+04  0.25500000920E-02 0.  1.
    10030    2    1    2    0    0  0.00000000000E+00  0.00000000000E+00 -0.12871142597E+04  0.21612814135E+04  0.17362241304E+04 0.  0.
        4    1    3    3  502    0 -0.85870118402E+03  0.10920176368E+03 -0.56169967665E+03  0.10318918976E+04  0.12699999809E+01 0. -1.
       -4    1    3    3    0  502  0.85870118402E+03 -0.10920176368E+03 -0.72541458301E+03  0.11293895160E+04  0.12699999809E+01 0.  1.
</event>
<event>
 5   0  0.5198430E-04  0.1737429E+04  0.7818609E-02  0.8740300E-01
       -2   -1    0    0    0  501  0.00000000000E+00  0.00000000000E+00  0.38317194119E+03  0.38317194120E+03  0.25500000920E-02 0.  1.
        2   -1    0    0  501    0  0.00000000000E+00  0.00000000000E+00 -0.19695203510E+04  0.19695203510E+04  0.25500000920E-02 0. -1.
    10030    2    1    2    0    0  0.00000000000E+00  0.00000000000E+00 -0.15863484099E+04  0.23526922922E+04  0.17374290617E+04 0.  0.
        4    1    3    3  502    0  0.73260856062E+03  0.22018262738E+03 -0.23572997181E+03  0.80047855999E+03  0.12699999809E+01 0.  1.
       -4    1    3    3    0  502 -0.73260856062E+03 -0.22018262738E+03 -0.13506184380E+04  0.15522137322E+04  0.12699999809E+01 0. -1.
</event>
<event>
 5   0  0.5021349E-04  0.1700069E+04  0.7818609E-02  0.8761325E-01
        2   -1    0    0  501    0  0.00000000000E+00  0.00000000000E+00  0.86275990247E+03  0.86275990247E+03  0.25500000920E-02 0. -1.
       -2   -1    0    0    0  501  0.00000000000E+00  0.00000000000E+00 -0.83749702055E+03  0.83749702056E+03  0.25500000920E-02 0.  1.
    10030    2    1    2    0    0  0.00000000000E+00  0.00000000000E+00  0.25262881918E+02  0.17002569230E+04  0.17000692313E+04 0.  0.
        2    1    3    3  502    0 -0.36117957820E+03  0.72305971509E+02 -0.75353407618E+03  0.83874456493E+03  0.25500000920E-02 0.  1.
       -2    1    3    3    0  502  0.36117957820E+03 -0.72305971509E+02  0.77879695810E+03  0.86151235811E+03  0.25500000920E-02 0. -1.
</event>
<event>
 5   0  0.2785059E-04  0.1706851E+04  0.7818609E-02  0.8757467E-01
        1   -1    0    0  501    0  0.00000000000E+00  0.00000000000E+00  0.71912036147E+03  0.71912036149E+03  0.50400001928E-02 0. -1.
       -1   -1    0    0    0  501  0.00000000000E+00  0.00000000000E+00 -0.10128136090E+04  0.10128136090E+04  0.50400001928E-02 0.  1.
    10030    2    1    2    0    0  0.00000000000E+00  0.00000000000E+00 -0.29369324748E+03  0.17319339705E+04  0.17068507710E+04 0.  0.
        5    1    3    3  502    0  0.44755838836E+02  0.95891031897E+02 -0.10061174508E+04  0.10116781058E+04  0.46999998093E+01 0.  1.
       -5    1    3    3    0  502 -0.44755838836E+02 -0.95891031897E+02  0.71242420328E+03  0.72025586462E+03  0.46999998093E+01 0. -1.
</event>
<event>
 5   0  0.5299877E-04  0.1701113E+04  0.7818609E-02  0.8760730E-01
        2   -1    0    0  501    0  0.00000000000E+00  0.00000000000E+00  0.96841370188E+03  0.96841370189E+03  0.25500000920E-02 0. -1.
       -2   -1    0    0    0  501  0.00000000000E+00  0.00000000000E+00 -0.74704226711E+03  0.74704226712E+03  0.25500000920E-02 0.  1.
    10030    2    1    2    0    0  0.00000000000E+00  0.00000000000E+00  0.22137143477E+03  0.17154559690E+04  0.17011125387E+04 0.  0.
        3    1    3    3  502    0  0.48531501388E+03  0.64231704761E+03 -0.16611752199E+03  0.82200784283E+03  0.10100000352E+00 0.  1.
       -3    1    3    3    0  502 -0.48531501388E+03 -0.64231704761E+03  0.38748895676E+03  0.89344812618E+03  0.10100000352E+00 0. -1.
</event>
<event>
 5   0  0.1910750E-04  0.1693754E+04  0.7818609E-02  0.8764935E-01
       -3   -1    0    0    0  501  0.00000000000E+00  0.00000000000E+00  0.12636042146E+04  0.12636042187E+04  0.10100000352E+00 0. -1.
        3   -1    0    0  501    0  0.00000000000E+00  0.00000000000E+00 -0.56758351694E+03  0.56758352593E+03  0.10100000352E+00 0.  1.
    10030    2    1    2    0    0  0.00000000000E+00  0.00000000000E+00  0.69602069770E+03  0.18311877446E+04  0.16937543341E+04 0.  0.
        2    1    3    3  502    0  0.68625398076E+03  0.33111779434E+03 -0.51598859581E+02  0.76370541582E+03  0.25500000920E-02 0. -1.
       -2    1    3    3    0  502 -0.68625398076E+03 -0.33111779434E+03  0.74761955728E+03  0.10674823288E+04  0.25500000920E-02 0.  1.
</event>
<event>
 5   0  0.2583422E-04  0.1687054E+04  0.7818609E-02  0.8768783E-01
        1   -1    0    0  501    0  0.00000000000E+00  0.00000000000E+00  0.13048496489E+04  0.13048496489E+04  0.50400001928E-02 0.  1.
       -1   -1    0    0    0  501  0.00000000000E+00  0.00000000000E+00 -0.54530243515E+03  0.54530243517E+03  0.50400001928E-02 0. -1.
    10030    2    1    2    0    0  0.00000000000E+00  0.00000000000E+00  0.75954721373E+03  0.18501520841E+04  0.16870538712E+04 0.  0.
        3    1    3    3  502    0 -0.20828659402E+03 -0.42966989333E+03  0.11423684332E+04  0.12381458596E+04  0.10100000352E+00 0.  1.
       -3    1    3    3    0  502  0.20828659402E+03  0.42966989333E+03 -0.38282121943E+03  0.61200622442E+03  0.10100000352E+00 0. -1.
</event>
<event>
 5   0  0.1910750E-04  0.1694831E+04  0.7818609E-02  0.8764318E-01
        3   -1    0    0  501    0  0.00000000000E+00  0.00000000000E+00  0.95294668221E+03  0.95294668757E+03  0.10100000352E+00 0.  1.
       -3   -1    0    0    0  501  0.00000000000E+00  0.00000000000E+00 -0.75357111172E+03  0.75357111849E+03  0.10100000352E+00 0. -1.
    10030    2    1    2    0    0  0.00000000000E+00  0.00000000000E+00  0.19937557050E+03  0.17065178061E+04  0.16948310843E+04 0.  0.
        2    1    3    3  502    0 -0.54187371021E+03 -0.65152587991E+03  0.99581941321E+02  0.85324653709E+03  0.25500000920E-02 0.  1.
       -2    1    3    3    0  502  0.54187371021E+03  0.65152587991E+03  0.99793629175E+02  0.85327126896E+03  0.25500000920E-02 0. -1.
</event>
<event>
 5   0  0.5198430E-04  0.1702271E+04  0.7818609E-02  0.8760070E-01
        2   -1    0    0  501    0  0.00000000000E+00  0.00000000000E+00  0.10071617842E+04  0.10071617842E+04  0.25500000920E-02 0. -1.
       -2   -1    0    0    0  501  0.00000000000E+00  0.00000000000E+00 -0.71928064861E+03  0.71928064861E+03  0.25500000920E-02 0.  1.
    10030    2    1    2    0    0  0.00000000000E+00  0.00000000000E+00  0.28788113563E+03  0.17264424329E+04  0.17022714019E+04 0.  0.
        4    1    3    3  502    0  0.87843539644E+02  0.83454725817E+03  0.28824496363E+03  0.88728371197E+03  0.12699999809E+01 0.  1.
       -4    1    3    3    0  502 -0.87843539644E+02 -0.83454725817E+03 -0.36382799608E+00  0.83915872089E+03  0.12699999809E+01 0. -1.
</event>
<event>
 5   0  0.2561518E-04  0.1708405E+04  0.7818609E-02  0.8756585E-01
       -1   -1    0    0    0  501  0.00000000000E+00  0.00000000000E+00  0.86725051006E+03  0.86725051008E+03  0.50400001928E-02 0. -1.
        1   -1    0    0  501    0  0.00000000000E+00  0.00000000000E+00 -0.84135127329E+03  0.84135127330E+03  0.50400001928E-02 0.  1.
    10030    2    1    2    0    0  0.00000000000E+00  0.00000000000E+00  0.25899236777E+02  0.17086017834E+04  0.17084054799E+04 0.  0.
        4    1    3    3  502    0 -0.70299848562E+02  0.93104270300E+02  0.85924436517E+03  0.86712915176E+03  0.12699999809E+01 0. -1.
       -4    1    3    3    0  502  0.70299848562E+02 -0.93104270300E+02 -0.83334512839E+03  0.84147263162E+03  0.12699999809E+01 0.  1.
</event>
<event>
 5   0  0.2583422E-04  0.1680437E+04  0.7818609E-02  0.8772601E-01
        1   -1    0    0  501    0  0.00000000000E+00  0.00000000000E+00  0.61588719068E+03  0.61588719070E+03  0.50400001928E-02 0. -1.
       -1   -1    0    0    0  501  0.00000000000E+00  0.00000000000E+00 -0.11462605059E+04  0.11462605060E+04  0.50400001928E-02 0.  1.
    10030    2    1    2    0    0  0.00000000000E+00  0.00000000000E+00 -0.53037331527E+03  0.17621476967E+04  0.16804370417E+04 0.  0.
        3    1    3    3  502    0 -0.72493536599E+03 -0.13262196743E+03  0.15797890458E+03  0.75370897275E+03  0.10100000352E+00 0. -1.
       -3    1    3    3    0  502  0.72493536599E+03  0.13262196743E+03 -0.68835221985E+03  0.10084387239E+04  0.10100000352E+00 0.  1.
</event>
<event>
 5   0  0.5021349E-04  0.1674657E+04  0.7818609E-02  0.8775952E-01
        2   -1    0    0  501    0  0.00000000000E+00  0.00000000000E+00  0.10711718685E+04  0.10711718685E+04  0.25500000920E-02 0.  1.
       -2   -1    0    0    0  501  0.00000000000E+00  0.00000000000E+00 -0.65453455886E+03  0.65453455887E+03  0.25500000920E-02 0. -1.
    10030    2    1    2    0    0  0.00000000000E+00  0.00000000000E+00  0.41663730962E+03  0.17257064273E+04  0.16746569875E+04 0.  0.
        2    1    3    3  502    0  0.81723598546E+03 -0.16874976052E+03  0.13716401922E+03  0.84567434972E+03  0.25500000920E-02 0. -1.
       -2    1    3    3    0  502 -0.81723598546E+03  0.16874976052E+03  0.27947329040E+03  0.88003207763E+03  0.25500000920E-02 0.  1.
</event>
<event>
 5   0  0.2583422E-04  0.1702398E+04  0.7818609E-02  0.8759998E-01
        1   -1    0    0  501    0  0.00000000000E+00  0.00000000000E+00  0.44139486697E+03  0.44139486700E+03  0.50400001928E-02 0.  1.
       -1   -1    0    0    0  501  0.00000000000E+00  0.00000000000E+00 -0.16414767605E+04  0.16414767605E+04  0.50400001928E-02 0. -1.
    10030    2    1    2    0    0  0.00000000000E+00  0.00000000000E+00 -0.12000818935E+04  0.20828716275E+04  0.17023976226E+04 0.  0.
        3    1    3    3  502    0 -0.31642339639E+03 -0.60274602552E+03 -0.12252361517E+04  0.14016526583E+04  0.10100000352E+00 0. -1.
       -3    1    3    3    0  502  0.31642339639E+03  0.60274602552E+03  0.25154258134E+02  0.68121896917E+03  0.10100000352E+00 0.  1.
</event>
<event>
 5   0  0.5198430E-04  0.1737349E+04  0.7818609E-02  0.8740345E-01
        2   -1    0    0  501    0  0.00000000000E+00  0.00000000000E+00  0.46544663821E+03  0.46544663822E+03  0.25500000920E-02 0.  1.
       -2   -1    0    0    0  501  0.00000000000E+00  0.00000000000E+00 -0.16212291941E+04  0.16212291941E+04  0.25500000920E-02 0. -1.
    10030    2    1    2    0    0  0.00000000000E+00  0.00000000000E+00 -0.11557825559E+04  0.20866758323E+04  0.17373493352E+04 0.  0.
        4    1    3    3  502    0 -0.52676944870E+03 -0.54107623458E+03 -0.62208115528E+02  0.75770773142E+03  0.12699999809E+01 0. -1.
       -4    1    3    3    0  502  0.52676944870E+03  0.54107623458E+03 -0.10935744404E+04  0.13289681009E+04  0.12699999809E+01 0.  1.
</event>
<event>
 5   0  0.5310003E-04  0.1670439E+04  0.7818609E-02  0.8778406E-01
        2   -1    0    0  501    0  0.00000000000E+00  0.00000000000E+00  0.20365485275E+04  0.20365485275E+04  0.25500000920E-02 0. -1.
       -2   -1    0    0    0  501  0.00000000000E+00  0.00000000000E+00 -0.34253615036E+03  0.34253615037E+03  0.25500000920E-02 0.  1.
    10030    2    1    2    0    0  0.00000000000E+00  0.00000000000E+00  0.16940123772E+04  0.23790846779E+04  0.16704388557E+04 0.  0.
        1    1    3    3  502    0 -0.19617398578E+03  0.51603356024E+03 -0.45629499737E+02  0.55394667547E+03  0.50400001928E-02 0.  1.
       -1    1    3    3    0  502  0.19617398578E+03 -0.51603356024E+03  0.17396418769E+04  0.18251380024E+04  0.50400001928E-02 0. -1.
</event>
<event>
 5   0  0.5310003E-04  0.1724032E+04  0.7818609E-02  0.8747776E-01
       -2   -1    0    0    0  501  0.00000000000E+00  0.00000000000E+00  0.85173341530E+03  0.85173341530E+03  0.25500000920E-02 0.  1.
        2   -1    0    0  501    0  0.00000000000E+00  0.00000000000E+00 -0.87242266441E+03  0.87242266441E+03  0.25500000920E-02 0. -1.
    10030    2    1    2    0    0  0.00000000000E+00  0.00000000000E+00 -0.20689249110E+02  0.17241560797E+04  0.17240319435E+04 0.  0.
        1    1    3    3  502    0 -0.42146374256E+03 -0.28362855627E+03  0.68612112219E+03  0.85372070290E+03  0.50400001928E-02 0.  1.
       -1    1    3    3    0  502  0.42146374256E+03  0.28362855627E+03 -0.70681037130E+03  0.87043537682E+03  0.50400001928E-02 0. -1.
</event>
<event>
 5   0  0.5299877E-04  0.1545022E+04  0.7818609E-02  0.8855054E-01
        2   -1    0    0  501    0  0.00000000000E+00  0.00000000000E+00  0.10577373494E+04  0.10577373494E+04  0.25500000920E-02 0. -1.
       -2   -1    0    0    0  501  0.00000000000E+00  0.00000000000E+00 -0.56419782177E+03  0.56419782177E+03  0.25500000920E-02 0.  1.
    10030    2    1    2    0    0  0.00000000000E+00  0.00000000000E+00  0.49353952762E+03  0.16219351712E+04  0.15450218232E+04 0.  0.
        3    1    3    3  502    0 -0.71228520886E+03  0.29744292633E+03  0.21440336471E+03  0.80111879655E+03  0.10100000352E+00 0. -1.
       -3    1    3    3    0  502  0.71228520886E+03 -0.29744292633E+03  0.27913616291E+03  0.82081637462E+03  0.10100000352E+00 0.  1.
</event>
<event>
 5   0  0.5342255E-04  0.1672963E+04  0.7818609E-02  0.8776937E-01
        2   -1    0    0  501    0  0.00000000000E+00  0.00000000000E+00  0.11303169294E+04  0.11303169294E+04  0.25500000920E-02 0.  1.
       -2   -1    0    0    0  501  0.00000000000E+00  0.00000000000E+00 -0.61903084453E+03  0.61903084453E+03  0.25500000920E-02 0. -1.
    10030    2    1    2    0    0  0.00000000000E+00  0.00000000000E+00  0.51128608487E+03  0.17493477739E+04  0.16729626934E+04 0.  0.
        5    1    3    3  502    0  0.99461162515E+02  0.22575533668E+02 -0.61249087304E+03  0.62094229774E+03  0.46999998093E+01 0. -1.
       -5    1    3    3    0  502 -0.99461162515E+02 -0.22575533668E+02  0.11237769579E+04  0.11284054762E+04  0.46999998093E+01 0.  1.
</event>
<event>
 5   0  0.2583422E-04  0.1687896E+04  0.7818609E-02  0.8768298E-01
       -1   -1    0    0    0  501  0.00000000000E+00  0.00000000000E+00  0.12923693825E+04  0.12923693826E+04  0.50400001928E-02 0.  1.
        1   -1    0    0  501    0  0.00000000000E+00  0.00000000000E+00 -0.55111835860E+03  0.55111835862E+03  0.50400001928E-02 0. -1.
    10030    2    1    2    0    0  0.00000000000E+00  0.00000000000E+00  0.74125102395E+03  0.18434877412E+04  0.16878963153E+04 0.  0.
        3    1    3    3  502    0  0.10610295039E+02  0.81850214336E+03  0.59496204348E+03  0.10119477163E+04  0.10100000352E+00 0. -1.
       -3    1    3    3    0  502 -0.10610295039E+02 -0.81850214336E+03  0.14628898046E+03  0.83154002492E+03  0.10100000352E+00 0.  1.
</event>
<event>
 5   0  0.2561518E-04  0.1686900E+04  0.7818609E-02  0.8768871E-01
        1   -1    0    0  501    0  0.00000000000E+00  0.00000000000E+00  0.87162082046E+03  0.87162082047E+03  0.50400001928E-02 0.  1.
       -1   -1    0    0    0  501  0.00000000000E+00  0.00000000000E+00 -0.81618965347E+03  0.81618965348E+03  0.50400001928E-02 0. -1.
    10030    2    1    2    0    0  0.00000000000E+00  0.00000000000E+00  0.55431166990E+02  0.16878104740E+04  0.16868999916E+04 0.  0.
        4    1    3    3  502    0  0.53988100906E+03 -0.20937899599E+03  0.64131260858E+03  0.86405702516E+03  0.12699999809E+01 0.  1.
       -4    1    3    3    0  502 -0.53988100906E+03  0.20937899599E+03 -0.58588144159E+03  0.82375344880E+03  0.12699999809E+01 0. -1.
</event>
<event>
 5   0  0.5198430E-04  0.1708058E+04  0.7818609E-02  0.8756782E-01
        2   -1    0    0  501    0  0.00000000000E+00  0.00000000000E+00  0.11066523699E+04  0.11066523700E+04  0.25500000920E-02 0.  1.
       -2   -1    0    0    0  501  0.00000000000E+00  0.00000000000E+00 -0.65907374054E+03  0.65907374054E+03  0.25500000920E-02 0. -1.
    10030    2    1    2    0    0  0.00000000000E+00  0.00000000000E+00  0.44757862941E+03  0.17657261105E+04  0.17080579814E+04 0.  0.
        4    1    3    3  502    0  0.52735318126E+03 -0.57823393406E+03 -0.12967284505E+03  0.79326699158E+03  0.12699999809E+01 0. -1.
       -4    1    3    3    0  502 -0.52735318126E+03  0.57823393406E+03  0.57725147446E+03  0.97245911891E+03  0.12699999809E+01 0.  1.
</event>
<event>
 5   0  0.2583422E-04  0.1683797E+04  0.7818609E-02  0.8770660E-01
        1   -1    0    0  501    0  0.00000000000E+00  0.00000000000E+00  0.22532743555E+04  0.22532743555E+04  0.50400001928E-02 0. -1.
       -1   -1    0    0    0  501  0.00000000000E+00  0.00000000000E+00 -0.31456128182E+03  0.31456128186E+03  0.50400001928E-02 0.  1.
    10030    2    1    2    0    0  0.00000000000E+00  0.00000000000E+00  0.19387130737E+04  0.25678356374E+04  0.16837967450E+04 0.  0.
        3    1    3    3  502    0  0.21896922792E+02  0.84111535804E+03  0.10135122908E+04  0.13172553642E+04  0.10100000352E+00 0. -1.
       -3    1    3    3    0  502 -0.21896922792E+02 -0.84111535804E+03  0.92520078291E+03  0.12505802732E+04  0.10100000352E+00 0.  1.
</event>
<event>
 5   0  0.2595644E-04  0.1677058E+04  0.7818609E-02  0.8774558E-01
       -1   -1    0    0    0  501  0.00000000000E+00  0.00000000000E+00  0.74378599885E+03  0.74378599887E+03  0.50400001928E-02 0. -1.
        1   -1    0    0  501    0  0.00000000000E+00  0.00000000000E+00 -0.94534026008E+03  0.94534026009E+03  0.50400001928E-02 0.  1.
    10030    2    1    2    0    0  0.00000000000E+00  0.00000000000E+00 -0.20155426123E+03  0.16891262590E+04  0.16770579592E+04 0.  0.
        2    1    3    3  502    0 -0.47475689583E+02 -0.81361600682E+03 -0.29944232450E+03  0.86826876793E+03  0.25500000920E-02 0.  1.
       -2    1    3    3    0  502  0.47475689583E+02  0.81361600682E+03  0.97888063268E+02  0.82085749103E+03  0.25500000920E-02 0. -1.
</event>
<event>
 5   0  0.2583422E-04  0.1717796E+04  0.7818609E-02  0.8751279E-01
        1   -1    0    0  501    0  0.00000000000E+00  0.00000000000E+00  0.13129635762E+04  0.13129635762E+04  0.50400001928E-02 0. -1.
       -1   -1    0    0    0  501  0.00000000000E+00  0.00000000000E+00 -0.56186303062E+03  0.56186303064E+03  0.50400001928E-02 0.  1.
    10030    2    1    2    0    0  0.00000000000E+00  0.00000000000E+00  0.75110054556E+03  0.18748266068E+04  0.17177959064E+04 0.  0.
        3    1    3    3  502    0  0.62642311290E+03 -0.48288881908E+03  0.74099989533E+03  0.10838211951E+04  0.10100000352E+00 0. -1.
       -3    1    3    3    0  502 -0.62642311290E+03  0.48288881908E+03  0.10100650235E+02  0.79100541168E+03  0.10100000352E+00 0.  1.
</event>
<event>
 5   0  0.2583422E-04  0.1581729E+04  0.7818609E-02  0.8831852E-01
       -1   -1    0    0    0  501  0.00000000000E+00  0.00000000000E+00  0.42932471814E+03  0.42932471817E+03  0.50400001928E-02 0. -1.
        1   -1    0    0  501    0  0.00000000000E+00  0.00000000000E+00 -0.14568621791E+04  0.14568621791E+04  0.50400001928E-02 0.  1.
    10030    2    1    2    0    0  0.00000000000E+00  0.00000000000E+00 -0.10275374610E+04  0.18861868973E+04  0.15817293630E+04 0.  0.
        3    1    3    3  502    0  0.66318056057E+03 -0.23921809346E+03 -0.94112607119E+03  0.11759047769E+04  0.10100000352E+00 0.  1.
       -3    1    3    3    0  502 -0.66318056057E+03  0.23921809346E+03 -0.86411389803E+02  0.71028212046E+03  0.10100000352E+00 0. -1.
</event>
<event>
 5   0  0.2785059E-04  0.1667308E+04  0.7818609E-02  0.8780233E-01
        1   -1    0    0  501    0  0.00000000000E+00  0.00000000000E+00  0.22610963559E+04  0.22610963559E+04  0.50400001928E-02 0.  1.
       -1   -1    0    0    0  501  0.00000000000E+00  0.00000000000E+00 -0.30736365992E+03  0.30736365996E+03  0.50400001928E-02 0. -1.
    10030    2    1    2    0    0  0.00000000000E+00  0.00000000000E+00  0.19537326960E+04  0.25684600159E+04  0.16673078317E+04 0.  0.
        5    1    3    3  502    0 -0.46157324649E+03  0.39933895260E+03  0.18516049867E+04  0.19496113915E+04  0.46999998093E+01 0.  1.
       -5    1    3    3    0  502  0.46157324649E+03 -0.39933895260E+03  0.10212770929E+03  0.61884862442E+03  0.46999998093E+01 0. -1.
</event>
<event>
 5   0  0.2595644E-04  0.1702816E+04  0.7818609E-02  0.8759760E-01
       -1   -1    0    0    0  501  0.00000000000E+00  0.00000000000E+00  0.57341143865E+03  0.57341143868E+03  0.50400001928E-02 0. -1.
        1   -1    0    0  501    0  0.00000000000E+00  0.00000000000E+00 -0.12641804951E+04  0.12641804951E+04  0.50400001928E-02 0.  1.
    10030    2    1    2    0    0  0.00000000000E+00  0.00000000000E+00 -0.69076905643E+03  0.18375919338E+04  0.17028159694E+04 0.  0.
        2    1    3    3  502    0 -0.11942052966E+03  0.37738842474E+03  0.46807633899E+03  0.61300794869E+03  0.25500000920E-02 0. -1.
       -2    1    3    3    0  502  0.11942052966E+03 -0.37738842474E+03 -0.11588453954E+04  0.12245839851E+04  0.25500000920E-02 0.  1.
</event>
<event>
 5   0  0.1910750E-04  0.1695261E+04  0.7818609E-02  0.8764072E-01
        3   -1    0    0  501    0  0.00000000000E+00  0.00000000000E+00  0.85192070594E+03  0.85192071193E+03  0.10100000352E+00 0. -1.
       -3   -1    0    0    0  501  0.00000000000E+00  0.00000000000E+00 -0.84336207242E+03  0.84336207847E+03  0.10100000352E+00 0.  1.
    10030    2    1    2    0    0  0.00000000000E+00  0.00000000000E+00  0.85586335216E+01  0.16952827904E+04  0.16952611861E+04 0.  0.
        3    1    3    3  502    0  0.52849089542E+02  0.12470823295E+03  0.84102915240E+03  0.85186572593E+03  0.10100000352E+00 0. -1.
       -3    1    3    3    0  502 -0.52849089542E+02 -0.12470823295E+03 -0.83247051888E+03  0.84341706446E+03  0.10100000352E+00 0.  1.
</event>
<event>
 5   0  0.2595644E-04  0.1693480E+04  0.7818609E-02  0.8765091E-01
        1   -1    0    0  501    0  0.00000000000E+00  0.00000000000E+00  0.63222119274E+03  0.63222119276E+03  0.50400001928E-02 0. -1.
       -1   -1    0    0    0  501  0.00000000000E+00  0.00000000000E+00 -0.11340477477E+04  0.11340477477E+04  0.50400001928E-02 0.  1.
    10030    2    1    2    0    0  0.00000000000E+00  0.00000000000E+00 -0.50182655498E+03  0.17662689405E+04  0.16934804631E+04 0.  0.
        2    1    3    3  502    0 -0.33099554686E+03 -0.41233317036E+03  0.43886929874E+03  0.68715570055E+03  0.25500000920E-02 0. -1.
       -2    1    3    3    0  502  0.33099554686E+03  0.41233317036E+03 -0.94069585372E+03  0.10791132399E+04  0.25500000920E-02 0.  1.
</event>
<event>
 5   0  0.5342255E-04  0.1699569E+04  0.7818609E-02  0.8761610E-01
       -2   -1    0    0    0  501  0.00000000000E+00  0.00000000000E+00  0.77763593078E+03  0.77763593078E+03  0.25500000920E-02 0.  1.
        2   -1    0    0  501    0  0.00000000000E+00  0.00000000000E+00 -0.92862679319E+03  0.92862679320E+03  0.25500000920E-02 0. -1.
    10030    2    1    2    0    0  0.00000000000E+00  0.00000000000E+00 -0.15099086241E+03  0.17062627240E+04  0.16995688402E+04 0.  0.
        5    1    3    3  502    0  0.70133353062E+03 -0.45737528713E+02 -0.55502806473E+03  0.89556623727E+03  0.46999998093E+01 0. -1.
       -5    1    3    3    0  502 -0.70133353062E+03  0.45737528713E+02  0.40403720232E+03  0.81069648671E+03  0.46999998093E+01 0.  1.
</event>
<event>
 5   0  0.2583422E-04  0.1630504E+04  0.7818609E-02  0.8802024E-01
       -1   -1    0    0    0  501  0.00000000000E+00  0.00000000000E+00  0.11007264308E+04  0.11007264308E+04  0.50400001928E-02 0.  1.
        1   -1    0    0  501    0  0.00000000000E+00  0.00000000000E+00 -0.60381588781E+03  0.60381588784E+03  0.50400001928E-02 0. -1.
    10030    2    1    2    0    0  0.00000000000E+00  0.00000000000E+00  0.49691054302E+03  0.17045423187E+04  0.16305043479E+04 0.  0.
        3    1    3    3  502    0  0.76112587304E+03 -0.28539619592E+02 -0.55449338842E+02  0.76367646545E+03  0.10100000352E+00 0. -1.
       -3    1    3    3    0  502 -0.76112587304E+03  0.28539619592E+02  0.55235988186E+03  0.94086585324E+03  0.10100000352E+00 0.  1.
</event>
<event>
 5   0  0.5342255E-04  0.1747780E+04  0.7818609E-02  0.8734573E-01
       -2   -1    0    0    0  501  0.00000000000E+00  0.00000000000E+00  0.12421785499E+04  0.12421785499E+04  0.25500000920E-02 0.  1.
        2   -1    0    0  501    0  0.00000000000E+00  0.00000000000E+00 -0.61479393346E+03  0.61479393346E+03  0.25500000920E-02 0. -1.
    10030    2    1    2    0    0  0.00000000000E+00  0.00000000000E+00  0.62738461648E+03  0.18569724834E+04  0.17477801198E+04 0.  0.
        5    1    3    3  502    0  0.81564143903E+03  0.17787966837E+03  0.58819275166E+03  0.10212271719E+04  0.46999998093E+01 0. -1.
       -5    1    3    3    0  502 -0.81564143903E+03 -0.17787966837E+03  0.39191864822E+02  0.83574531153E+03  0.46999998093E+01 0.  1.
</event>
<event>
 5   0  0.2583422E-04  0.1511560E+04  0.7818609E-02  0.8876802E-01
       -1   -1    0    0    0  501  0.00000000000E+00  0.00000000000E+00  0.10987336241E+04  0.10987336241E+04  0.50400001928E-02 0.  1.
        1   -1    0    0  501    0  0.00000000000E+00  0.00000000000E+00 -0.51987453131E+03  0.51987453133E+03  0.50400001928E-02 0. -1.
    10030    2    1    2    0    0  0.00000000000E+00  0.00000000000E+00  0.57885909282E+03  0.16186081555E+04  0.15115602904E+04 0.  0.
        3    1    3    3  502    0  0.52916224112E+02  0.50437370816E+03 -0.31062183705E+03  0.59470908864E+03  0.10100000352E+00 0. -1.
       -3    1    3    3    0  502 -0.52916224112E+02 -0.50437370816E+03  0.88948092987E+03  0.10238990668E+04  0.10100000352E+00 0.  1.
</event>
<event>
 5   0  0.5198430E-04  0.1697490E+04  0.7818609E-02  0.8762797E-01
        2   -1    0    0  501    0  0.00000000000E+00  0.00000000000E+00  0.14587954677E+04  0.14587954677E+04  0.25500000920E-02 0. -1.
       -2   -1    0    0    0  501  0.00000000000E+00  0.00000000000E+00 -0.49381003297E+03  0.49381003298E+03  0.25500000920E-02 0.  1.
    10030    2    1    2    0    0  0.00000000000E+00  0.00000000000E+00  0.96498543474E+03  0.19526055007E+04  0.16974897208E+04 0.  0.
        4    1    3    3  502    0  0.69025837416E+02 -0.15924260416E+02 -0.49040248624E+03  0.49549405618E+03  0.12699999809E+01 0.  1.
       -4    1    3    3    0  502 -0.69025837416E+02  0.15924260416E+02  0.14553879210E+04  0.14571114445E+04  0.12699999809E+01 0. -1.
</event>
<event>
 5   0  0.2561518E-04  0.1701728E+04  0.7818609E-02  0.8760379E-01
       -1   -1    0    0    0  501  0.00000000000E+00  0.00000000000E+00  0.78252176738E+03  0.78252176739E+03  0.50400001928E-02 0.  1.
        1   -1    0    0  501    0  0.00000000000E+00  0.00000000000E+00 -0.92517529502E+03  0.92517529504E+03  0.50400001928E-02 0. -1.
    10030    2    1    2    0    0  0.00000000000E+00  0.00000000000E+00 -0.14265352764E+03  0.17076970624E+04  0.17017283062E+04 0.  0.
        4    1    3    3  502    0  0.65046198192E+03  0.50249965814E+03  0.14935704950E+03  0.83541357272E+03  0.12699999809E+01 0.  1.
       -4    1    3    3    0  502 -0.65046198192E+03 -0.50249965814E+03 -0.29201057714E+03  0.87228348971E+03  0.12699999809E+01 0. -1.
</event>
<event>
 5   0  0.5198430E-04  0.1645687E+04  0.7818609E-02  0.8792962E-01
        2   -1    0    0  501    0  0.00000000000E+00  0.00000000000E+00  0.94824810414E+03  0.94824810415E+03  0.25500000920E-02 0. -1.
       -2   -1    0    0    0  501  0.00000000000E+00  0.00000000000E+00 -0.71402388746E+03  0.71402388746E+03  0.25500000920E-02 0.  1.
    10030    2    1    2    0    0  0.00000000000E+00  0.00000000000E+00  0.23422421668E+03  0.16622719916E+04  0.16456874522E+04 0.  0.
        4    1    3    3  502    0 -0.32519960774E+01  0.14710396155E+03 -0.70062665568E+03  0.71591163877E+03  0.12699999809E+01 0.  1.
       -4    1    3    3    0  502  0.32519960774E+01 -0.14710396155E+03  0.93485087236E+03  0.94636035284E+03  0.12699999809E+01 0. -1.
</event>
<event>
 5   0  0.5021349E-04  0.1703832E+04  0.7818609E-02  0.8759182E-01
        2   -1    0    0  501    0  0.00000000000E+00  0.00000000000E+00  0.12733900891E+04  0.12733900891E+04  0.25500000920E-02 0.  1.
       -2   -1    0    0    0  501  0.00000000000E+00  0.00000000000E+00 -0.56994373446E+03  0.56994373447E+03  0.25500000920E-02 0. -1.
    10030    2    1    2    0    0  0.00000000000E+00  0.00000000000E+00  0.70344635463E+03  0.18433338236E+04  0.17038318025E+04 0.  0.
        2    1    3    3  502    0  0.51554283466E+03 -0.12713852018E+02  0.10853389705E+04  0.12016267046E+04  0.25500000920E-02 0.  1.
       -2    1    3    3    0  502 -0.51554283466E+03  0.12713852018E+02 -0.38189261588E+03  0.64170711892E+03  0.25500000920E-02 0. -1.
</event>
<event>
 5   0  0.2630135E-04  0.1756184E+04  0.7818609E-02  0.8729953E-01
        1   -1    0    0  501    0  0.00000000000E+00  0.00000000000E+00  0.10525174296E+04  0.10525174296E+04  0.50400001928E-02 0. -1.
       -1   -1    0    0    0  501  0.00000000000E+00  0.00000000000E+00 -0.73257308112E+03  0.73257308114E+03  0.50400001928E-02 0.  1.
    10030    2    1    2    0    0  0.00000000000E+00  0.00000000000E+00  0.31994434844E+03  0.17850905107E+04  0.17561844281E+04 0.  0.
        1    1    3    3  502    0  0.54381159204E+03  0.11142842727E+03 -0.53159289703E+03  0.76859504958E+03  0.50400001928E-02 0.  1.
       -1    1    3    3    0  502 -0.54381159204E+03 -0.11142842727E+03  0.85153724547E+03  0.10164954611E+04  0.50400001928E-02 0. -1.
</event>
<event>
 5   0  0.1910750E-04  0.1680535E+04  0.7818609E-02  0.8772544E-01
        3   -1    0    0  501    0  0.00000000000E+00  0.00000000000E+00  0.31377112045E+03  0.31377113670E+03  0.10100000352E+00 0. -1.
       -3   -1    0    0    0  501  0.00000000000E+00  0.00000000000E+00 -0.22502061394E+04  0.22502061416E+04  0.10100000352E+00 0.  1.
    10030    2    1    2    0    0  0.00000000000E+00  0.00000000000E+00 -0.19364350189E+04  0.25639772783E+04  0.16805353020E+04 0.  0.
        4    1    3    3  502    0 -0.57237038120E+02 -0.60544853866E+03 -0.18528604896E+04  0.19501122066E+04  0.12699999809E+01 0.  1.
       -4    1    3    3    0  502  0.57237038120E+02  0.60544853866E+03 -0.83574529370E+02  0.61386507178E+03  0.12699999809E+01 0. -1.
</event>
<event>
 5   0  0.2630135E-04  0.1723161E+04  0.7818609E-02  0.8748264E-01
       -1   -1    0    0    0  501  0.00000000000E+00  0.00000000000E+00  0.85848765206E+03  0.85848765208E+03  0.50400001928E-02 0. -1.
        1   -1    0    0  501    0  0.00000000000E+00  0.00000000000E+00 -0.86468481324E+03  0.86468481325E+03  0.50400001928E-02 0.  1.
    10030    2    1    2    0    0  0.00000000000E+00  0.00000000000E+00 -0.61971611724E+01  0.17231724653E+04  0.17231613217E+04 0.  0.
        1    1    3    3  502    0 -0.44590220505E+03  0.47778082298E+02 -0.73877290629E+03  0.86423198778E+03  0.50400001928E-02 0.  1.
       -1    1    3    3    0  502  0.44590220505E+03 -0.47778082298E+02  0.73257574511E+03  0.85894047755E+03  0.50400001928E-02 0. -1.
</event>
<event>
 5   0  0.5342255E-04  0.1702168E+04  0.7818609E-02  0.8760129E-01
        2   -1    0    0  501    0  0.00000000000E+00  0.00000000000E+00  0.10890692897E+04  0.10890692897E+04  0.25500000920E-02 0.  1.
       -2   -1    0    0    0  501  0.00000000000E+00  0.00000000000E+00 -0.66510363989E+03  0.66510363989E+03  0.25500000920E-02 0. -1.
    10030    2    1    2    0    0  0.00000000000E+00  0.00000000000E+00  0.42396564977E+03  0.17541729296E+04  0.17021679690E+04 0.  0.
        5    1    3    3  502    0 -0.63765960059E+03  0.56241541165E+03  0.25055628696E+03  0.88640927591E+03  0.46999998093E+01 0.  1.
       -5    1    3    3    0  502  0.63765960059E+03 -0.56241541165E+03  0.17340936282E+03  0.86776365365E+03  0.46999998093E+01 0. -1.
</event>
<event>
 5   0  0.5299877E-04  0.1696855E+04  0.7818609E-02  0.8763160E-01
        2   -1    0    0  501    0  0.00000000000E+00  0.00000000000E+00  0.20042499450E+04  0.20042499450E+04  0.25500000920E-02 0. -1.
       -2   -1    0    0    0  501  0.00000000000E+00  0.00000000000E+00 -0.35915133443E+03  0.35915133444E+03  0.25500000920E-02 0.  1.
    10030    2    1    2    0    0  0.00000000000E+00  0.00000000000E+00  0.16450986106E+04  0.23634012794E+04  0.16968547873E+04 0.  0.
        3    1    3    3  502    0 -0.36657937510E+03 -0.17885263570E+03  0.18587312882E+04  0.19029584114E+04  0.10100000352E+00 0. -1.
       -3    1    3    3    0  502  0.36657937510E+03  0.17885263570E+03 -0.21363267767E+03  0.46044286802E+03  0.10100000352E+00 0.  1.
</event>
<event>
 5   0  0.5342255E-04  0.1705902E+04  0.7818609E-02  0.8758006E-01
       -2   -1    0    0    0  501  0.00000000000E+00  0.00000000000E+00  0.75398013152E+03  0.75398013152E+03  0.25500000920E-02 0.  1.
        2   -1    0    0  501    0  0.00000000000E+00  0.00000000000E+00 -0.96491293214E+03  0.96491293214E+03  0.25500000920E-02 0. -1.
    10030    2    1    2    0    0  0.00000000000E+00  0.00000000000E+00 -0.21093280062E+03  0.17188930637E+04  0.17059017316E+04 0.  0.
        5    1    3    3  502    0  0.25131037142E+03 -0.24306503319E+03  0.67844654509E+03  0.76324918453E+03  0.46999998093E+01 0.  1.
       -5    1    3    3    0  502 -0.25131037142E+03  0.24306503319E+03 -0.88937934571E+03  0.95564387913E+03  0.46999998093E+01 0. -1.
</event>
<event>
 5   0  0.2595644E-04  0.1712675E+04  0.7818609E-02  0.8754168E-01
        1   -1    0    0  501    0  0.00000000000E+00  0.00000000000E+00  0.20084724621E+04  0.20084724621E+04  0.50400001928E-02 0. -1.
       -1   -1    0    0    0  501  0.00000000000E+00  0.00000000000E+00 -0.36511015035E+03  0.36511015039E+03  0.50400001928E-02 0.  1.
    10030    2    1    2    0    0  0.00000000000E+00  0.00000000000E+00  0.16433623118E+04  0.23735826125E+04  0.17126747300E+04 0.  0.
        2    1    3    3  502    0  0.33624939188E+03  0.10848857832E+03  0.19027483985E+04  0.19352738548E+04  0.25500000920E-02 0. -1.
       -2    1    3    3    0  502 -0.33624939188E+03 -0.10848857832E+03 -0.25938608666E+03  0.43830875776E+03  0.25500000920E-02 0.  1.
</event>
<event>
 5   0  0.5198430E-04  0.1645864E+04  0.7818609E-02  0.8792857E-01
        2   -1    0    0  501    0  0.00000000000E+00  0.00000000000E+00  0.10081623847E+04  0.10081623847E+04  0.25500000920E-02 0.  1.
       -2   -1    0    0    0  501  0.00000000000E+00  0.00000000000E+00 -0.67173417507E+03  0.67173417507E+03  0.25500000920E-02 0. -1.
    10030    2    1    2    0    0  0.00000000000E+00  0.00000000000E+00  0.33642820966E+03  0.16798965598E+04  0.16458640622E+04 0.  0.
        4    1    3    3  502    0 -0.17138025604E+03 -0.26807305428E+03  0.94284126006E+03  0.99508070485E+03  0.12699999809E+01 0.  1.
       -4    1    3    3    0  502  0.17138025604E+03  0.26807305428E+03 -0.60641305040E+03  0.68481585495E+03  0.12699999809E+01 0. -1.
</event>
<event>
 5   0  0.2630135E-04  0.1654762E+04  0.7818609E-02  0.8787594E-01
       -1   -1    0    0    0  501  0.00000000000E+00  0.00000000000E+00  0.11117854437E+04  0.11117854437E+04  0.50400001928E-02 0.  1.
        1   -1    0    0  501    0  0.00000000000E+00  0.00000000000E+00 -0.61572981340E+03  0.61572981343E+03  0.50400001928E-02 0. -1.
    10030    2    1    2    0    0  0.00000000000E+00  0.00000000000E+00  0.49605563025E+03  0.17275152571E+04  0.16547621506E+04 0.  0.
        1    1    3    3  502    0  0.49510903361E+03 -0.40474564964E+02 -0.44271819883E+03  0.66541006091E+03  0.50400001928E-02 0. -1.
       -1    1    3    3    0  502 -0.49510903361E+03  0.40474564964E+02  0.93877382907E+03  0.10621051962E+04  0.50400001928E-02 0.  1.
</event>
<event>
 5   0  0.5299877E-04  0.1664060E+04  0.7818609E-02  0.8782132E-01
       -2   -1    0    0    0  501  0.00000000000E+00  0.00000000000E+00  0.45971234889E+03  0.45971234890E+03  0.25500000920E-02 0.  1.
        2   -1    0    0  501    0  0.00000000000E+00  0.00000000000E+00 -0.15058844387E+04  0.15058844387E+04  0.25500000920E-02 0. -1.
    10030    2    1    2    0    0  0.00000000000E+00  0.00000000000E+00 -0.10461720898E+04  0.19655967876E+04  0.16640597014E+04 0.  0.
        3    1    3    3  502    0  0.51927262115E+03  0.33951344237E+03  0.13177531600E+03  0.63425403171E+03  0.10100000352E+00 0.  1.
       -3    1    3    3    0  502 -0.51927262115E+03 -0.33951344237E+03 -0.11779474058E+04  0.13313427559E+04  0.10100000352E+00 0. -1.
</event>
<event>
 5   0  0.2630135E-04  0.1702838E+04  0.7818609E-02  0.8759748E-01
        1   -1    0    0  501    0  0.00000000000E+00  0.00000000000E+00  0.13409495446E+04  0.13409495446E+04  0.50400001928E-02 0. -1.
       -1   -1    0    0    0  501  0.00000000000E+00  0.00000000000E+00 -0.54059763784E+03  0.54059763787E+03  0.50400001928E-02 0.  1.
    10030    2    1    2    0    0  0.00000000000E+00  0.00000000000E+00  0.80035190672E+03  0.18815471824E+04  0.17028378153E+04 0.  0.
        1    1    3    3  502    0  0.26263597168E+03  0.78889682126E+03  0.19770103533E+03  0.85464703100E+03  0.50400001928E-02 0.  1.
       -1    1    3    3    0  502 -0.26263597168E+03 -0.78889682126E+03  0.60265087139E+03  0.10269001514E+04  0.50400001928E-02 0. -1.
</event>
<event>
 5   0  0.5342255E-04  0.1721113E+04  0.7818609E-02  0.8749414E-01
        2   -1    0    0  501    0  0.00000000000E+00  0.00000000000E+00  0.13109970286E+04  0.13109970286E+04  0.25500000920E-02 0.  1.
       -2   -1    0    0    0  501  0.00000000000E+00  0.00000000000E+00 -0.56488102643E+03  0.56488102643E+03  0.25500000920E-02 0. -1.
    10030    2    1    2    0    0  0.00000000000E+00  0.00000000000E+00  0.74611600218E+03  0.18758780550E+04  0.17211128344E+04 0.  0.
        5    1    3    3  502    0 -0.40135576492E+03 -0.59264744441E+03 -0.14762096047E+03  0.73084299365E+03  0.46999998093E+01 0. -1.
       -5    1    3    3    0  502  0.40135576492E+03  0.59264744441E+03  0.89373696265E+03  0.11450350614E+04  0.46999998093E+01 0.  1.
</event>
<event>
 5   0  0.1910750E-04  0.1614634E+04  0.7818609E-02  0.8811608E-01
        3   -1    0    0  501    0  0.00000000000E+00  0.00000000000E+00  0.16779539025E+04  0.16779539056E+04  0.10100000352E+00 0.  1.
       -3   -1    0    0    0  501  0.00000000000E+00  0.00000000000E+00 -0.38842572506E+03  0.38842573819E+03  0.10100000352E+00 0. -1.
    10030    2    1    2    0    0  0.00000000000E+00  0.00000000000E+00  0.12895281775E+04  0.20663796438E+04  0.16146336772E+04 0.  0.
        1    1    3    3  502    0 -0.48443633871E+03  0.92999087640E+02  0.14626572253E+04  0.15435976014E+04  0.50400001928E-02 0.  1.
       -1    1    3    3    0  502  0.48443633871E+03 -0.92999087640E+02 -0.17312904778E+03  0.52278204232E+03  0.50400001928E-02 0. -1.
</event>
<event>
 5   0  0.2561518E-04  0.1693042E+04  0.7818609E-02  0.8765343E-01
        1   -1    0    0  501    0  0.00000000000E+00  0.00000000000E+00  0.23794271370E+04  0.23794271371E+04  0.50400001928E-02 0. -1.
       -1   -1    0    0    0  501  0.00000000000E+00  0.00000000000E+00 -0.30116398116E+03  0.30116398120E+03  0.50400001928E-02 0.  1.
    10030    2    1    2    0    0  0.00000000000E+00  0.00000000000E+00  0.20782631559E+04  0.26805911183E+04  0.16930419363E+04 0.  0.
        4    1    3    3  502    0 -0.24923512014E+03  0.60963912378E+03  0.18811400903E+04  0.19931050295E+04  0.12699999809E+01 0. -1.
       -4    1    3    3    0  502  0.24923512014E+03 -0.60963912378E+03  0.19712306558E+03  0.68748608876E+03  0.12699999809E+01 0.  1.
</event>
<event>
 5   0  0.5021349E-04  0.1686157E+04  0.7818609E-02  0.8769299E-01
       -2   -1    0    0    0  501  0.00000000000E+00  0.00000000000E+00  0.95482127742E+03  0.95482127742E+03  0.25500000920E-02 0. -1.
        2   -1    0    0  501    0  0.00000000000E+00  0.00000000000E+00 -0.74441333223E+03  0.74441333224E+03  0.25500000920E-02 0.  1.
    10030    2    1    2    0    0  0.00000000000E+00  0.00000000000E+00  0.21040794518E+03  0.16992346097E+04  0.16861573934E+04 0.  0.
        2    1    3    3  502    0  0.54914750504E+03 -0.27403373390E+02 -0.53886759347E+03  0.76986505991E+03  0.25500000920E-02 0.  1.
       -2    1    3    3    0  502 -0.54914750504E+03  0.27403373390E+02  0.74927553866E+03  0.92936954975E+03  0.25500000920E-02 0. -1.
</event>
<event>
 5   0  0.5299877E-04  0.1652638E+04  0.7818609E-02  0.8788847E-01
        2   -1    0    0  501    0  0.00000000000E+00  0.00000000000E+00  0.44517938320E+03  0.44517938320E+03  0.25500000920E-02 0.  1.
       -2   -1    0    0    0  501  0.00000000000E+00  0.00000000000E+00 -0.15337706271E+04  0.15337706271E+04  0.25500000920E-02 0. -1.
    10030    2    1    2    0    0  0.00000000000E+00  0.00000000000E+00 -0.10885912439E+04  0.19789500103E+04  0.16526379661E+04 0.  0.
        3    1    3    3  502    0 -0.14033089981E+03  0.72304666002E+02 -0.15155460150E+04  0.15237455365E+04  0.10100000352E+00 0. -1.
       -3    1    3    3    0  502  0.14033089981E+03 -0.72304666002E+02  0.42695477113E+03  0.45520447379E+03  0.10100000352E+00 0.  1.
</event>
<event>
 5   0  0.2785059E-04  0.1697656E+04  0.7818609E-02  0.8762702E-01
        1   -1    0    0  501    0  0.00000000000E+00  0.00000000000E+00  0.10982313254E+04  0.10982313254E+04  0.50400001928E-02 0.  1.
       -1   -1    0    0    0  501  0.00000000000E+00  0.00000000000E+00 -0.65606331320E+03  0.65606331322E+03  0.50400001928E-02 0. -1.
    10030    2    1    2    0    0  0.00000000000E+00  0.00000000000E+00  0.44216801216E+03  0.17542946386E+04  0.16976563634E+04 0.  0.
        5    1    3    3  502    0 -0.46548798017E+03  0.29215174601E+03  0.88954702389E+03  0.10456326793E+04  0.46999998093E+01 0.  1.
       -5    1    3    3    0  502  0.46548798017E+03 -0.29215174601E+03 -0.44737901173E+03  0.70866195927E+03  0.46999998093E+01 0. -1.
</event>
<event>
 5   0  0.1910750E-04  0.1381156E+04  0.7818609E-02  0.8967573E-01
        4   -1    0    0  501    0  0.00000000000E+00  0.00000000000E+00  0.16261234149E+04  0.16261239109E+04  0.12699999809E+01 0. -1.
       -4   -1    0    0    0  501  0.00000000000E+00  0.00000000000E+00 -0.29327105434E+03  0.29327380418E+03  0.12699999809E+01 0.  1.
    10030    2    1    2    0    0  0.00000000000E+00  0.00000000000E+00  0.13328523606E+04  0.19193977150E+04  0.13811561003E+04 0.  0.
        1    1    3    3  502    0  0.63580883686E+02  0.20242191385E+03 -0.24685434732E+03  0.32550611176E+03  0.50400001928E-02 0.  1.
       -1    1    3    3    0  502 -0.63580883686E+02 -0.20242191385E+03  0.15797067079E+04  0.15938916033E+04  0.50400001928E-02 0. -1.
</event>
<event>
 5   0  0.5198430E-04  0.1688774E+04  0.7818609E-02  0.8767793E-01
        2   -1    0    0  501    0  0.00000000000E+00  0.00000000000E+00  0.82216178230E+03  0.82216178231E+03  0.25500000920E-02 0. -1.
       -2   -1    0    0    0  501  0.00000000000E+00  0.00000000000E+00 -0.86721288425E+03  0.86721288425E+03  0.25500000920E-02 0.  1.
    10030    2    1    2    0    0  0.00000000000E+00  0.00000000000E+00 -0.45051101946E+02  0.16893746666E+04  0.16887738636E+04 0.  0.
        4    1    3    3  502    0  0.71437219750E+03  0.26908539113E+03 -0.38355988215E+03  0.85431515284E+03  0.12699999809E+01 0. -1.
       -4    1    3    3    0  502 -0.71437219750E+03 -0.26908539113E+03  0.33850878020E+03  0.83505951372E+03  0.12699999809E+01 0.  1.
</event>
<event>
 5   0  0.5021349E-04  0.1694282E+04  0.7818609E-02  0.8764632E-01
       -2   -1    0    0    0  501  0.00000000000E+00  0.00000000000E+00  0.43366870694E+03  0.43366870695E+03  0.25500000920E-02 0. -1.
        2   -1    0    0  501    0  0.00000000000E+00  0.00000000000E+00 -0.16548299800E+04  0.16548299800E+04  0.25500000920E-02 0.  1.
    10030    2    1    2    0    0  0.00000000000E+00  0.00000000000E+00 -0.12211612731E+04  0.20884986870E+04  0.16942821225E+04 0.  0.
        2    1    3    3  502    0 -0.16940933600E+03  0.34350968102E+03  0.32084319806E+03  0.49963865125E+03  0.25500000920E-02 0. -1.
       -2    1    3    3    0  502  0.16940933600E+03 -0.34350968102E+03 -0.15420044711E+04  0.15888600357E+04  0.25500000920E-02 0.  1.
</event>
<event>
 5   0  0.2595644E-04  0.1707998E+04  0.7818609E-02  0.8756816E-01
       -1   -1    0    0    0  501  0.00000000000E+00  0.00000000000E+00  0.12340927194E+04  0.12340927194E+04  0.50400001928E-02 0.  1.
        1   -1    0    0  501    0  0.00000000000E+00  0.00000000000E+00 -0.59097171481E+03  0.59097171483E+03  0.50400001928E-02 0. -1.
    10030    2    1    2    0    0  0.00000000000E+00  0.00000000000E+00  0.64312100455E+03  0.18250644342E+04  0.17079975300E+04 0.  0.
        2    1    3    3  502    0 -0.57818293111E+03 -0.83179177712E+02  0.98723599519E+03  0.11471046978E+04  0.25500000920E-02 0.  1.
       -2    1    3    3    0  502  0.57818293111E+03  0.83179177712E+02 -0.34411499064E+03  0.67795973644E+03  0.25500000920E-02 0. -1.
</event>
<event>
 5   0  0.5021349E-04  0.1699842E+04  0.7818609E-02  0.8761454E-01
        2   -1    0    0  501    0  0.00000000000E+00  0.00000000000E+00  0.13867221507E+04  0.13867221507E+04  0.25500000920E-02 0. -1.
       -2   -1    0    0    0  501  0.00000000000E+00  0.00000000000E+00 -0.52091602328E+03  0.52091602329E+03  0.25500000920E-02 0.  1.
    10030    2    1    2    0    0  0.00000000000E+00  0.00000000000E+00  0.86580612743E+03  0.19076381740E+04  0.16998420964E+04 0.  0.
        2    1    3    3  502    0 -0.21449791250E+03 -0.23328796785E+03  0.13179356879E+04  0.13555025296E+04  0.25500000920E-02 0. -1.
       -2    1    3    3    0  502  0.21449791250E+03  0.23328796785E+03 -0.45212956042E+03  0.55213564441E+03  0.25500000920E-02 0.  1.
</event>
<event>
 5   0  0.5342255E-04  0.1745428E+04  0.7818609E-02  0.8735871E-01
       -2   -1    0    0    0  501  0.00000000000E+00  0.00000000000E+00  0.71265672354E+03  0.71265672354E+03  0.25500000920E-02 0.  1.
        2   -1    0    0  501    0  0.00000000000E+00  0.00000000000E+00 -0.10687189924E+04  0.10687189924E+04  0.25500000920E-02 0. -1.
    10030    2    1    2    0    0  0.00000000000E+00  0.00000000000E+00 -0.35606226889E+03  0.17813757160E+04  0.17454280570E+04 0.  0.
        5    1    3    3  502    0 -0.12919620470E+03 -0.84930203576E+03 -0.21237402140E+02  0.85934784837E+03  0.46999998093E+01 0.  1.
       -5    1    3    3    0  502  0.12919620470E+03  0.84930203576E+03 -0.33482486675E+03  0.92202786761E+03  0.46999998093E+01 0. -1.
</event>
<event>
 5   0  0.5198430E-04  0.1709610E+04  0.7818609E-02  0.8755902E-01
        2   -1    0    0  501    0  0.00000000000E+00  0.00000000000E+00  0.17456119344E+04  0.17456119344E+04  0.25500000920E-02 0. -1.
       -2   -1    0    0    0  501  0.00000000000E+00  0.00000000000E+00 -0.41858784464E+03  0.41858784465E+03  0.25500000920E-02 0.  1.
    10030    2    1    2    0    0  0.00000000000E+00  0.00000000000E+00  0.13270240898E+04  0.21641997790E+04  0.17096104085E+04 0.  0.
        4    1    3    3  502    0 -0.34885630951E+03 -0.57272859774E+03 -0.75016301663E+01  0.67065390382E+03  0.12699999809E+01 0.  1.
       -4    1    3    3    0  502  0.34885630951E+03  0.57272859774E+03  0.13345257199E+04  0.14935458752E+04  0.12699999809E+01 0. -1.
</event>
<event>
 5   0  0.5021349E-04  0.1681028E+04  0.7818609E-02  0.8772260E-01
        2   -1    0    0  501    0  0.00000000000E+00  0.00000000000E+00  0.12722094991E+04  0.12722094991E+04  0.25500000920E-02 0. -1.
       -2   -1    0    0    0  501  0.00000000000E+00  0.00000000000E+00 -0.55530429269E+03  0.55530429269E+03  0.25500000920E-02 0.  1.
    10030    2    1    2    0    0  0.00000000000E+00  0.00000000000E+00  0.71690520645E+03  0.18275137918E+04  0.16810275382E+04 0.  0.
        2    1    3    3  502    0  0.67428745886E+03  0.28901814335E+03 -0.87498281249E+02  0.73881730732E+03  0.25500000920E-02 0.  1.
       -2    1    3    3    0  502 -0.67428745886E+03 -0.28901814335E+03  0.80440348770E+03  0.10886964845E+04  0.25500000920E-02 0. -1.
</event>
<event>
 5   0  0.5342255E-04  0.1653946E+04  0.7818609E-02  0.8788075E-01
        2   -1    0    0  501    0  0.00000000000E+00  0.00000000000E+00  0.13488364078E+04  0.13488364078E+04  0.25500000920E-02 0.  1.
       -2   -1    0    0    0  501  0.00000000000E+00  0.00000000000E+00 -0.50701826919E+03  0.50701826920E+03  0.25500000920E-02 0. -1.
    10030    2    1    2    0    0  0.00000000000E+00  0.00000000000E+00  0.84181813859E+03  0.18558546770E+04  0.16539464331E+04 0.  0.
        5    1    3    3  502    0 -0.62399403326E+03 -0.53928708009E+03  0.35299327587E+03  0.89712064467E+03  0.46999998093E+01 0.  1.
       -5    1    3    3    0  502  0.62399403326E+03  0.53928708009E+03  0.48882486272E+03  0.95873403231E+03  0.46999998093E+01 0. -1.
</event>
<event>
 5   0  0.2630135E-04  0.1658852E+04  0.7818609E-02  0.8785187E-01
       -1   -1    0    0    0  501  0.00000000000E+00  0.00000000000E+00  0.38910331572E+03  0.38910331575E+03  0.50400001928E-02 0. -1.
        1   -1    0    0  501    0  0.00000000000E+00  0.00000000000E+00 -0.17680322606E+04  0.17680322606E+04  0.50400001928E-02 0.  1.
    10030    2    1    2    0    0  0.00000000000E+00  0.00000000000E+00 -0.13789289449E+04  0.21571355763E+04  0.16588516690E+04 0.  0.
        1    1    3    3  502    0  0.71531266962E+03 -0.24772290998E+03 -0.24866029713E+03  0.79678780039E+03  0.50400001928E-02 0. -1.
       -1    1    3    3    0  502 -0.71531266962E+03  0.24772290998E+03 -0.11302686477E+04  0.13603477759E+04  0.50400001928E-02 0.  1.
</event>
<event>
 5   0  0.5299877E-04  0.1699013E+04  0.7818609E-02  0.8761928E-01
       -2   -1    0    0    0  501  0.00000000000E+00  0.00000000000E+00  0.67096472268E+03  0.67096472268E+03  0.25500000920E-02 0. -1.
        2   -1    0    0  501    0  0.00000000000E+00  0.00000000000E+00 -0.10755575187E+04  0.10755575187E+04  0.25500000920E-02 0.  1.
    10030    2    1    2    0    0  0.00000000000E+00  0.00000000000E+00 -0.40459279601E+03  0.17465222414E+04  0.16990128337E+04 0.  0.
        3    1    3    3  502    0 -0.16293498505E+03  0.72983919001E+03 -0.61661531730E+03  0.96924068855E+03  0.10100000352E+00 0.  1.
       -3    1    3    3    0  502  0.16293498505E+03 -0.72983919001E+03  0.21202252128E+03  0.77728155282E+03  0.10100000352E+00 0. -1.
</event>
<event>
 5   0  0.2630135E-04  0.1735662E+04  0.7818609E-02  0.8741282E-01
       -1   -1    0    0    0  501  0.00000000000E+00  0.00000000000E+00  0.35100059119E+03  0.35100059123E+03  0.50400001928E-02 0.  1.
        1   -1    0    0  501    0  0.00000000000E+00  0.00000000000E+00 -0.21456678911E+04  0.21456678912E+04  0.50400001928E-02 0. -1.
    10030    2    1    2    0    0  0.00000000000E+00  0.00000000000E+00 -0.17946673000E+04  0.24966684824E+04  0.17356620620E+04 0.  0.
        1    1    3    3  502    0  0.42876522529E+03  0.69075786509E+03 -0.13339809454E+04  0.15622071595E+04  0.50400001928E-02 0.  1.
       -1    1    3    3    0  502 -0.42876522529E+03 -0.69075786509E+03 -0.46068635458E+03  0.93446132286E+03  0.50400001928E-02 0. -1.
</event>
<event>
 5   0  0.5021349E-04  0.1658507E+04  0.7818609E-02  0.8785390E-01
       -2   -1    0    0    0  501  0.00000000000E+00  0.00000000000E+00  0.64696882234E+03  0.64696882235E+03  0.25500000920E-02 0. -1.
        2   -1    0    0  501    0  0.00000000000E+00  0.00000000000E+00 -0.10628967340E+04  0.10628967340E+04  0.25500000920E-02 0.  1.
    10030    2    1    2    0    0  0.00000000000E+00  0.00000000000E+00 -0.41592791167E+03  0.17098655564E+04  0.16585066153E+04 0.  0.
        2    1    3    3  502    0  0.29120318821E+03  0.76634332411E+03 -0.79280191053E+02  0.82363021796E+03  0.25500000920E-02 0. -1.
       -2    1    3    3    0  502 -0.29120318821E+03 -0.76634332411E+03 -0.33664772061E+03  0.88623533840E+03  0.25500000920E-02 0.  1.
</event>
<event>
 5   0  0.5342255E-04  0.1729204E+04  0.7818609E-02  0.8744881E-01
        2   -1    0    0  501    0  0.00000000000E+00  0.00000000000E+00  0.10017069303E+04  0.10017069303E+04  0.25500000920E-02 0.  1.
       -2   -1    0    0    0  501  0.00000000000E+00  0.00000000000E+00 -0.74626286158E+03  0.74626286158E+03  0.25500000920E-02 0. -1.
    10030    2    1    2    0    0  0.00000000000E+00  0.00000000000E+00  0.25544406876E+03  0.17479697919E+04  0.17292040716E+04 0.  0.
        5    1    3    3  502    0 -0.23536323412E+03 -0.56029199487E+03  0.74936872154E+03  0.96483083611E+03  0.46999998093E+01 0.  1.
       -5    1    3    3    0  502  0.23536323412E+03  0.56029199487E+03 -0.49392465278E+03  0.78313895581E+03  0.46999998093E+01 0. -1.
</event>
<event>
 5   0  0.2630135E-04  0.1705378E+04  0.7818609E-02  0.8758303E-01
       -1   -1    0    0    0  501  0.00000000000E+00  0.00000000000E+00  0.10219018833E+04  0.10219018833E+04  0.50400001928E-02 0.  1.
        1   -1    0    0  501    0  0.00000000000E+00  0.00000000000E+00 -0.71149527126E+03  0.71149527128E+03  0.50400001928E-02 0. -1.
    10030    2    1    2    0    0  0.00000000000E+00  0.00000000000E+00  0.31040661203E+03  0.17333971546E+04  0.17053777971E+04 0.  0.
        1    1    3    3  502    0 -0.21930893241E+03  0.19862572055E+03 -0.65764191869E+03  0.72113901430E+03  0.50400001928E-02 0. -1.
       -1    1    3    3    0  502  0.21930893241E+03 -0.19862572055E+03  0.96804853072E+03  0.10122581403E+04  0.50400001928E-02 0.  1.
</event>
<event>
 5   0  0.2561518E-04  0.1676044E+04  0.7818609E-02  0.8775146E-01
        1   -1    0    0  501    0  0.00000000000E+00  0.00000000000E+00  0.46654574357E+03  0.46654574359E+03  0.50400001928E-02 0. -1.
       -1   -1    0    0    0  501  0.00000000000E+00  0.00000000000E+00 -0.15052785168E+04  0.15052785168E+04  0.50400001928E-02 0.  1.
    10030    2    1    2    0    0  0.00000000000E+00  0.00000000000E+00 -0.10387327732E+04  0.19718242604E+04  0.16760444922E+04 0.  0.
        4    1    3    3  502    0 -0.29831456322E+02  0.54278971671E+01  0.46589905552E+03  0.46688641090E+03  0.12699999809E+01 0. -1.
       -4    1    3    3    0  502  0.29831456322E+02 -0.54278971671E+01 -0.15046318287E+04  0.15049378495E+04  0.12699999809E+01 0.  1.
</event>
<event>
 5   0  0.2583422E-04  0.1711085E+04  0.7818609E-02  0.8755067E-01
        1   -1    0    0  501    0  0.00000000000E+00  0.00000000000E+00  0.11064767817E+04  0.11064767817E+04  0.50400001928E-02 0.  1.
       -1   -1    0    0    0  501  0.00000000000E+00  0.00000000000E+00 -0.66151706326E+03  0.66151706328E+03  0.50400001928E-02 0. -1.
    10030    2    1    2    0    0  0.00000000000E+00  0.00000000000E+00  0.44495971840E+03  0.17679938450E+04  0.17110853529E+04 0.  0.
        3    1    3    3  502    0 -0.70226344434E+03  0.46011932413E+03  0.39248003835E+03  0.92678170482E+03  0.10100000352E+00 0. -1.
       -3    1    3    3    0  502  0.70226344434E+03 -0.46011932413E+03  0.52479680052E+02  0.84121214013E+03  0.10100000352E+00 0.  1.
</event>
<event>
 5   0  0.1910750E-04  0.1690734E+04  0.7818609E-02  0.8766667E-01
       -3   -1    0    0    0  501  0.00000000000E+00  0.00000000000E+00  0.16268220590E+04  0.16268220621E+04  0.10100000352E+00 0. -1.
        3   -1    0    0  501    0  0.00000000000E+00  0.00000000000E+00 -0.43928944899E+03  0.43928946060E+03  0.10100000352E+00 0.  1.
    10030    2    1    2    0    0  0.00000000000E+00  0.00000000000E+00  0.11875326100E+04  0.20661115227E+04  0.16907344926E+04 0.  0.
        1    1    3    3  502    0 -0.57336733367E+03  0.62100253902E+03  0.57438550083E+03  0.10219163157E+04  0.50400001928E-02 0. -1.
       -1    1    3    3    0  502  0.57336733367E+03 -0.62100253902E+03  0.61314710917E+03  0.10441952070E+04  0.50400001928E-02 0.  1.
</event>
<event>
 5   0  0.1910750E-04  0.1680852E+04  0.7818609E-02  0.8772361E-01
       -3   -1    0    0    0  501  0.00000000000E+00  0.00000000000E+00  0.53949257452E+03  0.53949258398E+03  0.10100000352E+00 0.  1.
        3   -1    0    0  501    0  0.00000000000E+00  0.00000000000E+00 -0.13092221166E+04  0.13092221205E+04  0.10100000352E+00 0. -1.
    10030    2    1    2    0    0  0.00000000000E+00  0.00000000000E+00 -0.76972954209E+03  0.18487147045E+04  0.16808517158E+04 0.  0.
        2    1    3    3  502    0  0.25759077445E+03  0.49282320757E+03 -0.10779454967E+04  0.12129279512E+04  0.25500000920E-02 0. -1.
       -2    1    3    3    0  502 -0.25759077445E+03 -0.49282320757E+03  0.30821595457E+03  0.63578675329E+03  0.25500000920E-02 0.  1.
</event>
<event>
 5   0  0.2583422E-04  0.1752208E+04  0.7818609E-02  0.8732136E-01
        1   -1    0    0  501    0  0.00000000000E+00  0.00000000000E+00  0.90273326588E+03  0.90273326589E+03  0.50400001928E-02 0.  1.
       -1   -1    0    0    0  501  0.00000000000E+00  0.00000000000E+00 -0.85026064062E+03  0.85026064064E+03  0.50400001928E-02 0. -1.
    10030    2    1    2    0    0  0.00000000000E+00  0.00000000000E+00  0.52472625257E+02  0.17529939065E+04  0.17522083951E+04 0.  0.
        3    1    3    3  502    0  0.65009219255E+02  0.20633958518E+03  0.87559059901E+03  0.90192080044E+03  0.10100000352E+00 0.  1.
       -3    1    3    3    0  502 -0.65009219255E+02 -0.20633958518E+03 -0.82311797375E+03  0.85107310609E+03  0.10100000352E+00 0. -1.
</event>
<event>
 5   0  0.5342255E-04  0.1696964E+04  0.7818609E-02  0.8763098E-01
        2   -1    0    0  501    0  0.00000000000E+00  0.00000000000E+00  0.99756960782E+03  0.99756960783E+03  0.25500000920E-02 0.  1.
       -2   -1    0    0    0  501  0.00000000000E+00  0.00000000000E+00 -0.72167530366E+03  0.72167530366E+03  0.25500000920E-02 0. -1.
    10030    2    1    2    0    0  0.00000000000E+00  0.00000000000E+00  0.27589430417E+03  0.17192449115E+04  0.16969635820E+04 0.  0.
        5    1    3    3  502    0 -0.84474587813E+03  0.59808416440E+02  0.85044543915E+02  0.85113295656E+03  0.46999998093E+01 0.  1.
       -5    1    3    3    0  502  0.84474587813E+03 -0.59808416440E+02  0.19084976025E+03  0.86811195493E+03  0.46999998093E+01 0. -1.
</event>
<event>
 5   0  0.1910750E-04  0.1653813E+04  0.7818609E-02  0.8788154E-01
        3   -1    0    0  501    0  0.00000000000E+00  0.00000000000E+00  0.12390948754E+04  0.12390948795E+04  0.10100000352E+00 0. -1.
       -3   -1    0    0    0  501  0.00000000000E+00  0.00000000000E+00 -0.55183343672E+03  0.55183344596E+03  0.10100000352E+00 0.  1.
    10030    2    1    2    0    0  0.00000000000E+00  0.00000000000E+00  0.68726143864E+03  0.17909283254E+04  0.16538125595E+04 0.  0.
        2    1    3    3  502    0 -0.27598966753E+03  0.10822053368E+03 -0.49231042722E+03  0.57467515803E+03  0.25500000920E-02 0.  1.
       -2    1    3    3    0  502  0.27598966753E+03 -0.10822053368E+03  0.11795718659E+04  0.12162531674E+04  0.25500000920E-02 0. -1.
</event>
<event>
 5   0  0.5342255E-04  0.1669178E+04  0.7818609E-02  0.8779141E-01
        2   -1    0    0  501    0  0.00000000000E+00  0.00000000000E+00  0.82619339998E+03  0.82619339998E+03  0.25500000920E-02 0. -1.
       -2   -1    0    0    0  501  0.00000000000E+00  0.00000000000E+00 -0.84307022408E+03  0.84307022408E+03  0.25500000920E-02 0.  1.
    10030    2    1    2    0    0  0.00000000000E+00  0.00000000000E+00 -0.16876824096E+02  0.16692636241E+04  0.16691783067E+04 0.  0.
        5    1    3    3  502    0 -0.39416175255E+03  0.39459293963E+03 -0.62931625350E+03  0.84090909859E+03  0.46999998093E+01 0.  1.
       -5    1    3    3    0  502  0.39416175255E+03 -0.39459293963E+03  0.61243942941E+03  0.82835452547E+03  0.46999998093E+01 0. -1.
</event>
<event>
 5   0  0.2561518E-04  0.1370466E+04  0.7818609E-02  0.8975478E-01
        1   -1    0    0  501    0  0.00000000000E+00  0.00000000000E+00  0.78338137851E+03  0.78338137853E+03  0.50400001928E-02 0.  1.
       -1   -1    0    0    0  501  0.00000000000E+00  0.00000000000E+00 -0.59938186990E+03  0.59938186992E+03  0.50400001928E-02 0. -1.
    10030    2    1    2    0    0  0.00000000000E+00  0.00000000000E+00  0.18399950861E+03  0.13827632484E+04  0.13704664834E+04 0.  0.
        4    1    3    3  502    0 -0.36404990535E+03  0.24936421372E+03  0.62094413432E+03  0.76176641794E+03  0.12699999809E+01 0.  1.
       -4    1    3    3    0  502  0.36404990535E+03 -0.24936421372E+03 -0.43694462570E+03  0.62099683050E+03  0.12699999809E+01 0. -1.
</event>
<event>
 5   0  0.2785059E-04  0.1697041E+04  0.7818609E-02  0.8763054E-01
       -1   -1    0    0    0  501  0.00000000000E+00  0.00000000000E+00  0.54574088268E+03  0.54574088270E+03  0.50400001928E-02 0.  1.
        1   -1    0    0  501    0  0.00000000000E+00  0.00000000000E+00 -0.13192833289E+04  0.13192833289E+04  0.50400001928E-02 0. -1.
    10030    2    1    2    0    0  0.00000000000E+00  0.00000000000E+00 -0.77354244618E+03  0.18650242116E+04  0.16970407755E+04 0.  0.
        5    1    3    3  502    0  0.41572650748E+03 -0.68054325235E+03 -0.70528217611E+03  0.10646185633E+04  0.46999998093E+01 0. -1.
       -5    1    3    3    0  502 -0.41572650748E+03  0.68054325235E+03 -0.68260270068E+02  0.80040564829E+03  0.46999998093E+01 0.  1.
</event>
<event>
 5   0  0.5299877E-04  0.1775035E+04  0.7818609E-02  0.8719689E-01
       -2   -1    0    0    0  501  0.00000000000E+00  0.00000000000E+00  0.35237086473E+03  0.35237086474E+03  0.25500000920E-02 0.  1.
        2   -1    0    0  501    0  0.00000000000E+00  0.00000000000E+00 -0.22353936803E+04  0.22353936803E+04  0.25500000920E-02 0. -1.
    10030    2    1    2    0    0  0.00000000000E+00  0.00000000000E+00 -0.18830228156E+04  0.25877645450E+04  0.17750353283E+04 0.  0.
        3    1    3    3  502    0  0.63783588131E+03 -0.53321311503E+02 -0.18378442268E+04  0.19461112985E+04  0.10100000352E+00 0. -1.
       -3    1    3    3    0  502 -0.63783588131E+03  0.53321311503E+02 -0.45178588740E+02  0.64165324656E+03  0.10100000352E+00 0.  1.
</event>
<event>
 5   0  0.5342255E-04  0.1666915E+04  0.7818609E-02  0.8780462E-01
        2   -1    0    0  501    0  0.00000000000E+00  0.00000000000E+00  0.98276102433E+03  0.98276102434E+03  0.25500000920E-02 0. -1.
       -2   -1    0    0    0  501  0.00000000000E+00  0.00000000000E+00 -0.70683667535E+03  0.70683667535E+03  0.25500000920E-02 0.  1.
    10030    2    1    2    0    0  0.00000000000E+00  0.00000000000E+00  0.27592434898E+03  0.16895976997E+04  0.16669151569E+04 0.  0.
        5    1    3    3  502    0  0.32918037032E+02 -0.31749777402E+03 -0.64241094692E+03  0.71735789421E+03  0.46999998093E+01 0.  1.
       -5    1    3    3    0  502 -0.32918037032E+02  0.31749777402E+03  0.91833529590E+03  0.97223980548E+03  0.46999998093E+01 0. -1.
</event>
<event>
 5   0  0.1910750E-04  0.1701291E+04  0.7818609E-02  0.8760628E-01
       -3   -1    0    0    0  501  0.00000000000E+00  0.00000000000E+00  0.20974756577E+04  0.20974756602E+04  0.10100000352E+00 0.  1.
        3   -1    0    0  501    0  0.00000000000E+00  0.00000000000E+00 -0.34498508306E+03  0.34498509785E+03  0.10100000352E+00 0. -1.
    10030    2    1    2    0    0  0.00000000000E+00  0.00000000000E+00  0.17524905747E+04  0.24424607580E+04  0.17012910804E+04 0.  0.
        4    1    3    3  502    0  0.67207497282E+03  0.14639475223E+03  0.15773081078E+03  0.70568889331E+03  0.12699999809E+01 0. -1.
       -4    1    3    3    0  502 -0.67207497282E+03 -0.14639475223E+03  0.15947597639E+04  0.17367718647E+04  0.12699999809E+01 0.  1.
</event>
<event>
 5   0  0.5198430E-04  0.1661157E+04  0.7818609E-02  0.8783833E-01
        2   -1    0    0  501    0  0.00000000000E+00  0.00000000000E+00  0.11189556696E+04  0.11189556696E+04  0.25500000920E-02 0.  1.
       -2   -1    0    0    0  501  0.00000000000E+00  0.00000000000E+00 -0.61652200080E+03  0.61652200081E+03  0.25500000920E-02 0. -1.
    10030    2    1    2    0    0  0.00000000000E+00  0.00000000000E+00  0.50243366884E+03  0.17354776705E+04  0.16611571729E+04 0.  0.
        4    1    3    3  502    0  0.10045802578E+03 -0.78766339191E+03  0.50574295298E+03  0.94142603601E+03  0.12699999809E+01 0. -1.
       -4    1    3    3    0  502 -0.10045802578E+03  0.78766339191E+03 -0.33092841331E+01  0.79405163444E+03  0.12699999809E+01 0.  1.
</event>
<event>
 5   0  0.2630135E-04  0.1613830E+04  0.7818609E-02  0.8812097E-01
       -1   -1    0    0    0  501  0.00000000000E+00  0.00000000000E+00  0.99882731075E+03  0.99882731077E+03  0.50400001928E-02 0.  1.
        1   -1    0    0  501    0  0.00000000000E+00  0.00000000000E+00 -0.65187611052E+03  0.65187611054E+03  0.50400001928E-02 0. -1.
    10030    2    1    2    0    0  0.00000000000E+00  0.00000000000E+00  0.34695120023E+03  0.16507034213E+04  0.16138298082E+04 0.  0.
        1    1    3    3  502    0 -0.32201473864E+03 -0.56226186573E+02 -0.58111822171E+03  0.66674827603E+03  0.50400001928E-02 0. -1.
       -1    1    3    3    0  502  0.32201473864E+03  0.56226186573E+02  0.92806942194E+03  0.98395514528E+03  0.50400001928E-02 0.  1.
</event>
<event>
 5   0  0.2595644E-04  0.1691230E+04  0.7818609E-02  0.8766382E-01
        1   -1    0    0  501    0  0.00000000000E+00  0.00000000000E+00  0.10077984742E+04  0.10077984742E+04  0.50400001928E-02 0.  1.
       -1   -1    0    0    0  501  0.00000000000E+00  0.00000000000E+00 -0.70953157889E+03  0.70953157891E+03  0.50400001928E-02 0. -1.
    10030    2    1    2    0    0  0.00000000000E+00  0.00000000000E+00  0.29826689528E+03  0.17173300531E+04  0.16912301353E+04 0.  0.
        2    1    3    3  502    0  0.44306297492E+03  0.44825130930E+03  0.72159860204E+03  0.95809111179E+03  0.25500000920E-02 0. -1.
       -2    1    3    3    0  502 -0.44306297492E+03 -0.44825130930E+03 -0.42333170675E+03  0.75923894130E+03  0.25500000920E-02 0.  1.
</event>
<event>
 5   0  0.2561518E-04  0.1667771E+04  0.7818609E-02  0.8779962E-01
       -1   -1    0    0    0  501  0.00000000000E+00  0.00000000000E+00  0.59466769995E+03  0.59466769997E+03  0.50400001928E-02 0.  1.
        1   -1    0    0  501    0  0.00000000000E+00  0.00000000000E+00 -0.11693339061E+04  0.11693339061E+04  0.50400001928E-02 0. -1.
    10030    2    1    2    0    0  0.00000000000E+00  0.00000000000E+00 -0.57466620615E+03  0.17640016061E+04  0.16677710927E+04 0.  0.
        4    1    3    3  502    0  0.75738640879E+02  0.79137191708E+03 -0.21100017426E+02  0.79526893344E+03  0.12699999809E+01 0.  1.
       -4    1    3    3    0  502 -0.75738640879E+02 -0.79137191708E+03 -0.55356618873E+03  0.96873267265E+03  0.12699999809E+01 0. -1.
</event>
<event>
 5   0  0.2561518E-04  0.1862067E+04  0.7818609E-02  0.8673972E-01
       -1   -1    0    0    0  501  0.00000000000E+00  0.00000000000E+00  0.60525219015E+03  0.60525219017E+03  0.50400001928E-02 0. -1.
        1   -1    0    0  501    0  0.00000000000E+00  0.00000000000E+00 -0.14321694346E+04  0.14321694346E+04  0.50400001928E-02 0.  1.
    10030    2    1    2    0    0  0.00000000000E+00  0.00000000000E+00 -0.82691724445E+03  0.20374216248E+04  0.18620673317E+04 0.  0.
        4    1    3    3  502    0  0.86458642930E+03  0.32677975437E+03 -0.53592462025E+03  0.10684154216E+04  0.12699999809E+01 0. -1.
       -4    1    3    3    0  502 -0.86458642930E+03 -0.32677975437E+03 -0.29099262421E+03  0.96900620320E+03  0.12699999809E+01 0.  1.
</event>
<event>
 5   0  0.2630135E-04  0.1705410E+04  0.7818609E-02  0.8758285E-01
       -1   -1    0    0    0  501  0.00000000000E+00  0.00000000000E+00  0.52711459387E+03  0.52711459389E+03  0.50400001928E-02 0.  1.
        1   -1    0    0  501    0  0.00000000000E+00  0.00000000000E+00 -0.13794068508E+04  0.13794068508E+04  0.50400001928E-02 0. -1.
    10030    2    1    2    0    0  0.00000000000E+00  0.00000000000E+00 -0.85229225690E+03  0.19065214447E+04  0.17054096070E+04 0.  0.
        1    1    3    3  502    0 -0.21786733325E+03 -0.43224199360E+03  0.35863952649E+03  0.60242976845E+03  0.50400001928E-02 0.  1.
       -1    1    3    3    0  502  0.21786733325E+03  0.43224199360E+03 -0.12109317834E+04  0.13040916762E+04  0.50400001928E-02 0. -1.
</event>
<event>
 5   0  0.2785059E-04  0.1689539E+04  0.7818609E-02  0.8767353E-01
       -1   -1    0    0    0  501  0.00000000000E+00  0.00000000000E+00  0.84145395947E+03  0.84145395949E+03  0.50400001928E-02 0.  1.
        1   -1    0    0  501    0  0.00000000000E+00  0.00000000000E+00 -0.84809808207E+03  0.84809808209E+03  0.50400001928E-02 0. -1.
    10030    2    1    2    0    0  0.00000000000E+00  0.00000000000E+00 -0.66441226009E+01  0.16895520416E+04  0.16895389776E+04 0.  0.
        5    1    3    3  502    0  0.70614113836E+03 -0.45759802914E+03  0.71392207574E+02  0.84448220873E+03  0.46999998093E+01 0.  1.
       -5    1    3    3    0  502 -0.70614113836E+03  0.45759802914E+03 -0.78036330175E+02  0.84506983284E+03  0.46999998093E+01 0. -1.
</event>
<event>
 5   0  0.5198430E-04  0.1689993E+04  0.7818609E-02  0.8767093E-01
        2   -1    0    0  501    0  0.00000000000E+00  0.00000000000E+00  0.98415254094E+03  0.98415254094E+03  0.25500000920E-02 0. -1.
       -2   -1    0    0    0  501  0.00000000000E+00  0.00000000000E+00 -0.72551638291E+03  0.72551638291E+03  0.25500000920E-02 0.  1.
    10030    2    1    2    0    0  0.00000000000E+00  0.00000000000E+00  0.25863615803E+03  0.17096689239E+04  0.16899926529E+04 0.  0.
        4    1    3    3  502    0  0.81432675633E+03  0.20827845781E+03  0.21698261607E+03  0.86809622199E+03  0.12699999809E+01 0. -1.
       -4    1    3    3    0  502 -0.81432675633E+03 -0.20827845781E+03  0.41653541960E+02  0.84157270186E+03  0.12699999809E+01 0.  1.
</event>
<event>
 5   0  0.2785059E-04  0.1722149E+04  0.7818609E-02  0.8748832E-01
       -1   -1    0    0    0  501  0.00000000000E+00  0.00000000000E+00  0.97866979281E+03  0.97866979283E+03  0.50400001928E-02 0.  1.
        1   -1    0    0  501    0  0.00000000000E+00  0.00000000000E+00 -0.75760886190E+03  0.75760886192E+03  0.50400001928E-02 0. -1.
    10030    2    1    2    0    0  0.00000000000E+00  0.00000000000E+00  0.22106093091E+03  0.17362786547E+04  0.17221485510E+04 0.  0.
        5    1    3    3  502    0 -0.37111406682E+03 -0.19239610146E+03 -0.64843084724E+03  0.77150927674E+03  0.46999998093E+01 0. -1.
       -5    1    3    3    0  502  0.37111406682E+03  0.19239610146E+03  0.86949177815E+03  0.96476937800E+03  0.46999998093E+01 0.  1.
</event>
<event>
 5   0  0.5198430E-04  0.1693217E+04  0.7818609E-02  0.8765243E-01
       -2   -1    0    0    0  501  0.00000000000E+00  0.00000000000E+00  0.44251986013E+03  0.44251986013E+03  0.25500000920E-02 0. -1.
        2   -1    0    0  501    0  0.00000000000E+00  0.00000000000E+00 -0.16196914111E+04  0.16196914111E+04  0.25500000920E-02 0.  1.
    10030    2    1    2    0    0  0.00000000000E+00  0.00000000000E+00 -0.11771715509E+04  0.20622112712E+04  0.16932166036E+04 0.  0.
        4    1    3    3  502    0 -0.70333113584E+03 -0.21569000062E+03 -0.78295234781E+02  0.73981661221E+03  0.12699999809E+01 0. -1.
       -4    1    3    3    0  502  0.70333113584E+03  0.21569000062E+03 -0.10988763162E+04  0.13223946590E+04  0.12699999809E+01 0.  1.
</event>
<event>
 5   0  0.2630135E-04  0.1655385E+04  0.7818609E-02  0.8787227E-01
       -1   -1    0    0    0  501  0.00000000000E+00  0.00000000000E+00  0.71753247493E+03  0.71753247494E+03  0.50400001928E-02 0.  1.
        1   -1    0    0  501    0  0.00000000000E+00  0.00000000000E+00 -0.95476554920E+03  0.95476554921E+03  0.50400001928E-02 0. -1.
    10030    2    1    2    0    0  0.00000000000E+00  0.00000000000E+00 -0.23723307427E+03  0.16722980242E+04  0.16553854989E+04 0.  0.
        1    1    3    3  502    0  0.51890334244E+03 -0.63426947855E+03 -0.11667935779E+01  0.81948752989E+03  0.50400001928E-02 0. -1.
       -1    1    3    3    0  502 -0.51890334244E+03  0.63426947855E+03 -0.23606628069E+03  0.85281049426E+03  0.50400001928E-02 0.  1.
</event>
<event>
 5   0  0.5310003E-04  0.1305588E+04  0.7818609E-02  0.9025145E-01
        2   -1    0    0  501    0  0.00000000000E+00  0.00000000000E+00  0.82531070141E+03  0.82531070142E+03  0.25500000920E-02 0. -1.
       -2   -1    0    0    0  501  0.00000000000E+00  0.00000000000E+00 -0.51633912221E+03  0.51633912221E+03  0.25500000920E-02 0.  1.
    10030    2    1    2    0    0  0.00000000000E+00  0.00000000000E+00  0.30897157920E+03  0.13416498236E+04  0.13055883013E+04 0.  0.
        1    1    3    3  502    0 -0.41296091479E+03  0.47600167100E+03  0.32956143624E+03  0.71114347935E+03  0.50400001928E-02 0. -1.
       -1    1    3    3    0  502  0.41296091479E+03 -0.47600167100E+03 -0.20589857038E+02  0.63050634428E+03  0.50400001928E-02 0.  1.
</event>
<event>
 5   0  0.2583422E-04  0.1702690E+04  0.7818609E-02  0.8759831E-01
       -1   -1    0    0    0  501  0.00000000000E+00  0.00000000000E+00  0.72322951614E+03  0.72322951616E+03  0.50400001928E-02 0. -1.
        1   -1    0    0  501    0  0.00000000000E+00  0.00000000000E+00 -0.10021557538E+04  0.10021557538E+04  0.50400001928E-02 0.  1.
    10030    2    1    2    0    0  0.00000000000E+00  0.00000000000E+00 -0.27892623766E+03  0.17253852700E+04  0.17026903664E+04 0.  0.
        3    1    3    3  502    0 -0.23978834161E+03  0.65098311631E+03 -0.63950896950E+03  0.94353017904E+03  0.10100000352E+00 0.  1.
       -3    1    3    3    0  502  0.23978834161E+03 -0.65098311631E+03  0.36058273184E+03  0.78185509092E+03  0.10100000352E+00 0. -1.
</event>
<event>
 5   0  0.5021349E-04  0.1684318E+04  0.7818609E-02  0.8770359E-01
       -2   -1    0    0    0  501  0.00000000000E+00  0.00000000000E+00  0.94551508924E+03  0.94551508925E+03  0.25500000920E-02 0.  1.
        2   -1    0    0  501    0  0.00000000000E+00  0.00000000000E+00 -0.75010093589E+03  0.75010093589E+03  0.25500000920E-02 0. -1.
    10030    2    1    2    0    0  0.00000000000E+00  0.00000000000E+00  0.19541415336E+03  0.16956160251E+04  0.16843179668E+04 0.  0.
        2    1    3    3  502    0 -0.69179342096E+03 -0.26793962828E+03 -0.30354140793E+03  0.80156544837E+03  0.25500000920E-02 0. -1.
       -2    1    3    3    0  502  0.69179342096E+03  0.26793962828E+03  0.49895556129E+03  0.89405057677E+03  0.25500000920E-02 0.  1.
</event>
<event>
 5   0  0.2630135E-04  0.1691533E+04  0.7818609E-02  0.8766208E-01
       -1   -1    0    0    0  501  0.00000000000E+00  0.00000000000E+00  0.57350039869E+03  0.57350039871E+03  0.50400001928E-02 0. -1.
        1   -1    0    0  501    0  0.00000000000E+00  0.00000000000E+00 -0.12472886843E+04  0.12472886843E+04  0.50400001928E-02 0.  1.
    10030    2    1    2    0    0  0.00000000000E+00  0.00000000000E+00 -0.67378828556E+03  0.18207890830E+04  0.16915325096E+04 0.  0.
        1    1    3    3  502    0  0.45166342310E+03  0.46363625500E+03 -0.92288474055E+03  0.11272420632E+04  0.50400001928E-02 0.  1.
       -1    1    3    3    0  502 -0.45166342310E+03 -0.46363625500E+03  0.24909645498E+03  0.69354701977E+03  0.50400001928E-02 0. -1.
</event>
<event>
 5   0  0.2583422E-04  0.1730240E+04  0.7818609E-02  0.8744303E-01
       -1   -1    0    0    0  501  0.00000000000E+00  0.00000000000E+00  0.63870792584E+03  0.63870792586E+03  0.50400001928E-02 0.  1.
        1   -1    0    0  501    0  0.00000000000E+00  0.00000000000E+00 -0.11717918987E+04  0.11717918987E+04  0.50400001928E-02 0. -1.
    10030    2    1    2    0    0  0.00000000000E+00  0.00000000000E+00 -0.53308397288E+03  0.18104998246E+04  0.17302401835E+04 0.  0.
        3    1    3    3  502    0  0.14169598811E+03 -0.52388612914E+03 -0.97151320600E+03  0.11128217957E+04  0.10100000352E+00 0. -1.
       -3    1    3    3    0  502 -0.14169598811E+03  0.52388612914E+03  0.43842923312E+03  0.69767802890E+03  0.10100000352E+00 0.  1.
</event>
<event>
 5   0  0.2630135E-04  0.1691547E+04  0.7818609E-02  0.8766200E-01
       -1   -1    0    0    0  501  0.00000000000E+00  0.00000000000E+00  0.94029564190E+03  0.94029564192E+03  0.50400001928E-02 0.  1.
        1   -1    0    0  501    0  0.00000000000E+00  0.00000000000E+00 -0.76075327235E+03  0.76075327237E+03  0.50400001928E-02 0. -1.
    10030    2    1    2    0    0  0.00000000000E+00  0.00000000000E+00  0.17954236955E+03  0.17010489143E+04  0.16915472049E+04 0.  0.
        1    1    3    3  502    0  0.24538413937E+03  0.21773769961E+03  0.87370759817E+03  0.93326740478E+03  0.50400001928E-02 0.  1.
       -1    1    3    3    0  502 -0.24538413937E+03 -0.21773769961E+03 -0.69416522862E+03  0.76778150951E+03  0.50400001928E-02 0. -1.
</event>
<event>
 5   0  0.5342255E-04  0.1754049E+04  0.7818609E-02  0.8731125E-01
       -2   -1    0    0    0  501  0.00000000000E+00  0.00000000000E+00  0.45546837322E+03  0.45546837323E+03  0.25500000920E-02 0. -1.
        2   -1    0    0  501    0  0.00000000000E+00  0.00000000000E+00 -0.16887494235E+04  0.16887494235E+04  0.25500000920E-02 0.  1.
    10030    2    1    2    0    0  0.00000000000E+00  0.00000000000E+00 -0.12332810503E+04  0.21442177967E+04  0.17540489762E+04 0.  0.
        5    1    3    3  502    0 -0.65760319231E+03  0.27049616078E+03  0.10912214819E+02  0.71116193513E+03  0.46999998093E+01 0. -1.
       -5    1    3    3    0  502  0.65760319231E+03 -0.27049616078E+03 -0.12441932651E+04  0.14330558616E+04  0.46999998093E+01 0.  1.
</event>
<event>
 5   0  0.5299877E-04  0.1727937E+04  0.7818609E-02  0.8745589E-01
        2   -1    0    0  501    0  0.00000000000E+00  0.00000000000E+00  0.21144010332E+04  0.21144010332E+04  0.25500000920E-02 0. -1.
       -2   -1    0    0    0  501  0.00000000000E+00  0.00000000000E+00 -0.35302744319E+03  0.35302744320E+03  0.25500000920E-02 0.  1.
    10030    2    1    2    0    0  0.00000000000E+00  0.00000000000E+00  0.17613735900E+04  0.24674284764E+04  0.17279370251E+04 0.  0.
        3    1    3    3  502    0 -0.23694367449E+03 -0.83075261691E+03  0.89813863246E+03  0.12461722308E+04  0.10100000352E+00 0. -1.
       -3    1    3    3    0  502  0.23694367449E+03  0.83075261691E+03  0.86323495753E+03  0.12212562456E+04  0.10100000352E+00 0.  1.
</event>
<event>
 5   0  0.5310003E-04  0.1688251E+04  0.7818609E-02  0.8768094E-01
        2   -1    0    0  501    0  0.00000000000E+00  0.00000000000E+00  0.19379415494E+04  0.19379415494E+04  0.25500000920E-02 0. -1.
       -2   -1    0    0    0  501  0.00000000000E+00  0.00000000000E+00 -0.36768287296E+03  0.36768287297E+03  0.25500000920E-02 0.  1.
    10030    2    1    2    0    0  0.00000000000E+00  0.00000000000E+00  0.15702586765E+04  0.23056244224E+04  0.16882510673E+04 0.  0.
        1    1    3    3  502    0  0.67646112306E+02  0.71885406775E+03  0.13823282926E+04  0.15595379687E+04  0.50400001928E-02 0. -1.
       -1    1    3    3    0  502 -0.67646112306E+02 -0.71885406775E+03  0.18793038389E+03  0.74608645373E+03  0.50400001928E-02 0.  1.
</event>
<event>
 5   0  0.2595644E-04  0.1687624E+04  0.7818609E-02  0.8768455E-01
        1   -1    0    0  501    0  0.00000000000E+00  0.00000000000E+00  0.15624852733E+04  0.15624852733E+04  0.50400001928E-02 0.  1.
       -1   -1    0    0    0  501  0.00000000000E+00  0.00000000000E+00 -0.45569615161E+03  0.45569615164E+03  0.50400001928E-02 0. -1.
    10030    2    1    2    0    0  0.00000000000E+00  0.00000000000E+00  0.11067891217E+04  0.20181814249E+04  0.16876238041E+04 0.  0.
        2    1    3    3  502    0 -0.35235589164E+03 -0.62759933869E+03  0.26690932299E+02  0.72024163319E+03  0.25500000920E-02 0. -1.
       -2    1    3    3    0  502  0.35235589164E+03  0.62759933869E+03  0.10800981894E+04  0.12979397917E+04  0.25500000920E-02 0.  1.
</event>
<event>
 5   0  0.2630135E-04  0.1709327E+04  0.7818609E-02  0.8756063E-01
        1   -1    0    0  501    0  0.00000000000E+00  0.00000000000E+00  0.84226312573E+03  0.84226312574E+03  0.50400001928E-02 0.  1.
       -1   -1    0    0    0  501  0.00000000000E+00  0.00000000000E+00 -0.86724653981E+03  0.86724653983E+03  0.50400001928E-02 0. -1.
    10030    2    1    2    0    0  0.00000000000E+00  0.00000000000E+00 -0.24983414086E+02  0.17095096656E+04  0.17093270973E+04 0.  0.
        1    1    3    3  502    0  0.65143311460E+03  0.48219174589E+03  0.25878585647E+03  0.85079028094E+03  0.50400001928E-02 0. -1.
       -1    1    3    3    0  502 -0.65143311460E+03 -0.48219174589E+03 -0.28376927055E+03  0.85871938463E+03  0.50400001928E-02 0.  1.
</event>
<event>
 5   0  0.5342255E-04  0.1641057E+04  0.7818609E-02  0.8795715E-01
        2   -1    0    0  501    0  0.00000000000E+00  0.00000000000E+00  0.11550449403E+04  0.11550449403E+04  0.25500000920E-02 0. -1.
       -2   -1    0    0    0  501  0.00000000000E+00  0.00000000000E+00 -0.58289268227E+03  0.58289268227E+03  0.25500000920E-02 0.  1.
    10030    2    1    2    0    0  0.00000000000E+00  0.00000000000E+00  0.57215225808E+03  0.17379376226E+04  0.16410572731E+04 0.  0.
        5    1    3    3  502    0  0.50129201648E+02 -0.37121220658E+03 -0.48704411303E+03  0.61444731036E+03  0.46999998093E+01 0.  1.
       -5    1    3    3    0  502 -0.50129201648E+02  0.37121220658E+03  0.10591963711E+04  0.11234903123E+04  0.46999998093E+01 0. -1.
</event>
<event>
 5   0  0.2583422E-04  0.1780976E+04  0.7818609E-02  0.8716482E-01
       -1   -1    0    0    0  501  0.00000000000E+00  0.00000000000E+00  0.64050237115E+03  0.64050237117E+03  0.50400001928E-02 0. -1.
        1   -1    0    0  501    0  0.00000000000E+00  0.00000000000E+00 -0.12380418165E+04  0.12380418165E+04  0.50400001928E-02 0.  1.
    10030    2    1    2    0    0  0.00000000000E+00  0.00000000000E+00 -0.59753944532E+03  0.18785441876E+04  0.17809758213E+04 0.  0.
        3    1    3    3  502    0  0.36217122800E+03  0.10109226694E+03 -0.11501971162E+04  0.12100996079E+04  0.10100000352E+00 0.  1.
       -3    1    3    3    0  502 -0.36217122800E+03 -0.10109226694E+03  0.55265767085E+03  0.66844457973E+03  0.10100000352E+00 0. -1.
</event>
<event>
 5   0  0.2561518E-04  0.1612227E+04  0.7818609E-02  0.8813072E-01
       -1   -1    0    0    0  501  0.00000000000E+00  0.00000000000E+00  0.44026415378E+03  0.44026415381E+03  0.50400001928E-02 0.  1.
        1   -1    0    0  501    0  0.00000000000E+00  0.00000000000E+00 -0.14759751095E+04  0.14759751095E+04  0.50400001928E-02 0. -1.
    10030    2    1    2    0    0  0.00000000000E+00  0.00000000000E+00 -0.10357109557E+04  0.19162392633E+04  0.16122269476E+04 0.  0.
        4    1    3    3  502    0  0.78777688253E+03 -0.11549019208E+03 -0.36804458450E+03  0.87714812330E+03  0.12699999809E+01 0.  1.
       -4    1    3    3    0  502 -0.78777688253E+03  0.11549019208E+03 -0.66766637119E+03  0.10390911400E+04  0.12699999809E+01 0. -1.
</event>
<event>
 5   0  0.5342255E-04  0.1667387E+04  0.7818609E-02  0.8780186E-01
       -2   -1    0    0    0  501  0.00000000000E+00  0.00000000000E+00  0.54046843767E+03  0.54046843767E+03  0.25500000920E-02 0.  1.
        2   -1    0    0  501    0  0.00000000000E+00  0.00000000000E+00 -0.12860046036E+04  0.12860046036E+04  0.25500000920E-02 0. -1.
    10030    2    1    2    0    0  0.00000000000E+00  0.00000000000E+00 -0.74553616593E+03  0.18264730413E+04  0.16673870564E+04 0.  0.
        5    1    3    3  502    0  0.92420653255E+01  0.19387625654E+03 -0.12608948775E+04  0.12757552276E+04  0.46999998093E+01 0. -1.
       -5    1    3    3    0  502 -0.92420653255E+01 -0.19387625654E+03  0.51535871162E+03  0.55071781364E+03  0.46999998093E+01 0.  1.
</event>
<event>
 5   0  0.2785059E-04  0.1703279E+04  0.7818609E-02  0.8759496E-01
       -1   -1    0    0    0  501  0.00000000000E+00  0.00000000000E+00  0.41819379012E+03  0.41819379015E+03  0.50400001928E-02 0. -1.
        1   -1    0    0  501    0  0.00000000000E+00  0.00000000000E+00 -0.17343401035E+04  0.17343401035E+04  0.50400001928E-02 0.  1.
    10030    2    1    2    0    0  0.00000000000E+00  0.00000000000E+00 -0.13161463134E+04  0.21525338936E+04  0.17032794970E+04 0.  0.
        5    1    3    3  502    0 -0.40521617916E+03 -0.26023161175E+03  0.22957439169E+03  0.53352332182E+03  0.46999998093E+01 0. -1.
       -5    1    3    3    0  502  0.40521617916E+03  0.26023161175E+03 -0.15457207051E+04  0.16190105718E+04  0.46999998093E+01 0.  1.
</event>
<event>
 5   0  0.5342255E-04  0.1721612E+04  0.7818609E-02  0.8749133E-01
       -2   -1    0    0    0  501  0.00000000000E+00  0.00000000000E+00  0.31826552658E+03  0.31826552659E+03  0.25500000920E-02 0.  1.
        2   -1    0    0  501    0  0.00000000000E+00  0.00000000000E+00 -0.23282043829E+04  0.23282043829E+04  0.25500000920E-02 0. -1.
    10030    2    1    2    0    0  0.00000000000E+00  0.00000000000E+00 -0.20099388563E+04  0.26464699095E+04  0.17216122605E+04 0.  0.
        5    1    3    3  502    0 -0.28521743532E+03  0.56537995621E+03 -0.19012553211E+04  0.20039454499E+04  0.46999998093E+01 0. -1.
       -5    1    3    3    0  502  0.28521743532E+03 -0.56537995621E+03 -0.10868353521E+03  0.64252445955E+03  0.46999998093E+01 0.  1.
</event>
<event>
 5   0  0.5198430E-04  0.1691298E+04  0.7818609E-02  0.8766343E-01
        2   -1    0    0  501    0  0.00000000000E+00  0.00000000000E+00  0.15368020905E+04  0.15368020905E+04  0.25500000920E-02 0. -1.
       -2   -1    0    0    0  501  0.00000000000E+00  0.00000000000E+00 -0.46533129897E+03  0.46533129898E+03  0.25500000920E-02 0.  1.
    10030    2    1    2    0    0  0.00000000000E+00  0.00000000000E+00  0.10714707915E+04  0.20021333895E+04  0.16912978603E+04 0.  0.
        4    1    3    3  502    0  0.35857446654E+03 -0.76458339827E+03  0.48336605492E+03  0.97304048061E+03  0.12699999809E+01 0. -1.
       -4    1    3    3    0  502 -0.35857446654E+03  0.76458339827E+03  0.58810473660E+03  0.10290929089E+04  0.12699999809E+01 0.  1.
</event>
<event>
 5   0  0.5310003E-04  0.1716323E+04  0.7818609E-02  0.8752109E-01
       -2   -1    0    0    0  501  0.00000000000E+00  0.00000000000E+00  0.89139754975E+03  0.89139754975E+03  0.25500000920E-02 0.  1.
        2   -1    0    0  501    0  0.00000000000E+00  0.00000000000E+00 -0.82616481413E+03  0.82616481413E+03  0.25500000920E-02 0. -1.
    10030    2    1    2    0    0  0.00000000000E+00  0.00000000000E+00  0.65232735617E+02  0.17175623639E+04  0.17163231526E+04 0.  0.
        1    1    3    3  502    0  0.43093538599E+03  0.28395335216E+03  0.71875452514E+03  0.88484059612E+03  0.50400001928E-02 0.  1.
       -1    1    3    3    0  502 -0.43093538599E+03 -0.28395335216E+03 -0.65352178952E+03  0.83272176777E+03  0.50400001928E-02 0. -1.
</event>
<event>
 5   0  0.5310003E-04  0.1681773E+04  0.7818609E-02  0.8771829E-01
       -2   -1    0    0    0  501  0.00000000000E+00  0.00000000000E+00  0.71666081324E+03  0.71666081324E+03  0.25500000920E-02 0. -1.
        2   -1    0    0  501    0  0.00000000000E+00  0.00000000000E+00 -0.98664537978E+03  0.98664537978E+03  0.25500000920E-02 0.  1.
    10030    2    1    2    0    0  0.00000000000E+00  0.00000000000E+00 -0.26998456654E+03  0.17033061930E+04  0.16817729695E+04 0.  0.
        1    1    3    3  502    0  0.80521595186E+03  0.22151918512E+03 -0.35517607599E+02  0.83588574517E+03  0.50400001928E-02 0.  1.
       -1    1    3    3    0  502 -0.80521595186E+03 -0.22151918512E+03 -0.23446695894E+03  0.86742044786E+03  0.50400001928E-02 0. -1.
</event>
<event>
 5   0  0.2595644E-04  0.1720159E+04  0.7818609E-02  0.8749950E-01
       -1   -1    0    0    0  501  0.00000000000E+00  0.00000000000E+00  0.48243864016E+03  0.48243864019E+03  0.50400001928E-02 0.  1.
        1   -1    0    0  501    0  0.00000000000E+00  0.00000000000E+00 -0.15333277232E+04  0.15333277232E+04  0.50400001928E-02 0. -1.
    10030    2    1    2    0    0  0.00000000000E+00  0.00000000000E+00 -0.10508890830E+04  0.20157663634E+04  0.17201587621E+04 0.  0.
        2    1    3    3  502    0 -0.33944253006E+03 -0.22748819683E+03  0.36142488192E+03  0.54552731938E+03  0.25500000920E-02 0.  1.
       -2    1    3    3    0  502  0.33944253006E+03  0.22748819683E+03 -0.14123139650E+04  0.14702390440E+04  0.25500000920E-02 0. -1.
</event>
<event>
 5   0  0.5310003E-04  0.1717216E+04  0.7818609E-02  0.8751606E-01
       -2   -1    0    0    0  501  0.00000000000E+00  0.00000000000E+00  0.57886224635E+03  0.57886224636E+03  0.25500000920E-02 0.  1.
        2   -1    0    0  501    0  0.00000000000E+00  0.00000000000E+00 -0.12735453160E+04  0.12735453160E+04  0.25500000920E-02 0. -1.
    10030    2    1    2    0    0  0.00000000000E+00  0.00000000000E+00 -0.69468306963E+03  0.18524075623E+04  0.17172155397E+04 0.  0.
        1    1    3    3  502    0 -0.76699819190E+03  0.10663187840E+03 -0.74741814988E+03  0.10762390416E+04  0.50400001928E-02 0. -1.
       -1    1    3    3    0  502  0.76699819190E+03 -0.10663187840E+03  0.52735080251E+02  0.77616852074E+03  0.50400001928E-02 0.  1.
</event>
<event>
 5   0  0.2785059E-04  0.1715034E+04  0.7818609E-02  0.8752836E-01
        1   -1    0    0  501    0  0.00000000000E+00  0.00000000000E+00  0.14436965192E+04  0.14436965192E+04  0.50400001928E-02 0. -1.
       -1   -1    0    0    0  501  0.00000000000E+00  0.00000000000E+00 -0.50934223793E+03  0.50934223795E+03  0.50400001928E-02 0.  1.
    10030    2    1    2    0    0  0.00000000000E+00  0.00000000000E+00  0.93435428130E+03  0.19530387572E+04  0.17150342458E+04 0.  0.
        5    1    3    3  502    0 -0.30698656162E+03 -0.65411584126E+03  0.99299702549E+03  0.12280771415E+04  0.46999998093E+01 0. -1.
       -5    1    3    3    0  502  0.30698656162E+03  0.65411584126E+03 -0.58642744196E+02  0.72496161570E+03  0.46999998093E+01 0.  1.
</event>
<event>
 5   0  0.2583422E-04  0.1738628E+04  0.7818609E-02  0.8739635E-01
       -1   -1    0    0    0  501  0.00000000000E+00  0.00000000000E+00  0.34221197726E+03  0.34221197729E+03  0.50400001928E-02 0. -1.
        1   -1    0    0  501    0  0.00000000000E+00  0.00000000000E+00 -0.22083004708E+04  0.22083004708E+04  0.50400001928E-02 0.  1.
    10030    2    1    2    0    0  0.00000000000E+00  0.00000000000E+00 -0.18660884936E+04  0.25505124481E+04  0.17386280460E+04 0.  0.
        3    1    3    3  502    0 -0.27458668814E+03  0.41201492678E+03 -0.19812367756E+04  0.20421687787E+04  0.10100000352E+00 0.  1.
       -3    1    3    3    0  502  0.27458668814E+03 -0.41201492678E+03  0.11514828208E+03  0.50834366945E+03  0.10100000352E+00 0. -1.
</event>
<event>
 5   0  0.5198430E-04  0.1690420E+04  0.7818609E-02  0.8766847E-01
        2   -1    0    0  501    0  0.00000000000E+00  0.00000000000E+00  0.23974925855E+04  0.23974925855E+04  0.25500000920E-02 0. -1.
       -2   -1    0    0    0  501  0.00000000000E+00  0.00000000000E+00 -0.29796946788E+03  0.29796946789E+03  0.25500000920E-02 0.  1.
    10030    2    1    2    0    0  0.00000000000E+00  0.00000000000E+00  0.20995231176E+04  0.26954620534E+04  0.16904195810E+04 0.  0.
        4    1    3    3  502    0 -0.19981998692E+02  0.84450623257E+03  0.10945204953E+04  0.13825942227E+04  0.12699999809E+01 0.  1.
       -4    1    3    3    0  502  0.19981998692E+02 -0.84450623257E+03  0.10050026224E+04  0.13128678307E+04  0.12699999809E+01 0. -1.
</event>
<event>
 5   0  0.2561518E-04  0.1710662E+04  0.7818609E-02  0.8755307E-01
        1   -1    0    0  501    0  0.00000000000E+00  0.00000000000E+00  0.12926845905E+04  0.12926845905E+04  0.50400001928E-02 0.  1.
       -1   -1    0    0    0  501  0.00000000000E+00  0.00000000000E+00 -0.56594703003E+03  0.56594703005E+03  0.50400001928E-02 0. -1.
    10030    2    1    2    0    0  0.00000000000E+00  0.00000000000E+00  0.72673756049E+03  0.18586316206E+04  0.17106618658E+04 0.  0.
        4    1    3    3  502    0  0.36350544152E+02 -0.72058170087E+03  0.86248454816E+03  0.11244734583E+04  0.12699999809E+01 0.  1.
       -4    1    3    3    0  502 -0.36350544152E+02  0.72058170087E+03 -0.13574698767E+03  0.73415816229E+03  0.12699999809E+01 0. -1.
</event>
<event>
 5   0  0.5299877E-04  0.1599519E+04  0.7818609E-02  0.8820843E-01
       -2   -1    0    0    0  501  0.00000000000E+00  0.00000000000E+00  0.56708329266E+03  0.56708329267E+03  0.25500000920E-02 0.  1.
        2   -1    0    0  501    0  0.00000000000E+00  0.00000000000E+00 -0.11279040707E+04  0.11279040707E+04  0.25500000920E-02 0. -1.
    10030    2    1    2    0    0  0.00000000000E+00  0.00000000000E+00 -0.56082077807E+03  0.16949873634E+04  0.15995193706E+04 0.  0.
        3    1    3    3  502    0 -0.71679536803E+03  0.17508301179E+03  0.46491629743E+02  0.73933155112E+03  0.10100000352E+00 0.  1.
       -3    1    3    3    0  502  0.71679536803E+03 -0.17508301179E+03 -0.60731240781E+03  0.95565581227E+03  0.10100000352E+00 0. -1.
</event>
<event>
 5   0  0.5299877E-04  0.1695545E+04  0.7818609E-02  0.8763909E-01
       -2   -1    0    0    0  501  0.00000000000E+00  0.00000000000E+00  0.81009169426E+03  0.81009169427E+03  0.25500000920E-02 0.  1.
        2   -1    0    0  501    0  0.00000000000E+00  0.00000000000E+00 -0.88720588971E+03  0.88720588971E+03  0.25500000920E-02 0. -1.
    10030    2    1    2    0    0  0.00000000000E+00  0.00000000000E+00 -0.77114195442E+02  0.16972975840E+04  0.16955448945E+04 0.  0.
        3    1    3    3  502    0 -0.71594255674E+03 -0.42212045785E+03 -0.20593845416E+03  0.85625351538E+03  0.10100000352E+00 0.  1.
       -3    1    3    3    0  502  0.71594255674E+03  0.42212045785E+03  0.12882425872E+03  0.84104406860E+03  0.10100000352E+00 0. -1.
</event>
<event>
 5   0  0.5299877E-04  0.1709815E+04  0.7818609E-02  0.8755786E-01
       -2   -1    0    0    0  501  0.00000000000E+00  0.00000000000E+00  0.65872690195E+03  0.65872690196E+03  0.25500000920E-02 0.  1.
        2   -1    0    0  501    0  0.00000000000E+00  0.00000000000E+00 -0.11095141175E+04  0.11095141175E+04  0.25500000920E-02 0. -1.
    10030    2    1    2    0    0  0.00000000000E+00  0.00000000000E+00 -0.45078721556E+03  0.17682410195E+04  0.17098149576E+04 0.  0.
        3    1    3    3  502    0 -0.52517084220E+03 -0.25520528075E+03 -0.87117740326E+03  0.10487536541E+04  0.10100000352E+00 0. -1.
       -3    1    3    3    0  502  0.52517084220E+03  0.25520528075E+03  0.42039018770E+03  0.71948736538E+03  0.10100000352E+00 0.  1.
</event>
<event>
 5   0  0.2595644E-04  0.1432045E+04  0.7818609E-02  0.8930944E-01
       -1   -1    0    0    0  501  0.00000000000E+00  0.00000000000E+00  0.43964760180E+03  0.43964760183E+03  0.50400001928E-02 0. -1.
        1   -1    0    0  501    0  0.00000000000E+00  0.00000000000E+00 -0.11661341131E+04  0.11661341131E+04  0.50400001928E-02 0.  1.
    10030    2    1    2    0    0  0.00000000000E+00  0.00000000000E+00 -0.72648651128E+03  0.16057817149E+04  0.14320447845E+04 0.  0.
        2    1    3    3  502    0 -0.59179717116E+02 -0.34164853613E+03  0.33922834736E+03  0.48507920262E+03  0.25500000920E-02 0. -1.
       -2    1    3    3    0  502  0.59179717116E+02  0.34164853613E+03 -0.10657148586E+04  0.11207025123E+04  0.25500000920E-02 0.  1.
</event>
<event>
 5   0  0.5342255E-04  0.1712624E+04  0.7818609E-02  0.8754197E-01
       -2   -1    0    0    0  501  0.00000000000E+00  0.00000000000E+00  0.50970432963E+03  0.50970432964E+03  0.25500000920E-02 0. -1.
        2   -1    0    0  501    0  0.00000000000E+00  0.00000000000E+00 -0.14386192826E+04  0.14386192826E+04  0.25500000920E-02 0.  1.
    10030    2    1    2    0    0  0.00000000000E+00  0.00000000000E+00 -0.92891495299E+03  0.19483236123E+04  0.17126242753E+04 0.  0.
        5    1    3    3  502    0 -0.30801408764E+03 -0.77789838576E+03 -0.25701696036E+03  0.87525903860E+03  0.46999998093E+01 0.  1.
       -5    1    3    3    0  502  0.30801408764E+03  0.77789838576E+03 -0.67189799263E+03  0.10730645737E+04  0.46999998093E+01 0. -1.
</event>
<event>
 5   0  0.5342255E-04  0.1682177E+04  0.7818609E-02  0.8771595E-01
       -2   -1    0    0    0  501  0.00000000000E+00  0.00000000000E+00  0.61352693387E+03  0.61352693387E+03  0.25500000920E-02 0.  1.
        2   -1    0    0  501    0  0.00000000000E+00  0.00000000000E+00 -0.11530536750E+04  0.11530536750E+04  0.25500000920E-02 0. -1.
    10030    2    1    2    0    0  0.00000000000E+00  0.00000000000E+00 -0.53952674114E+03  0.17665806089E+04  0.16821765494E+04 0.  0.
        5    1    3    3  502    0 -0.46336619327E+03 -0.82064896212E+02 -0.10018528502E+04  0.11068758285E+04  0.46999998093E+01 0. -1.
       -5    1    3    3    0  502  0.46336619327E+03  0.82064896212E+02  0.46232610901E+03  0.65970478043E+03  0.46999998093E+01 0.  1.
</event>
<event>
 5   0  0.5198430E-04  0.1739403E+04  0.7818609E-02  0.8739205E-01
       -2   -1    0    0    0  501  0.00000000000E+00  0.00000000000E+00  0.32303872653E+03  0.32303872654E+03  0.25500000920E-02 0.  1.
        2   -1    0    0  501    0  0.00000000000E+00  0.00000000000E+00 -0.23414562121E+04  0.23414562121E+04  0.25500000920E-02 0. -1.
    10030    2    1    2    0    0  0.00000000000E+00  0.00000000000E+00 -0.20184174856E+04  0.26644949387E+04  0.17394033839E+04 0.  0.
        4    1    3    3  502    0  0.75262927832E+03  0.35955755255E+03 -0.13864499210E+04  0.16180165205E+04  0.12699999809E+01 0.  1.
       -4    1    3    3    0  502 -0.75262927832E+03 -0.35955755255E+03 -0.63196756463E+03  0.10464784182E+04  0.12699999809E+01 0. -1.
</event>
<event>
 5   0  0.5198430E-04  0.1715842E+04  0.7818609E-02  0.8752380E-01
        2   -1    0    0  501    0  0.00000000000E+00  0.00000000000E+00  0.14832380244E+04  0.14832380244E+04  0.25500000920E-02 0. -1.
       -2   -1    0    0    0  501  0.00000000000E+00  0.00000000000E+00 -0.49623075800E+03  0.49623075801E+03  0.25500000920E-02 0.  1.
    10030    2    1    2    0    0  0.00000000000E+00  0.00000000000E+00  0.98700726636E+03  0.19794687824E+04  0.17158418682E+04 0.  0.
        4    1    3    3  502    0  0.60931985171E+02  0.69981404303E+03 -0.74686650303E+02  0.70642204827E+03  0.12699999809E+01 0.  1.
       -4    1    3    3    0  502 -0.60931985171E+02 -0.69981404303E+03  0.10616939167E+04  0.12730467341E+04  0.12699999809E+01 0. -1.
</event>
<event>
 5   0  0.2595644E-04  0.1724851E+04  0.7818609E-02  0.8747317E-01
       -1   -1    0    0    0  501  0.00000000000E+00  0.00000000000E+00  0.59909667579E+03  0.59909667582E+03  0.50400001928E-02 0.  1.
        1   -1    0    0  501    0  0.00000000000E+00  0.00000000000E+00 -0.12414980054E+04  0.12414980054E+04  0.50400001928E-02 0. -1.
    10030    2    1    2    0    0  0.00000000000E+00  0.00000000000E+00 -0.64240132963E+03  0.18405946812E+04  0.17248505188E+04 0.  0.
        2    1    3    3  502    0  0.49106209162E+03 -0.57966162207E+03 -0.75679314071E+03  0.10723271104E+04  0.25500000920E-02 0. -1.
       -2    1    3    3    0  502 -0.49106209162E+03  0.57966162207E+03  0.11439181108E+03  0.76826757082E+03  0.25500000920E-02 0.  1.
</event>
<event>
 5   0  0.5299877E-04  0.1702209E+04  0.7818609E-02  0.8760105E-01
        2   -1    0    0  501    0  0.00000000000E+00  0.00000000000E+00  0.18426221693E+04  0.18426221693E+04  0.25500000920E-02 0.  1.
       -2   -1    0    0    0  501  0.00000000000E+00  0.00000000000E+00 -0.39312399194E+03  0.39312399195E+03  0.25500000920E-02 0. -1.
    10030    2    1    2    0    0  0.00000000000E+00  0.00000000000E+00  0.14494981774E+04  0.22357461613E+04  0.17022091327E+04 0.  0.
        3    1    3    3  502    0 -0.18448386714E+03  0.51362071197E+03  0.15825542706E+04  0.16740127128E+04  0.10100000352E+00 0.  1.
       -3    1    3    3    0  502  0.18448386714E+03 -0.51362071197E+03 -0.13305609322E+03  0.56173344848E+03  0.10100000352E+00 0. -1.
</event>
<event>
 5   0  0.2561518E-04  0.1978858E+04  0.7818609E-02  0.8616570E-01
        1   -1    0    0  501    0  0.00000000000E+00  0.00000000000E+00  0.81621817448E+03  0.81621817449E+03  0.50400001928E-02 0.  1.
       -1   -1    0    0    0  501  0.00000000000E+00  0.00000000000E+00 -0.11993966348E+04  0.11993966348E+04  0.50400001928E-02 0. -1.
    10030    2    1    2    0    0  0.00000000000E+00  0.00000000000E+00 -0.38317846028E+03  0.20156148093E+04  0.19788575813E+04 0.  0.
        4    1    3    3  502    0  0.72681238171E+03  0.49007762052E+03 -0.65895357069E+03  0.10966557042E+04  0.12699999809E+01 0. -1.
       -4    1    3    3    0  502 -0.72681238171E+03 -0.49007762052E+03  0.27577511040E+03  0.91895910506E+03  0.12699999809E+01 0.  1.
</event>
<event>
 5   0  0.5310003E-04  0.1428390E+04  0.7818609E-02  0.8933521E-01
        2   -1    0    0  501    0  0.00000000000E+00  0.00000000000E+00  0.17008575499E+04  0.17008575499E+04  0.25500000920E-02 0. -1.
       -2   -1    0    0    0  501  0.00000000000E+00  0.00000000000E+00 -0.29989274920E+03  0.29989274922E+03  0.25500000920E-02 0.  1.
    10030    2    1    2    0    0  0.00000000000E+00  0.00000000000E+00  0.14009648007E+04  0.20007502991E+04  0.14283904881E+04 0.  0.
        1    1    3    3  502    0  0.59533846927E+03  0.10591260855E+03  0.12328037128E+04  0.13731170263E+04  0.50400001928E-02 0. -1.
       -1    1    3    3    0  502 -0.59533846927E+03 -0.10591260855E+03  0.16816108793E+03  0.62763327283E+03  0.50400001928E-02 0.  1.
</event>
<event>
 5   0  0.5021349E-04  0.1695100E+04  0.7818609E-02  0.8764164E-01
       -2   -1    0    0    0  501  0.00000000000E+00  0.00000000000E+00  0.32062828236E+03  0.32062828237E+03  0.25500000920E-02 0. -1.
        2   -1    0    0  501    0  0.00000000000E+00  0.00000000000E+00 -0.22404174094E+04  0.22404174094E+04  0.25500000920E-02 0.  1.
    10030    2    1    2    0    0  0.00000000000E+00  0.00000000000E+00 -0.19197891270E+04  0.25610456918E+04  0.16951002162E+04 0.  0.
        2    1    3    3  502    0 -0.72984051467E+03 -0.42908371452E+03 -0.90019822165E+03  0.12357737856E+04  0.25500000920E-02 0.  1.
       -2    1    3    3    0  502  0.72984051467E+03  0.42908371452E+03 -0.10195909054E+04  0.13252719062E+04  0.25500000920E-02 0. -1.
</event>
<event>
 5   0  0.2561518E-04  0.1721101E+04  0.7818609E-02  0.8749421E-01
       -1   -1    0    0    0  501  0.00000000000E+00  0.00000000000E+00  0.54326417672E+03  0.54326417675E+03  0.50400001928E-02 0. -1.
        1   -1    0    0  501    0  0.00000000000E+00  0.00000000000E+00 -0.13631431262E+04  0.13631431262E+04  0.50400001928E-02 0.  1.
    10030    2    1    2    0    0  0.00000000000E+00  0.00000000000E+00 -0.81987894943E+03  0.19064073029E+04  0.17211006109E+04 0.  0.
        4    1    3    3  502    0 -0.27206863362E+03  0.58995730037E+03 -0.10350353040E+04  0.12220354541E+04  0.12699999809E+01 0.  1.
       -4    1    3    3    0  502  0.27206863362E+03 -0.58995730037E+03  0.21515635455E+03  0.68437184882E+03  0.12699999809E+01 0. -1.
</event>
<event>
 5   0  0.2595644E-04  0.1674933E+04  0.7818609E-02  0.8775791E-01
       -1   -1    0    0    0  501  0.00000000000E+00  0.00000000000E+00  0.46429043589E+03  0.46429043592E+03  0.50400001928E-02 0. -1.
        1   -1    0    0  501    0  0.00000000000E+00  0.00000000000E+00 -0.15105857150E+04  0.15105857150E+04  0.50400001928E-02 0.  1.
    10030    2    1    2    0    0  0.00000000000E+00  0.00000000000E+00 -0.10462952791E+04  0.19748761509E+04  0.16749334316E+04 0.  0.
        2    1    3    3  502    0  0.26133461066E+02  0.20208991866E+03 -0.14809092460E+04  0.14948630331E+04  0.25500000920E-02 0.  1.
       -2    1    3    3    0  502 -0.26133461066E+02 -0.20208991866E+03  0.43461396689E+03  0.48001311777E+03  0.25500000920E-02 0. -1.
</event>
<event>
 5   0  0.5198430E-04  0.1696634E+04  0.7818609E-02  0.8763286E-01
        2   -1    0    0  501    0  0.00000000000E+00  0.00000000000E+00  0.62032904722E+03  0.62032904723E+03  0.25500000920E-02 0.  1.
       -2   -1    0    0    0  501  0.00000000000E+00  0.00000000000E+00 -0.11600967499E+04  0.11600967500E+04  0.25500000920E-02 0. -1.
    10030    2    1    2    0    0  0.00000000000E+00  0.00000000000E+00 -0.53976770272E+03  0.17804257972E+04  0.16966339754E+04 0.  0.
        4    1    3    3  502    0  0.45571981579E+03 -0.10556119007E+03 -0.10125181145E+04  0.11153556655E+04  0.12699999809E+01 0. -1.
       -4    1    3    3    0  502 -0.45571981579E+03  0.10556119007E+03  0.47275041179E+03  0.66507013172E+03  0.12699999809E+01 0.  1.
</event>
<event>
 5   0  0.5198430E-04  0.1635107E+04  0.7818609E-02  0.8799266E-01
        2   -1    0    0  501    0  0.00000000000E+00  0.00000000000E+00  0.19130140311E+04  0.19130140311E+04  0.25500000920E-02 0.  1.
       -2   -1    0    0    0  501  0.00000000000E+00  0.00000000000E+00 -0.34939291871E+03  0.34939291871E+03  0.25500000920E-02 0. -1.
    10030    2    1    2    0    0  0.00000000000E+00  0.00000000000E+00  0.15636211124E+04  0.22624069499E+04  0.16351067927E+04 0.  0.
        4    1    3    3  502    0  0.47368897876E+03  0.62280290819E+03  0.45400869460E+03  0.90464922413E+03  0.12699999809E+01 0.  1.
       -4    1    3    3    0  502 -0.47368897876E+03 -0.62280290819E+03  0.11096124178E+04  0.13577577257E+04  0.12699999809E+01 0. -1.
</event>
<event>
 5   0  0.2561518E-04  0.1748061E+04  0.7818609E-02  0.8734418E-01
       -1   -1    0    0    0  501  0.00000000000E+00  0.00000000000E+00  0.87217569114E+03  0.87217569115E+03  0.50400001928E-02 0. -1.
        1   -1    0    0  501    0  0.00000000000E+00  0.00000000000E+00 -0.87588936069E+03  0.87588936070E+03  0.50400001928E-02 0.  1.
    10030    2    1    2    0    0  0.00000000000E+00  0.00000000000E+00 -0.37136695490E+01  0.17480650519E+04  0.17480611071E+04 0.  0.
        4    1    3    3  502    0  0.30861578962E+03 -0.22925128357E+03 -0.78679678139E+03  0.87570008834E+03  0.12699999809E+01 0.  1.
       -4    1    3    3    0  502 -0.30861578962E+03  0.22925128357E+03  0.78308311184E+03  0.87236496351E+03  0.12699999809E+01 0. -1.
</event>
<event>
 5   0  0.2595644E-04  0.1418243E+04  0.7818609E-02  0.8940718E-01
       -1   -1    0    0    0  501  0.00000000000E+00  0.00000000000E+00  0.91055780973E+03  0.91055780974E+03  0.50400001928E-02 0.  1.
        1   -1    0    0  501    0  0.00000000000E+00  0.00000000000E+00 -0.55224753715E+03  0.55224753717E+03  0.50400001928E-02 0. -1.
    10030    2    1    2    0    0  0.00000000000E+00  0.00000000000E+00  0.35831027258E+03  0.14628053469E+04  0.14182430086E+04 0.  0.
        2    1    3    3  502    0  0.69143278707E+03  0.13598307547E+03  0.26090857111E+03  0.75142795951E+03  0.25500000920E-02 0.  1.
       -2    1    3    3    0  502 -0.69143278707E+03 -0.13598307547E+03  0.97401701476E+02  0.71137738740E+03  0.25500000920E-02 0. -1.
</event>
<event>
 5   0  0.5342255E-04  0.1719691E+04  0.7818609E-02  0.8750213E-01
        2   -1    0    0  501    0  0.00000000000E+00  0.00000000000E+00  0.15168067611E+04  0.15168067611E+04  0.25500000920E-02 0. -1.
       -2   -1    0    0    0  501  0.00000000000E+00  0.00000000000E+00 -0.48742827266E+03  0.48742827266E+03  0.25500000920E-02 0.  1.
    10030    2    1    2    0    0  0.00000000000E+00  0.00000000000E+00  0.10293784884E+04  0.20042350337E+04  0.17196912508E+04 0.  0.
        5    1    3    3  502    0 -0.17923211038E+03 -0.84090987544E+03  0.50574919202E+03  0.99752589101E+03  0.46999998093E+01 0. -1.
       -5    1    3    3    0  502  0.17923211038E+03  0.84090987544E+03  0.52362929639E+03  0.10067091427E+04  0.46999998093E+01 0.  1.
</event>
<event>
 5   0  0.5342255E-04  0.1693467E+04  0.7818609E-02  0.8765099E-01
       -2   -1    0    0    0  501  0.00000000000E+00  0.00000000000E+00  0.20887565573E+04  0.20887565573E+04  0.25500000920E-02 0.  1.
        2   -1    0    0  501    0  0.00000000000E+00  0.00000000000E+00 -0.34324630018E+03  0.34324630019E+03  0.25500000920E-02 0. -1.
    10030    2    1    2    0    0  0.00000000000E+00  0.00000000000E+00  0.17455102571E+04  0.24320028575E+04  0.16934674018E+04 0.  0.
        5    1    3    3  502    0  0.72838491069E+03 -0.39917223823E+02  0.25539899936E+03  0.77290924548E+03  0.46999998093E+01 0. -1.
       -5    1    3    3    0  502 -0.72838491069E+03  0.39917223823E+02  0.14901112578E+04  0.16590936120E+04  0.46999998093E+01 0.  1.
</event>
<event>
 5   0  0.2785059E-04  0.1710609E+04  0.7818609E-02  0.8755336E-01
       -1   -1    0    0    0  501  0.00000000000E+00  0.00000000000E+00  0.85592235876E+03  0.85592235877E+03  0.50400001928E-02 0. -1.
        1   -1    0    0  501    0  0.00000000000E+00  0.00000000000E+00 -0.85468747614E+03  0.85468747616E+03  0.50400001928E-02 0.  1.
    10030    2    1    2    0    0  0.00000000000E+00  0.00000000000E+00  0.12348826133E+01  0.17106098349E+04  0.17106093892E+04 0.  0.
        5    1    3    3  502    0 -0.24496074485E+03 -0.36421727151E+03  0.73469122782E+03  0.85583484249E+03  0.46999998093E+01 0. -1.
       -5    1    3    3    0  502  0.24496074485E+03  0.36421727151E+03 -0.73345634521E+03  0.85477499244E+03  0.46999998093E+01 0.  1.
</event>
<event>
 5   0  0.5021349E-04  0.1754986E+04  0.7818609E-02  0.8730610E-01
        2   -1    0    0  501    0  0.00000000000E+00  0.00000000000E+00  0.71335995267E+03  0.71335995268E+03  0.25500000920E-02 0.  1.
       -2   -1    0    0    0  501  0.00000000000E+00  0.00000000000E+00 -0.10793908272E+04  0.10793908272E+04  0.25500000920E-02 0. -1.
    10030    2    1    2    0    0  0.00000000000E+00  0.00000000000E+00 -0.36603087455E+03  0.17927507799E+04  0.17549862557E+04 0.  0.
        2    1    3    3  502    0 -0.33742978423E+03 -0.29014585117E+03  0.58953261902E+03  0.73864212114E+03  0.25500000920E-02 0.  1.
       -2    1    3    3    0  502  0.33742978423E+03  0.29014585117E+03 -0.95556349357E+03  0.10541086588E+04  0.25500000920E-02 0. -1.
</event>
<event>
 5   0  0.2561518E-04  0.1660758E+04  0.7818609E-02  0.8784068E-01
        1   -1    0    0  501    0  0.00000000000E+00  0.00000000000E+00  0.44565394333E+03  0.44565394336E+03  0.50400001928E-02 0. -1.
       -1   -1    0    0    0  501  0.00000000000E+00  0.00000000000E+00 -0.15472296722E+04  0.15472296722E+04  0.50400001928E-02 0.  1.
    10030    2    1    2    0    0  0.00000000000E+00  0.00000000000E+00 -0.11015757288E+04  0.19928836155E+04  0.16607576641E+04 0.  0.
        4    1    3    3  502    0 -0.62236902588E+03  0.30645794853E+03 -0.31586031798E+01  0.69373717521E+03  0.12699999809E+01 0. -1.
       -4    1    3    3    0  502  0.62236902588E+03 -0.30645794853E+03 -0.10984171256E+04  0.12991464403E+04  0.12699999809E+01 0.  1.
</event>
<event>
 5   0  0.5299877E-04  0.1670632E+04  0.7818609E-02  0.8778293E-01
       -2   -1    0    0    0  501  0.00000000000E+00  0.00000000000E+00  0.14848968687E+04  0.14848968687E+04  0.25500000920E-02 0.  1.
        2   -1    0    0  501    0  0.00000000000E+00  0.00000000000E+00 -0.46989991697E+03  0.46989991697E+03  0.25500000920E-02 0. -1.
    10030    2    1    2    0    0  0.00000000000E+00  0.00000000000E+00  0.10149969517E+04  0.19547967857E+04  0.16706321143E+04 0.  0.
        3    1    3    3  502    0  0.43901157310E+03  0.68216469814E+03  0.74055898256E+03  0.10984113317E+04  0.10100000352E+00 0.  1.
       -3    1    3    3    0  502 -0.43901157310E+03 -0.68216469814E+03  0.27443796917E+03  0.85638545400E+03  0.10100000352E+00 0. -1.
</event>
<event>
 5   0  0.1910750E-04  0.1776926E+04  0.7818609E-02  0.8718667E-01
       -4   -1    0    0    0  501  0.00000000000E+00  0.00000000000E+00  0.10085565074E+04  0.10085573070E+04  0.12699999809E+01 0. -1.
        4   -1    0    0  501    0  0.00000000000E+00  0.00000000000E+00 -0.78266811274E+03  0.78266914313E+03  0.12699999809E+01 0.  1.
    10030    2    1    2    0    0  0.00000000000E+00  0.00000000000E+00  0.22588839469E+03  0.17912264502E+04  0.17769261743E+04 0.  0.
        4    1    3    3  502    0  0.14635822175E+03 -0.53395615715E+03  0.81339968621E+03  0.98394642601E+03  0.12699999809E+01 0. -1.
       -4    1    3    3    0  502 -0.14635822175E+03  0.53395615715E+03 -0.58751129152E+03  0.80728002415E+03  0.12699999809E+01 0.  1.
</event>
<event>
 5   0  0.5021349E-04  0.1697390E+04  0.7818609E-02  0.8762855E-01
        2   -1    0    0  501    0  0.00000000000E+00  0.00000000000E+00  0.15426415168E+04  0.15426415168E+04  0.25500000920E-02 0. -1.
       -2   -1    0    0    0  501  0.00000000000E+00  0.00000000000E+00 -0.46691529697E+03  0.46691529697E+03  0.25500000920E-02 0.  1.
    10030    2    1    2    0    0  0.00000000000E+00  0.00000000000E+00  0.10757262198E+04  0.20095568138E+04  0.16973896688E+04 0.  0.
        2    1    3    3  502    0 -0.44002599818E+02 -0.36125712124E+03 -0.36984934897E+03  0.51887520405E+03  0.25500000920E-02 0.  1.
       -2    1    3    3    0  502  0.44002599818E+02  0.36125712124E+03  0.14455755688E+04  0.14906816097E+04  0.25500000920E-02 0. -1.
</event>
<event>
 5   0  0.2583422E-04  0.1277308E+04  0.7818609E-02  0.9047756E-01
        1   -1    0    0  501    0  0.00000000000E+00  0.00000000000E+00  0.95209192554E+03  0.95209192555E+03  0.50400001928E-02 0. -1.
       -1   -1    0    0    0  501  0.00000000000E+00  0.00000000000E+00 -0.42840298162E+03  0.42840298165E+03  0.50400001928E-02 0.  1.
    10030    2    1    2    0    0  0.00000000000E+00  0.00000000000E+00  0.52368894392E+03  0.13804949072E+04  0.12773081378E+04 0.  0.
        3    1    3    3  502    0  0.11307702912E+03  0.46260777915E+03  0.72176451071E+03  0.86471752091E+03  0.10100000352E+00 0. -1.
       -3    1    3    3    0  502 -0.11307702912E+03 -0.46260777915E+03 -0.19807556679E+03  0.51577738629E+03  0.10100000352E+00 0.  1.
</event>
<event>
 5   0  0.5021349E-04  0.1765129E+04  0.7818609E-02  0.8725067E-01
        2   -1    0    0  501    0  0.00000000000E+00  0.00000000000E+00  0.14926264792E+04  0.14926264792E+04  0.25500000920E-02 0.  1.
       -2   -1    0    0    0  501  0.00000000000E+00  0.00000000000E+00 -0.52184511685E+03  0.52184511686E+03  0.25500000920E-02 0. -1.
    10030    2    1    2    0    0  0.00000000000E+00  0.00000000000E+00  0.97078136237E+03  0.20144715961E+04  0.17651287086E+04 0.  0.
        2    1    3    3  502    0 -0.67364151711E+03 -0.39697440496E+03  0.95252500581E+03  0.12323495683E+04  0.25500000920E-02 0.  1.
       -2    1    3    3    0  502  0.67364151711E+03  0.39697440496E+03  0.18256356555E+02  0.78212202778E+03  0.25500000920E-02 0. -1.
</event>
<event>
 5   0  0.2785059E-04  0.1795984E+04  0.7818609E-02  0.8708438E-01
       -1   -1    0    0    0  501  0.00000000000E+00  0.00000000000E+00  0.61779055767E+03  0.61779055769E+03  0.50400001928E-02 0. -1.
        1   -1    0    0  501    0  0.00000000000E+00  0.00000000000E+00 -0.13052800376E+04  0.13052800376E+04  0.50400001928E-02 0.  1.
    10030    2    1    2    0    0  0.00000000000E+00  0.00000000000E+00 -0.68748947988E+03  0.19230705953E+04  0.17959840560E+04 0.  0.
        5    1    3    3  502    0  0.18624593307E+03 -0.11623300087E+03  0.58859893644E+03  0.62822643693E+03  0.46999998093E+01 0. -1.
       -5    1    3    3    0  502 -0.18624593307E+03  0.11623300087E+03 -0.12760884163E+04  0.12948441583E+04  0.46999998093E+01 0.  1.
</event>
<event>
 5   0  0.2561518E-04  0.1677740E+04  0.7818609E-02  0.8774163E-01
       -1   -1    0    0    0  501  0.00000000000E+00  0.00000000000E+00  0.54395025205E+03  0.54395025207E+03  0.50400001928E-02 0.  1.
        1   -1    0    0  501    0  0.00000000000E+00  0.00000000000E+00 -0.12936900210E+04  0.12936900210E+04  0.50400001928E-02 0. -1.
    10030    2    1    2    0    0  0.00000000000E+00  0.00000000000E+00 -0.74973976893E+03  0.18376402731E+04  0.16777401623E+04 0.  0.
        4    1    3    3  502    0 -0.62962143275E+03 -0.30386424034E+03 -0.88267754184E+03  0.11260008352E+04  0.12699999809E+01 0. -1.
       -4    1    3    3    0  502  0.62962143275E+03  0.30386424034E+03  0.13293777291E+03  0.71163943785E+03  0.12699999809E+01 0.  1.
</event>
<event>
 5   0  0.5299877E-04  0.1729945E+04  0.7818609E-02  0.8744468E-01
       -2   -1    0    0    0  501  0.00000000000E+00  0.00000000000E+00  0.11959527662E+04  0.11959527662E+04  0.25500000920E-02 0. -1.
        2   -1    0    0  501    0  0.00000000000E+00  0.00000000000E+00 -0.62559113726E+03  0.62559113727E+03  0.25500000920E-02 0.  1.
    10030    2    1    2    0    0  0.00000000000E+00  0.00000000000E+00  0.57036162896E+03  0.18215439035E+04  0.17299450293E+04 0.  0.
        3    1    3    3  502    0 -0.35971577987E+03  0.77732872578E+03  0.15820524547E+03  0.87101337539E+03  0.10100000352E+00 0. -1.
       -3    1    3    3    0  502  0.35971577987E+03 -0.77732872578E+03  0.41215638349E+03  0.95053052811E+03  0.10100000352E+00 0.  1.
</event>
<event>
 5   0  0.2583422E-04  0.1695511E+04  0.7818609E-02  0.8763929E-01
        1   -1    0    0  501    0  0.00000000000E+00  0.00000000000E+00  0.96817390428E+03  0.96817390429E+03  0.50400001928E-02 0.  1.
       -1   -1    0    0    0  501  0.00000000000E+00  0.00000000000E+00 -0.74231471328E+03  0.74231471330E+03  0.50400001928E-02 0. -1.
    10030    2    1    2    0    0  0.00000000000E+00  0.00000000000E+00  0.22585919100E+03  0.17104886176E+04  0.16955114086E+04 0.  0.
        3    1    3    3  502    0  0.21435807926E+03 -0.38755096004E+03 -0.61632831802E+03  0.75895041904E+03  0.10100000352E+00 0. -1.
       -3    1    3    3    0  502 -0.21435807926E+03  0.38755096004E+03  0.84218750901E+03  0.95153819855E+03  0.10100000352E+00 0.  1.
</event>
<event>
 5   0  0.2595644E-04  0.1701122E+04  0.7818609E-02  0.8760725E-01
        1   -1    0    0  501    0  0.00000000000E+00  0.00000000000E+00  0.16084112414E+04  0.16084112414E+04  0.50400001928E-02 0.  1.
       -1   -1    0    0    0  501  0.00000000000E+00  0.00000000000E+00 -0.44979392018E+03  0.44979392021E+03  0.50400001928E-02 0. -1.
    10030    2    1    2    0    0  0.00000000000E+00  0.00000000000E+00  0.11586173212E+04  0.20582051616E+04  0.17011215096E+04 0.  0.
        2    1    3    3  502    0  0.50966204541E+03 -0.12075825596E+03 -0.23152620874E+03  0.57266250292E+03  0.25500000920E-02 0. -1.
       -2    1    3    3    0  502 -0.50966204541E+03  0.12075825596E+03  0.13901435300E+04  0.14855426587E+04  0.25500000920E-02 0.  1.
</event>
<event>
 5   0  0.2595644E-04  0.1708880E+04  0.7818609E-02  0.8756316E-01
        1   -1    0    0  501    0  0.00000000000E+00  0.00000000000E+00  0.18190871617E+04  0.18190871617E+04  0.50400001928E-02 0. -1.
       -1   -1    0    0    0  501  0.00000000000E+00  0.00000000000E+00 -0.40133754676E+03  0.40133754679E+03  0.50400001928E-02 0.  1.
    10030    2    1    2    0    0  0.00000000000E+00  0.00000000000E+00  0.14177496150E+04  0.22204247085E+04  0.17088803105E+04 0.  0.
        2    1    3    3  502    0 -0.43304051918E+03  0.55086193966E+03  0.13442198750E+04  0.15158825945E+04  0.25500000920E-02 0. -1.
       -2    1    3    3    0  502  0.43304051918E+03 -0.55086193966E+03  0.73529739950E+02  0.70454211405E+03  0.25500000920E-02 0.  1.
</event>
<event>
 5   0  0.5198430E-04  0.1715166E+04  0.7818609E-02  0.8752762E-01
       -2   -1    0    0    0  501  0.00000000000E+00  0.00000000000E+00  0.54694724743E+03  0.54694724743E+03  0.25500000920E-02 0.  1.
        2   -1    0    0  501    0  0.00000000000E+00  0.00000000000E+00 -0.13446428234E+04  0.13446428234E+04  0.25500000920E-02 0. -1.
    10030    2    1    2    0    0  0.00000000000E+00  0.00000000000E+00 -0.79769557593E+03  0.18915900708E+04  0.17151661039E+04 0.  0.
        4    1    3    3  502    0  0.74796758443E+03 -0.41840846302E+03 -0.43240683693E+03  0.95994710000E+03  0.12699999809E+01 0.  1.
       -4    1    3    3    0  502 -0.74796758443E+03  0.41840846302E+03 -0.36528873901E+03  0.93164297079E+03  0.12699999809E+01 0. -1.
</event>
<event>
 5   0  0.2561518E-04  0.1662190E+04  0.7818609E-02  0.8783228E-01
       -1   -1    0    0    0  501  0.00000000000E+00  0.00000000000E+00  0.84324278809E+03  0.84324278811E+03  0.50400001928E-02 0.  1.
        1   -1    0    0  501    0  0.00000000000E+00  0.00000000000E+00 -0.81912202322E+03  0.81912202324E+03  0.50400001928E-02 0. -1.
    10030    2    1    2    0    0  0.00000000000E+00  0.00000000000E+00  0.24120764870E+02  0.16623648113E+04  0.16621898071E+04 0.  0.
        4    1    3    3  502    0  0.29215544288E+03  0.23708458066E+03  0.75318713696E+03  0.84193608866E+03  0.12699999809E+01 0.  1.
       -4    1    3    3    0  502 -0.29215544288E+03 -0.23708458066E+03 -0.72906637209E+03  0.82042872269E+03  0.12699999809E+01 0. -1.
</event>
<event>
 5   0  0.2630135E-04  0.1613914E+04  0.7818609E-02  0.8812046E-01
        1   -1    0    0  501    0  0.00000000000E+00  0.00000000000E+00  0.12618907845E+04  0.12618907845E+04  0.50400001928E-02 0.  1.
       -1   -1    0    0    0  501  0.00000000000E+00  0.00000000000E+00 -0.51603465107E+03  0.51603465110E+03  0.50400001928E-02 0. -1.
    10030    2    1    2    0    0  0.00000000000E+00  0.00000000000E+00  0.74585613345E+03  0.17779254356E+04  0.16139137160E+04 0.  0.
        1    1    3    3  502    0  0.11340813078E+03 -0.77202197704E+03  0.59949868325E+03  0.98401118307E+03  0.50400001928E-02 0.  1.
       -1    1    3    3    0  502 -0.11340813078E+03  0.77202197704E+03  0.14635745020E+03  0.79391425256E+03  0.50400001928E-02 0. -1.
</event>
<event>
 5   0  0.5342255E-04  0.1767960E+04  0.7818609E-02  0.8723526E-01
        2   -1    0    0  501    0  0.00000000000E+00  0.00000000000E+00  0.13790129545E+04  0.13790129545E+04  0.25500000920E-02 0. -1.
       -2   -1    0    0    0  501  0.00000000000E+00  0.00000000000E+00 -0.56665225660E+03  0.56665225660E+03  0.25500000920E-02 0.  1.
    10030    2    1    2    0    0  0.00000000000E+00  0.00000000000E+00  0.81236069790E+03  0.19456652111E+04  0.17679601834E+04 0.  0.
        5    1    3    3  502    0 -0.12053840762E+03 -0.80235621702E+03  0.20068119759E+02  0.81162172601E+03  0.46999998093E+01 0.  1.
       -5    1    3    3    0  502  0.12053840762E+03  0.80235621702E+03  0.79229257814E+03  0.11340434851E+04  0.46999998093E+01 0. -1.
</event>
<event>
 5   0  0.5310003E-04  0.1491095E+04  0.7818609E-02  0.8890396E-01
        2   -1    0    0  501    0  0.00000000000E+00  0.00000000000E+00  0.73718868298E+03  0.73718868298E+03  0.25500000920E-02 0. -1.
       -2   -1    0    0    0  501  0.00000000000E+00  0.00000000000E+00 -0.75400096349E+03  0.75400096350E+03  0.25500000920E-02 0.  1.
    10030    2    1    2    0    0  0.00000000000E+00  0.00000000000E+00 -0.16812280517E+02  0.14911896465E+04  0.14910948692E+04 0.  0.
        1    1    3    3  502    0 -0.26014073069E+02  0.15918136658E+03 -0.73634356453E+03  0.75380188678E+03  0.50400001928E-02 0.  1.
       -1    1    3    3    0  502  0.26014073069E+02 -0.15918136658E+03  0.71953128401E+03  0.73738775970E+03  0.50400001928E-02 0. -1.
</event>
<event>
 5   0  0.5310003E-04  0.1674221E+04  0.7818609E-02  0.8776205E-01
        2   -1    0    0  501    0  0.00000000000E+00  0.00000000000E+00  0.19505228658E+04  0.19505228658E+04  0.25500000920E-02 0.  1.
       -2   -1    0    0    0  501  0.00000000000E+00  0.00000000000E+00 -0.35926463916E+03  0.35926463917E+03  0.25500000920E-02 0. -1.
    10030    2    1    2    0    0  0.00000000000E+00  0.00000000000E+00  0.15912582267E+04  0.23097875050E+04  0.16742208858E+04 0.  0.
        1    1    3    3  502    0 -0.18781839237E+03 -0.81430381174E+03  0.72821882836E+03  0.11084534759E+04  0.50400001928E-02 0.  1.
       -1    1    3    3    0  502  0.18781839237E+03  0.81430381174E+03  0.86303939832E+03  0.12013340291E+04  0.50400001928E-02 0. -1.
</event>
<event>
 5   0  0.2583422E-04  0.1735786E+04  0.7818609E-02  0.8741213E-01
        1   -1    0    0  501    0  0.00000000000E+00  0.00000000000E+00  0.11600482545E+04  0.11600482546E+04  0.50400001928E-02 0.  1.
       -1   -1    0    0    0  501  0.00000000000E+00  0.00000000000E+00 -0.64931623559E+03  0.64931623561E+03  0.50400001928E-02 0. -1.
    10030    2    1    2    0    0  0.00000000000E+00  0.00000000000E+00  0.51073201895E+03  0.18093644902E+04  0.17357858921E+04 0.  0.
        3    1    3    3  502    0 -0.43508511746E+03 -0.61550689962E+01  0.10381310520E+04  0.11256345036E+04  0.10100000352E+00 0.  1.
       -3    1    3    3    0  502  0.43508511746E+03  0.61550689962E+01 -0.52739903305E+03  0.68372998660E+03  0.10100000352E+00 0. -1.
</event>
<event>
 5   0  0.5342255E-04  0.1725772E+04  0.7818609E-02  0.8746801E-01
        2   -1    0    0  501    0  0.00000000000E+00  0.00000000000E+00  0.79406646606E+03  0.79406646606E+03  0.25500000920E-02 0. -1.
       -2   -1    0    0    0  501  0.00000000000E+00  0.00000000000E+00 -0.93766983568E+03  0.93766983568E+03  0.25500000920E-02 0.  1.
    10030    2    1    2    0    0  0.00000000000E+00  0.00000000000E+00 -0.14360336962E+03  0.17317363017E+04  0.17257719116E+04 0.  0.
        5    1    3    3  502    0  0.64454176963E+03  0.40431684997E+03  0.33659861791E+03  0.83200175934E+03  0.46999998093E+01 0. -1.
       -5    1    3    3    0  502 -0.64454176963E+03 -0.40431684997E+03 -0.48020198753E+03  0.89973454240E+03  0.46999998093E+01 0.  1.
</event>
<event>
 5   0  0.5021349E-04  0.1705003E+04  0.7818609E-02  0.8758516E-01
       -2   -1    0    0    0  501  0.00000000000E+00  0.00000000000E+00  0.44124241626E+03  0.44124241626E+03  0.25500000920E-02 0. -1.
        2   -1    0    0  501    0  0.00000000000E+00  0.00000000000E+00 -0.16470742289E+04  0.16470742289E+04  0.25500000920E-02 0.  1.
    10030    2    1    2    0    0  0.00000000000E+00  0.00000000000E+00 -0.12058318127E+04  0.20883166452E+04  0.17050032405E+04 0.  0.
        2    1    3    3  502    0 -0.49989655794E+03 -0.81769520904E+02  0.23693357289E+03  0.55921403877E+03  0.25500000920E-02 0. -1.
       -2    1    3    3    0  502  0.49989655794E+03  0.81769520904E+02 -0.14427653856E+04  0.15291026064E+04  0.25500000920E-02 0.  1.
</event>
<event>
 5   0  0.2785059E-04  0.1562338E+04  0.7818609E-02  0.8844025E-01
        1   -1    0    0  501    0  0.00000000000E+00  0.00000000000E+00  0.15765579785E+04  0.15765579785E+04  0.50400001928E-02 0. -1.
       -1   -1    0    0    0  501  0.00000000000E+00  0.00000000000E+00 -0.38706163395E+03  0.38706163398E+03  0.50400001928E-02 0.  1.
    10030    2    1    2    0    0  0.00000000000E+00  0.00000000000E+00  0.11894963445E+04  0.19636196125E+04  0.15623381289E+04 0.  0.
        5    1    3    3  502    0  0.15079482988E+02 -0.34475227706E+03  0.14755471461E+04  0.15153689299E+04  0.46999998093E+01 0. -1.
       -5    1    3    3    0  502 -0.15079482988E+02  0.34475227706E+03 -0.28605080157E+03  0.44825068257E+03  0.46999998093E+01 0.  1.
</event>
<event>
 5   0  0.5310003E-04  0.1697751E+04  0.7818609E-02  0.8762648E-01
        2   -1    0    0  501    0  0.00000000000E+00  0.00000000000E+00  0.60849637529E+03  0.60849637530E+03  0.25500000920E-02 0. -1.
       -2   -1    0    0    0  501  0.00000000000E+00  0.00000000000E+00 -0.11842130832E+04  0.11842130832E+04  0.25500000920E-02 0.  1.
    10030    2    1    2    0    0  0.00000000000E+00  0.00000000000E+00 -0.57571670793E+03  0.17927094585E+04  0.16977507105E+04 0.  0.
        1    1    3    3  502    0 -0.60018838728E+03  0.21600793045E+03  0.30356151146E+03  0.70642417676E+03  0.50400001928E-02 0. -1.
       -1    1    3    3    0  502  0.60018838728E+03 -0.21600793045E+03 -0.87927821940E+03  0.10862852818E+04  0.50400001928E-02 0.  1.
</event>
<event>
 5   0  0.5198430E-04  0.1724422E+04  0.7818609E-02  0.8747557E-01
       -2   -1    0    0    0  501  0.00000000000E+00  0.00000000000E+00  0.75034001605E+03  0.75034001606E+03  0.25500000920E-02 0.  1.
        2   -1    0    0  501    0  0.00000000000E+00  0.00000000000E+00 -0.99076077413E+03  0.99076077413E+03  0.25500000920E-02 0. -1.
    10030    2    1    2    0    0  0.00000000000E+00  0.00000000000E+00 -0.24042075808E+03  0.17411007902E+04  0.17244215902E+04 0.  0.
        4    1    3    3  502    0  0.47633173491E+03  0.37251262278E+03  0.50034665242E+03  0.78486047250E+03  0.12699999809E+01 0.  1.
       -4    1    3    3    0  502 -0.47633173491E+03 -0.37251262278E+03 -0.74076741049E+03  0.95624031768E+03  0.12699999809E+01 0. -1.
</event>
<event>
 5   0  0.5310003E-04  0.1576182E+04  0.7818609E-02  0.8835315E-01
        2   -1    0    0  501    0  0.00000000000E+00  0.00000000000E+00  0.82862651310E+03  0.82862651310E+03  0.25500000920E-02 0.  1.
       -2   -1    0    0    0  501  0.00000000000E+00  0.00000000000E+00 -0.74953872176E+03  0.74953872177E+03  0.25500000920E-02 0. -1.
    10030    2    1    2    0    0  0.00000000000E+00  0.00000000000E+00  0.79087791332E+02  0.15781652349E+04  0.15761822959E+04 0.  0.
        1    1    3    3  502    0 -0.49663746981E+03  0.60965324651E+03  0.92162841368E+02  0.79171955057E+03  0.50400001928E-02 0.  1.
       -1    1    3    3    0  502  0.49663746981E+03 -0.60965324651E+03 -0.13075050036E+02  0.78644568430E+03  0.50400001928E-02 0. -1.
</event>
<event>
 5   0  0.5021349E-04  0.1716397E+04  0.7818609E-02  0.8752067E-01
       -2   -1    0    0    0  501  0.00000000000E+00  0.00000000000E+00  0.47685727423E+03  0.47685727424E+03  0.25500000920E-02 0. -1.
        2   -1    0    0  501    0  0.00000000000E+00  0.00000000000E+00 -0.15444970711E+04  0.15444970711E+04  0.25500000920E-02 0.  1.
    10030    2    1    2    0    0  0.00000000000E+00  0.00000000000E+00 -0.10676397969E+04  0.20213543454E+04  0.17163969977E+04 0.  0.
        2    1    3    3  502    0  0.46984577102E+03 -0.36321034656E+03  0.19579375590E+03  0.62530952276E+03  0.25500000920E-02 0. -1.
       -2    1    3    3    0  502 -0.46984577102E+03  0.36321034656E+03 -0.12634335528E+04  0.13960448226E+04  0.25500000920E-02 0.  1.
</event>
<event>
 5   0  0.2595644E-04  0.1703362E+04  0.7818609E-02  0.8759449E-01
       -1   -1    0    0    0  501  0.00000000000E+00  0.00000000000E+00  0.68902216986E+03  0.68902216988E+03  0.50400001928E-02 0. -1.
        1   -1    0    0  501    0  0.00000000000E+00  0.00000000000E+00 -0.10527386106E+04  0.10527386106E+04  0.50400001928E-02 0.  1.
    10030    2    1    2    0    0  0.00000000000E+00  0.00000000000E+00 -0.36371644073E+03  0.17417607805E+04  0.17033616666E+04 0.  0.
        2    1    3    3  502    0  0.41109708812E+03 -0.66426674718E+03 -0.52878393726E+03  0.94332580775E+03  0.25500000920E-02 0.  1.
       -2    1    3    3    0  502 -0.41109708812E+03  0.66426674718E+03  0.16506749653E+03  0.79843497273E+03  0.25500000920E-02 0. -1.
</event>
<event>
 5   0  0.2595644E-04  0.1663397E+04  0.7818609E-02  0.8782520E-01
       -1   -1    0    0    0  501  0.00000000000E+00  0.00000000000E+00  0.13687647997E+04  0.13687647997E+04  0.50400001928E-02 0. -1.
        1   -1    0    0  501    0  0.00000000000E+00  0.00000000000E+00 -0.50536242074E+03  0.50536242076E+03  0.50400001928E-02 0.  1.
    10030    2    1    2    0    0  0.00000000000E+00  0.00000000000E+00  0.86340237900E+03  0.18741272205E+04  0.16633968771E+04 0.  0.
        2    1    3    3  502    0  0.17744462457E+03 -0.48460829892E+03  0.11665484464E+04  0.12756045924E+04  0.25500000920E-02 0. -1.
       -2    1    3    3    0  502 -0.17744462457E+03  0.48460829892E+03 -0.30314606745E+03  0.59852262813E+03  0.25500000920E-02 0.  1.
</event>
<event>
 5   0  0.5310003E-04  0.1675830E+04  0.7818609E-02  0.8775271E-01
        2   -1    0    0  501    0  0.00000000000E+00  0.00000000000E+00  0.11061820783E+04  0.11061820783E+04  0.25500000920E-02 0.  1.
       -2   -1    0    0    0  501  0.00000000000E+00  0.00000000000E+00 -0.63470678334E+03  0.63470678335E+03  0.25500000920E-02 0. -1.
    10030    2    1    2    0    0  0.00000000000E+00  0.00000000000E+00  0.47147529497E+03  0.17408888617E+04  0.16758296676E+04 0.  0.
        1    1    3    3  502    0  0.48795232028E+03 -0.15035114187E+03  0.92590834706E+03  0.10573595415E+04  0.50400001928E-02 0.  1.
       -1    1    3    3    0  502 -0.48795232028E+03  0.15035114187E+03 -0.45443305209E+03  0.68352932021E+03  0.50400001928E-02 0. -1.
</event>
<event>
 5   0  0.2630135E-04  0.1682976E+04  0.7818609E-02  0.8771134E-01
        1   -1    0    0  501    0  0.00000000000E+00  0.00000000000E+00  0.14787719134E+04  0.14787719134E+04  0.50400001928E-02 0. -1.
       -1   -1    0    0    0  501  0.00000000000E+00  0.00000000000E+00 -0.47884452760E+03  0.47884452763E+03  0.50400001928E-02 0.  1.
    10030    2    1    2    0    0  0.00000000000E+00  0.00000000000E+00  0.99992738578E+03  0.19576164410E+04  0.16829757435E+04 0.  0.
        1    1    3    3  502    0 -0.35971426530E+03 -0.15753636869E+03 -0.36572435688E+03  0.53662497645E+03  0.50400001928E-02 0.  1.
       -1    1    3    3    0  502  0.35971426530E+03  0.15753636869E+03  0.13656517427E+04  0.14209914646E+04  0.50400001928E-02 0. -1.
</event>
<event>
 5   0  0.2785059E-04  0.1726849E+04  0.7818609E-02  0.8746198E-01
       -1   -1    0    0    0  501  0.00000000000E+00  0.00000000000E+00  0.45008578136E+03  0.45008578138E+03  0.50400001928E-02 0.  1.
        1   -1    0    0  501    0  0.00000000000E+00  0.00000000000E+00 -0.16563545063E+04  0.16563545063E+04  0.50400001928E-02 0. -1.
    10030    2    1    2    0    0  0.00000000000E+00  0.00000000000E+00 -0.12062687250E+04  0.21064402877E+04  0.17268487047E+04 0.  0.
        5    1    3    3  502    0 -0.63683392635E+03 -0.29084587899E+03  0.13242632731E+02  0.70024726518E+03  0.46999998093E+01 0.  1.
       -5    1    3    3    0  502  0.63683392635E+03  0.29084587899E+03 -0.12195113577E+04  0.14061930225E+04  0.46999998093E+01 0. -1.
</event>
<event>
 5   0  0.5310003E-04  0.1694793E+04  0.7818609E-02  0.8764340E-01
        2   -1    0    0  501    0  0.00000000000E+00  0.00000000000E+00  0.68196515521E+03  0.68196515521E+03  0.25500000920E-02 0. -1.
       -2   -1    0    0    0  501  0.00000000000E+00  0.00000000000E+00 -0.10529581204E+04  0.10529581204E+04  0.25500000920E-02 0.  1.
    10030    2    1    2    0    0  0.00000000000E+00  0.00000000000E+00 -0.37099296523E+03  0.17349232757E+04  0.16947929054E+04 0.  0.
        1    1    3    3  502    0  0.50703584213E+02 -0.80527118379E+03  0.79571484129E+02  0.81077996646E+03  0.50400001928E-02 0. -1.
       -1    1    3    3    0  502 -0.50703584213E+02  0.80527118379E+03 -0.45056444936E+03  0.92414330920E+03  0.50400001928E-02 0.  1.
</event>
<event>
 5   0  0.2561518E-04  0.1653048E+04  0.7818609E-02  0.8788605E-01
        1   -1    0    0  501    0  0.00000000000E+00  0.00000000000E+00  0.15024268840E+04  0.15024268840E+04  0.50400001928E-02 0.  1.
       -1   -1    0    0    0  501  0.00000000000E+00  0.00000000000E+00 -0.45469242918E+03  0.45469242920E+03  0.50400001928E-02 0. -1.
    10030    2    1    2    0    0  0.00000000000E+00  0.00000000000E+00  0.10477344548E+04  0.19571193132E+04  0.16530482504E+04 0.  0.
        4    1    3    3  502    0 -0.99074793871E+02  0.30751450360E+03 -0.37683419950E+03  0.49637345972E+03  0.12699999809E+01 0. -1.
       -4    1    3    3    0  502  0.99074793871E+02 -0.30751450360E+03  0.14245686543E+04  0.14607458535E+04  0.12699999809E+01 0.  1.
</event>
<event>
 5   0  0.5021349E-04  0.1723174E+04  0.7818609E-02  0.8748257E-01
       -2   -1    0    0    0  501  0.00000000000E+00  0.00000000000E+00  0.62270332124E+03  0.62270332125E+03  0.25500000920E-02 0. -1.
        2   -1    0    0  501    0  0.00000000000E+00  0.00000000000E+00 -0.11921120918E+04  0.11921120918E+04  0.25500000920E-02 0.  1.
    10030    2    1    2    0    0  0.00000000000E+00  0.00000000000E+00 -0.56940877057E+03  0.18148154131E+04  0.17231740004E+04 0.  0.
        2    1    3    3  502    0 -0.80855783257E+03 -0.23053038271E+03 -0.48292128532E+03  0.96959939861E+03  0.25500000920E-02 0. -1.
       -2    1    3    3    0  502  0.80855783257E+03  0.23053038271E+03 -0.86487485247E+02  0.84521601445E+03  0.25500000920E-02 0.  1.
</event>
<event>
 5   0  0.2561518E-04  0.1700216E+04  0.7818609E-02  0.8761241E-01
       -1   -1    0    0    0  501  0.00000000000E+00  0.00000000000E+00  0.92564472381E+03  0.92564472382E+03  0.50400001928E-02 0.  1.
        1   -1    0    0  501    0  0.00000000000E+00  0.00000000000E+00 -0.78073522437E+03  0.78073522439E+03  0.50400001928E-02 0. -1.
    10030    2    1    2    0    0  0.00000000000E+00  0.00000000000E+00  0.14490949944E+03  0.17063799482E+04  0.17002157994E+04 0.  0.
        4    1    3    3  502    0 -0.57696130751E+03  0.18686723403E+03 -0.52542149786E+03  0.80241702178E+03  0.12699999809E+01 0. -1.
       -4    1    3    3    0  502  0.57696130751E+03 -0.18686723403E+03  0.67033099730E+03  0.90396292643E+03  0.12699999809E+01 0.  1.
</event>
<event>
 5   0  0.2630135E-04  0.1693180E+04  0.7818609E-02  0.8765264E-01
       -1   -1    0    0    0  501  0.00000000000E+00  0.00000000000E+00  0.71298027208E+03  0.71298027210E+03  0.50400001928E-02 0. -1.
        1   -1    0    0  501    0  0.00000000000E+00  0.00000000000E+00 -0.10052375482E+04  0.10052375482E+04  0.50400001928E-02 0.  1.
    10030    2    1    2    0    0  0.00000000000E+00  0.00000000000E+00 -0.29225727610E+03  0.17182178203E+04  0.16931798967E+04 0.  0.
        1    1    3    3  502    0 -0.39334985410E+03  0.71374558604E+03  0.86516067147E+02  0.81953761305E+03  0.50400001928E-02 0. -1.
       -1    1    3    3    0  502  0.39334985410E+03 -0.71374558604E+03 -0.37877334325E+03  0.89868020724E+03  0.50400001928E-02 0.  1.
</event>
<event>
 5   0  0.5342255E-04  0.1759729E+04  0.7818609E-02  0.8728013E-01
        2   -1    0    0  501    0  0.00000000000E+00  0.00000000000E+00  0.97399266296E+03  0.97399266297E+03  0.25500000920E-02 0.  1.
       -2   -1    0    0    0  501  0.00000000000E+00  0.00000000000E+00 -0.79483327305E+03  0.79483327305E+03  0.25500000920E-02 0. -1.
    10030    2    1    2    0    0  0.00000000000E+00  0.00000000000E+00  0.17915938991E+03  0.17688259360E+04  0.17597292704E+04 0.  0.
        5    1    3    3  502    0 -0.32533252518E+03  0.64231505507E+03  0.59789116875E+03  0.93589840345E+03  0.46999998093E+01 0.  1.
       -5    1    3    3    0  502  0.32533252518E+03 -0.64231505507E+03 -0.41873177884E+03  0.83292753257E+03  0.46999998093E+01 0. -1.
</event>
<event>
 5   0  0.2583422E-04  0.1691643E+04  0.7818609E-02  0.8766145E-01
        1   -1    0    0  501    0  0.00000000000E+00  0.00000000000E+00  0.91167742600E+03  0.91167742601E+03  0.50400001928E-02 0.  1.
       -1   -1    0    0    0  501  0.00000000000E+00  0.00000000000E+00 -0.78472282583E+03  0.78472282585E+03  0.50400001928E-02 0. -1.
    10030    2    1    2    0    0  0.00000000000E+00  0.00000000000E+00  0.12695460016E+03  0.16964002519E+04  0.16916430900E+04 0.  0.
        3    1    3    3  502    0  0.28783851055E+03  0.32627090941E+03  0.79085170795E+03  0.90263511379E+03  0.10100000352E+00 0.  1.
       -3    1    3    3    0  502 -0.28783851055E+03 -0.32627090941E+03 -0.66389710779E+03  0.79376513807E+03  0.10100000352E+00 0. -1.
</event>
<event>
 5   0  0.2583422E-04  0.1706177E+04  0.7818609E-02  0.8757849E-01
       -1   -1    0    0    0  501  0.00000000000E+00  0.00000000000E+00  0.30853930463E+04  0.30853930463E+04  0.50400001928E-02 0. -1.
        1   -1    0    0  501    0  0.00000000000E+00  0.00000000000E+00 -0.23587264688E+03  0.23587264693E+03  0.50400001928E-02 0.  1.
    10030    2    1    2    0    0  0.00000000000E+00  0.00000000000E+00  0.28495203994E+04  0.33212656932E+04  0.17061768075E+04 0.  0.
        3    1    3    3  502    0  0.81126034620E+03 -0.78714762946E+02  0.19149838381E+04  0.20812261947E+04  0.10100000352E+00 0. -1.
       -3    1    3    3    0  502 -0.81126034620E+03  0.78714762946E+02  0.93453656131E+03  0.12400394985E+04  0.10100000352E+00 0.  1.
</event>
<event>
 5   0  0.5021349E-04  0.1715434E+04  0.7818609E-02  0.8752610E-01
       -2   -1    0    0    0  501  0.00000000000E+00  0.00000000000E+00  0.58669837550E+03  0.58669837550E+03  0.25500000920E-02 0.  1.
        2   -1    0    0  501    0  0.00000000000E+00  0.00000000000E+00 -0.12539294007E+04  0.12539294007E+04  0.25500000920E-02 0. -1.
    10030    2    1    2    0    0  0.00000000000E+00  0.00000000000E+00 -0.66723102525E+03  0.18406277763E+04  0.17154338721E+04 0.  0.
        2    1    3    3  502    0 -0.76214512464E+03 -0.28978616941E+03 -0.48039016328E+02  0.81679187196E+03  0.25500000920E-02 0.  1.
       -2    1    3    3    0  502  0.76214512464E+03  0.28978616941E+03 -0.61919200892E+03  0.10238359043E+04  0.25500000920E-02 0. -1.
</event>
<event>
 5   0  0.5198430E-04  0.1415108E+04  0.7818609E-02  0.8942954E-01
       -2   -1    0    0    0  501  0.00000000000E+00  0.00000000000E+00  0.57579729170E+03  0.57579729170E+03  0.25500000920E-02 0. -1.
        2   -1    0    0  501    0  0.00000000000E+00  0.00000000000E+00 -0.86946016178E+03  0.86946016178E+03  0.25500000920E-02 0.  1.
    10030    2    1    2    0    0  0.00000000000E+00  0.00000000000E+00 -0.29366287008E+03  0.14452574535E+04  0.14151082028E+04 0.  0.
        4    1    3    3  502    0  0.39732035343E+03  0.42734372804E+03 -0.55553869663E+03  0.80567424031E+03  0.12699999809E+01 0.  1.
       -4    1    3    3    0  502 -0.39732035343E+03 -0.42734372804E+03  0.26187582655E+03  0.63958321317E+03  0.12699999809E+01 0. -1.
</event>
<event>
 5   0  0.2583422E-04  0.1712618E+04  0.7818609E-02  0.8754201E-01
        1   -1    0    0  501    0  0.00000000000E+00  0.00000000000E+00  0.12516727270E+04  0.12516727270E+04  0.50400001928E-02 0. -1.
       -1   -1    0    0    0  501  0.00000000000E+00  0.00000000000E+00 -0.58582788675E+03  0.58582788677E+03  0.50400001928E-02 0.  1.
    10030    2    1    2    0    0  0.00000000000E+00  0.00000000000E+00  0.66584484023E+03  0.18375006138E+04  0.17126176323E+04 0.  0.
        3    1    3    3  502    0  0.34648110370E+03  0.24689740415E+03 -0.46440704292E+03  0.62982648017E+03  0.10100000352E+00 0.  1.
       -3    1    3    3    0  502 -0.34648110370E+03 -0.24689740415E+03  0.11302518832E+04  0.12076741336E+04  0.10100000352E+00 0. -1.
</event>
<event>
 5   0  0.5021349E-04  0.1326008E+04  0.7818609E-02  0.9009191E-01
        2   -1    0    0  501    0  0.00000000000E+00  0.00000000000E+00  0.40726241531E+03  0.40726241532E+03  0.25500000920E-02 0. -1.
       -2   -1    0    0    0  501  0.00000000000E+00  0.00000000000E+00 -0.10793396527E+04  0.10793396527E+04  0.25500000920E-02 0.  1.
    10030    2    1    2    0    0  0.00000000000E+00  0.00000000000E+00 -0.67207723735E+03  0.14866020680E+04  0.13260082562E+04 0.  0.
        2    1    3    3  502    0 -0.38764887424E+03 -0.10566913360E+03  0.25522039818E+03  0.47599902011E+03  0.25500000920E-02 0. -1.
       -2    1    3    3    0  502  0.38764887424E+03  0.10566913360E+03 -0.92729763553E+03  0.10106030479E+04  0.25500000920E-02 0.  1.
</event>
<event>
 5   0  0.5198430E-04  0.1715091E+04  0.7818609E-02  0.8752804E-01
       -2   -1    0    0    0  501  0.00000000000E+00  0.00000000000E+00  0.58786881749E+03  0.58786881749E+03  0.25500000920E-02 0. -1.
        2   -1    0    0  501    0  0.00000000000E+00  0.00000000000E+00 -0.12509325847E+04  0.12509325847E+04  0.25500000920E-02 0.  1.
    10030    2    1    2    0    0  0.00000000000E+00  0.00000000000E+00 -0.66306376719E+03  0.18388014022E+04  0.17150909706E+04 0.  0.
        4    1    3    3  502    0 -0.72418092673E+03  0.25962286407E+03  0.74663557406E+02  0.77292839635E+03  0.12699999809E+01 0. -1.
       -4    1    3    3    0  502  0.72418092673E+03 -0.25962286407E+03 -0.73772732459E+03  0.10658730058E+04  0.12699999809E+01 0.  1.
</event>
<event>
 5   0  0.5299877E-04  0.1698197E+04  0.7818609E-02  0.8762393E-01
       -2   -1    0    0    0  501  0.00000000000E+00  0.00000000000E+00  0.52982539781E+03  0.52982539782E+03  0.25500000920E-02 0.  1.
        2   -1    0    0  501    0  0.00000000000E+00  0.00000000000E+00 -0.13607655932E+04  0.13607655932E+04  0.25500000920E-02 0. -1.
    10030    2    1    2    0    0  0.00000000000E+00  0.00000000000E+00 -0.83094019538E+03  0.18905909910E+04  0.16981968929E+04 0.  0.
        3    1    3    3  502    0 -0.23464094503E+02  0.10099237593E+03  0.52275149066E+03  0.53293447526E+03  0.10100000352E+00 0.  1.
       -3    1    3    3    0  502  0.23464094503E+02 -0.10099237593E+03 -0.13536916860E+04  0.13576565158E+04  0.10100000352E+00 0. -1.
</event>
<event>
 5   0  0.2583422E-04  0.1753053E+04  0.7818609E-02  0.8731672E-01
       -1   -1    0    0    0  501  0.00000000000E+00  0.00000000000E+00  0.37449700530E+03  0.37449700534E+03  0.50400001928E-02 0.  1.
        1   -1    0    0  501    0  0.00000000000E+00  0.00000000000E+00 -0.20515473002E+04  0.20515473002E+04  0.50400001928E-02 0. -1.
    10030    2    1    2    0    0  0.00000000000E+00  0.00000000000E+00 -0.16770502949E+04  0.24260443055E+04  0.17530525608E+04 0.  0.
        3    1    3    3  502    0  0.19876722312E+03  0.34953060110E+03  0.23933280393E+03  0.46793188749E+03  0.10100000352E+00 0.  1.
       -3    1    3    3    0  502 -0.19876722312E+03 -0.34953060110E+03 -0.19163830988E+04  0.19581124180E+04  0.10100000352E+00 0. -1.
</event>
<event>
 5   0  0.5021349E-04  0.1780281E+04  0.7818609E-02  0.8716857E-01
        2   -1    0    0  501    0  0.00000000000E+00  0.00000000000E+00  0.15721005869E+04  0.15721005869E+04  0.25500000920E-02 0.  1.
       -2   -1    0    0    0  501  0.00000000000E+00  0.00000000000E+00 -0.50400698379E+03  0.50400698380E+03  0.25500000920E-02 0. -1.
    10030    2    1    2    0    0  0.00000000000E+00  0.00000000000E+00  0.10680936031E+04  0.20761075707E+04  0.17802805116E+04 0.  0.
        2    1    3    3  502    0  0.73119029892E+03  0.50740404681E+03  0.51555079609E+03  0.10285381584E+04  0.25500000920E-02 0.  1.
       -2    1    3    3    0  502 -0.73119029892E+03 -0.50740404681E+03  0.55254280700E+03  0.10475694123E+04  0.25500000920E-02 0. -1.
</event>
<event>
 5   0  0.2785059E-04  0.1680291E+04  0.7818609E-02  0.8772686E-01
        1   -1    0    0  501    0  0.00000000000E+00  0.00000000000E+00  0.93087280270E+03  0.93087280272E+03  0.50400001928E-02 0.  1.
       -1   -1    0    0    0  501  0.00000000000E+00  0.00000000000E+00 -0.75826102739E+03  0.75826102741E+03  0.50400001928E-02 0. -1.
    10030    2    1    2    0    0  0.00000000000E+00  0.00000000000E+00  0.17261177531E+03  0.16891338301E+04  0.16802911269E+04 0.  0.
        5    1    3    3  502    0 -0.50052374414E+03 -0.36013990696E+03 -0.48730870977E+03  0.78594951469E+03  0.46999998093E+01 0. -1.
       -5    1    3    3    0  502  0.50052374414E+03  0.36013990696E+03  0.65992048508E+03  0.90318431544E+03  0.46999998093E+01 0.  1.
</event>
<event>
 5   0  0.2561518E-04  0.1695891E+04  0.7818609E-02  0.8763712E-01
       -1   -1    0    0    0  501  0.00000000000E+00  0.00000000000E+00  0.45313744550E+03  0.45313744553E+03  0.50400001928E-02 0. -1.
        1   -1    0    0  501    0  0.00000000000E+00  0.00000000000E+00 -0.15867400415E+04  0.15867400415E+04  0.50400001928E-02 0.  1.
    10030    2    1    2    0    0  0.00000000000E+00  0.00000000000E+00 -0.11336025960E+04  0.20398774870E+04  0.16958907148E+04 0.  0.
        4    1    3    3  502    0  0.80439473573E+03  0.95197875567E+02 -0.26514083648E+03  0.85229971398E+03  0.12699999809E+01 0. -1.
       -4    1    3    3    0  502 -0.80439473573E+03 -0.95197875567E+02 -0.86846175947E+03  0.11875777730E+04  0.12699999809E+01 0.  1.
</event>
<event>
 5   0  0.5021349E-04  0.1684875E+04  0.7818609E-02  0.8770038E-01
        2   -1    0    0  501    0  0.00000000000E+00  0.00000000000E+00  0.64234025129E+03  0.64234025129E+03  0.25500000920E-02 0. -1.
       -2   -1    0    0    0  501  0.00000000000E+00  0.00000000000E+00 -0.11048674337E+04  0.11048674337E+04  0.25500000920E-02 0.  1.
    10030    2    1    2    0    0  0.00000000000E+00  0.00000000000E+00 -0.46252718246E+03  0.17472076850E+04  0.16848748619E+04 0.  0.
        2    1    3    3  502    0 -0.60099768463E+03  0.20457937726E+03 -0.80550999578E+03  0.10256204424E+04  0.25500000920E-02 0.  1.
       -2    1    3    3    0  502  0.60099768463E+03 -0.20457937726E+03  0.34298281331E+03  0.72158724266E+03  0.25500000920E-02 0. -1.
</event>
<event>
 5   0  0.2785059E-04  0.1674221E+04  0.7818609E-02  0.8776205E-01
        1   -1    0    0  501    0  0.00000000000E+00  0.00000000000E+00  0.11529931544E+04  0.11529931544E+04  0.50400001928E-02 0.  1.
       -1   -1    0    0    0  501  0.00000000000E+00  0.00000000000E+00 -0.60776954185E+03  0.60776954188E+03  0.50400001928E-02 0. -1.
    10030    2    1    2    0    0  0.00000000000E+00  0.00000000000E+00  0.54522361252E+03  0.17607626963E+04  0.16742211577E+04 0.  0.
        5    1    3    3  502    0 -0.44009859170E+03 -0.10943718131E+02  0.10214018652E+04  0.11122456543E+04  0.46999998093E+01 0.  1.
       -5    1    3    3    0  502  0.44009859170E+03  0.10943718131E+02 -0.47617825266E+03  0.64851704194E+03  0.46999998093E+01 0. -1.
</event>
<event>
 5   0  0.2583422E-04  0.1786875E+04  0.7818609E-02  0.8713310E-01
        1   -1    0    0  501    0  0.00000000000E+00  0.00000000000E+00  0.91915660258E+03  0.91915660259E+03  0.50400001928E-02 0. -1.
       -1   -1    0    0    0  501  0.00000000000E+00  0.00000000000E+00 -0.86843841422E+03  0.86843841424E+03  0.50400001928E-02 0.  1.
    10030    2    1    2    0    0  0.00000000000E+00  0.00000000000E+00  0.50718188356E+02  0.17875950168E+04  0.17868753761E+04 0.  0.
        3    1    3    3  502    0 -0.47566729160E+03  0.16357959046E+03  0.76404203087E+03  0.91475564489E+03  0.10100000352E+00 0. -1.
       -3    1    3    3    0  502  0.47566729160E+03 -0.16357959046E+03 -0.71332384251E+03  0.87283937194E+03  0.10100000352E+00 0.  1.
</event>
<event>
 5   0  0.2583422E-04  0.1721323E+04  0.7818609E-02  0.8749295E-01
        1   -1    0    0  501    0  0.00000000000E+00  0.00000000000E+00  0.10125424326E+04  0.10125424326E+04  0.50400001928E-02 0.  1.
       -1   -1    0    0    0  501  0.00000000000E+00  0.00000000000E+00 -0.73156298381E+03  0.73156298383E+03  0.50400001928E-02 0. -1.
    10030    2    1    2    0    0  0.00000000000E+00  0.00000000000E+00  0.28097944882E+03  0.17441054165E+04  0.17213234017E+04 0.  0.
        3    1    3    3  502    0  0.62624194214E+03 -0.49163846405E+02  0.73661525259E+03  0.96808992063E+03  0.10100000352E+00 0.  1.
       -3    1    3    3    0  502 -0.62624194214E+03  0.49163846405E+02 -0.45563580377E+03  0.77601549583E+03  0.10100000352E+00 0. -1.
</event>
<event>
 5   0  0.2595644E-04  0.1538842E+04  0.7818609E-02  0.8859026E-01
       -1   -1    0    0    0  501  0.00000000000E+00  0.00000000000E+00  0.66205848091E+03  0.66205848093E+03  0.50400001928E-02 0.  1.
        1   -1    0    0  501    0  0.00000000000E+00  0.00000000000E+00 -0.89419434174E+03  0.89419434176E+03  0.50400001928E-02 0. -1.
    10030    2    1    2    0    0  0.00000000000E+00  0.00000000000E+00 -0.23213586083E+03  0.15562528227E+04  0.15388423539E+04 0.  0.
        2    1    3    3  502    0 -0.65671492421E+03 -0.13624440141E+03  0.26525501051E+03  0.72124700984E+03  0.25500000920E-02 0.  1.
       -2    1    3    3    0  502  0.65671492421E+03  0.13624440141E+03 -0.49739087134E+03  0.83500581285E+03  0.25500000920E-02 0. -1.
</event>
<event>
 5   0  0.5342255E-04  0.1713255E+04  0.7818609E-02  0.8753840E-01
       -2   -1    0    0    0  501  0.00000000000E+00  0.00000000000E+00  0.35939248710E+03  0.35939248711E+03  0.25500000920E-02 0.  1.
        2   -1    0    0  501    0  0.00000000000E+00  0.00000000000E+00 -0.20418097987E+04  0.20418097987E+04  0.25500000920E-02 0. -1.
    10030    2    1    2    0    0  0.00000000000E+00  0.00000000000E+00 -0.16824173116E+04  0.24012022858E+04  0.17132554996E+04 0.  0.
        5    1    3    3  502    0  0.27917895760E+03 -0.76599867423E+03 -0.12096151358E+04  0.14587274337E+04  0.46999998093E+01 0.  1.
       -5    1    3    3    0  502 -0.27917895760E+03  0.76599867423E+03 -0.47280217582E+03  0.94247485205E+03  0.46999998093E+01 0. -1.
</event>
<event>
 5   0  0.2561518E-04  0.1719799E+04  0.7818609E-02  0.8750152E-01
       -1   -1    0    0    0  501  0.00000000000E+00  0.00000000000E+00  0.35277649388E+03  0.35277649391E+03  0.50400001928E-02 0. -1.
        1   -1    0    0  501    0  0.00000000000E+00  0.00000000000E+00 -0.20960214443E+04  0.20960214443E+04  0.50400001928E-02 0.  1.
    10030    2    1    2    0    0  0.00000000000E+00  0.00000000000E+00 -0.17432449504E+04  0.24487979382E+04  0.17197989374E+04 0.  0.
        4    1    3    3  502    0 -0.66153651104E+03  0.41882917094E+03 -0.13778076104E+04  0.15847409422E+04  0.12699999809E+01 0.  1.
       -4    1    3    3    0  502  0.66153651104E+03 -0.41882917094E+03 -0.36543733998E+03  0.86405699593E+03  0.12699999809E+01 0. -1.
</event>
<event>
 5   0  0.2583422E-04  0.1730942E+04  0.7818609E-02  0.8743911E-01
        1   -1    0    0  501    0  0.00000000000E+00  0.00000000000E+00  0.74216823954E+03  0.74216823956E+03  0.50400001928E-02 0.  1.
       -1   -1    0    0    0  501  0.00000000000E+00  0.00000000000E+00 -0.10092585528E+04  0.10092585528E+04  0.50400001928E-02 0. -1.
    10030    2    1    2    0    0  0.00000000000E+00  0.00000000000E+00 -0.26709031323E+03  0.17514267923E+04  0.17309415280E+04 0.  0.
        3    1    3    3  502    0 -0.26798427454E+03  0.69851344807E+03 -0.57378400940E+03  0.94284924998E+03  0.10100000352E+00 0. -1.
       -3    1    3    3    0  502  0.26798427454E+03 -0.69851344807E+03  0.30669369617E+03  0.80857754236E+03  0.10100000352E+00 0.  1.
</event>
<event>
 5   0  0.5021349E-04  0.1684569E+04  0.7818609E-02  0.8770214E-01
        2   -1    0    0  501    0  0.00000000000E+00  0.00000000000E+00  0.78948437908E+03  0.78948437908E+03  0.25500000920E-02 0. -1.
       -2   -1    0    0    0  501  0.00000000000E+00  0.00000000000E+00 -0.89861623033E+03  0.89861623033E+03  0.25500000920E-02 0.  1.
    10030    2    1    2    0    0  0.00000000000E+00  0.00000000000E+00 -0.10913185125E+03  0.16881006094E+04  0.16845693534E+04 0.  0.
        2    1    3    3  502    0 -0.37817044996E+02 -0.31406290817E+03  0.72769701959E+03  0.79347879084E+03  0.25500000920E-02 0. -1.
       -2    1    3    3    0  502  0.37817044996E+02  0.31406290817E+03 -0.83682887085E+03  0.89462181857E+03  0.25500000920E-02 0.  1.
</event>
<event>
 5   0  0.2595644E-04  0.1694288E+04  0.7818609E-02  0.8764629E-01
        1   -1    0    0  501    0  0.00000000000E+00  0.00000000000E+00  0.12751149836E+04  0.12751149836E+04  0.50400001928E-02 0. -1.
       -1   -1    0    0    0  501  0.00000000000E+00  0.00000000000E+00 -0.56281444775E+03  0.56281444777E+03  0.50400001928E-02 0.  1.
    10030    2    1    2    0    0  0.00000000000E+00  0.00000000000E+00  0.71230053587E+03  0.18379294314E+04  0.16942882109E+04 0.  0.
        2    1    3    3  502    0  0.17110484411E+03 -0.79389440633E+03  0.94657741930E+02  0.81762172439E+03  0.25500000920E-02 0.  1.
       -2    1    3    3    0  502 -0.17110484411E+03  0.79389440633E+03  0.61764279394E+03  0.10203077070E+04  0.25500000920E-02 0. -1.
</event>
<event>
 5   0  0.5342255E-04  0.1722897E+04  0.7818609E-02  0.8748412E-01
        2   -1    0    0  501    0  0.00000000000E+00  0.00000000000E+00  0.84570376264E+03  0.84570376264E+03  0.25500000920E-02 0. -1.
       -2   -1    0    0    0  501  0.00000000000E+00  0.00000000000E+00 -0.87748661747E+03  0.87748661747E+03  0.25500000920E-02 0.  1.
    10030    2    1    2    0    0  0.00000000000E+00  0.00000000000E+00 -0.31782854829E+02  0.17231903801E+04  0.17228972506E+04 0.  0.
        5    1    3    3  502    0 -0.18837258677E+03  0.53109659740E+03  0.63577434889E+03  0.84957574113E+03  0.46999998093E+01 0. -1.
       -5    1    3    3    0  502  0.18837258677E+03 -0.53109659740E+03 -0.66755720372E+03  0.87361463898E+03  0.46999998093E+01 0.  1.
</event>
<event>
 5   0  0.2630135E-04  0.1668838E+04  0.7818609E-02  0.8779339E-01
       -1   -1    0    0    0  501  0.00000000000E+00  0.00000000000E+00  0.61919184525E+03  0.61919184527E+03  0.50400001928E-02 0. -1.
        1   -1    0    0  501    0  0.00000000000E+00  0.00000000000E+00 -0.11244578645E+04  0.11244578645E+04  0.50400001928E-02 0.  1.
    10030    2    1    2    0    0  0.00000000000E+00  0.00000000000E+00 -0.50526601925E+03  0.17436497098E+04  0.16688380869E+04 0.  0.
        1    1    3    3  502    0  0.22026945259E+03 -0.68629822190E+03 -0.69187284949E+03  0.99910556050E+03  0.50400001928E-02 0.  1.
       -1    1    3    3    0  502 -0.22026945259E+03  0.68629822190E+03  0.18660683024E+03  0.74454414929E+03  0.50400001928E-02 0. -1.
</event>
<event>
 5   0  0.5299877E-04  0.1715103E+04  0.7818609E-02  0.8752797E-01
        2   -1    0    0  501    0  0.00000000000E+00  0.00000000000E+00  0.80069092864E+03  0.80069092865E+03  0.25500000920E-02 0. -1.
       -2   -1    0    0    0  501  0.00000000000E+00  0.00000000000E+00 -0.91844959637E+03  0.91844959637E+03  0.25500000920E-02 0.  1.
    10030    2    1    2    0    0  0.00000000000E+00  0.00000000000E+00 -0.11775866773E+03  0.17191405250E+04  0.17151026328E+04 0.  0.
        3    1    3    3  502    0  0.19838645146E+03 -0.51300737030E+03  0.60059097126E+03  0.81439748960E+03  0.10100000352E+00 0. -1.
       -3    1    3    3    0  502 -0.19838645146E+03  0.51300737030E+03 -0.71834963899E+03  0.90474303542E+03  0.10100000352E+00 0.  1.
</event>
<event>
 5   0  0.5342255E-04  0.1701535E+04  0.7818609E-02  0.8760489E-01
        2   -1    0    0  501    0  0.00000000000E+00  0.00000000000E+00  0.16161482011E+04  0.16161482011E+04  0.25500000920E-02 0. -1.
       -2   -1    0    0    0  501  0.00000000000E+00  0.00000000000E+00 -0.44785847801E+03  0.44785847802E+03  0.25500000920E-02 0.  1.
    10030    2    1    2    0    0  0.00000000000E+00  0.00000000000E+00  0.11682897231E+04  0.20640066791E+04  0.17015353932E+04 0.  0.
        5    1    3    3  502    0  0.83435656115E+03  0.15446036565E+03  0.50961817944E+03  0.98981900088E+03  0.46999998093E+01 0.  1.
       -5    1    3    3    0  502 -0.83435656115E+03 -0.15446036565E+03  0.65867154365E+03  0.10741876782E+04  0.46999998093E+01 0. -1.
</event>
<event>
 5   0  0.2630135E-04  0.1698010E+04  0.7818609E-02  0.8762500E-01
        1   -1    0    0  501    0  0.00000000000E+00  0.00000000000E+00  0.61852838417E+03  0.61852838419E+03  0.50400001928E-02 0.  1.
       -1   -1    0    0    0  501  0.00000000000E+00  0.00000000000E+00 -0.11653622066E+04  0.11653622066E+04  0.50400001928E-02 0. -1.
    10030    2    1    2    0    0  0.00000000000E+00  0.00000000000E+00 -0.54683382243E+03  0.17838905908E+04  0.16980101327E+04 0.  0.
        1    1    3    3  502    0  0.45576738657E+03  0.16161999364E+03 -0.10065396061E+04  0.11166767266E+04  0.50400001928E-02 0. -1.
       -1    1    3    3    0  502 -0.45576738657E+03 -0.16161999364E+03  0.45970578369E+03  0.66721386421E+03  0.50400001928E-02 0.  1.
</event>
<event>
 5   0  0.5021349E-04  0.1704450E+04  0.7818609E-02  0.8758830E-01
        2   -1    0    0  501    0  0.00000000000E+00  0.00000000000E+00  0.12027182362E+04  0.12027182362E+04  0.25500000920E-02 0.  1.
       -2   -1    0    0    0  501  0.00000000000E+00  0.00000000000E+00 -0.60387175732E+03  0.60387175733E+03  0.25500000920E-02 0. -1.
    10030    2    1    2    0    0  0.00000000000E+00  0.00000000000E+00  0.59884647892E+03  0.18065899936E+04  0.17044501458E+04 0.  0.
        2    1    3    3  502    0  0.60826226896E+03  0.58065009987E+03  0.44609963783E+03  0.95191512920E+03  0.25500000920E-02 0.  1.
       -2    1    3    3    0  502 -0.60826226896E+03 -0.58065009987E+03  0.15274684109E+03  0.85467486437E+03  0.25500000920E-02 0. -1.
</event>
<event>
 5   0  0.5342255E-04  0.1689081E+04  0.7818609E-02  0.8767617E-01
        2   -1    0    0  501    0  0.00000000000E+00  0.00000000000E+00  0.12651260144E+04  0.12651260144E+04  0.25500000920E-02 0. -1.
       -2   -1    0    0    0  501  0.00000000000E+00  0.00000000000E+00 -0.56377657325E+03  0.56377657325E+03  0.25500000920E-02 0.  1.
    10030    2    1    2    0    0  0.00000000000E+00  0.00000000000E+00  0.70134944117E+03  0.18289025877E+04  0.16890807075E+04 0.  0.
        5    1    3    3  502    0 -0.33645088568E+03  0.44010430107E+03 -0.33953721103E+03  0.64976811399E+03  0.46999998093E+01 0. -1.
       -5    1    3    3    0  502  0.33645088568E+03 -0.44010430107E+03  0.10408866522E+04  0.11791344737E+04  0.46999998093E+01 0.  1.
</event>
<event>
 5   0  0.2595644E-04  0.1240028E+04  0.7818609E-02  0.9078524E-01
        1   -1    0    0  501    0  0.00000000000E+00  0.00000000000E+00  0.81766465244E+03  0.81766465245E+03  0.50400001928E-02 0. -1.
       -1   -1    0    0    0  501  0.00000000000E+00  0.00000000000E+00 -0.47014060169E+03  0.47014060172E+03  0.50400001928E-02 0.  1.
    10030    2    1    2    0    0  0.00000000000E+00  0.00000000000E+00  0.34752405074E+03  0.12878052542E+04  0.12400279863E+04 0.  0.
        2    1    3    3  502    0 -0.61341035334E+03  0.31540510464E+02  0.26157939444E+03  0.66760081261E+03  0.25500000920E-02 0.  1.
       -2    1    3    3    0  502  0.61341035334E+03 -0.31540510464E+02  0.85944656298E+02  0.62020444157E+03  0.25500000920E-02 0. -1.
</event>
<event>
 5   0  0.5342255E-04  0.1683827E+04  0.7818609E-02  0.8770642E-01
       -2   -1    0    0    0  501  0.00000000000E+00  0.00000000000E+00  0.49937160110E+03  0.49937160110E+03  0.25500000920E-02 0. -1.
        2   -1    0    0  501    0  0.00000000000E+00  0.00000000000E+00 -0.14194207342E+04  0.14194207342E+04  0.25500000920E-02 0.  1.
    10030    2    1    2    0    0  0.00000000000E+00  0.00000000000E+00 -0.92004913312E+03  0.19187923353E+04  0.16838270751E+04 0.  0.
        5    1    3    3  502    0  0.76761040794E+03 -0.19322306115E+03 -0.78680794396E+03  0.11160867889E+04  0.46999998093E+01 0.  1.
       -5    1    3    3    0  502 -0.76761040794E+03  0.19322306115E+03 -0.13324118916E+03  0.80270554640E+03  0.46999998093E+01 0. -1.
</event>
<event>
 5   0  0.2561518E-04  0.1729736E+04  0.7818609E-02  0.8744584E-01
        1   -1    0    0  501    0  0.00000000000E+00  0.00000000000E+00  0.16950257044E+04  0.16950257044E+04  0.50400001928E-02 0.  1.
       -1   -1    0    0    0  501  0.00000000000E+00  0.00000000000E+00 -0.44128937206E+03  0.44128937209E+03  0.50400001928E-02 0. -1.
    10030    2    1    2    0    0  0.00000000000E+00  0.00000000000E+00  0.12537363324E+04  0.21363150765E+04  0.17297361981E+04 0.  0.
        4    1    3    3  502    0 -0.11868028520E+03 -0.10234077805E+02 -0.43110804761E+03  0.44726447216E+03  0.12699999809E+01 0. -1.
       -4    1    3    3    0  502  0.11868028520E+03  0.10234077805E+02  0.16848443800E+04  0.16890506043E+04  0.12699999809E+01 0.  1.
</event>
<event>
 5   0  0.2785059E-04  0.1708602E+04  0.7818609E-02  0.8756473E-01
       -1   -1    0    0    0  501  0.00000000000E+00  0.00000000000E+00  0.44161984833E+03  0.44161984836E+03  0.50400001928E-02 0.  1.
        1   -1    0    0  501    0  0.00000000000E+00  0.00000000000E+00 -0.16526215546E+04  0.16526215546E+04  0.50400001928E-02 0. -1.
    10030    2    1    2    0    0  0.00000000000E+00  0.00000000000E+00 -0.12110017062E+04  0.20942414029E+04  0.17086023297E+04 0.  0.
        5    1    3    3  502    0  0.31200194451E+03 -0.13925722283E+03  0.35421129690E+03  0.49216411931E+03  0.46999998093E+01 0.  1.
       -5    1    3    3    0  502 -0.31200194451E+03  0.13925722283E+03 -0.15652130031E+04  0.16020772836E+04  0.46999998093E+01 0. -1.
</event>
<event>
 5   0  0.2785059E-04  0.1659598E+04  0.7818609E-02  0.8784748E-01
        1   -1    0    0  501    0  0.00000000000E+00  0.00000000000E+00  0.48591362533E+03  0.48591362536E+03  0.50400001928E-02 0. -1.
       -1   -1    0    0    0  501  0.00000000000E+00  0.00000000000E+00 -0.14170557923E+04  0.14170557923E+04  0.50400001928E-02 0.  1.
    10030    2    1    2    0    0  0.00000000000E+00  0.00000000000E+00 -0.93114216693E+03  0.19029694176E+04  0.16595984061E+04 0.  0.
        5    1    3    3  502    0  0.41456262490E+03  0.79263836296E+02 -0.12847598830E+04  0.13523220669E+04  0.46999998093E+01 0.  1.
       -5    1    3    3    0  502 -0.41456262490E+03 -0.79263836296E+02  0.35361771608E+03  0.55064735070E+03  0.46999998093E+01 0. -1.
</event>
<event>
 5   0  0.1910750E-04  0.1700885E+04  0.7818609E-02  0.8760860E-01
       -3   -1    0    0    0  501  0.00000000000E+00  0.00000000000E+00  0.71550931502E+03  0.71550932215E+03  0.10100000352E+00 0. -1.
        3   -1    0    0  501    0  0.00000000000E+00  0.00000000000E+00 -0.10108217695E+04  0.10108217746E+04  0.10100000352E+00 0.  1.
    10030    2    1    2    0    0  0.00000000000E+00  0.00000000000E+00 -0.29531245452E+03  0.17263310967E+04  0.17008849490E+04 0.  0.
        2    1    3    3  502    0  0.63579959391E+03 -0.24490638213E+03  0.36890997112E+03  0.77479986217E+03  0.25500000920E-02 0. -1.
       -2    1    3    3    0  502 -0.63579959391E+03  0.24490638213E+03 -0.66422242564E+03  0.95153123457E+03  0.25500000920E-02 0.  1.
</event>
<event>
 5   0  0.5299877E-04  0.1707676E+04  0.7818609E-02  0.8756998E-01
        2   -1    0    0  501    0  0.00000000000E+00  0.00000000000E+00  0.96213131692E+03  0.96213131693E+03  0.25500000920E-02 0.  1.
       -2   -1    0    0    0  501  0.00000000000E+00  0.00000000000E+00 -0.75773378392E+03  0.75773378392E+03  0.25500000920E-02 0. -1.
    10030    2    1    2    0    0  0.00000000000E+00  0.00000000000E+00  0.20439753300E+03  0.17198651009E+04  0.17076760857E+04 0.  0.
        3    1    3    3  502    0 -0.49264472363E+03  0.23489495605E+03  0.76351715906E+03  0.93852699827E+03  0.10100000352E+00 0.  1.
       -3    1    3    3    0  502  0.49264472363E+03 -0.23489495605E+03 -0.55911962606E+03  0.78133810258E+03  0.10100000352E+00 0. -1.
</event>
<event>
 5   0  0.2785059E-04  0.1693548E+04  0.7818609E-02  0.8765053E-01
        1   -1    0    0  501    0  0.00000000000E+00  0.00000000000E+00  0.63035648371E+03  0.63035648373E+03  0.50400001928E-02 0.  1.
       -1   -1    0    0    0  501  0.00000000000E+00  0.00000000000E+00 -0.11374928834E+04  0.11374928835E+04  0.50400001928E-02 0. -1.
    10030    2    1    2    0    0  0.00000000000E+00  0.00000000000E+00 -0.50713639973E+03  0.17678493672E+04  0.16935477723E+04 0.  0.
        5    1    3    3  502    0 -0.44905176494E+02  0.49180839689E+03  0.46444059580E+03  0.67795215993E+03  0.46999998093E+01 0.  1.
       -5    1    3    3    0  502  0.44905176494E+02 -0.49180839689E+03 -0.97157699553E+03  0.10898972073E+04  0.46999998093E+01 0. -1.
</event>
<event>
 5   0  0.2785059E-04  0.1651573E+04  0.7818609E-02  0.8789476E-01
        1   -1    0    0  501    0  0.00000000000E+00  0.00000000000E+00  0.96652749323E+03  0.96652749324E+03  0.50400001928E-02 0. -1.
       -1   -1    0    0    0  501  0.00000000000E+00  0.00000000000E+00 -0.70553968424E+03  0.70553968426E+03  0.50400001928E-02 0.  1.
    10030    2    1    2    0    0  0.00000000000E+00  0.00000000000E+00  0.26098780899E+03  0.16720671775E+04  0.16515731923E+04 0.  0.
        5    1    3    3  502    0  0.20532459121E+02  0.15607126222E+03 -0.69019538483E+03  0.70793472863E+03  0.46999998093E+01 0.  1.
       -5    1    3    3    0  502 -0.20532459121E+02 -0.15607126222E+03  0.95118319382E+03  0.96413244887E+03  0.46999998093E+01 0. -1.
</event>
<event>
 5   0  0.5299877E-04  0.1696097E+04  0.7818609E-02  0.8763593E-01
       -2   -1    0    0    0  501  0.00000000000E+00  0.00000000000E+00  0.78460340201E+03  0.78460340201E+03  0.25500000920E-02 0. -1.
        2   -1    0    0  501    0  0.00000000000E+00  0.00000000000E+00 -0.91662406956E+03  0.91662406957E+03  0.25500000920E-02 0.  1.
    10030    2    1    2    0    0  0.00000000000E+00  0.00000000000E+00 -0.13202066756E+03  0.17012274716E+04  0.16960971238E+04 0.  0.
        3    1    3    3  502    0  0.34523422040E+03  0.69372207420E+03 -0.41165298406E+03  0.87743670579E+03  0.10100000352E+00 0. -1.
       -3    1    3    3    0  502 -0.34523422040E+03 -0.69372207420E+03  0.27963231651E+03  0.82379076579E+03  0.10100000352E+00 0.  1.
</event>
<event>
 5   0  0.5310003E-04  0.1691541E+04  0.7818609E-02  0.8766204E-01
        2   -1    0    0  501    0  0.00000000000E+00  0.00000000000E+00  0.73233345557E+03  0.73233345558E+03  0.25500000920E-02 0. -1.
       -2   -1    0    0    0  501  0.00000000000E+00  0.00000000000E+00 -0.97677873544E+03  0.97677873545E+03  0.25500000920E-02 0.  1.
    10030    2    1    2    0    0  0.00000000000E+00  0.00000000000E+00 -0.24444527987E+03  0.17091121910E+04  0.16915410094E+04 0.  0.
        1    1    3    3  502    0  0.23364290157E+03  0.81263503249E+03 -0.14147430804E+03  0.85730955981E+03  0.50400001928E-02 0. -1.
       -1    1    3    3    0  502 -0.23364290157E+03 -0.81263503249E+03 -0.10297097183E+03  0.85180263121E+03  0.50400001928E-02 0.  1.
</event>
<event>
 5   0  0.5198430E-04  0.1709366E+04  0.7818609E-02  0.8756040E-01
        2   -1    0    0  501    0  0.00000000000E+00  0.00000000000E+00  0.52654176354E+03  0.52654176355E+03  0.25500000920E-02 0. -1.
       -2   -1    0    0    0  501  0.00000000000E+00  0.00000000000E+00 -0.13873223548E+04  0.13873223548E+04  0.25500000920E-02 0.  1.
    10030    2    1    2    0    0  0.00000000000E+00  0.00000000000E+00 -0.86078059124E+03  0.19138641183E+04  0.17093661507E+04 0.  0.
        4    1    3    3  502    0  0.42385775092E+03 -0.61250650148E+03 -0.89965170078E+03  0.11679873300E+04  0.12699999809E+01 0.  1.
       -4    1    3    3    0  502 -0.42385775092E+03  0.61250650148E+03  0.38871109532E+02  0.74587678836E+03  0.12699999809E+01 0. -1.
</event>
<event>
 5   0  0.2595644E-04  0.1638286E+04  0.7818609E-02  0.8797367E-01
        1   -1    0    0  501    0  0.00000000000E+00  0.00000000000E+00  0.17958558371E+04  0.17958558371E+04  0.50400001928E-02 0. -1.
       -1   -1    0    0    0  501  0.00000000000E+00  0.00000000000E+00 -0.37363535502E+03  0.37363535505E+03  0.50400001928E-02 0.  1.
    10030    2    1    2    0    0  0.00000000000E+00  0.00000000000E+00  0.14222204820E+04  0.21694911921E+04  0.16382859742E+04 0.  0.
        2    1    3    3  502    0 -0.23011528871E+03  0.34225524859E+03  0.16483381770E+04  0.16991499189E+04  0.25500000920E-02 0. -1.
       -2    1    3    3    0  502  0.23011528871E+03 -0.34225524859E+03 -0.22611769495E+03  0.47034127319E+03  0.25500000920E-02 0.  1.
</event>
<event>
 5   0  0.5342255E-04  0.1694333E+04  0.7818609E-02  0.8764603E-01
        2   -1    0    0  501    0  0.00000000000E+00  0.00000000000E+00  0.13435283589E+04  0.13435283589E+04  0.25500000920E-02 0.  1.
       -2   -1    0    0    0  501  0.00000000000E+00  0.00000000000E+00 -0.53418405180E+03  0.53418405181E+03  0.25500000920E-02 0. -1.
    10030    2    1    2    0    0  0.00000000000E+00  0.00000000000E+00  0.80934430707E+03  0.18777124107E+04  0.16943334057E+04 0.  0.
        5    1    3    3  502    0 -0.56272844516E+03 -0.31160470567E+03  0.10156165039E+04  0.12021895726E+04  0.46999998093E+01 0.  1.
       -5    1    3    3    0  502  0.56272844516E+03  0.31160470567E+03 -0.20627219679E+03  0.67552283807E+03  0.46999998093E+01 0. -1.
</event>
<event>
 5   0  0.2561518E-04  0.1657683E+04  0.7818609E-02  0.8785874E-01
        1   -1    0    0  501    0  0.00000000000E+00  0.00000000000E+00  0.67016725396E+03  0.67016725398E+03  0.50400001928E-02 0. -1.
       -1   -1    0    0    0  501  0.00000000000E+00  0.00000000000E+00 -0.10250843632E+04  0.10250843632E+04  0.50400001928E-02 0.  1.
    10030    2    1    2    0    0  0.00000000000E+00  0.00000000000E+00 -0.35491710925E+03  0.16952516172E+04  0.16576826871E+04 0.  0.
        4    1    3    3  502    0  0.42359358083E+03  0.33468559010E+03 -0.82062398969E+03  0.98227863221E+03  0.12699999809E+01 0.  1.
       -4    1    3    3    0  502 -0.42359358083E+03 -0.33468559010E+03  0.46570688044E+03  0.71297298499E+03  0.12699999809E+01 0. -1.
</event>
<event>
 5   0  0.5310003E-04  0.1706852E+04  0.7818609E-02  0.8757466E-01
       -2   -1    0    0    0  501  0.00000000000E+00  0.00000000000E+00  0.11136159869E+04  0.11136159869E+04  0.25500000920E-02 0. -1.
        2   -1    0    0  501    0  0.00000000000E+00  0.00000000000E+00 -0.65402811366E+03  0.65402811366E+03  0.25500000920E-02 0.  1.
    10030    2    1    2    0    0  0.00000000000E+00  0.00000000000E+00  0.45958787324E+03  0.17676441006E+04  0.17068522646E+04 0.  0.
        1    1    3    3  502    0 -0.24885567207E+02 -0.36425833039E+03  0.10286514548E+04  0.10915251890E+04  0.50400001928E-02 0. -1.
       -1    1    3    3    0  502  0.24885567207E+02  0.36425833039E+03 -0.56906358155E+03  0.67611891158E+03  0.50400001928E-02 0.  1.
</event>
<event>
 5   0  0.5342255E-04  0.1823254E+04  0.7818609E-02  0.8694030E-01
        2   -1    0    0  501    0  0.00000000000E+00  0.00000000000E+00  0.18777457395E+04  0.18777457395E+04  0.25500000920E-02 0. -1.
       -2   -1    0    0    0  501  0.00000000000E+00  0.00000000000E+00 -0.44258590125E+03  0.44258590126E+03  0.25500000920E-02 0.  1.
    10030    2    1    2    0    0  0.00000000000E+00  0.00000000000E+00  0.14351598383E+04  0.23203316408E+04  0.18232540037E+04 0.  0.
        5    1    3    3  502    0 -0.56575276796E+03  0.41129732537E+03  0.14616073129E+04  0.16203578961E+04  0.46999998093E+01 0. -1.
       -5    1    3    3    0  502  0.56575276796E+03 -0.41129732537E+03 -0.26447474651E+02  0.69997374467E+03  0.46999998093E+01 0.  1.
</event>
<event>
 5   0  0.5021349E-04  0.1609021E+04  0.7818609E-02  0.8815025E-01
       -2   -1    0    0    0  501  0.00000000000E+00  0.00000000000E+00  0.42850169962E+03  0.42850169963E+03  0.25500000920E-02 0.  1.
        2   -1    0    0  501    0  0.00000000000E+00  0.00000000000E+00 -0.15104658545E+04  0.15104658545E+04  0.25500000920E-02 0. -1.
    10030    2    1    2    0    0  0.00000000000E+00  0.00000000000E+00 -0.10819641549E+04  0.19389675541E+04  0.16090210513E+04 0.  0.
        2    1    3    3  502    0 -0.55588453622E+03  0.46388729324E+03 -0.11828552330E+03  0.73361468323E+03  0.25500000920E-02 0. -1.
       -2    1    3    3    0  502  0.55588453622E+03 -0.46388729324E+03 -0.96367863157E+03  0.12053528709E+04  0.25500000920E-02 0.  1.
</event>
<event>
 5   0  0.2630135E-04  0.1573966E+04  0.7818609E-02  0.8836703E-01
        1   -1    0    0  501    0  0.00000000000E+00  0.00000000000E+00  0.30274655148E+03  0.30274655152E+03  0.50400001928E-02 0. -1.
       -1   -1    0    0    0  501  0.00000000000E+00  0.00000000000E+00 -0.20457441025E+04  0.20457441025E+04  0.50400001928E-02 0.  1.
    10030    2    1    2    0    0  0.00000000000E+00  0.00000000000E+00 -0.17429975510E+04  0.23484906540E+04  0.15739656569E+04 0.  0.
        1    1    3    3  502    0  0.21040883092E+03  0.10682751024E+03  0.24871630215E+03  0.34284660135E+03  0.50400001928E-02 0. -1.
       -1    1    3    3    0  502 -0.21040883092E+03 -0.10682751024E+03 -0.19917138532E+04  0.20056440527E+04  0.50400001928E-02 0.  1.
</event>
<event>
 5   0  0.2561518E-04  0.1701059E+04  0.7818609E-02  0.8760760E-01
        1   -1    0    0  501    0  0.00000000000E+00  0.00000000000E+00  0.80679029392E+03  0.80679029394E+03  0.50400001928E-02 0.  1.
       -1   -1    0    0    0  501  0.00000000000E+00  0.00000000000E+00 -0.89664025925E+03  0.89664025927E+03  0.50400001928E-02 0. -1.
    10030    2    1    2    0    0  0.00000000000E+00  0.00000000000E+00 -0.89849965334E+02  0.17034305532E+04  0.17010592680E+04 0.  0.
        4    1    3    3  502    0 -0.84210294818E+02  0.83848550189E+03  0.70342970143E+02  0.84563529785E+03  0.12699999809E+01 0.  1.
       -4    1    3    3    0  502  0.84210294818E+02 -0.83848550189E+03 -0.16019293548E+03  0.85779525535E+03  0.12699999809E+01 0. -1.
</event>
<event>
 5   0  0.5021349E-04  0.1682734E+04  0.7818609E-02  0.8771274E-01
       -2   -1    0    0    0  501  0.00000000000E+00  0.00000000000E+00  0.81441049081E+03  0.81441049082E+03  0.25500000920E-02 0.  1.
        2   -1    0    0  501    0  0.00000000000E+00  0.00000000000E+00 -0.86921534219E+03  0.86921534219E+03  0.25500000920E-02 0. -1.
    10030    2    1    2    0    0  0.00000000000E+00  0.00000000000E+00 -0.54804851373E+02  0.16836258330E+04  0.16827336016E+04 0.  0.
        2    1    3    3  502    0 -0.18218511626E+02  0.75699648005E+03  0.33956514963E+03  0.82986750498E+03  0.25500000920E-02 0.  1.
       -2    1    3    3    0  502  0.18218511626E+02 -0.75699648005E+03 -0.39437000101E+03  0.85375832803E+03  0.25500000920E-02 0. -1.
</event>
<event>
 5   0  0.5342255E-04  0.1728090E+04  0.7818609E-02  0.8745504E-01
       -2   -1    0    0    0  501  0.00000000000E+00  0.00000000000E+00  0.36372285942E+03  0.36372285943E+03  0.25500000920E-02 0. -1.
        2   -1    0    0  501    0  0.00000000000E+00  0.00000000000E+00 -0.20525885932E+04  0.20525885932E+04  0.25500000920E-02 0.  1.
    10030    2    1    2    0    0  0.00000000000E+00  0.00000000000E+00 -0.16888657338E+04  0.24163114527E+04  0.17280895722E+04 0.  0.
        5    1    3    3  502    0  0.64972159256E+03  0.22194588835E+02 -0.16402364983E+04  0.17643776829E+04  0.46999998093E+01 0.  1.
       -5    1    3    3    0  502 -0.64972159256E+03 -0.22194588835E+02 -0.48629235520E+02  0.65193376976E+03  0.46999998093E+01 0. -1.
</event>
<event>
 5   0  0.2561518E-04  0.1704990E+04  0.7818609E-02  0.8758523E-01
        1   -1    0    0  501    0  0.00000000000E+00  0.00000000000E+00  0.17623942130E+04  0.17623942130E+04  0.50400001928E-02 0.  1.
       -1   -1    0    0    0  501  0.00000000000E+00  0.00000000000E+00 -0.41236389022E+03  0.41236389025E+03  0.50400001928E-02 0. -1.
    10030    2    1    2    0    0  0.00000000000E+00  0.00000000000E+00  0.13500303228E+04  0.21747581033E+04  0.17049900103E+04 0.  0.
        4    1    3    3  502    0 -0.19789448767E+03  0.36647057392E+03 -0.27375903557E+03  0.49840599139E+03  0.12699999809E+01 0. -1.
       -4    1    3    3    0  502  0.19789448767E+03 -0.36647057392E+03  0.16237893584E+04  0.16763521119E+04  0.12699999809E+01 0.  1.
</event>
<event>
 5   0  0.2595644E-04  0.1498703E+04  0.7818609E-02  0.8885316E-01
        1   -1    0    0  501    0  0.00000000000E+00  0.00000000000E+00  0.12371625185E+04  0.12371625185E+04  0.50400001928E-02 0. -1.
       -1   -1    0    0    0  501  0.00000000000E+00  0.00000000000E+00 -0.45388376583E+03  0.45388376586E+03  0.50400001928E-02 0.  1.
    10030    2    1    2    0    0  0.00000000000E+00  0.00000000000E+00  0.78327875270E+03  0.16910462844E+04  0.14987034168E+04 0.  0.
        2    1    3    3  502    0  0.59929983251E+03  0.26115641071E+03 -0.21654957674E+02  0.65408860050E+03  0.25500000920E-02 0.  1.
       -2    1    3    3    0  502 -0.59929983251E+03 -0.26115641071E+03  0.80493371037E+03  0.10369576839E+04  0.25500000920E-02 0. -1.
</event>
<event>
 5   0  0.5198430E-04  0.1730444E+04  0.7818609E-02  0.8744189E-01
       -2   -1    0    0    0  501  0.00000000000E+00  0.00000000000E+00  0.33630850240E+03  0.33630850241E+03  0.25500000920E-02 0. -1.
        2   -1    0    0  501    0  0.00000000000E+00  0.00000000000E+00 -0.22259586790E+04  0.22259586790E+04  0.25500000920E-02 0.  1.
    10030    2    1    2    0    0  0.00000000000E+00  0.00000000000E+00 -0.18896501766E+04  0.25622671814E+04  0.17304436769E+04 0.  0.
        4    1    3    3  502    0 -0.51282921049E+03  0.68249953615E+03 -0.11532190238E+04  0.14348223394E+04  0.12699999809E+01 0. -1.
       -4    1    3    3    0  502  0.51282921049E+03 -0.68249953615E+03 -0.73643115279E+03  0.11274448420E+04  0.12699999809E+01 0.  1.
</event>
<event>
 5   0  0.2785059E-04  0.1692009E+04  0.7818609E-02  0.8765935E-01
       -1   -1    0    0    0  501  0.00000000000E+00  0.00000000000E+00  0.38673175662E+03  0.38673175665E+03  0.50400001928E-02 0.  1.
        1   -1    0    0  501    0  0.00000000000E+00  0.00000000000E+00 -0.18506981083E+04  0.18506981083E+04  0.50400001928E-02 0. -1.
    10030    2    1    2    0    0  0.00000000000E+00  0.00000000000E+00 -0.14639663516E+04  0.22374298649E+04  0.16920091376E+04 0.  0.
        5    1    3    3  502    0 -0.16039762315E+03 -0.29677608765E+03 -0.17578907772E+04  0.17899736082E+04  0.46999998093E+01 0. -1.
       -5    1    3    3    0  502  0.16039762315E+03  0.29677608765E+03  0.29392442554E+03  0.44745625668E+03  0.46999998093E+01 0.  1.
</event>
<event>
 5   0  0.5198430E-04  0.1736950E+04  0.7818609E-02  0.8740567E-01
        2   -1    0    0  501    0  0.00000000000E+00  0.00000000000E+00  0.96929391875E+03  0.96929391875E+03  0.25500000920E-02 0.  1.
       -2   -1    0    0    0  501  0.00000000000E+00  0.00000000000E+00 -0.77814254402E+03  0.77814254402E+03  0.25500000920E-02 0. -1.
    10030    2    1    2    0    0  0.00000000000E+00  0.00000000000E+00  0.19115137473E+03  0.17474364628E+04  0.17369500118E+04 0.  0.
        4    1    3    3  502    0 -0.40401371162E+03 -0.24869625393E+03  0.82740838807E+03  0.95377311738E+03  0.12699999809E+01 0.  1.
       -4    1    3    3    0  502  0.40401371162E+03  0.24869625393E+03 -0.63625701334E+03  0.79366334539E+03  0.12699999809E+01 0. -1.
</event>
<event>
 5   0  0.5198430E-04  0.1668023E+04  0.7818609E-02  0.8779815E-01
        2   -1    0    0  501    0  0.00000000000E+00  0.00000000000E+00  0.69922680194E+03  0.69922680195E+03  0.25500000920E-02 0. -1.
       -2   -1    0    0    0  501  0.00000000000E+00  0.00000000000E+00 -0.99477760239E+03  0.99477760239E+03  0.25500000920E-02 0.  1.
    10030    2    1    2    0    0  0.00000000000E+00  0.00000000000E+00 -0.29555080044E+03  0.16940044043E+04  0.16680229753E+04 0.  0.
        4    1    3    3  502    0  0.82542300697E+03 -0.11542593519E+03 -0.17870068255E+03  0.85239769696E+03  0.12699999809E+01 0.  1.
       -4    1    3    3    0  502 -0.82542300697E+03  0.11542593519E+03 -0.11685011790E+03  0.84160670738E+03  0.12699999809E+01 0. -1.
</event>
<event>
 5   0  0.5299877E-04  0.1712921E+04  0.7818609E-02  0.8754029E-01
        2   -1    0    0  501    0  0.00000000000E+00  0.00000000000E+00  0.82690770360E+03  0.82690770361E+03  0.25500000920E-02 0. -1.
       -2   -1    0    0    0  501  0.00000000000E+00  0.00000000000E+00 -0.88706963268E+03  0.88706963269E+03  0.25500000920E-02 0.  1.
    10030    2    1    2    0    0  0.00000000000E+00  0.00000000000E+00 -0.60161929079E+02  0.17139773363E+04  0.17129211458E+04 0.  0.
        3    1    3    3  502    0  0.16922779220E+03  0.81956549523E+03  0.15223746544E+03  0.85058915036E+03  0.10100000352E+00 0.  1.
       -3    1    3    3    0  502 -0.16922779220E+03 -0.81956549523E+03 -0.21239939452E+03  0.86338818594E+03  0.10100000352E+00 0. -1.
</event>
<event>
 5   0  0.2595644E-04  0.1979302E+04  0.7818609E-02  0.8616359E-01
        1   -1    0    0  501    0  0.00000000000E+00  0.00000000000E+00  0.60690583936E+03  0.60690583938E+03  0.50400001928E-02 0.  1.
       -1   -1    0    0    0  501  0.00000000000E+00  0.00000000000E+00 -0.16137737678E+04  0.16137737678E+04  0.50400001928E-02 0. -1.
    10030    2    1    2    0    0  0.00000000000E+00  0.00000000000E+00 -0.10068679285E+04  0.22206796072E+04  0.19793016174E+04 0.  0.
        2    1    3    3  502    0 -0.91989303084E+02  0.78478729435E+03 -0.11719658171E+04  0.14134556964E+04  0.25500000920E-02 0. -1.
       -2    1    3    3    0  502  0.91989303084E+02 -0.78478729435E+03  0.16509788868E+03  0.80722391077E+03  0.25500000920E-02 0.  1.
</event>
<event>
 5   0  0.2561518E-04  0.1702247E+04  0.7818609E-02  0.8760084E-01
        1   -1    0    0  501    0  0.00000000000E+00  0.00000000000E+00  0.14355595307E+04  0.14355595308E+04  0.50400001928E-02 0. -1.
       -1   -1    0    0    0  501  0.00000000000E+00  0.00000000000E+00 -0.50461952926E+03  0.50461952929E+03  0.50400001928E-02 0.  1.
    10030    2    1    2    0    0  0.00000000000E+00  0.00000000000E+00  0.93094000148E+03  0.19401790600E+04  0.17022471908E+04 0.  0.
        4    1    3    3  502    0  0.56936155732E+02 -0.33200489118E+03  0.13563490531E+04  0.13975526253E+04  0.12699999809E+01 0. -1.
       -4    1    3    3    0  502 -0.56936155732E+02  0.33200489118E+03 -0.42540905164E+03  0.54262643477E+03  0.12699999809E+01 0.  1.
</event>
<event>
 5   0  0.2785059E-04  0.1616357E+04  0.7818609E-02  0.8810562E-01
        1   -1    0    0  501    0  0.00000000000E+00  0.00000000000E+00  0.98871084039E+03  0.98871084040E+03  0.50400001928E-02 0. -1.
       -1   -1    0    0    0  501  0.00000000000E+00  0.00000000000E+00 -0.66061035529E+03  0.66061035530E+03  0.50400001928E-02 0.  1.
    10030    2    1    2    0    0  0.00000000000E+00  0.00000000000E+00  0.32810048511E+03  0.16493211957E+04  0.16163571630E+04 0.  0.
        5    1    3    3  502    0  0.16031850995E+03  0.11926289244E+03  0.96309426103E+03  0.98361491843E+03  0.46999998093E+01 0. -1.
       -5    1    3    3    0  502 -0.16031850995E+03 -0.11926289244E+03 -0.63499377592E+03  0.66570627727E+03  0.46999998093E+01 0.  1.
</event>
<event>
 5   0  0.5310003E-04  0.1705448E+04  0.7818609E-02  0.8758263E-01
        2   -1    0    0  501    0  0.00000000000E+00  0.00000000000E+00  0.11141864516E+04  0.11141864516E+04  0.25500000920E-02 0. -1.
       -2   -1    0    0    0  501  0.00000000000E+00  0.00000000000E+00 -0.65261816566E+03  0.65261816566E+03  0.25500000920E-02 0.  1.
    10030    2    1    2    0    0  0.00000000000E+00  0.00000000000E+00  0.46156828595E+03  0.17668046173E+04  0.17054481150E+04 0.  0.
        1    1    3    3  502    0 -0.17897001006E+03  0.21764745407E+03  0.10645605104E+04  0.11012219391E+04  0.50400001928E-02 0. -1.
       -1    1    3    3    0  502  0.17897001006E+03 -0.21764745407E+03 -0.60299222444E+03  0.66558267821E+03  0.50400001928E-02 0.  1.
</event>
<event>
 5   0  0.5342255E-04  0.1720857E+04  0.7818609E-02  0.8749558E-01
        2   -1    0    0  501    0  0.00000000000E+00  0.00000000000E+00  0.26239990286E+04  0.26239990286E+04  0.25500000920E-02 0.  1.
       -2   -1    0    0    0  501  0.00000000000E+00  0.00000000000E+00 -0.28214072069E+03  0.28214072071E+03  0.25500000920E-02 0. -1.
    10030    2    1    2    0    0  0.00000000000E+00  0.00000000000E+00  0.23418583079E+04  0.29061397493E+04  0.17208567367E+04 0.  0.
        5    1    3    3  502    0  0.26030868961E+03  0.41869584633E+03 -0.19924319279E+02  0.49344289854E+03  0.46999998093E+01 0. -1.
       -5    1    3    3    0  502 -0.26030868961E+03 -0.41869584633E+03  0.23617826272E+04  0.24126968508E+04  0.46999998093E+01 0.  1.
</event>
<event>
 5   0  0.5198430E-04  0.1719336E+04  0.7818609E-02  0.8750412E-01
       -2   -1    0    0    0  501  0.00000000000E+00  0.00000000000E+00  0.49838471785E+03  0.49838471786E+03  0.25500000920E-02 0.  1.
        2   -1    0    0  501    0  0.00000000000E+00  0.00000000000E+00 -0.14828493008E+04  0.14828493008E+04  0.25500000920E-02 0. -1.
    10030    2    1    2    0    0  0.00000000000E+00  0.00000000000E+00 -0.98446458290E+03  0.19812340186E+04  0.17193364189E+04 0.  0.
        4    1    3    3  502    0 -0.18049450615E+03  0.78758368252E+03 -0.15398718380E+03  0.82254482516E+03  0.12699999809E+01 0. -1.
       -4    1    3    3    0  502  0.18049450615E+03 -0.78758368252E+03 -0.83047739910E+03  0.11586891935E+04  0.12699999809E+01 0.  1.
</event>
<event>
 5   0  0.2785059E-04  0.1709765E+04  0.7818609E-02  0.8755814E-01
        1   -1    0    0  501    0  0.00000000000E+00  0.00000000000E+00  0.71762941304E+03  0.71762941306E+03  0.50400001928E-02 0.  1.
       -1   -1    0    0    0  501  0.00000000000E+00  0.00000000000E+00 -0.10183868516E+04  0.10183868516E+04  0.50400001928E-02 0. -1.
    10030    2    1    2    0    0  0.00000000000E+00  0.00000000000E+00 -0.30075743851E+03  0.17360162646E+04  0.17097653155E+04 0.  0.
        5    1    3    3  502    0  0.25551515974E+03 -0.53497160694E+03 -0.77572411768E+03  0.97634656441E+03  0.46999998093E+01 0. -1.
       -5    1    3    3    0  502 -0.25551515974E+03  0.53497160694E+03  0.47496667917E+03  0.75966970021E+03  0.46999998093E+01 0.  1.
</event>
<event>
 5   0  0.2630135E-04  0.1710861E+04  0.7818609E-02  0.8755194E-01
       -1   -1    0    0    0  501  0.00000000000E+00  0.00000000000E+00  0.83790062306E+03  0.83790062307E+03  0.50400001928E-02 0.  1.
        1   -1    0    0  501    0  0.00000000000E+00  0.00000000000E+00 -0.87332668408E+03  0.87332668410E+03  0.50400001928E-02 0. -1.
    10030    2    1    2    0    0  0.00000000000E+00  0.00000000000E+00 -0.35426061025E+02  0.17112273072E+04  0.17108605703E+04 0.  0.
        1    1    3    3  502    0 -0.93757330264E+02  0.42302684574E+03 -0.75544745308E+03  0.87088633218E+03  0.50400001928E-02 0. -1.
       -1    1    3    3    0  502  0.93757330264E+02 -0.42302684574E+03  0.72002139206E+03  0.84034097498E+03  0.50400001928E-02 0.  1.
</event>
<event>
 5   0  0.2595644E-04  0.1676106E+04  0.7818609E-02  0.8775110E-01
        1   -1    0    0  501    0  0.00000000000E+00  0.00000000000E+00  0.14738780135E+04  0.14738780135E+04  0.50400001928E-02 0. -1.
       -1   -1    0    0    0  501  0.00000000000E+00  0.00000000000E+00 -0.47652039830E+03  0.47652039833E+03  0.50400001928E-02 0.  1.
    10030    2    1    2    0    0  0.00000000000E+00  0.00000000000E+00  0.99735761517E+03  0.19503984118E+04  0.16761061280E+04 0.  0.
        2    1    3    3  502    0 -0.23194545895E+03  0.72841826776E+03  0.89830537368E+03  0.11795526326E+04  0.25500000920E-02 0. -1.
       -2    1    3    3    0  502  0.23194545895E+03 -0.72841826776E+03  0.99052241487E+02  0.77084577919E+03  0.25500000920E-02 0.  1.
</event>
<event>
 5   0  0.2595644E-04  0.1720237E+04  0.7818609E-02  0.8749906E-01
       -1   -1    0    0    0  501  0.00000000000E+00  0.00000000000E+00  0.11570278060E+04  0.11570278060E+04  0.50400001928E-02 0.  1.
        1   -1    0    0  501    0  0.00000000000E+00  0.00000000000E+00 -0.63940052015E+03  0.63940052017E+03  0.50400001928E-02 0. -1.
    10030    2    1    2    0    0  0.00000000000E+00  0.00000000000E+00  0.51762728588E+03  0.17964283262E+04  0.17202374034E+04 0.  0.
        2    1    3    3  502    0  0.60992656362E+03 -0.30350374073E+03 -0.28949304763E+03  0.74022372178E+03  0.25500000920E-02 0. -1.
       -2    1    3    3    0  502 -0.60992656362E+03  0.30350374073E+03  0.80712033352E+03  0.10562046044E+04  0.25500000920E-02 0.  1.
</event>
<event>
 5   0  0.2583422E-04  0.1888966E+04  0.7818609E-02  0.8660368E-01
       -1   -1    0    0    0  501  0.00000000000E+00  0.00000000000E+00  0.61008630744E+03  0.61008630746E+03  0.50400001928E-02 0. -1.
        1   -1    0    0  501    0  0.00000000000E+00  0.00000000000E+00 -0.14621666192E+04  0.14621666192E+04  0.50400001928E-02 0.  1.
    10030    2    1    2    0    0  0.00000000000E+00  0.00000000000E+00 -0.85208031178E+03  0.20722529267E+04  0.18889656785E+04 0.  0.
        3    1    3    3  502    0  0.65932816782E+03 -0.31790096303E+03 -0.10808425408E+04  0.13053716955E+04  0.10100000352E+00 0.  1.
       -3    1    3    3    0  502 -0.65932816782E+03  0.31790096303E+03  0.22876222900E+03  0.76688123122E+03  0.10100000352E+00 0. -1.
</event>
<event>
 5   0  0.5310003E-04  0.1668197E+04  0.7818609E-02  0.8779714E-01
       -2   -1    0    0    0  501  0.00000000000E+00  0.00000000000E+00  0.13185286251E+04  0.13185286251E+04  0.25500000920E-02 0. -1.
        2   -1    0    0  501    0  0.00000000000E+00  0.00000000000E+00 -0.52764880047E+03  0.52764880048E+03  0.25500000920E-02 0.  1.
    10030    2    1    2    0    0  0.00000000000E+00  0.00000000000E+00  0.79087982465E+03  0.18461774256E+04  0.16681966880E+04 0.  0.
        1    1    3    3  502    0  0.23149243978E+03 -0.27927675256E+03 -0.43578396390E+03  0.56700257267E+03  0.50400001928E-02 0.  1.
       -1    1    3    3    0  502 -0.23149243978E+03  0.27927675256E+03  0.12266637886E+04  0.12791748529E+04  0.50400001928E-02 0. -1.
</event>
<event>
 5   0  0.2595644E-04  0.1684010E+04  0.7818609E-02  0.8770537E-01
       -1   -1    0    0    0  501  0.00000000000E+00  0.00000000000E+00  0.93731665114E+03  0.93731665115E+03  0.50400001928E-02 0. -1.
        1   -1    0    0  501    0  0.00000000000E+00  0.00000000000E+00 -0.75638560370E+03  0.75638560372E+03  0.50400001928E-02 0.  1.
    10030    2    1    2    0    0  0.00000000000E+00  0.00000000000E+00  0.18093104743E+03  0.16937022549E+04  0.16840104763E+04 0.  0.
        2    1    3    3  502    0 -0.81301086541E+03  0.14913313533E+03  0.25184288844E+03  0.86409038867E+03  0.25500000920E-02 0. -1.
       -2    1    3    3    0  502  0.81301086541E+03 -0.14913313533E+03 -0.70911841008E+02  0.82961186620E+03  0.25500000920E-02 0.  1.
</event>
<event>
 5   0  0.2630135E-04  0.1724566E+04  0.7818609E-02  0.8747476E-01
        1   -1    0    0  501    0  0.00000000000E+00  0.00000000000E+00  0.12432674472E+04  0.12432674472E+04  0.50400001928E-02 0. -1.
       -1   -1    0    0    0  501  0.00000000000E+00  0.00000000000E+00 -0.59804644808E+03  0.59804644810E+03  0.50400001928E-02 0.  1.
    10030    2    1    2    0    0  0.00000000000E+00  0.00000000000E+00  0.64522099911E+03  0.18413138953E+04  0.17245656622E+04 0.  0.
        1    1    3    3  502    0  0.25382075154E+03 -0.61084903533E+03 -0.26798160238E+03  0.71370558153E+03  0.50400001928E-02 0.  1.
       -1    1    3    3    0  502 -0.25382075154E+03  0.61084903533E+03  0.91320260149E+03  0.11276083138E+04  0.50400001928E-02 0. -1.
</event>
<event>
 5   0  0.5198430E-04  0.1688251E+04  0.7818609E-02  0.8768094E-01
        2   -1    0    0  501    0  0.00000000000E+00  0.00000000000E+00  0.90624254024E+03  0.90624254025E+03  0.25500000920E-02 0. -1.
       -2   -1    0    0    0  501  0.00000000000E+00  0.00000000000E+00 -0.78626581038E+03  0.78626581039E+03  0.25500000920E-02 0.  1.
    10030    2    1    2    0    0  0.00000000000E+00  0.00000000000E+00  0.11997672986E+03  0.16925083506E+04  0.16882506038E+04 0.  0.
        4    1    3    3  502    0 -0.68302391235E+03  0.46999214961E+03 -0.98941021974E+02  0.83498815816E+03  0.12699999809E+01 0.  1.
       -4    1    3    3    0  502  0.68302391235E+03 -0.46999214961E+03  0.21891775183E+03  0.85752019248E+03  0.12699999809E+01 0. -1.
</event>
<event>
 5   0  0.2785059E-04  0.1707937E+04  0.7818609E-02  0.8756850E-01
       -1   -1    0    0    0  501  0.00000000000E+00  0.00000000000E+00  0.25910230391E+03  0.25910230396E+03  0.50400001928E-02 0. -1.
        1   -1    0    0  501    0  0.00000000000E+00  0.00000000000E+00 -0.28145733768E+04  0.28145733768E+04  0.50400001928E-02 0.  1.
    10030    2    1    2    0    0  0.00000000000E+00  0.00000000000E+00 -0.25554710729E+04  0.30736756808E+04  0.17079372899E+04 0.  0.
        5    1    3    3  502    0  0.36575552078E+03 -0.59219236057E+03 -0.38737374907E+03  0.79658609350E+03  0.46999998093E+01 0. -1.
       -5    1    3    3    0  502 -0.36575552078E+03  0.59219236057E+03 -0.21680973238E+04  0.22770895873E+04  0.46999998093E+01 0.  1.
</event>
<event>
 5   0  0.2785059E-04  0.1647045E+04  0.7818609E-02  0.8792157E-01
       -1   -1    0    0    0  501  0.00000000000E+00  0.00000000000E+00  0.52933182138E+03  0.52933182140E+03  0.50400001928E-02 0.  1.
        1   -1    0    0  501    0  0.00000000000E+00  0.00000000000E+00 -0.12812172746E+04  0.12812172746E+04  0.50400001928E-02 0. -1.
    10030    2    1    2    0    0  0.00000000000E+00  0.00000000000E+00 -0.75188545322E+03  0.18105490960E+04  0.16470447153E+04 0.  0.
        5    1    3    3  502    0  0.39943082217E+02  0.76277657870E+03 -0.71430306893E+03  0.10457889477E+04  0.46999998093E+01 0. -1.
       -5    1    3    3    0  502 -0.39943082217E+02 -0.76277657870E+03 -0.37582384288E+02  0.76476014831E+03  0.46999998093E+01 0.  1.
</event>
<event>
 5   0  0.2595644E-04  0.1690409E+04  0.7818609E-02  0.8766854E-01
       -1   -1    0    0    0  501  0.00000000000E+00  0.00000000000E+00  0.10078350757E+04  0.10078350757E+04  0.50400001928E-02 0.  1.
        1   -1    0    0  501    0  0.00000000000E+00  0.00000000000E+00 -0.70881663668E+03  0.70881663670E+03  0.50400001928E-02 0. -1.
    10030    2    1    2    0    0  0.00000000000E+00  0.00000000000E+00  0.29901843901E+03  0.17166517124E+04  0.16904085526E+04 0.  0.
        2    1    3    3  502    0  0.47538602365E+03  0.53294332884E+03 -0.30955941822E+03  0.77836206013E+03  0.25500000920E-02 0. -1.
       -2    1    3    3    0  502 -0.47538602365E+03 -0.53294332884E+03  0.60857785723E+03  0.93828965227E+03  0.25500000920E-02 0.  1.
</event>
<event>
 5   0  0.5310003E-04  0.1714384E+04  0.7818609E-02  0.8753203E-01
        2   -1    0    0  501    0  0.00000000000E+00  0.00000000000E+00  0.10779604930E+04  0.10779604930E+04  0.25500000920E-02 0.  1.
       -2   -1    0    0    0  501  0.00000000000E+00  0.00000000000E+00 -0.68163733882E+03  0.68163733883E+03  0.25500000920E-02 0. -1.
    10030    2    1    2    0    0  0.00000000000E+00  0.00000000000E+00  0.39632315417E+03  0.17595978318E+04  0.17143839964E+04 0.  0.
        1    1    3    3  502    0  0.20674761656E+03 -0.57704279933E+03  0.81317684289E+03  0.10183219270E+04  0.50400001928E-02 0.  1.
       -1    1    3    3    0  502 -0.20674761656E+03  0.57704279933E+03 -0.41685368872E+03  0.74127590480E+03  0.50400001928E-02 0. -1.
</event>
<event>
 5   0  0.2595644E-04  0.1219126E+04  0.7818609E-02  0.9096278E-01
       -1   -1    0    0    0  501  0.00000000000E+00  0.00000000000E+00  0.40046799532E+03  0.40046799535E+03  0.50400001928E-02 0. -1.
        1   -1    0    0  501    0  0.00000000000E+00  0.00000000000E+00 -0.92783265466E+03  0.92783265467E+03  0.50400001928E-02 0.  1.
    10030    2    1    2    0    0  0.00000000000E+00  0.00000000000E+00 -0.52736465934E+03  0.13283006500E+04  0.12191263810E+04 0.  0.
        2    1    3    3  502    0 -0.20404442130E+03 -0.24057571614E+03  0.30461706707E+03  0.43852292826E+03  0.25500000920E-02 0. -1.
       -2    1    3    3    0  502  0.20404442130E+03  0.24057571614E+03 -0.83198172640E+03  0.88977772176E+03  0.25500000920E-02 0.  1.
</event>
<event>
 5   0  0.5310003E-04  0.1685775E+04  0.7818609E-02  0.8769519E-01
        2   -1    0    0  501    0  0.00000000000E+00  0.00000000000E+00  0.98239722609E+03  0.98239722609E+03  0.25500000920E-02 0.  1.
       -2   -1    0    0    0  501  0.00000000000E+00  0.00000000000E+00 -0.72318920640E+03  0.72318920641E+03  0.25500000920E-02 0. -1.
    10030    2    1    2    0    0  0.00000000000E+00  0.00000000000E+00  0.25920801968E+03  0.17055864325E+04  0.16857746828E+04 0.  0.
        1    1    3    3  502    0  0.15355359687E+03  0.46664563439E+02 -0.70758834071E+03  0.72556016189E+03  0.50400001928E-02 0. -1.
       -1    1    3    3    0  502 -0.15355359687E+03 -0.46664563439E+02  0.96679636039E+03  0.98002627061E+03  0.50400001928E-02 0.  1.
</event>
<event>
 5   0  0.5299877E-04  0.1793683E+04  0.7818609E-02  0.8709666E-01
        2   -1    0    0  501    0  0.00000000000E+00  0.00000000000E+00  0.18622985641E+04  0.18622985641E+04  0.25500000920E-02 0.  1.
       -2   -1    0    0    0  501  0.00000000000E+00  0.00000000000E+00 -0.43189903387E+03  0.43189903388E+03  0.25500000920E-02 0. -1.
    10030    2    1    2    0    0  0.00000000000E+00  0.00000000000E+00  0.14303995302E+04  0.22941975979E+04  0.17936833061E+04 0.  0.
        3    1    3    3  502    0 -0.45291876675E+03  0.75394392906E+03  0.49088147461E+03  0.10072395394E+04  0.10100000352E+00 0. -1.
       -3    1    3    3    0  502  0.45291876675E+03 -0.75394392906E+03  0.93951805559E+03  0.12869580585E+04  0.10100000352E+00 0.  1.
</event>
<event>
 5   0  0.5299877E-04  0.1408377E+04  0.7818609E-02  0.8947777E-01
        2   -1    0    0  501    0  0.00000000000E+00  0.00000000000E+00  0.21617492494E+04  0.21617492494E+04  0.25500000920E-02 0. -1.
       -2   -1    0    0    0  501  0.00000000000E+00  0.00000000000E+00 -0.22938893693E+03  0.22938893694E+03  0.25500000920E-02 0.  1.
    10030    2    1    2    0    0  0.00000000000E+00  0.00000000000E+00  0.19323603125E+04  0.23911381863E+04  0.14083768846E+04 0.  0.
        3    1    3    3  502    0 -0.12357012932E+03 -0.90793412101E+02 -0.20069978323E+03  0.25257362042E+03  0.10100000352E+00 0.  1.
       -3    1    3    3    0  502  0.12357012932E+03  0.90793412101E+02  0.21330600957E+04  0.21385645659E+04  0.10100000352E+00 0. -1.
</event>
<event>
 5   0  0.2630135E-04  0.1651707E+04  0.7818609E-02  0.8789397E-01
        1   -1    0    0  501    0  0.00000000000E+00  0.00000000000E+00  0.16770650225E+04  0.16770650225E+04  0.50400001928E-02 0.  1.
       -1   -1    0    0    0  501  0.00000000000E+00  0.00000000000E+00 -0.40668302143E+03  0.40668302146E+03  0.50400001928E-02 0. -1.
    10030    2    1    2    0    0  0.00000000000E+00  0.00000000000E+00  0.12703820011E+04  0.20837480440E+04  0.16517068390E+04 0.  0.
        1    1    3    3  502    0 -0.19512137106E+03  0.49047761938E+03 -0.16607467445E+03  0.55337278762E+03  0.50400001928E-02 0. -1.
       -1    1    3    3    0  502  0.19512137106E+03 -0.49047761938E+03  0.14364566755E+04  0.15303752563E+04  0.50400001928E-02 0.  1.
</event>
<event>
 5   0  0.2785059E-04  0.1638103E+04  0.7818609E-02  0.8797476E-01
       -1   -1    0    0    0  501  0.00000000000E+00  0.00000000000E+00  0.73290616531E+03  0.73290616532E+03  0.50400001928E-02 0.  1.
        1   -1    0    0  501    0  0.00000000000E+00  0.00000000000E+00 -0.91532180852E+03  0.91532180853E+03  0.50400001928E-02 0. -1.
    10030    2    1    2    0    0  0.00000000000E+00  0.00000000000E+00 -0.18241564321E+03  0.16482279739E+04  0.16381025569E+04 0.  0.
        5    1    3    3  502    0  0.35741068241E+02 -0.68840876663E+03  0.35383699405E+03  0.77485918869E+03  0.46999998093E+01 0.  1.
       -5    1    3    3    0  502 -0.35741068241E+02  0.68840876663E+03 -0.53625263726E+03  0.87336878517E+03  0.46999998093E+01 0. -1.
</event>
<event>
 5   0  0.5299877E-04  0.1705446E+04  0.7818609E-02  0.8758265E-01
        2   -1    0    0  501    0  0.00000000000E+00  0.00000000000E+00  0.13391554064E+04  0.13391554064E+04  0.25500000920E-02 0.  1.
       -2   -1    0    0    0  501  0.00000000000E+00  0.00000000000E+00 -0.54298111694E+03  0.54298111694E+03  0.25500000920E-02 0. -1.
    10030    2    1    2    0    0  0.00000000000E+00  0.00000000000E+00  0.79617428948E+03  0.18821365234E+04  0.17054455117E+04 0.  0.
        3    1    3    3  502    0  0.24389468133E+03 -0.80125810631E+03  0.57479106915E+03  0.10158168890E+04  0.10100000352E+00 0.  1.
       -3    1    3    3    0  502 -0.24389468133E+03  0.80125810631E+03  0.22138322033E+03  0.86631963441E+03  0.10100000352E+00 0. -1.
</event>
<event>
 5   0  0.2785059E-04  0.1593545E+04  0.7818609E-02  0.8824523E-01
       -1   -1    0    0    0  501  0.00000000000E+00  0.00000000000E+00  0.74874618522E+03  0.74874618524E+03  0.50400001928E-02 0. -1.
        1   -1    0    0  501    0  0.00000000000E+00  0.00000000000E+00 -0.84787973848E+03  0.84787973849E+03  0.50400001928E-02 0.  1.
    10030    2    1    2    0    0  0.00000000000E+00  0.00000000000E+00 -0.99133553257E+02  0.15966259237E+04  0.15935453803E+04 0.  0.
        5    1    3    3  502    0  0.50921321001E+03 -0.55841524740E+03  0.20330762647E+03  0.78261214069E+03  0.46999998093E+01 0. -1.
       -5    1    3    3    0  502 -0.50921321001E+03  0.55841524740E+03 -0.30244117973E+03  0.81401378304E+03  0.46999998093E+01 0.  1.
</event>
<event>
 5   0  0.5021349E-04  0.1702053E+04  0.7818609E-02  0.8760194E-01
       -2   -1    0    0    0  501  0.00000000000E+00  0.00000000000E+00  0.88575964331E+03  0.88575964331E+03  0.25500000920E-02 0. -1.
        2   -1    0    0  501    0  0.00000000000E+00  0.00000000000E+00 -0.81765556487E+03  0.81765556487E+03  0.25500000920E-02 0.  1.
    10030    2    1    2    0    0  0.00000000000E+00  0.00000000000E+00  0.68104078439E+02  0.17034152082E+04  0.17020532324E+04 0.  0.
        2    1    3    3  502    0 -0.69921936898E+02  0.27417213358E+03 -0.76920273299E+03  0.81959275285E+03  0.25500000920E-02 0.  1.
       -2    1    3    3    0  502  0.69921936898E+02 -0.27417213358E+03  0.83730681142E+03  0.88382245534E+03  0.25500000920E-02 0. -1.
</event>
<event>
 5   0  0.2630135E-04  0.1712415E+04  0.7818609E-02  0.8754315E-01
       -1   -1    0    0    0  501  0.00000000000E+00  0.00000000000E+00  0.55052934605E+03  0.55052934607E+03  0.50400001928E-02 0. -1.
        1   -1    0    0  501    0  0.00000000000E+00  0.00000000000E+00 -0.13316110866E+04  0.13316110866E+04  0.50400001928E-02 0.  1.
    10030    2    1    2    0    0  0.00000000000E+00  0.00000000000E+00 -0.78108174055E+03  0.18821404327E+04  0.17124146469E+04 0.  0.
        1    1    3    3  502    0  0.22424802445E+03  0.73519839141E+03 -0.80513762621E+03  0.11131264296E+04  0.50400001928E-02 0.  1.
       -1    1    3    3    0  502 -0.22424802445E+03 -0.73519839141E+03  0.24055885664E+02  0.76901400303E+03  0.50400001928E-02 0. -1.
</event>
<event>
 5   0  0.2630135E-04  0.1709967E+04  0.7818609E-02  0.8755700E-01
       -1   -1    0    0    0  501  0.00000000000E+00  0.00000000000E+00  0.80657078155E+03  0.80657078157E+03  0.50400001928E-02 0. -1.
        1   -1    0    0  501    0  0.00000000000E+00  0.00000000000E+00 -0.90630169084E+03  0.90630169085E+03  0.50400001928E-02 0.  1.
    10030    2    1    2    0    0  0.00000000000E+00  0.00000000000E+00 -0.99730909284E+02  0.17128724724E+04  0.17099666232E+04 0.  0.
        1    1    3    3  502    0  0.29087093870E+03  0.71382140517E+03  0.32069502658E+03  0.83486058809E+03  0.50400001928E-02 0. -1.
       -1    1    3    3    0  502 -0.29087093870E+03 -0.71382140517E+03 -0.42042593586E+03  0.87801188433E+03  0.50400001928E-02 0.  1.
</event>
<event>
 5   0  0.2561518E-04  0.1716201E+04  0.7818609E-02  0.8752178E-01
       -1   -1    0    0    0  501  0.00000000000E+00  0.00000000000E+00  0.94715540161E+03  0.94715540162E+03  0.50400001928E-02 0. -1.
        1   -1    0    0  501    0  0.00000000000E+00  0.00000000000E+00 -0.77741883591E+03  0.77741883593E+03  0.50400001928E-02 0.  1.
    10030    2    1    2    0    0  0.00000000000E+00  0.00000000000E+00  0.16973656570E+03  0.17245742375E+04  0.17162009786E+04 0.  0.
        4    1    3    3  502    0 -0.50315196111E+03  0.64036239029E+03  0.35657415350E+03  0.88902903592E+03  0.12699999809E+01 0. -1.
       -4    1    3    3    0  502  0.50315196111E+03 -0.64036239029E+03 -0.18683758780E+03  0.83554520163E+03  0.12699999809E+01 0.  1.
</event>
<event>
 5   0  0.5198430E-04  0.1735048E+04  0.7818609E-02  0.8741624E-01
       -2   -1    0    0    0  501  0.00000000000E+00  0.00000000000E+00  0.56767242109E+03  0.56767242110E+03  0.25500000920E-02 0.  1.
        2   -1    0    0  501    0  0.00000000000E+00  0.00000000000E+00 -0.13257603007E+04  0.13257603007E+04  0.25500000920E-02 0. -1.
    10030    2    1    2    0    0  0.00000000000E+00  0.00000000000E+00 -0.75808787957E+03  0.18934327218E+04  0.17350476186E+04 0.  0.
        4    1    3    3  502    0  0.50589067291E+03  0.60550214050E+03  0.14481825602E+02  0.78915749459E+03  0.12699999809E+01 0.  1.
       -4    1    3    3    0  502 -0.50589067291E+03 -0.60550214050E+03 -0.77256970517E+03  0.11042752272E+04  0.12699999809E+01 0. -1.
</event>
<event>
 5   0  0.2583422E-04  0.1607668E+04  0.7818609E-02  0.8815851E-01
        1   -1    0    0  501    0  0.00000000000E+00  0.00000000000E+00  0.72943061598E+03  0.72943061600E+03  0.50400001928E-02 0.  1.
       -1   -1    0    0    0  501  0.00000000000E+00  0.00000000000E+00 -0.88582647728E+03  0.88582647729E+03  0.50400001928E-02 0. -1.
    10030    2    1    2    0    0  0.00000000000E+00  0.00000000000E+00 -0.15639586129E+03  0.16152570933E+04  0.16076678177E+04 0.  0.
        3    1    3    3  502    0 -0.27785655252E+03  0.42533183274E+02  0.67844119762E+03  0.73436762203E+03  0.10100000352E+00 0.  1.
       -3    1    3    3    0  502  0.27785655252E+03 -0.42533183274E+02 -0.83483705891E+03  0.88088947127E+03  0.10100000352E+00 0. -1.
</event>
<event>
 5   0  0.2785059E-04  0.1756140E+04  0.7818609E-02  0.8729978E-01
       -1   -1    0    0    0  501  0.00000000000E+00  0.00000000000E+00  0.26870744551E+03  0.26870744556E+03  0.50400001928E-02 0. -1.
        1   -1    0    0  501    0  0.00000000000E+00  0.00000000000E+00 -0.28693161699E+04  0.28693161699E+04  0.50400001928E-02 0.  1.
    10030    2    1    2    0    0  0.00000000000E+00  0.00000000000E+00 -0.26006087244E+04  0.31380236155E+04  0.17561396510E+04 0.  0.
        5    1    3    3  502    0 -0.26571028203E+03  0.38691751820E+02  0.19352221208E+03  0.33101652859E+03  0.46999998093E+01 0. -1.
       -5    1    3    3    0  502  0.26571028203E+03 -0.38691751820E+02 -0.27941309365E+04  0.28070070869E+04  0.46999998093E+01 0.  1.
</event>
<event>
 5   0  0.2561518E-04  0.1626650E+04  0.7818609E-02  0.8804341E-01
        1   -1    0    0  501    0  0.00000000000E+00  0.00000000000E+00  0.98819101132E+03  0.98819101133E+03  0.50400001928E-02 0. -1.
       -1   -1    0    0    0  501  0.00000000000E+00  0.00000000000E+00 -0.66940236443E+03  0.66940236445E+03  0.50400001928E-02 0.  1.
    10030    2    1    2    0    0  0.00000000000E+00  0.00000000000E+00  0.31878864689E+03  0.16575933758E+04  0.16266498081E+04 0.  0.
        4    1    3    3  502    0 -0.76607738577E+03 -0.25465927372E+03  0.58671347332E+02  0.80942562758E+03  0.12699999809E+01 0.  1.
       -4    1    3    3    0  502  0.76607738577E+03  0.25465927372E+03  0.26011729956E+03  0.84816774821E+03  0.12699999809E+01 0. -1.
</event>
<event>
 5   0  0.5021349E-04  0.1707459E+04  0.7818609E-02  0.8757122E-01
       -2   -1    0    0    0  501  0.00000000000E+00  0.00000000000E+00  0.10232626640E+04  0.10232626640E+04  0.25500000920E-02 0. -1.
        2   -1    0    0  501    0  0.00000000000E+00  0.00000000000E+00 -0.71228434378E+03  0.71228434378E+03  0.25500000920E-02 0.  1.
    10030    2    1    2    0    0  0.00000000000E+00  0.00000000000E+00  0.31097832020E+03  0.17355470078E+04  0.17074589016E+04 0.  0.
        2    1    3    3  502    0  0.16731451191E+03  0.43660867441E+03 -0.57056708288E+03  0.73767748816E+03  0.25500000920E-02 0.  1.
       -2    1    3    3    0  502 -0.16731451191E+03 -0.43660867441E+03  0.88154540308E+03  0.99786951961E+03  0.25500000920E-02 0. -1.
</event>
<event>
 5   0  0.5198430E-04  0.1689667E+04  0.7818609E-02  0.8767279E-01
        2   -1    0    0  501    0  0.00000000000E+00  0.00000000000E+00  0.71843591081E+03  0.71843591082E+03  0.25500000920E-02 0.  1.
       -2   -1    0    0    0  501  0.00000000000E+00  0.00000000000E+00 -0.99346925752E+03  0.99346925753E+03  0.25500000920E-02 0. -1.
    10030    2    1    2    0    0  0.00000000000E+00  0.00000000000E+00 -0.27503334671E+03  0.17119051683E+04  0.16896674121E+04 0.  0.
        4    1    3    3  502    0 -0.78239174085E+03 -0.29372082988E+03 -0.26297536834E+03  0.87610868008E+03  0.12699999809E+01 0.  1.
       -4    1    3    3    0  502  0.78239174085E+03  0.29372082988E+03 -0.12057978364E+02  0.83579648827E+03  0.12699999809E+01 0. -1.
</event>
<event>
 5   0  0.5198430E-04  0.1699629E+04  0.7818609E-02  0.8761576E-01
        2   -1    0    0  501    0  0.00000000000E+00  0.00000000000E+00  0.80733510062E+03  0.80733510063E+03  0.25500000920E-02 0. -1.
       -2   -1    0    0    0  501  0.00000000000E+00  0.00000000000E+00 -0.89452869564E+03  0.89452869565E+03  0.25500000920E-02 0.  1.
    10030    2    1    2    0    0  0.00000000000E+00  0.00000000000E+00 -0.87193595020E+02  0.17018637963E+04  0.16996286824E+04 0.  0.
        4    1    3    3  502    0 -0.16720155394E+03  0.57129045168E+03  0.56371020664E+03  0.81981702215E+03  0.12699999809E+01 0. -1.
       -4    1    3    3    0  502  0.16720155394E+03 -0.57129045168E+03 -0.65090380166E+03  0.88204677413E+03  0.12699999809E+01 0.  1.
</event>
<event>
 5   0  0.2561518E-04  0.1737314E+04  0.7818609E-02  0.8740364E-01
       -1   -1    0    0    0  501  0.00000000000E+00  0.00000000000E+00  0.46777016443E+03  0.46777016446E+03  0.50400001928E-02 0.  1.
        1   -1    0    0  501    0  0.00000000000E+00  0.00000000000E+00 -0.16131103451E+04  0.16131103451E+04  0.50400001928E-02 0. -1.
    10030    2    1    2    0    0  0.00000000000E+00  0.00000000000E+00 -0.11453401806E+04  0.20808805095E+04  0.17373138938E+04 0.  0.
        4    1    3    3  502    0 -0.42152140641E+03 -0.53317809472E+03 -0.12205716933E+04  0.13970526290E+04  0.12699999809E+01 0. -1.
       -4    1    3    3    0  502  0.42152140641E+03  0.53317809472E+03  0.75231512710E+02  0.68382788051E+03  0.12699999809E+01 0.  1.
</event>
<event>
 5   0  0.5021349E-04  0.1712830E+04  0.7818609E-02  0.8754080E-01
       -2   -1    0    0    0  501  0.00000000000E+00  0.00000000000E+00  0.40851048299E+03  0.40851048300E+03  0.25500000920E-02 0.  1.
        2   -1    0    0  501    0  0.00000000000E+00  0.00000000000E+00 -0.17954178989E+04  0.17954178989E+04  0.25500000920E-02 0. -1.
    10030    2    1    2    0    0  0.00000000000E+00  0.00000000000E+00 -0.13869074159E+04  0.22039283819E+04  0.17128304447E+04 0.  0.
        2    1    3    3  502    0  0.67030734941E+03 -0.22838407258E+03 -0.13131864619E+04  0.14919550633E+04  0.25500000920E-02 0. -1.
       -2    1    3    3    0  502 -0.67030734941E+03  0.22838407258E+03 -0.73720953992E+02  0.71197331856E+03  0.25500000920E-02 0.  1.
</event>
<event>
 5   0  0.5198430E-04  0.1679191E+04  0.7818609E-02  0.8773322E-01
        2   -1    0    0  501    0  0.00000000000E+00  0.00000000000E+00  0.20849998297E+04  0.20849998297E+04  0.25500000920E-02 0.  1.
       -2   -1    0    0    0  501  0.00000000000E+00  0.00000000000E+00 -0.33809131958E+03  0.33809131959E+03  0.25500000920E-02 0. -1.
    10030    2    1    2    0    0  0.00000000000E+00  0.00000000000E+00  0.17469085101E+04  0.24230911493E+04  0.16791906905E+04 0.  0.
        4    1    3    3  502    0 -0.34709052670E+03  0.64300697717E+03  0.14701510756E+04  0.16417294553E+04  0.12699999809E+01 0.  1.
       -4    1    3    3    0  502  0.34709052670E+03 -0.64300697717E+03  0.27675743457E+03  0.78136169403E+03  0.12699999809E+01 0. -1.
</event>
<event>
 5   0  0.5342255E-04  0.1689474E+04  0.7818609E-02  0.8767391E-01
        2   -1    0    0  501    0  0.00000000000E+00  0.00000000000E+00  0.13934586095E+04  0.13934586095E+04  0.25500000920E-02 0. -1.
       -2   -1    0    0    0  501  0.00000000000E+00  0.00000000000E+00 -0.51209311017E+03  0.51209311018E+03  0.25500000920E-02 0.  1.
    10030    2    1    2    0    0  0.00000000000E+00  0.00000000000E+00  0.88136549935E+03  0.19055517197E+04  0.16894739456E+04 0.  0.
        5    1    3    3  502    0  0.47021608062E+03 -0.13696631333E+02  0.12320351313E+04  0.13187961991E+04  0.46999998093E+01 0. -1.
       -5    1    3    3    0  502 -0.47021608062E+03  0.13696631333E+02 -0.35066963190E+03  0.58675552057E+03  0.46999998093E+01 0.  1.
</event>
<event>
 5   0  0.1910750E-04  0.1702466E+04  0.7818609E-02  0.8759959E-01
        4   -1    0    0  501    0  0.00000000000E+00  0.00000000000E+00  0.58015576117E+03  0.58015715122E+03  0.12699999809E+01 0. -1.
       -4   -1    0    0    0  501  0.00000000000E+00  0.00000000000E+00 -0.12489677989E+04  0.12489684446E+04  0.12699999809E+01 0.  1.
    10030    2    1    2    0    0  0.00000000000E+00  0.00000000000E+00 -0.66881203777E+03  0.18291255959E+04  0.17024661241E+04 0.  0.
        3    1    3    3  502    0  0.13977819061E+03  0.76152457710E+03 -0.71447574887E+03  0.10535336872E+04  0.10100000352E+00 0.  1.
       -3    1    3    3    0  502 -0.13977819061E+03 -0.76152457710E+03  0.45663711095E+02  0.77559190868E+03  0.10100000352E+00 0. -1.
</event>
<event>
 5   0  0.5342255E-04  0.1685723E+04  0.7818609E-02  0.8769549E-01
        2   -1    0    0  501    0  0.00000000000E+00  0.00000000000E+00  0.92889403494E+03  0.92889403495E+03  0.25500000920E-02 0. -1.
       -2   -1    0    0    0  501  0.00000000000E+00  0.00000000000E+00 -0.76479725178E+03  0.76479725178E+03  0.25500000920E-02 0.  1.
    10030    2    1    2    0    0  0.00000000000E+00  0.00000000000E+00  0.16409678316E+03  0.16936912867E+04  0.16857231150E+04 0.  0.
        5    1    3    3  502    0 -0.63762258306E+03 -0.20530854083E+03 -0.43191566184E+03  0.79704917308E+03  0.46999998093E+01 0.  1.
       -5    1    3    3    0  502  0.63762258306E+03  0.20530854083E+03  0.59601244500E+03  0.89664211365E+03  0.46999998093E+01 0. -1.
</event>
<event>
 5   0  0.2785059E-04  0.1671287E+04  0.7818609E-02  0.8777912E-01
       -1   -1    0    0    0  501  0.00000000000E+00  0.00000000000E+00  0.80869978151E+03  0.80869978152E+03  0.50400001928E-02 0. -1.
        1   -1    0    0  501    0  0.00000000000E+00  0.00000000000E+00 -0.86348481537E+03  0.86348481538E+03  0.50400001928E-02 0.  1.
    10030    2    1    2    0    0  0.00000000000E+00  0.00000000000E+00 -0.54785033858E+02  0.16721845969E+04  0.16712869072E+04 0.  0.
        5    1    3    3  502    0  0.52126449886E+01 -0.68310926625E+03  0.45412729228E+03  0.82031648094E+03  0.46999998093E+01 0. -1.
       -5    1    3    3    0  502 -0.52126449886E+01  0.68310926625E+03 -0.50891232614E+03  0.85186811597E+03  0.46999998093E+01 0.  1.
</event>
<event>
 5   0  0.2595644E-04  0.1827324E+04  0.7818609E-02  0.8691902E-01
       -1   -1    0    0    0  501  0.00000000000E+00  0.00000000000E+00  0.41690002401E+03  0.41690002404E+03  0.50400001928E-02 0. -1.
        1   -1    0    0  501    0  0.00000000000E+00  0.00000000000E+00 -0.20023460758E+04  0.20023460758E+04  0.50400001928E-02 0.  1.
    10030    2    1    2    0    0  0.00000000000E+00  0.00000000000E+00 -0.15854460518E+04  0.24192460998E+04  0.18273238652E+04 0.  0.
        2    1    3    3  502    0  0.42503506414E+03  0.28412201160E+03 -0.17952420247E+04  0.18666210248E+04  0.25500000920E-02 0.  1.
       -2    1    3    3    0  502 -0.42503506414E+03 -0.28412201160E+03  0.20979597291E+03  0.55262507497E+03  0.25500000920E-02 0. -1.
</event>
<event>
 5   0  0.5310003E-04  0.1674091E+04  0.7818609E-02  0.8776281E-01
       -2   -1    0    0    0  501  0.00000000000E+00  0.00000000000E+00  0.40872209914E+03  0.40872209914E+03  0.25500000920E-02 0.  1.
        2   -1    0    0  501    0  0.00000000000E+00  0.00000000000E+00 -0.17142341861E+04  0.17142341861E+04  0.25500000920E-02 0. -1.
    10030    2    1    2    0    0  0.00000000000E+00  0.00000000000E+00 -0.13055120870E+04  0.21229562853E+04  0.16740912699E+04 0.  0.
        1    1    3    3  502    0  0.70620388579E+03 -0.44858839945E+03 -0.68606488749E+03  0.10819614181E+04  0.50400001928E-02 0.  1.
       -1    1    3    3    0  502 -0.70620388579E+03  0.44858839945E+03 -0.61944719949E+03  0.10409948671E+04  0.50400001928E-02 0. -1.
</event>
<event>
 5   0  0.2561518E-04  0.1722144E+04  0.7818609E-02  0.8748834E-01
        1   -1    0    0  501    0  0.00000000000E+00  0.00000000000E+00  0.15526509910E+04  0.15526509910E+04  0.50400001928E-02 0. -1.
       -1   -1    0    0    0  501  0.00000000000E+00  0.00000000000E+00 -0.47753510175E+03  0.47753510177E+03  0.50400001928E-02 0.  1.
    10030    2    1    2    0    0  0.00000000000E+00  0.00000000000E+00  0.10751158893E+04  0.20301860928E+04  0.17221444179E+04 0.  0.
        4    1    3    3  502    0 -0.36722420078E+03  0.57614502713E+03 -0.80250348556E+02  0.68792327862E+03  0.12699999809E+01 0.  1.
       -4    1    3    3    0  502  0.36722420078E+03 -0.57614502713E+03  0.11553662378E+04  0.13422628142E+04  0.12699999809E+01 0. -1.
</event>
<event>
 5   0  0.5299877E-04  0.1699909E+04  0.7818609E-02  0.8761416E-01
       -2   -1    0    0    0  501  0.00000000000E+00  0.00000000000E+00  0.45918120501E+03  0.45918120502E+03  0.25500000920E-02 0. -1.
        2   -1    0    0  501    0  0.00000000000E+00  0.00000000000E+00 -0.15732847983E+04  0.15732847983E+04  0.25500000920E-02 0.  1.
    10030    2    1    2    0    0  0.00000000000E+00  0.00000000000E+00 -0.11141035933E+04  0.20324660033E+04  0.16999091853E+04 0.  0.
        3    1    3    3  502    0 -0.48471193786E+03  0.26960938616E+03 -0.13270870654E+04  0.14383306203E+04  0.10100000352E+00 0.  1.
       -3    1    3    3    0  502  0.48471193786E+03 -0.26960938616E+03  0.21298347212E+03  0.59413538306E+03  0.10100000352E+00 0. -1.
</event>
<event>
 5   0  0.2785059E-04  0.1698396E+04  0.7818609E-02  0.8762280E-01
       -1   -1    0    0    0  501  0.00000000000E+00  0.00000000000E+00  0.45051573033E+03  0.45051573036E+03  0.50400001928E-02 0.  1.
        1   -1    0    0  501    0  0.00000000000E+00  0.00000000000E+00 -0.16006924054E+04  0.16006924054E+04  0.50400001928E-02 0. -1.
    10030    2    1    2    0    0  0.00000000000E+00  0.00000000000E+00 -0.11501766751E+04  0.20512081358E+04  0.16983958409E+04 0.  0.
        5    1    3    3  502    0  0.55453556752E+03  0.55157843126E+03 -0.17568371942E+03  0.80164538341E+03  0.46999998093E+01 0.  1.
       -5    1    3    3    0  502 -0.55453556752E+03 -0.55157843126E+03 -0.97449295563E+03  0.12495627523E+04  0.46999998093E+01 0. -1.
</event>
<event>
 5   0  0.2583422E-04  0.1661332E+04  0.7818609E-02  0.8783730E-01
       -1   -1    0    0    0  501  0.00000000000E+00  0.00000000000E+00  0.78072215812E+03  0.78072215814E+03  0.50400001928E-02 0.  1.
        1   -1    0    0  501    0  0.00000000000E+00  0.00000000000E+00 -0.88380523805E+03  0.88380523806E+03  0.50400001928E-02 0. -1.
    10030    2    1    2    0    0  0.00000000000E+00  0.00000000000E+00 -0.10308307992E+03  0.16645273962E+04  0.16613323964E+04 0.  0.
        3    1    3    3  502    0  0.26965187638E+03 -0.78154635627E+03 -0.13219156944E+03  0.83725830105E+03  0.10100000352E+00 0. -1.
       -3    1    3    3    0  502 -0.26965187638E+03  0.78154635627E+03  0.29108489521E+02  0.82726909516E+03  0.10100000352E+00 0.  1.
</event>
<event>
 5   0  0.1910750E-04  0.1720255E+04  0.7818609E-02  0.8749896E-01
        3   -1    0    0  501    0  0.00000000000E+00  0.00000000000E+00  0.81098257228E+03  0.81098257857E+03  0.10100000352E+00 0.  1.
       -3   -1    0    0    0  501  0.00000000000E+00  0.00000000000E+00 -0.91225056229E+03  0.91225056788E+03  0.10100000352E+00 0. -1.
    10030    2    1    2    0    0  0.00000000000E+00  0.00000000000E+00 -0.10126799000E+03  0.17232331465E+04  0.17202550018E+04 0.  0.
        2    1    3    3  502    0  0.30312430400E+03 -0.64779697400E+03  0.42799445648E+03  0.83348936285E+03  0.25500000920E-02 0.  1.
       -2    1    3    3    0  502 -0.30312430400E+03  0.64779697400E+03 -0.52926244648E+03  0.88974378360E+03  0.25500000920E-02 0. -1.
</event>
<event>
 5   0  0.5021349E-04  0.1588013E+04  0.7818609E-02  0.8827946E-01
       -2   -1    0    0    0  501  0.00000000000E+00  0.00000000000E+00  0.95339794774E+03  0.95339794775E+03  0.25500000920E-02 0. -1.
        2   -1    0    0  501    0  0.00000000000E+00  0.00000000000E+00 -0.66126280434E+03  0.66126280434E+03  0.25500000920E-02 0.  1.
    10030    2    1    2    0    0  0.00000000000E+00  0.00000000000E+00  0.29213514340E+03  0.16146607521E+04  0.15880133508E+04 0.  0.
        2    1    3    3  502    0  0.29805619608E+02  0.18017278993E+03  0.93175393853E+03  0.94948196990E+03  0.25500000920E-02 0. -1.
       -2    1    3    3    0  502 -0.29805619608E+02 -0.18017278993E+03 -0.63961879513E+03  0.66517878219E+03  0.25500000920E-02 0.  1.
</event>
<event>
 5   0  0.5342255E-04  0.1732166E+04  0.7818609E-02  0.8743229E-01
        2   -1    0    0  501    0  0.00000000000E+00  0.00000000000E+00  0.16643510484E+04  0.16643510484E+04  0.25500000920E-02 0.  1.
       -2   -1    0    0    0  501  0.00000000000E+00  0.00000000000E+00 -0.45068605953E+03  0.45068605954E+03  0.25500000920E-02 0. -1.
    10030    2    1    2    0    0  0.00000000000E+00  0.00000000000E+00  0.12136649889E+04  0.21150371080E+04  0.17321660610E+04 0.  0.
        5    1    3    3  502    0  0.65678019022E+03 -0.36662561259E+03  0.82635090123E+02  0.75672003158E+03  0.46999998093E+01 0.  1.
       -5    1    3    3    0  502 -0.65678019022E+03  0.36662561259E+03  0.11310298988E+04  0.13583170764E+04  0.46999998093E+01 0. -1.
</event>
<event>
 5   0  0.2561518E-04  0.1714722E+04  0.7818609E-02  0.8753012E-01
        1   -1    0    0  501    0  0.00000000000E+00  0.00000000000E+00  0.17023384494E+04  0.17023384494E+04  0.50400001928E-02 0. -1.
       -1   -1    0    0    0  501  0.00000000000E+00  0.00000000000E+00 -0.43179893285E+03  0.43179893288E+03  0.50400001928E-02 0.  1.
    10030    2    1    2    0    0  0.00000000000E+00  0.00000000000E+00  0.12705395165E+04  0.21341373823E+04  0.17147220484E+04 0.  0.
        4    1    3    3  502    0 -0.33541546527E+03 -0.56058928846E+03  0.13263319188E+04  0.14784863396E+04  0.12699999809E+01 0.  1.
       -4    1    3    3    0  502  0.33541546527E+03  0.56058928846E+03 -0.55792402269E+02  0.65565104265E+03  0.12699999809E+01 0. -1.
</event>
<event>
 5   0  0.5198430E-04  0.1697086E+04  0.7818609E-02  0.8763028E-01
        2   -1    0    0  501    0  0.00000000000E+00  0.00000000000E+00  0.10726641819E+04  0.10726641819E+04  0.25500000920E-02 0. -1.
       -2   -1    0    0    0  501  0.00000000000E+00  0.00000000000E+00 -0.67124971888E+03  0.67124971889E+03  0.25500000920E-02 0.  1.
    10030    2    1    2    0    0  0.00000000000E+00  0.00000000000E+00  0.40141446299E+03  0.17439139008E+04  0.16970863626E+04 0.  0.
        4    1    3    3  502    0 -0.37773744249E+03 -0.74480296327E+03  0.46202605168E+02  0.83639304348E+03  0.12699999809E+01 0.  1.
       -4    1    3    3    0  502  0.37773744249E+03  0.74480296327E+03  0.35521185782E+03  0.90752085728E+03  0.12699999809E+01 0. -1.
</event>
<event>
 5   0  0.2785059E-04  0.1793476E+04  0.7818609E-02  0.8709777E-01
        1   -1    0    0  501    0  0.00000000000E+00  0.00000000000E+00  0.90392839133E+03  0.90392839134E+03  0.50400001928E-02 0.  1.
       -1   -1    0    0    0  501  0.00000000000E+00  0.00000000000E+00 -0.88960469131E+03  0.88960469133E+03  0.50400001928E-02 0. -1.
    10030    2    1    2    0    0  0.00000000000E+00  0.00000000000E+00  0.14323700018E+02  0.17935330827E+04  0.17934758850E+04 0.  0.
        5    1    3    3  502    0 -0.17836891194E+03 -0.77420332109E+03  0.42300031090E+03  0.90008755360E+03  0.46999998093E+01 0.  1.
       -5    1    3    3    0  502  0.17836891194E+03  0.77420332109E+03 -0.40867661088E+03  0.89344552907E+03  0.46999998093E+01 0. -1.
</event>
<event>
 5   0  0.5021349E-04  0.1703257E+04  0.7818609E-02  0.8759509E-01
        2   -1    0    0  501    0  0.00000000000E+00  0.00000000000E+00  0.18514658095E+04  0.18514658095E+04  0.25500000920E-02 0.  1.
       -2   -1    0    0    0  501  0.00000000000E+00  0.00000000000E+00 -0.39172816410E+03  0.39172816411E+03  0.25500000920E-02 0. -1.
    10030    2    1    2    0    0  0.00000000000E+00  0.00000000000E+00  0.14597376454E+04  0.22431939736E+04  0.17032572354E+04 0.  0.
        2    1    3    3  502    0  0.63651152364E+03  0.23589830841E+03  0.14071671849E+04  0.15623426058E+04  0.25500000920E-02 0.  1.
       -2    1    3    3    0  502 -0.63651152364E+03 -0.23589830841E+03  0.52570460421E+02  0.68085136774E+03  0.25500000920E-02 0. -1.
</event>
<event>
 5   0  0.5299877E-04  0.1761697E+04  0.7818609E-02  0.8726938E-01
       -2   -1    0    0    0  501  0.00000000000E+00  0.00000000000E+00  0.11736571623E+04  0.11736571623E+04  0.25500000920E-02 0.  1.
        2   -1    0    0  501    0  0.00000000000E+00  0.00000000000E+00 -0.66109126674E+03  0.66109126674E+03  0.25500000920E-02 0. -1.
    10030    2    1    2    0    0  0.00000000000E+00  0.00000000000E+00  0.51256589559E+03  0.18347484291E+04  0.17616974771E+04 0.  0.
        3    1    3    3  502    0  0.41345669116E+03 -0.73653241931E+03  0.51658294658E+03  0.99009312242E+03  0.10100000352E+00 0.  1.
       -3    1    3    3    0  502 -0.41345669116E+03  0.73653241931E+03 -0.40170509845E+01  0.84465530666E+03  0.10100000352E+00 0. -1.
</event>
<event>
 5   0  0.2595644E-04  0.1710550E+04  0.7818609E-02  0.8755370E-01
        1   -1    0    0  501    0  0.00000000000E+00  0.00000000000E+00  0.18211546339E+04  0.18211546339E+04  0.50400001928E-02 0.  1.
       -1   -1    0    0    0  501  0.00000000000E+00  0.00000000000E+00 -0.40166571335E+03  0.40166571338E+03  0.50400001928E-02 0. -1.
    10030    2    1    2    0    0  0.00000000000E+00  0.00000000000E+00  0.14194889206E+04  0.22228203473E+04  0.17105500580E+04 0.  0.
        2    1    3    3  502    0 -0.45366434555E+03  0.42968967140E+03  0.14686332309E+04  0.15960351246E+04  0.25500000920E-02 0.  1.
       -2    1    3    3    0  502  0.45366434555E+03 -0.42968967140E+03 -0.49144310334E+02  0.62678522269E+03  0.25500000920E-02 0. -1.
</event>
<event>
 5   0  0.2785059E-04  0.1680332E+04  0.7818609E-02  0.8772662E-01
        1   -1    0    0  501    0  0.00000000000E+00  0.00000000000E+00  0.15901781295E+04  0.15901781295E+04  0.50400001928E-02 0.  1.
       -1   -1    0    0    0  501  0.00000000000E+00  0.00000000000E+00 -0.44389908465E+03  0.44389908468E+03  0.50400001928E-02 0. -1.
    10030    2    1    2    0    0  0.00000000000E+00  0.00000000000E+00  0.11462790449E+04  0.20340772142E+04  0.16803316532E+04 0.  0.
        5    1    3    3  502    0 -0.32482070904E+03 -0.74287970014E+03  0.83966811574E+03  0.11672374979E+04  0.46999998093E+01 0.  1.
       -5    1    3    3    0  502  0.32482070904E+03  0.74287970014E+03  0.30661092911E+03  0.86683971630E+03  0.46999998093E+01 0. -1.
</event>
<event>
 5   0  0.5299877E-04  0.1696103E+04  0.7818609E-02  0.8763590E-01
        2   -1    0    0  501    0  0.00000000000E+00  0.00000000000E+00  0.15315356494E+04  0.15315356494E+04  0.25500000920E-02 0.  1.
       -2   -1    0    0    0  501  0.00000000000E+00  0.00000000000E+00 -0.46958821438E+03  0.46958821438E+03  0.25500000920E-02 0. -1.
    10030    2    1    2    0    0  0.00000000000E+00  0.00000000000E+00  0.10619474350E+04  0.20011238638E+04  0.16961026984E+04 0.  0.
        3    1    3    3  502    0 -0.40297499677E+03 -0.92227875470E+02  0.14046075905E+04  0.14641780365E+04  0.10100000352E+00 0.  1.
       -3    1    3    3    0  502  0.40297499677E+03  0.92227875470E+02 -0.34266015551E+03  0.53694582726E+03  0.10100000352E+00 0. -1.
</event>
<event>
 5   0  0.5299877E-04  0.1349592E+04  0.7818609E-02  0.8991137E-01
       -2   -1    0    0    0  501  0.00000000000E+00  0.00000000000E+00  0.59523346572E+03  0.59523346573E+03  0.25500000920E-02 0. -1.
        2   -1    0    0  501    0  0.00000000000E+00  0.00000000000E+00 -0.76499330330E+03  0.76499330330E+03  0.25500000920E-02 0.  1.
    10030    2    1    2    0    0  0.00000000000E+00  0.00000000000E+00 -0.16975983758E+03  0.13602267690E+04  0.13495919608E+04 0.  0.
        3    1    3    3  502    0 -0.24464196973E+03 -0.29415786842E+03  0.47535185487E+03  0.61019500247E+03  0.10100000352E+00 0. -1.
       -3    1    3    3    0  502  0.24464196973E+03  0.29415786842E+03 -0.64511169245E+03  0.75003176656E+03  0.10100000352E+00 0.  1.
</event>
<event>
 5   0  0.5021349E-04  0.1682296E+04  0.7818609E-02  0.8771526E-01
       -2   -1    0    0    0  501  0.00000000000E+00  0.00000000000E+00  0.10881868319E+04  0.10881868319E+04  0.25500000920E-02 0. -1.
        2   -1    0    0  501    0  0.00000000000E+00  0.00000000000E+00 -0.65019180692E+03  0.65019180693E+03  0.25500000920E-02 0.  1.
    10030    2    1    2    0    0  0.00000000000E+00  0.00000000000E+00  0.43799502500E+03  0.17383786388E+04  0.16822962433E+04 0.  0.
        2    1    3    3  502    0 -0.35183480654E+03 -0.13360381072E+03  0.99633364047E+03  0.10650438641E+04  0.25500000920E-02 0. -1.
       -2    1    3    3    0  502  0.35183480654E+03  0.13360381072E+03 -0.55833861547E+03  0.67333477474E+03  0.25500000920E-02 0.  1.
</event>
<event>
 5   0  0.2630135E-04  0.1704599E+04  0.7818609E-02  0.8758745E-01
       -1   -1    0    0    0  501  0.00000000000E+00  0.00000000000E+00  0.42021104590E+03  0.42021104593E+03  0.50400001928E-02 0. -1.
        1   -1    0    0  501    0  0.00000000000E+00  0.00000000000E+00 -0.17286904090E+04  0.17286904090E+04  0.50400001928E-02 0.  1.
    10030    2    1    2    0    0  0.00000000000E+00  0.00000000000E+00 -0.13084793631E+04  0.21489014549E+04  0.17045994308E+04 0.  0.
        1    1    3    3  502    0 -0.76206449745E+02  0.10547661414E+03  0.40761447587E+03  0.42788117519E+03  0.50400001928E-02 0. -1.
       -1    1    3    3    0  502  0.76206449745E+02 -0.10547661414E+03 -0.17160938390E+04  0.17210202798E+04  0.50400001928E-02 0.  1.
</event>
<event>
 5   0  0.5198430E-04  0.1423777E+04  0.7818609E-02  0.8936785E-01
       -2   -1    0    0    0  501  0.00000000000E+00  0.00000000000E+00  0.46549915361E+03  0.46549915362E+03  0.25500000920E-02 0.  1.
        2   -1    0    0  501    0  0.00000000000E+00  0.00000000000E+00 -0.10886919003E+04  0.10886919003E+04  0.25500000920E-02 0. -1.
    10030    2    1    2    0    0  0.00000000000E+00  0.00000000000E+00 -0.62319274671E+03  0.15541910539E+04  0.14237768900E+04 0.  0.
        4    1    3    3  502    0  0.78495049824E+02 -0.37129045852E+03 -0.96906560731E+03  0.10407246714E+04  0.12699999809E+01 0. -1.
       -4    1    3    3    0  502 -0.78495049824E+02  0.37129045852E+03  0.34587286060E+03  0.51346638257E+03  0.12699999809E+01 0.  1.
</event>
<event>
 5   0  0.5299877E-04  0.1850025E+04  0.7818609E-02  0.8680140E-01
       -2   -1    0    0    0  501  0.00000000000E+00  0.00000000000E+00  0.31335315305E+04  0.31335315305E+04  0.25500000920E-02 0.  1.
        2   -1    0    0  501    0  0.00000000000E+00  0.00000000000E+00 -0.27306182370E+03  0.27306182371E+03  0.25500000920E-02 0. -1.
    10030    2    1    2    0    0  0.00000000000E+00  0.00000000000E+00  0.28604697068E+04  0.34065933542E+04  0.18500246856E+04 0.  0.
        3    1    3    3  502    0  0.51800390128E+03 -0.25684998088E+03  0.10067904061E+03  0.58688690038E+03  0.10100000352E+00 0. -1.
       -3    1    3    3    0  502 -0.51800390128E+03  0.25684998088E+03  0.27597906662E+04  0.28197064538E+04  0.10100000352E+00 0.  1.
</event>
<event>
 5   0  0.2595644E-04  0.1719913E+04  0.7818609E-02  0.8750088E-01
        1   -1    0    0  501    0  0.00000000000E+00  0.00000000000E+00  0.54994347789E+03  0.54994347791E+03  0.50400001928E-02 0.  1.
       -1   -1    0    0    0  501  0.00000000000E+00  0.00000000000E+00 -0.13447290252E+04  0.13447290252E+04  0.50400001928E-02 0. -1.
    10030    2    1    2    0    0  0.00000000000E+00  0.00000000000E+00 -0.79478554734E+03  0.18946725031E+04  0.17199127385E+04 0.  0.
        2    1    3    3  502    0 -0.51786849750E+03 -0.67423234312E+03 -0.53995623365E+03  0.10071393982E+04  0.25500000920E-02 0.  1.
       -2    1    3    3    0  502  0.51786849750E+03  0.67423234312E+03 -0.25482931369E+03  0.88753310492E+03  0.25500000920E-02 0. -1.
</event>
<event>
 5   0  0.2630135E-04  0.1663998E+04  0.7818609E-02  0.8782168E-01
        1   -1    0    0  501    0  0.00000000000E+00  0.00000000000E+00  0.13561128927E+04  0.13561128927E+04  0.50400001928E-02 0.  1.
       -1   -1    0    0    0  501  0.00000000000E+00  0.00000000000E+00 -0.51044623917E+03  0.51044623920E+03  0.50400001928E-02 0. -1.
    10030    2    1    2    0    0  0.00000000000E+00  0.00000000000E+00  0.84566665353E+03  0.18665591319E+04  0.16639984688E+04 0.  0.
        1    1    3    3  502    0 -0.51148300454E+03  0.21095561914E+03 -0.27418127215E+03  0.61748887213E+03  0.50400001928E-02 0. -1.
       -1    1    3    3    0  502  0.51148300454E+03 -0.21095561914E+03  0.11198479257E+04  0.12490702598E+04  0.50400001928E-02 0.  1.
</event>
<event>
 5   0  0.5310003E-04  0.1693040E+04  0.7818609E-02  0.8765344E-01
        2   -1    0    0  501    0  0.00000000000E+00  0.00000000000E+00  0.90703492992E+03  0.90703492993E+03  0.25500000920E-02 0. -1.
       -2   -1    0    0    0  501  0.00000000000E+00  0.00000000000E+00 -0.79004254408E+03  0.79004254408E+03  0.25500000920E-02 0.  1.
    10030    2    1    2    0    0  0.00000000000E+00  0.00000000000E+00  0.11699238584E+03  0.16970774740E+04  0.16930400865E+04 0.  0.
        1    1    3    3  502    0  0.69909498737E+03  0.18480857561E+03 -0.38267627307E+03  0.81812538219E+03  0.50400001928E-02 0.  1.
       -1    1    3    3    0  502 -0.69909498737E+03 -0.18480857561E+03  0.49966865891E+03  0.87895209182E+03  0.50400001928E-02 0. -1.
</event>
<event>
 5   0  0.2785059E-04  0.1741410E+04  0.7818609E-02  0.8738093E-01
       -1   -1    0    0    0  501  0.00000000000E+00  0.00000000000E+00  0.71295322350E+03  0.71295322352E+03  0.50400001928E-02 0.  1.
        1   -1    0    0  501    0  0.00000000000E+00  0.00000000000E+00 -0.10633620171E+04  0.10633620171E+04  0.50400001928E-02 0. -1.
    10030    2    1    2    0    0  0.00000000000E+00  0.00000000000E+00 -0.35040879363E+03  0.17763152407E+04  0.17414102077E+04 0.  0.
        5    1    3    3  502    0 -0.65508034471E+03 -0.36500894274E+03 -0.62650159022E+03  0.97718376923E+03  0.46999998093E+01 0.  1.
       -5    1    3    3    0  502  0.65508034471E+03  0.36500894274E+03  0.27609279660E+03  0.79913147143E+03  0.46999998093E+01 0. -1.
</event>
<event>
 5   0  0.2561518E-04  0.1686978E+04  0.7818609E-02  0.8768826E-01
        1   -1    0    0  501    0  0.00000000000E+00  0.00000000000E+00  0.16254210409E+04  0.16254210410E+04  0.50400001928E-02 0.  1.
       -1   -1    0    0    0  501  0.00000000000E+00  0.00000000000E+00 -0.43771639167E+03  0.43771639170E+03  0.50400001928E-02 0. -1.
    10030    2    1    2    0    0  0.00000000000E+00  0.00000000000E+00  0.11877046493E+04  0.20631374327E+04  0.16869776917E+04 0.  0.
        4    1    3    3  502    0  0.46651978250E+02 -0.38696912984E+03 -0.32097344107E+03  0.50492284291E+03  0.12699999809E+01 0. -1.
       -4    1    3    3    0  502 -0.46651978250E+02  0.38696912984E+03  0.15086780903E+04  0.15582145897E+04  0.12699999809E+01 0.  1.
</event>
<event>
 5   0  0.5299877E-04  0.1703061E+04  0.7818609E-02  0.8759621E-01
        2   -1    0    0  501    0  0.00000000000E+00  0.00000000000E+00  0.73154292700E+03  0.73154292701E+03  0.25500000920E-02 0. -1.
       -2   -1    0    0    0  501  0.00000000000E+00  0.00000000000E+00 -0.99119796887E+03  0.99119796888E+03  0.25500000920E-02 0.  1.
    10030    2    1    2    0    0  0.00000000000E+00  0.00000000000E+00 -0.25965504187E+03  0.17227408959E+04  0.17030606136E+04 0.  0.
        3    1    3    3  502    0 -0.25072793492E+03  0.29652463292E+03 -0.89641900763E+03  0.97691268941E+03  0.10100000352E+00 0. -1.
       -3    1    3    3    0  502  0.25072793492E+03 -0.29652463292E+03  0.63676396576E+03  0.74582820648E+03  0.10100000352E+00 0.  1.
</event>
<event>
 5   0  0.2561518E-04  0.1651874E+04  0.7818609E-02  0.8789298E-01
        1   -1    0    0  501    0  0.00000000000E+00  0.00000000000E+00  0.84194195904E+03  0.84194195905E+03  0.50400001928E-02 0. -1.
       -1   -1    0    0    0  501  0.00000000000E+00  0.00000000000E+00 -0.81023658822E+03  0.81023658823E+03  0.50400001928E-02 0.  1.
    10030    2    1    2    0    0  0.00000000000E+00  0.00000000000E+00  0.31705370819E+02  0.16521785473E+04  0.16518743056E+04 0.  0.
        4    1    3    3  502    0  0.21680134908E+03  0.60623239546E+03  0.53329700675E+03  0.83601905037E+03  0.12699999809E+01 0. -1.
       -4    1    3    3    0  502 -0.21680134908E+03 -0.60623239546E+03 -0.50159163593E+03  0.81615949692E+03  0.12699999809E+01 0.  1.
</event>
<event>
 5   0  0.2630135E-04  0.1705273E+04  0.7818609E-02  0.8758363E-01
        1   -1    0    0  501    0  0.00000000000E+00  0.00000000000E+00  0.34066749663E+03  0.34066749666E+03  0.50400001928E-02 0.  1.
       -1   -1    0    0    0  501  0.00000000000E+00  0.00000000000E+00 -0.21340125339E+04  0.21340125339E+04  0.50400001928E-02 0. -1.
    10030    2    1    2    0    0  0.00000000000E+00  0.00000000000E+00 -0.17933450372E+04  0.24746800305E+04  0.17052726559E+04 0.  0.
        1    1    3    3  502    0  0.60646278355E+03 -0.36936875225E+03 -0.21174881380E+03  0.74099118965E+03  0.50400001928E-02 0.  1.
       -1    1    3    3    0  502 -0.60646278355E+03  0.36936875225E+03 -0.15815962234E+04  0.17336888409E+04  0.50400001928E-02 0. -1.
</event>
<event>
 5   0  0.2595644E-04  0.1689331E+04  0.7818609E-02  0.8767473E-01
        1   -1    0    0  501    0  0.00000000000E+00  0.00000000000E+00  0.22586864849E+04  0.22586864849E+04  0.50400001928E-02 0. -1.
       -1   -1    0    0    0  501  0.00000000000E+00  0.00000000000E+00 -0.31587368632E+03  0.31587368636E+03  0.50400001928E-02 0.  1.
    10030    2    1    2    0    0  0.00000000000E+00  0.00000000000E+00  0.19428127986E+04  0.25745601713E+04  0.16893307862E+04 0.  0.
        2    1    3    3  502    0  0.26596318785E+03 -0.79623434363E+03  0.11138349018E+04  0.13947593827E+04  0.25500000920E-02 0.  1.
       -2    1    3    3    0  502 -0.26596318785E+03  0.79623434363E+03  0.82897789680E+03  0.11798007885E+04  0.25500000920E-02 0. -1.
</event>
<event>
 5   0  0.5310003E-04  0.1718917E+04  0.7818609E-02  0.8750648E-01
       -2   -1    0    0    0  501  0.00000000000E+00  0.00000000000E+00  0.75147308300E+03  0.75147308301E+03  0.25500000920E-02 0. -1.
        2   -1    0    0  501    0  0.00000000000E+00  0.00000000000E+00 -0.98296180779E+03  0.98296180779E+03  0.25500000920E-02 0.  1.
    10030    2    1    2    0    0  0.00000000000E+00  0.00000000000E+00 -0.23148872478E+03  0.17344348908E+04  0.17189174968E+04 0.  0.
        1    1    3    3  502    0  0.61588823678E+03 -0.13003350495E+02 -0.72047254766E+03  0.94792831970E+03  0.50400001928E-02 0.  1.
       -1    1    3    3    0  502 -0.61588823678E+03  0.13003350495E+02  0.48898382288E+03  0.78650657110E+03  0.50400001928E-02 0. -1.
</event>
<event>
 5   0  0.1910750E-04  0.1631500E+04  0.7818609E-02  0.8801427E-01
       -3   -1    0    0    0  501  0.00000000000E+00  0.00000000000E+00  0.52846137634E+03  0.52846138600E+03  0.10100000352E+00 0.  1.
        3   -1    0    0  501    0  0.00000000000E+00  0.00000000000E+00 -0.12592173089E+04  0.12592173129E+04  0.10100000352E+00 0. -1.
    10030    2    1    2    0    0  0.00000000000E+00  0.00000000000E+00 -0.73075593254E+03  0.17876786989E+04  0.16314995856E+04 0.  0.
        2    1    3    3  502    0  0.42991112184E+03 -0.47354384151E+03  0.18943281597E+03  0.66704732537E+03  0.25500000920E-02 0.  1.
       -2    1    3    3    0  502 -0.42991112184E+03  0.47354384151E+03 -0.92018874851E+03  0.11206313736E+04  0.25500000920E-02 0. -1.
</event>
<event>
 5   0  0.5299877E-04  0.1718586E+04  0.7818609E-02  0.8750834E-01
       -2   -1    0    0    0  501  0.00000000000E+00  0.00000000000E+00  0.60301272655E+03  0.60301272655E+03  0.25500000920E-02 0.  1.
        2   -1    0    0  501    0  0.00000000000E+00  0.00000000000E+00 -0.12244926173E+04  0.12244926173E+04  0.25500000920E-02 0. -1.
    10030    2    1    2    0    0  0.00000000000E+00  0.00000000000E+00 -0.62147989073E+03  0.18275053438E+04  0.17185862001E+04 0.  0.
        3    1    3    3  502    0  0.32965078843E+01 -0.10543900372E+03 -0.12175808524E+04  0.12221421328E+04  0.10100000352E+00 0. -1.
       -3    1    3    3    0  502 -0.32965078843E+01  0.10543900372E+03  0.59610096170E+03  0.60536321098E+03  0.10100000352E+00 0.  1.
</event>
<event>
 5   0  0.5021349E-04  0.1681969E+04  0.7818609E-02  0.8771715E-01
        2   -1    0    0  501    0  0.00000000000E+00  0.00000000000E+00  0.58901220757E+03  0.58901220757E+03  0.25500000920E-02 0. -1.
       -2   -1    0    0    0  501  0.00000000000E+00  0.00000000000E+00 -0.12007476633E+04  0.12007476633E+04  0.25500000920E-02 0.  1.
    10030    2    1    2    0    0  0.00000000000E+00  0.00000000000E+00 -0.61173545573E+03  0.17897598709E+04  0.16819691221E+04 0.  0.
        2    1    3    3  502    0 -0.15612764939E+03  0.27837469790E+03 -0.11337969116E+04  0.11778640635E+04  0.25500000920E-02 0.  1.
       -2    1    3    3    0  502  0.15612764939E+03 -0.27837469790E+03  0.52206145588E+03  0.61189580735E+03  0.25500000920E-02 0. -1.
</event>
<event>
 5   0  0.5198430E-04  0.1583473E+04  0.7818609E-02  0.8830766E-01
        2   -1    0    0  501    0  0.00000000000E+00  0.00000000000E+00  0.87169446709E+03  0.87169446709E+03  0.25500000920E-02 0.  1.
       -2   -1    0    0    0  501  0.00000000000E+00  0.00000000000E+00 -0.71911279752E+03  0.71911279753E+03  0.25500000920E-02 0. -1.
    10030    2    1    2    0    0  0.00000000000E+00  0.00000000000E+00  0.15258166957E+03  0.15908072646E+04  0.15834729512E+04 0.  0.
        4    1    3    3  502    0 -0.29514049194E+03  0.84751991344E+02  0.80943407261E+03  0.86572278520E+03  0.12699999809E+01 0.  1.
       -4    1    3    3    0  502  0.29514049194E+03 -0.84751991344E+02 -0.65685240304E+03  0.72508447942E+03  0.12699999809E+01 0. -1.
</event>
<event>
 5   0  0.5299877E-04  0.1723541E+04  0.7818609E-02  0.8748051E-01
        2   -1    0    0  501    0  0.00000000000E+00  0.00000000000E+00  0.83675730215E+03  0.83675730216E+03  0.25500000920E-02 0.  1.
       -2   -1    0    0    0  501  0.00000000000E+00  0.00000000000E+00 -0.88753164249E+03  0.88753164249E+03  0.25500000920E-02 0. -1.
    10030    2    1    2    0    0  0.00000000000E+00  0.00000000000E+00 -0.50774340336E+02  0.17242889447E+04  0.17235412183E+04 0.  0.
        3    1    3    3  502    0 -0.21859904392E+03  0.54063372246E+03 -0.66015294322E+03  0.88083612693E+03  0.10100000352E+00 0. -1.
       -3    1    3    3    0  502  0.21859904392E+03 -0.54063372246E+03  0.60937860289E+03  0.84345281772E+03  0.10100000352E+00 0.  1.
</event>
<event>
 5   0  0.2630135E-04  0.1717761E+04  0.7818609E-02  0.8751299E-01
       -1   -1    0    0    0  501  0.00000000000E+00  0.00000000000E+00  0.15793014713E+04  0.15793014713E+04  0.50400001928E-02 0.  1.
        1   -1    0    0  501    0  0.00000000000E+00  0.00000000000E+00 -0.46708994891E+03  0.46708994894E+03  0.50400001928E-02 0. -1.
    10030    2    1    2    0    0  0.00000000000E+00  0.00000000000E+00  0.11122115224E+04  0.20463914202E+04  0.17177611517E+04 0.  0.
        1    1    3    3  502    0  0.65790003960E+01 -0.79031967490E+03  0.95661980052E+03  0.12408746571E+04  0.50400001928E-02 0.  1.
       -1    1    3    3    0  502 -0.65790003960E+01  0.79031967490E+03  0.15559172183E+03  0.80551676314E+03  0.50400001928E-02 0. -1.
</event>
<event>
 5   0  0.2785059E-04  0.1664277E+04  0.7818609E-02  0.8782005E-01
        1   -1    0    0  501    0  0.00000000000E+00  0.00000000000E+00  0.87883395733E+03  0.87883395735E+03  0.50400001928E-02 0. -1.
       -1   -1    0    0    0  501  0.00000000000E+00  0.00000000000E+00 -0.78792378201E+03  0.78792378203E+03  0.50400001928E-02 0.  1.
    10030    2    1    2    0    0  0.00000000000E+00  0.00000000000E+00  0.90910175320E+02  0.16667577394E+04  0.16642766302E+04 0.  0.
        5    1    3    3  502    0  0.79719917207E+03  0.23751044630E+03  0.23187881680E+02  0.83216434670E+03  0.46999998093E+01 0.  1.
       -5    1    3    3    0  502 -0.79719917207E+03 -0.23751044630E+03  0.67722293641E+02  0.83459339268E+03  0.46999998093E+01 0. -1.
</event>
<event>
 5   0  0.1910750E-04  0.1615498E+04  0.7818609E-02  0.8811083E-01
       -3   -1    0    0    0  501  0.00000000000E+00  0.00000000000E+00  0.14448355434E+04  0.14448355470E+04  0.10100000352E+00 0.  1.
        3   -1    0    0  501    0  0.00000000000E+00  0.00000000000E+00 -0.45157962514E+03  0.45157963643E+03  0.10100000352E+00 0. -1.
    10030    2    1    2    0    0  0.00000000000E+00  0.00000000000E+00  0.99325591830E+03  0.18964151834E+04  0.16154978269E+04 0.  0.
        1    1    3    3  502    0 -0.98400227281E+02 -0.80001712855E+03  0.43508776938E+03  0.91597564258E+03  0.50400001928E-02 0. -1.
       -1    1    3    3    0  502  0.98400227281E+02  0.80001712855E+03  0.55816814891E+03  0.98043954081E+03  0.50400001928E-02 0.  1.
</event>
<event>
 5   0  0.5198430E-04  0.1714371E+04  0.7818609E-02  0.8753210E-01
        2   -1    0    0  501    0  0.00000000000E+00  0.00000000000E+00  0.66031690116E+03  0.66031690117E+03  0.25500000920E-02 0. -1.
       -2   -1    0    0    0  501  0.00000000000E+00  0.00000000000E+00 -0.11127491224E+04  0.11127491224E+04  0.25500000920E-02 0.  1.
    10030    2    1    2    0    0  0.00000000000E+00  0.00000000000E+00 -0.45243222122E+03  0.17730660235E+04  0.17143710827E+04 0.  0.
        4    1    3    3  502    0 -0.14341262070E+02 -0.82199346183E+03  0.24757469714E+02  0.82249222993E+03  0.12699999809E+01 0.  1.
       -4    1    3    3    0  502  0.14341262070E+02  0.82199346183E+03 -0.47718969093E+03  0.95057379362E+03  0.12699999809E+01 0. -1.
</event>
<event>
 5   0  0.5021349E-04  0.1704441E+04  0.7818609E-02  0.8758836E-01
        2   -1    0    0  501    0  0.00000000000E+00  0.00000000000E+00  0.69026569850E+03  0.69026569850E+03  0.25500000920E-02 0.  1.
       -2   -1    0    0    0  501  0.00000000000E+00  0.00000000000E+00 -0.10521742411E+04  0.10521742411E+04  0.25500000920E-02 0. -1.
    10030    2    1    2    0    0  0.00000000000E+00  0.00000000000E+00 -0.36190854262E+03  0.17424399396E+04  0.17044410081E+04 0.  0.
        2    1    3    3  502    0  0.69332423039E+02  0.15981082242E+02 -0.10491326042E+04  0.10515424866E+04  0.25500000920E-02 0. -1.
       -2    1    3    3    0  502 -0.69332423039E+02 -0.15981082242E+02  0.68722406155E+03  0.69089745307E+03  0.25500000920E-02 0.  1.
</event>
<event>
 5   0  0.2595644E-04  0.1699675E+04  0.7818609E-02  0.8761550E-01
       -1   -1    0    0    0  501  0.00000000000E+00  0.00000000000E+00  0.12059687354E+04  0.12059687354E+04  0.50400001928E-02 0.  1.
        1   -1    0    0  501    0  0.00000000000E+00  0.00000000000E+00 -0.59887403567E+03  0.59887403569E+03  0.50400001928E-02 0. -1.
    10030    2    1    2    0    0  0.00000000000E+00  0.00000000000E+00  0.60709469974E+03  0.18048427711E+04  0.16996745141E+04 0.  0.
        2    1    3    3  502    0  0.78993488201E+03  0.11850891908E+03 -0.45464273674E+01  0.79878792663E+03  0.25500000920E-02 0.  1.
       -2    1    3    3    0  502 -0.78993488201E+03 -0.11850891908E+03  0.61164112711E+03  0.10060548445E+04  0.25500000920E-02 0. -1.
</event>
<event>
 5   0  0.1910750E-04  0.1709655E+04  0.7818609E-02  0.8755877E-01
       -4   -1    0    0    0  501  0.00000000000E+00  0.00000000000E+00  0.15090640406E+04  0.15090645750E+04  0.12699999809E+01 0. -1.
        4   -1    0    0  501    0  0.00000000000E+00  0.00000000000E+00 -0.48422579401E+03  0.48422745945E+03  0.12699999809E+01 0.  1.
    10030    2    1    2    0    0  0.00000000000E+00  0.00000000000E+00  0.10248382466E+04  0.19932920344E+04  0.17096548491E+04 0.  0.
        5    1    3    3  502    0  0.13582398903E+03  0.18239246555E+03 -0.44829689361E+03  0.50270007192E+03  0.46999998093E+01 0.  1.
       -5    1    3    3    0  502 -0.13582398903E+03 -0.18239246555E+03  0.14731351402E+04  0.14905919625E+04  0.46999998093E+01 0. -1.
</event>
<event>
 5   0  0.5310003E-04  0.1685287E+04  0.7818609E-02  0.8769800E-01
       -2   -1    0    0    0  501  0.00000000000E+00  0.00000000000E+00  0.50491229358E+03  0.50491229359E+03  0.25500000920E-02 0. -1.
        2   -1    0    0  501    0  0.00000000000E+00  0.00000000000E+00 -0.14062802679E+04  0.14062802679E+04  0.25500000920E-02 0.  1.
    10030    2    1    2    0    0  0.00000000000E+00  0.00000000000E+00 -0.90136797435E+03  0.19111925615E+04  0.16852871512E+04 0.  0.
        1    1    3    3  502    0 -0.83382586893E+03  0.67497538160E+02 -0.56536677847E+03  0.10096836592E+04  0.50400001928E-02 0.  1.
       -1    1    3    3    0  502  0.83382586893E+03 -0.67497538160E+02 -0.33600119588E+03  0.90150890235E+03  0.50400001928E-02 0. -1.
</event>
<event>
 5   0  0.2561518E-04  0.1751514E+04  0.7818609E-02  0.8732518E-01
        1   -1    0    0  501    0  0.00000000000E+00  0.00000000000E+00  0.76922668301E+03  0.76922668303E+03  0.50400001928E-02 0. -1.
       -1   -1    0    0    0  501  0.00000000000E+00  0.00000000000E+00 -0.99704028852E+03  0.99704028854E+03  0.50400001928E-02 0.  1.
    10030    2    1    2    0    0  0.00000000000E+00  0.00000000000E+00 -0.22781360551E+03  0.17662669716E+04  0.17515136243E+04 0.  0.
        4    1    3    3  502    0  0.60710138354E+03 -0.30205429114E+03  0.44496302293E+03  0.81105030014E+03  0.12699999809E+01 0. -1.
       -4    1    3    3    0  502 -0.60710138354E+03  0.30205429114E+03 -0.67277662844E+03  0.95521667142E+03  0.12699999809E+01 0.  1.
</event>
<event>
 5   0  0.2785059E-04  0.1712553E+04  0.7818609E-02  0.8754237E-01
        1   -1    0    0  501    0  0.00000000000E+00  0.00000000000E+00  0.14794777773E+04  0.14794777773E+04  0.50400001928E-02 0. -1.
       -1   -1    0    0    0  501  0.00000000000E+00  0.00000000000E+00 -0.49558684230E+03  0.49558684232E+03  0.50400001928E-02 0.  1.
    10030    2    1    2    0    0  0.00000000000E+00  0.00000000000E+00  0.98389093495E+03  0.19750646196E+04  0.17125533217E+04 0.  0.
        5    1    3    3  502    0  0.45119815861E+03 -0.30854434154E+03  0.12520725995E+04  0.13661944493E+04  0.46999998093E+01 0. -1.
       -5    1    3    3    0  502 -0.45119815861E+03  0.30854434154E+03 -0.26818166453E+03  0.60887017025E+03  0.46999998093E+01 0.  1.
</event>
<event>
 5   0  0.2630135E-04  0.1696818E+04  0.7818609E-02  0.8763181E-01
        1   -1    0    0  501    0  0.00000000000E+00  0.00000000000E+00  0.78207410396E+03  0.78207410397E+03  0.50400001928E-02 0. -1.
       -1   -1    0    0    0  501  0.00000000000E+00  0.00000000000E+00 -0.92036995562E+03  0.92036995563E+03  0.50400001928E-02 0.  1.
    10030    2    1    2    0    0  0.00000000000E+00  0.00000000000E+00 -0.13829585166E+03  0.17024440596E+04  0.16968176194E+04 0.  0.
        1    1    3    3  502    0 -0.22286046190E+01  0.83119039146E+03  0.10146025235E+03  0.83736289407E+03  0.50400001928E-02 0. -1.
       -1    1    3    3    0  502  0.22286046190E+01 -0.83119039146E+03 -0.23975610401E+03  0.86508116554E+03  0.50400001928E-02 0.  1.
</event>
<event>
 5   0  0.2583422E-04  0.1684761E+04  0.7818609E-02  0.8770104E-01
        1   -1    0    0  501    0  0.00000000000E+00  0.00000000000E+00  0.94070811038E+03  0.94070811040E+03  0.50400001928E-02 0. -1.
       -1   -1    0    0    0  501  0.00000000000E+00  0.00000000000E+00 -0.75433096768E+03  0.75433096769E+03  0.50400001928E-02 0.  1.
    10030    2    1    2    0    0  0.00000000000E+00  0.00000000000E+00  0.18637714271E+03  0.16950390781E+04  0.16847614184E+04 0.  0.
        3    1    3    3  502    0  0.80204178149E+03 -0.15316245142E+02 -0.16547833060E+03  0.81907795400E+03  0.10100000352E+00 0.  1.
       -3    1    3    3    0  502 -0.80204178149E+03  0.15316245142E+02  0.35185547331E+03  0.87596112409E+03  0.10100000352E+00 0. -1.
</event>
<event>
 5   0  0.5299877E-04  0.1720773E+04  0.7818609E-02  0.8749605E-01
       -2   -1    0    0    0  501  0.00000000000E+00  0.00000000000E+00  0.12292844461E+04  0.12292844461E+04  0.25500000920E-02 0.  1.
        2   -1    0    0  501    0  0.00000000000E+00  0.00000000000E+00 -0.60219158449E+03  0.60219158450E+03  0.25500000920E-02 0. -1.
    10030    2    1    2    0    0  0.00000000000E+00  0.00000000000E+00  0.62709286160E+03  0.18314760306E+04  0.17207727896E+04 0.  0.
        3    1    3    3  502    0  0.72751737440E+02  0.85705634356E+03  0.33552296699E+03  0.92326272692E+03  0.10100000352E+00 0.  1.
       -3    1    3    3    0  502 -0.72751737440E+02 -0.85705634356E+03  0.29156989461E+03  0.90821330368E+03  0.10100000352E+00 0. -1.
</event>
<event>
 5   0  0.5310003E-04  0.1718165E+04  0.7818609E-02  0.8751072E-01
        2   -1    0    0  501    0  0.00000000000E+00  0.00000000000E+00  0.13388806484E+04  0.13388806484E+04  0.25500000920E-02 0.  1.
       -2   -1    0    0    0  501  0.00000000000E+00  0.00000000000E+00 -0.55122353829E+03  0.55122353829E+03  0.25500000920E-02 0. -1.
    10030    2    1    2    0    0  0.00000000000E+00  0.00000000000E+00  0.78765711012E+03  0.18901041867E+04  0.17181647516E+04 0.  0.
        1    1    3    3  502    0 -0.12918880718E+03 -0.42980513646E+03 -0.41200696152E+03  0.60923881984E+03  0.50400001928E-02 0. -1.
       -1    1    3    3    0  502  0.12918880718E+03  0.42980513646E+03  0.11996640716E+04  0.12808653669E+04  0.50400001928E-02 0.  1.
</event>
<event>
 5   0  0.1910750E-04  0.1730994E+04  0.7818609E-02  0.8743882E-01
        3   -1    0    0  501    0  0.00000000000E+00  0.00000000000E+00  0.63036887600E+03  0.63036888409E+03  0.10100000352E+00 0. -1.
       -3   -1    0    0    0  501  0.00000000000E+00  0.00000000000E+00 -0.11883286472E+04  0.11883286515E+04  0.10100000352E+00 0.  1.
    10030    2    1    2    0    0  0.00000000000E+00  0.00000000000E+00 -0.55795977119E+03  0.18186975356E+04  0.17309944020E+04 0.  0.
        4    1    3    3  502    0 -0.41714375180E+03  0.73856019053E+03 -0.98205034544E+02  0.85388869674E+03  0.12699999809E+01 0. -1.
       -4    1    3    3    0  502  0.41714375180E+03 -0.73856019053E+03 -0.45975473665E+03  0.96480883883E+03  0.12699999809E+01 0.  1.
</event>
<event>
 5   0  0.5198430E-04  0.1680037E+04  0.7818609E-02  0.8772833E-01
        2   -1    0    0  501    0  0.00000000000E+00  0.00000000000E+00  0.95714215274E+03  0.95714215274E+03  0.25500000920E-02 0.  1.
       -2   -1    0    0    0  501  0.00000000000E+00  0.00000000000E+00 -0.73722707801E+03  0.73722707801E+03  0.25500000920E-02 0. -1.
    10030    2    1    2    0    0  0.00000000000E+00  0.00000000000E+00  0.21991507473E+03  0.16943692308E+04  0.16800370383E+04 0.  0.
        4    1    3    3  502    0 -0.38831627531E+03  0.23872375995E+03  0.82156232936E+03  0.93954501603E+03  0.12699999809E+01 0.  1.
       -4    1    3    3    0  502  0.38831627531E+03 -0.23872375995E+03 -0.60164725463E+03  0.75482421472E+03  0.12699999809E+01 0. -1.
</event>
<event>
 5   0  0.2595644E-04  0.1642003E+04  0.7818609E-02  0.8795152E-01
        1   -1    0    0  501    0  0.00000000000E+00  0.00000000000E+00  0.12911857172E+04  0.12911857172E+04  0.50400001928E-02 0.  1.
       -1   -1    0    0    0  501  0.00000000000E+00  0.00000000000E+00 -0.52203418673E+03  0.52203418676E+03  0.50400001928E-02 0. -1.
    10030    2    1    2    0    0  0.00000000000E+00  0.00000000000E+00  0.76915153050E+03  0.18132199040E+04  0.16420025406E+04 0.  0.
        2    1    3    3  502    0 -0.16136570011E+03  0.72407391887E+03  0.77299313123E+03  0.10713730957E+04  0.25500000920E-02 0.  1.
       -2    1    3    3    0  502  0.16136570011E+03 -0.72407391887E+03 -0.38416007291E+01  0.74184680835E+03  0.25500000920E-02 0. -1.
</event>
<event>
 5   0  0.5342255E-04  0.1691045E+04  0.7818609E-02  0.8766488E-01
       -2   -1    0    0    0  501  0.00000000000E+00  0.00000000000E+00  0.70142561217E+03  0.70142561217E+03  0.25500000920E-02 0.  1.
        2   -1    0    0  501    0  0.00000000000E+00  0.00000000000E+00 -0.10192223895E+04  0.10192223895E+04  0.25500000920E-02 0. -1.
    10030    2    1    2    0    0  0.00000000000E+00  0.00000000000E+00 -0.31779677737E+03  0.17206480017E+04  0.16910454619E+04 0.  0.
        5    1    3    3  502    0 -0.22820245212E+03 -0.24384749400E+02 -0.98691006770E+03  0.10132544334E+04  0.46999998093E+01 0. -1.
       -5    1    3    3    0  502  0.22820245212E+03  0.24384749400E+02  0.66911329032E+03  0.70739356828E+03  0.46999998093E+01 0.  1.
</event>
<event>
 5   0  0.5342255E-04  0.1698305E+04  0.7818609E-02  0.8762332E-01
       -2   -1    0    0    0  501  0.00000000000E+00  0.00000000000E+00  0.40901528969E+03  0.40901528969E+03  0.25500000920E-02 0. -1.
        2   -1    0    0  501    0  0.00000000000E+00  0.00000000000E+00 -0.17629165489E+04  0.17629165489E+04  0.25500000920E-02 0.  1.
    10030    2    1    2    0    0  0.00000000000E+00  0.00000000000E+00 -0.13539012593E+04  0.21719318386E+04  0.16983048289E+04 0.  0.
        5    1    3    3  502    0  0.20492152949E+03  0.19685708674E+03  0.34638866002E+03  0.44805439362E+03  0.46999998093E+01 0. -1.
       -5    1    3    3    0  502 -0.20492152949E+03 -0.19685708674E+03 -0.17002899193E+04  0.17238774450E+04  0.46999998093E+01 0.  1.
</event>
<event>
 5   0  0.5299877E-04  0.1707718E+04  0.7818609E-02  0.8756974E-01
        2   -1    0    0  501    0  0.00000000000E+00  0.00000000000E+00  0.10787580210E+04  0.10787580210E+04  0.25500000920E-02 0. -1.
       -2   -1    0    0    0  501  0.00000000000E+00  0.00000000000E+00 -0.67584721685E+03  0.67584721685E+03  0.25500000920E-02 0.  1.
    10030    2    1    2    0    0  0.00000000000E+00  0.00000000000E+00  0.40291080411E+03  0.17546052378E+04  0.17077184851E+04 0.  0.
        3    1    3    3  502    0  0.12179643134E+03  0.16908802107E+02 -0.66670237156E+03  0.67794715187E+03  0.10100000352E+00 0.  1.
       -3    1    3    3    0  502 -0.12179643134E+03 -0.16908802107E+02  0.10696131757E+04  0.10766580860E+04  0.10100000352E+00 0. -1.
</event>
<event>
 5   0  0.5342255E-04  0.1704064E+04  0.7818609E-02  0.8759050E-01
        2   -1    0    0  501    0  0.00000000000E+00  0.00000000000E+00  0.78388347624E+03  0.78388347624E+03  0.25500000920E-02 0. -1.
       -2   -1    0    0    0  501  0.00000000000E+00  0.00000000000E+00 -0.92610546196E+03  0.92610546196E+03  0.25500000920E-02 0.  1.
    10030    2    1    2    0    0  0.00000000000E+00  0.00000000000E+00 -0.14222198572E+03  0.17099889382E+04  0.17040642815E+04 0.  0.
        5    1    3    3  502    0 -0.78517214487E+03  0.22842619606E+03  0.16901757199E+03  0.83502266662E+03  0.46999998093E+01 0.  1.
       -5    1    3    3    0  502  0.78517214487E+03 -0.22842619606E+03 -0.31123955772E+03  0.87496627159E+03  0.46999998093E+01 0. -1.
</event>
<event>
 5   0  0.5021349E-04  0.1703186E+04  0.7818609E-02  0.8759549E-01
        2   -1    0    0  501    0  0.00000000000E+00  0.00000000000E+00  0.87511465833E+03  0.87511465833E+03  0.25500000920E-02 0. -1.
       -2   -1    0    0    0  501  0.00000000000E+00  0.00000000000E+00 -0.82870331734E+03  0.82870331735E+03  0.25500000920E-02 0.  1.
    10030    2    1    2    0    0  0.00000000000E+00  0.00000000000E+00  0.46411340983E+02  0.17038179757E+04  0.17031857449E+04 0.  0.
        2    1    3    3  502    0  0.48056858891E+03 -0.56500641794E+03  0.44172922899E+03  0.86330940728E+03  0.25500000920E-02 0. -1.
       -2    1    3    3    0  502 -0.48056858891E+03  0.56500641794E+03 -0.39531788801E+03  0.84050856839E+03  0.25500000920E-02 0.  1.
</event>
<event>
 5   0  0.5342255E-04  0.1694328E+04  0.7818609E-02  0.8764606E-01
       -2   -1    0    0    0  501  0.00000000000E+00  0.00000000000E+00  0.74509181970E+03  0.74509181970E+03  0.25500000920E-02 0. -1.
        2   -1    0    0  501    0  0.00000000000E+00  0.00000000000E+00 -0.96321908908E+03  0.96321908909E+03  0.25500000920E-02 0.  1.
    10030    2    1    2    0    0  0.00000000000E+00  0.00000000000E+00 -0.21812726939E+03  0.17083109088E+04  0.16943277887E+04 0.  0.
        5    1    3    3  502    0  0.59781576870E+03  0.50813622198E+03  0.21307034364E+03  0.81302347736E+03  0.46999998093E+01 0. -1.
       -5    1    3    3    0  502 -0.59781576870E+03 -0.50813622198E+03 -0.43119761303E+03  0.89528743143E+03  0.46999998093E+01 0.  1.
</event>
<event>
 5   0  0.5021349E-04  0.1679452E+04  0.7818609E-02  0.8773171E-01
       -2   -1    0    0    0  501  0.00000000000E+00  0.00000000000E+00  0.74534188127E+03  0.74534188127E+03  0.25500000920E-02 0. -1.
        2   -1    0    0  501    0  0.00000000000E+00  0.00000000000E+00 -0.94606166422E+03  0.94606166423E+03  0.25500000920E-02 0.  1.
    10030    2    1    2    0    0  0.00000000000E+00  0.00000000000E+00 -0.20071978296E+03  0.16914035455E+04  0.16794515541E+04 0.  0.
        2    1    3    3  502    0 -0.31216110929E+03  0.50582694075E+02  0.68308116611E+03  0.75273039436E+03  0.25500000920E-02 0. -1.
       -2    1    3    3    0  502  0.31216110929E+03 -0.50582694075E+02 -0.88380094906E+03  0.93867315114E+03  0.25500000920E-02 0.  1.
</event>
<event>
 5   0  0.5198430E-04  0.1729610E+04  0.7818609E-02  0.8744654E-01
        2   -1    0    0  501    0  0.00000000000E+00  0.00000000000E+00  0.11663540399E+04  0.11663540399E+04  0.25500000920E-02 0.  1.
       -2   -1    0    0    0  501  0.00000000000E+00  0.00000000000E+00 -0.64121874156E+03  0.64121874156E+03  0.25500000920E-02 0. -1.
    10030    2    1    2    0    0  0.00000000000E+00  0.00000000000E+00  0.52513529833E+03  0.18075727815E+04  0.17296104413E+04 0.  0.
        4    1    3    3  502    0 -0.21651794989E+03 -0.45148550688E+03 -0.47431572895E+03  0.68970733589E+03  0.12699999809E+01 0. -1.
       -4    1    3    3    0  502  0.21651794989E+03  0.45148550688E+03  0.99945102728E+03  0.11178654456E+04  0.12699999809E+01 0.  1.
</event>
<event>
 5   0  0.5310003E-04  0.1649263E+04  0.7818609E-02  0.8790842E-01
        2   -1    0    0  501    0  0.00000000000E+00  0.00000000000E+00  0.11562087462E+04  0.11562087462E+04  0.25500000920E-02 0.  1.
       -2   -1    0    0    0  501  0.00000000000E+00  0.00000000000E+00 -0.58814402445E+03  0.58814402445E+03  0.25500000920E-02 0. -1.
    10030    2    1    2    0    0  0.00000000000E+00  0.00000000000E+00  0.56806472177E+03  0.17443527707E+04  0.16492631871E+04 0.  0.
        1    1    3    3  502    0  0.39111740886E+03  0.71023378049E+03  0.12498816522E+03  0.82038216212E+03  0.50400001928E-02 0.  1.
       -1    1    3    3    0  502 -0.39111740886E+03 -0.71023378049E+03  0.44307655655E+03  0.92397060854E+03  0.50400001928E-02 0. -1.
</event>
<event>
 5   0  0.2630135E-04  0.1705833E+04  0.7818609E-02  0.8758044E-01
        1   -1    0    0  501    0  0.00000000000E+00  0.00000000000E+00  0.16384444875E+04  0.16384444875E+04  0.50400001928E-02 0. -1.
       -1   -1    0    0    0  501  0.00000000000E+00  0.00000000000E+00 -0.44399848582E+03  0.44399848585E+03  0.50400001928E-02 0.  1.
    10030    2    1    2    0    0  0.00000000000E+00  0.00000000000E+00  0.11944460017E+04  0.20824429734E+04  0.17058333700E+04 0.  0.
        1    1    3    3  502    0 -0.80095276675E+03  0.26694094614E+02  0.95361677745E+03  0.12456415486E+04  0.50400001928E-02 0. -1.
       -1    1    3    3    0  502  0.80095276675E+03 -0.26694094614E+02  0.24082922423E+03  0.83680142479E+03  0.50400001928E-02 0.  1.
</event>
<event>
 5   0  0.2785059E-04  0.1580872E+04  0.7818609E-02  0.8832386E-01
        1   -1    0    0  501    0  0.00000000000E+00  0.00000000000E+00  0.94020678447E+03  0.94020678448E+03  0.50400001928E-02 0.  1.
       -1   -1    0    0    0  501  0.00000000000E+00  0.00000000000E+00 -0.66452310461E+03  0.66452310463E+03  0.50400001928E-02 0. -1.
    10030    2    1    2    0    0  0.00000000000E+00  0.00000000000E+00  0.27568367986E+03  0.16047298891E+04  0.15808720776E+04 0.  0.
        5    1    3    3  502    0  0.44902598267E+02 -0.32438794724E+03  0.86808945785E+03  0.92781742842E+03  0.46999998093E+01 0.  1.
       -5    1    3    3    0  502 -0.44902598267E+02  0.32438794724E+03 -0.59240577799E+03  0.67691246070E+03  0.46999998093E+01 0. -1.
</event>
<event>
 5   0  0.2595644E-04  0.1711598E+04  0.7818609E-02  0.8754777E-01
        1   -1    0    0  501    0  0.00000000000E+00  0.00000000000E+00  0.14270553749E+04  0.14270553749E+04  0.50400001928E-02 0. -1.
       -1   -1    0    0    0  501  0.00000000000E+00  0.00000000000E+00 -0.51321869992E+03  0.51321869995E+03  0.50400001928E-02 0.  1.
    10030    2    1    2    0    0  0.00000000000E+00  0.00000000000E+00  0.91383667501E+03  0.19402740749E+04  0.17115975044E+04 0.  0.
        2    1    3    3  502    0  0.43611545851E+03 -0.58908462535E+03 -0.43891148016E+02  0.73426413630E+03  0.25500000920E-02 0.  1.
       -2    1    3    3    0  502 -0.43611545851E+03  0.58908462535E+03  0.95772782303E+03  0.12060099386E+04  0.25500000920E-02 0. -1.
</event>
<event>
 5   0  0.2785059E-04  0.1707594E+04  0.7818609E-02  0.8757045E-01
       -1   -1    0    0    0  501  0.00000000000E+00  0.00000000000E+00  0.10170902303E+04  0.10170902303E+04  0.50400001928E-02 0. -1.
        1   -1    0    0  501    0  0.00000000000E+00  0.00000000000E+00 -0.71672015963E+03  0.71672015965E+03  0.50400001928E-02 0.  1.
    10030    2    1    2    0    0  0.00000000000E+00  0.00000000000E+00  0.30037007069E+03  0.17338103900E+04  0.17075937131E+04 0.  0.
        5    1    3    3  502    0 -0.44257357267E+02  0.56099654182E+03 -0.50175631192E+03  0.75396108663E+03  0.46999998093E+01 0.  1.
       -5    1    3    3    0  502  0.44257357267E+02 -0.56099654182E+03  0.80212638261E+03  0.97984930335E+03  0.46999998093E+01 0. -1.
</event>
<event>
 5   0  0.5310003E-04  0.1709961E+04  0.7818609E-02  0.8755703E-01
       -2   -1    0    0    0  501  0.00000000000E+00  0.00000000000E+00  0.12735443408E+04  0.12735443408E+04  0.25500000920E-02 0.  1.
        2   -1    0    0  501    0  0.00000000000E+00  0.00000000000E+00 -0.57398232733E+03  0.57398232734E+03  0.25500000920E-02 0. -1.
    10030    2    1    2    0    0  0.00000000000E+00  0.00000000000E+00  0.69956201348E+03  0.18475266681E+04  0.17099613384E+04 0.  0.
        1    1    3    3  502    0  0.69191686066E+03  0.32716941265E+03 -0.61930007518E+02  0.76786984086E+03  0.50400001928E-02 0.  1.
       -1    1    3    3    0  502 -0.69191686066E+03 -0.32716941265E+03  0.76149202100E+03  0.10796568273E+04  0.50400001928E-02 0. -1.
</event>
<event>
 5   0  0.5198430E-04  0.1777981E+04  0.7818609E-02  0.8718097E-01
        2   -1    0    0  501    0  0.00000000000E+00  0.00000000000E+00  0.16277278421E+04  0.16277278421E+04  0.25500000920E-02 0.  1.
       -2   -1    0    0    0  501  0.00000000000E+00  0.00000000000E+00 -0.48552610682E+03  0.48552610682E+03  0.25500000920E-02 0. -1.
    10030    2    1    2    0    0  0.00000000000E+00  0.00000000000E+00  0.11422017352E+04  0.21132539489E+04  0.17779812846E+04 0.  0.
        4    1    3    3  502    0  0.63361881615E+03 -0.47780253936E+03  0.94879437172E+02  0.79923200092E+03  0.12699999809E+01 0.  1.
       -4    1    3    3    0  502 -0.63361881615E+03  0.47780253936E+03  0.10473222981E+04  0.13140219480E+04  0.12699999809E+01 0. -1.
</event>
<event>
 5   0  0.2561518E-04  0.1699384E+04  0.7818609E-02  0.8761716E-01
        1   -1    0    0  501    0  0.00000000000E+00  0.00000000000E+00  0.70825430025E+03  0.70825430026E+03  0.50400001928E-02 0.  1.
       -1   -1    0    0    0  501  0.00000000000E+00  0.00000000000E+00 -0.10193750849E+04  0.10193750849E+04  0.50400001928E-02 0. -1.
    10030    2    1    2    0    0  0.00000000000E+00  0.00000000000E+00 -0.31112078461E+03  0.17276293851E+04  0.16993843443E+04 0.  0.
        4    1    3    3  502    0 -0.41797622748E+03 -0.52571198235E+03 -0.68468972320E+03  0.95910314622E+03  0.12699999809E+01 0. -1.
       -4    1    3    3    0  502  0.41797622748E+03  0.52571198235E+03  0.37356893859E+03  0.76852623892E+03  0.12699999809E+01 0.  1.
</event>
<event>
 5   0  0.2595644E-04  0.1686305E+04  0.7818609E-02  0.8769214E-01
       -1   -1    0    0    0  501  0.00000000000E+00  0.00000000000E+00  0.73352890990E+03  0.73352890992E+03  0.50400001928E-02 0.  1.
        1   -1    0    0  501    0  0.00000000000E+00  0.00000000000E+00 -0.96915863210E+03  0.96915863211E+03  0.50400001928E-02 0. -1.
    10030    2    1    2    0    0  0.00000000000E+00  0.00000000000E+00 -0.23562972219E+03  0.17026875420E+04  0.16863046877E+04 0.  0.
        2    1    3    3  502    0  0.75297217660E+02  0.42585675748E+03 -0.84864381236E+03  0.95248095474E+03  0.25500000920E-02 0. -1.
       -2    1    3    3    0  502 -0.75297217660E+02 -0.42585675748E+03  0.61301409016E+03  0.75020658730E+03  0.25500000920E-02 0.  1.
</event>
<event>
 5   0  0.2595644E-04  0.1655825E+04  0.7818609E-02  0.8786968E-01
       -1   -1    0    0    0  501  0.00000000000E+00  0.00000000000E+00  0.34513023083E+03  0.34513023087E+03  0.50400001928E-02 0. -1.
        1   -1    0    0  501    0  0.00000000000E+00  0.00000000000E+00 -0.19860302641E+04  0.19860302642E+04  0.50400001928E-02 0.  1.
    10030    2    1    2    0    0  0.00000000000E+00  0.00000000000E+00 -0.16409000333E+04  0.23311604950E+04  0.16558249709E+04 0.  0.
        2    1    3    3  502    0  0.68272244184E+03  0.40812376930E+03 -0.11438404576E+04  0.13932142463E+04  0.25500000920E-02 0. -1.
       -2    1    3    3    0  502 -0.68272244184E+03 -0.40812376930E+03 -0.49705957568E+03  0.93794624869E+03  0.25500000920E-02 0.  1.
</event>
<event>
 5   0  0.5021349E-04  0.1636416E+04  0.7818609E-02  0.8798484E-01
       -2   -1    0    0    0  501  0.00000000000E+00  0.00000000000E+00  0.41765268823E+03  0.41765268824E+03  0.25500000920E-02 0.  1.
        2   -1    0    0  501    0  0.00000000000E+00  0.00000000000E+00 -0.16029204053E+04  0.16029204053E+04  0.25500000920E-02 0. -1.
    10030    2    1    2    0    0  0.00000000000E+00  0.00000000000E+00 -0.11852677171E+04  0.20205730936E+04  0.16364156151E+04 0.  0.
        2    1    3    3  502    0 -0.64345769427E+03  0.30117701292E+03 -0.91501672839E+02  0.71632252064E+03  0.25500000920E-02 0.  1.
       -2    1    3    3    0  502  0.64345769427E+03 -0.30117701292E+03 -0.10937660443E+04  0.13042505729E+04  0.25500000920E-02 0. -1.
</event>
<event>
 5   0  0.2630135E-04  0.1708206E+04  0.7818609E-02  0.8756698E-01
       -1   -1    0    0    0  501  0.00000000000E+00  0.00000000000E+00  0.58378852869E+03  0.58378852871E+03  0.50400001928E-02 0.  1.
        1   -1    0    0  501    0  0.00000000000E+00  0.00000000000E+00 -0.12495818015E+04  0.12495818015E+04  0.50400001928E-02 0. -1.
    10030    2    1    2    0    0  0.00000000000E+00  0.00000000000E+00 -0.66579327280E+03  0.18333703302E+04  0.17082055162E+04 0.  0.
        1    1    3    3  502    0  0.31613322125E+03  0.45771794004E+03  0.36270131809E+03  0.66407693258E+03  0.50400001928E-02 0.  1.
       -1    1    3    3    0  502 -0.31613322125E+03 -0.45771794004E+03 -0.10284945909E+04  0.11692933976E+04  0.50400001928E-02 0. -1.
</event>
<event>
 5   0  0.2595644E-04  0.1618049E+04  0.7818609E-02  0.8809536E-01
        1   -1    0    0  501    0  0.00000000000E+00  0.00000000000E+00  0.82720238361E+03  0.82720238362E+03  0.50400001928E-02 0.  1.
       -1   -1    0    0    0  501  0.00000000000E+00  0.00000000000E+00 -0.79124632216E+03  0.79124632218E+03  0.50400001928E-02 0. -1.
    10030    2    1    2    0    0  0.00000000000E+00  0.00000000000E+00  0.35956061442E+02  0.16184487058E+04  0.16180492499E+04 0.  0.
        2    1    3    3  502    0 -0.60675773854E+03 -0.45470560781E+03 -0.26424176363E+03  0.80295445245E+03  0.25500000920E-02 0. -1.
       -2    1    3    3    0  502  0.60675773854E+03  0.45470560781E+03  0.30019782508E+03  0.81549425335E+03  0.25500000920E-02 0.  1.
</event>
<event>
 5   0  0.2583422E-04  0.1691244E+04  0.7818609E-02  0.8766374E-01
       -1   -1    0    0    0  501  0.00000000000E+00  0.00000000000E+00  0.81257582102E+03  0.81257582104E+03  0.50400001928E-02 0.  1.
        1   -1    0    0  501    0  0.00000000000E+00  0.00000000000E+00 -0.88001233841E+03  0.88001233842E+03  0.50400001928E-02 0. -1.
    10030    2    1    2    0    0  0.00000000000E+00  0.00000000000E+00 -0.67436517383E+02  0.16925881595E+04  0.16912442147E+04 0.  0.
        3    1    3    3  502    0  0.79807528584E+02  0.75437016340E+03  0.34025387919E+03  0.83139418903E+03  0.10100000352E+00 0.  1.
       -3    1    3    3    0  502 -0.79807528584E+02 -0.75437016340E+03 -0.40769039657E+03  0.86119397043E+03  0.10100000352E+00 0. -1.
</event>
<event>
 5   0  0.2561518E-04  0.1691738E+04  0.7818609E-02  0.8766090E-01
        1   -1    0    0  501    0  0.00000000000E+00  0.00000000000E+00  0.11952714954E+04  0.11952714954E+04  0.50400001928E-02 0.  1.
       -1   -1    0    0    0  501  0.00000000000E+00  0.00000000000E+00 -0.59860438710E+03  0.59860438712E+03  0.50400001928E-02 0. -1.
    10030    2    1    2    0    0  0.00000000000E+00  0.00000000000E+00  0.59666710830E+03  0.17938758825E+04  0.16917384679E+04 0.  0.
        4    1    3    3  502    0 -0.33679064902E+03  0.76336110264E+03  0.44581721613E+03  0.94599297956E+03  0.12699999809E+01 0.  1.
       -4    1    3    3    0  502  0.33679064902E+03 -0.76336110264E+03  0.15084989217E+03  0.84788290297E+03  0.12699999809E+01 0. -1.
</event>
<event>
 5   0  0.5198430E-04  0.1687878E+04  0.7818609E-02  0.8768308E-01
       -2   -1    0    0    0  501  0.00000000000E+00  0.00000000000E+00  0.11822713705E+04  0.11822713705E+04  0.25500000920E-02 0. -1.
        2   -1    0    0  501    0  0.00000000000E+00  0.00000000000E+00 -0.60242752967E+03  0.60242752968E+03  0.25500000920E-02 0.  1.
    10030    2    1    2    0    0  0.00000000000E+00  0.00000000000E+00  0.57984384083E+03  0.17846989002E+04  0.16878777457E+04 0.  0.
        4    1    3    3  502    0 -0.44504849236E+03  0.71522582711E+03  0.23585083057E+03  0.87478189939E+03  0.12699999809E+01 0. -1.
       -4    1    3    3    0  502  0.44504849236E+03 -0.71522582711E+03  0.34399301026E+03  0.90991700079E+03  0.12699999809E+01 0.  1.
</event>
<event>
 5   0  0.5021349E-04  0.1623612E+04  0.7818609E-02  0.8806172E-01
       -2   -1    0    0    0  501  0.00000000000E+00  0.00000000000E+00  0.74609383463E+03  0.74609383464E+03  0.25500000920E-02 0.  1.
        2   -1    0    0  501    0  0.00000000000E+00  0.00000000000E+00 -0.88330539043E+03  0.88330539044E+03  0.25500000920E-02 0. -1.
    10030    2    1    2    0    0  0.00000000000E+00  0.00000000000E+00 -0.13721155580E+03  0.16293992251E+04  0.16236116604E+04 0.  0.
        2    1    3    3  502    0  0.18339343887E+03  0.12399678411E+03  0.71521632395E+03  0.74869402692E+03  0.25500000920E-02 0.  1.
       -2    1    3    3    0  502 -0.18339343887E+03 -0.12399678411E+03 -0.85242787975E+03  0.88070519816E+03  0.25500000920E-02 0. -1.
</event>
<event>
 5   0  0.5342255E-04  0.1703000E+04  0.7818609E-02  0.8759655E-01
       -2   -1    0    0    0  501  0.00000000000E+00  0.00000000000E+00  0.32637626828E+03  0.32637626829E+03  0.25500000920E-02 0.  1.
        2   -1    0    0  501    0  0.00000000000E+00  0.00000000000E+00 -0.22215232019E+04  0.22215232019E+04  0.25500000920E-02 0. -1.
    10030    2    1    2    0    0  0.00000000000E+00  0.00000000000E+00 -0.18951469336E+04  0.25478994702E+04  0.17030002379E+04 0.  0.
        5    1    3    3  502    0 -0.22973445007E+03  0.81905729432E+03 -0.10035051688E+04  0.13155521589E+04  0.46999998093E+01 0.  1.
       -5    1    3    3    0  502  0.22973445007E+03 -0.81905729432E+03 -0.89164176477E+03  0.12323473113E+04  0.46999998093E+01 0. -1.
</event>
<event>
 5   0  0.5299877E-04  0.1764543E+04  0.7818609E-02  0.8725386E-01
       -2   -1    0    0    0  501  0.00000000000E+00  0.00000000000E+00  0.38205133778E+03  0.38205133779E+03  0.25500000920E-02 0.  1.
        2   -1    0    0  501    0  0.00000000000E+00  0.00000000000E+00 -0.20374302964E+04  0.20374302964E+04  0.25500000920E-02 0. -1.
    10030    2    1    2    0    0  0.00000000000E+00  0.00000000000E+00 -0.16553789586E+04  0.24194816342E+04  0.17645429668E+04 0.  0.
        3    1    3    3  502    0  0.24083767311E+03 -0.47584105952E+03 -0.17913915224E+04  0.18690936561E+04  0.10100000352E+00 0. -1.
       -3    1    3    3    0  502 -0.24083767311E+03  0.47584105952E+03  0.13601256375E+03  0.55038797808E+03  0.10100000352E+00 0.  1.
</event>
<event>
 5   0  0.5310003E-04  0.1839596E+04  0.7818609E-02  0.8685521E-01
        2   -1    0    0  501    0  0.00000000000E+00  0.00000000000E+00  0.21160522264E+04  0.21160522264E+04  0.25500000920E-02 0. -1.
       -2   -1    0    0    0  501  0.00000000000E+00  0.00000000000E+00 -0.39981469552E+03  0.39981469552E+03  0.25500000920E-02 0.  1.
    10030    2    1    2    0    0  0.00000000000E+00  0.00000000000E+00  0.17162375309E+04  0.25158669219E+04  0.18395964520E+04 0.  0.
        1    1    3    3  502    0  0.91411251447E+03  0.55784969237E+02  0.97508916344E+03  0.13377266270E+04  0.50400001928E-02 0. -1.
       -1    1    3    3    0  502 -0.91411251447E+03 -0.55784969237E+02  0.74114836742E+03  0.11781402949E+04  0.50400001928E-02 0.  1.
</event>
<event>
 5   0  0.2583422E-04  0.1743198E+04  0.7818609E-02  0.8737103E-01
       -1   -1    0    0    0  501  0.00000000000E+00  0.00000000000E+00  0.67549957742E+03  0.67549957744E+03  0.50400001928E-02 0.  1.
        1   -1    0    0  501    0  0.00000000000E+00  0.00000000000E+00 -0.11246270071E+04  0.11246270071E+04  0.50400001928E-02 0. -1.
    10030    2    1    2    0    0  0.00000000000E+00  0.00000000000E+00 -0.44912742966E+03  0.18001265845E+04  0.17431982883E+04 0.  0.
        3    1    3    3  502    0 -0.23583355510E+03  0.81160404882E+03 -0.46138490320E+01  0.84518630821E+03  0.10100000352E+00 0.  1.
       -3    1    3    3    0  502  0.23583355510E+03 -0.81160404882E+03 -0.44451358063E+03  0.95494027632E+03  0.10100000352E+00 0. -1.
</event>
<event>
 5   0  0.2583422E-04  0.1699898E+04  0.7818609E-02  0.8761423E-01
       -1   -1    0    0    0  501  0.00000000000E+00  0.00000000000E+00  0.13209762318E+04  0.13209762318E+04  0.50400001928E-02 0.  1.
        1   -1    0    0  501    0  0.00000000000E+00  0.00000000000E+00 -0.54687831063E+03  0.54687831065E+03  0.50400001928E-02 0. -1.
    10030    2    1    2    0    0  0.00000000000E+00  0.00000000000E+00  0.77409792116E+03  0.18678545425E+04  0.16998979382E+04 0.  0.
        3    1    3    3  502    0  0.83946327836E+01 -0.22704903571E+03  0.12869898462E+04  0.13068912001E+04  0.10100000352E+00 0.  1.
       -3    1    3    3    0  502 -0.83946327836E+01  0.22704903571E+03 -0.51289192505E+03  0.56096334235E+03  0.10100000352E+00 0. -1.
</event>
<event>
 5   0  0.5342255E-04  0.1741517E+04  0.7818609E-02  0.8738034E-01
        2   -1    0    0  501    0  0.00000000000E+00  0.00000000000E+00  0.55416836238E+03  0.55416836238E+03  0.25500000920E-02 0. -1.
       -2   -1    0    0    0  501  0.00000000000E+00  0.00000000000E+00 -0.13682127154E+04  0.13682127154E+04  0.25500000920E-02 0.  1.
    10030    2    1    2    0    0  0.00000000000E+00  0.00000000000E+00 -0.81404435302E+03  0.19223810778E+04  0.17415168100E+04 0.  0.
        5    1    3    3  502    0 -0.19626522243E+03 -0.68784839845E+03  0.14107535328E+03  0.72909519412E+03  0.46999998093E+01 0. -1.
       -5    1    3    3    0  502  0.19626522243E+03  0.68784839845E+03 -0.95511970630E+03  0.11932858837E+04  0.46999998093E+01 0.  1.
</event>
<event>
 5   0  0.2561518E-04  0.1742856E+04  0.7818609E-02  0.8737293E-01
        1   -1    0    0  501    0  0.00000000000E+00  0.00000000000E+00  0.99136970021E+03  0.99136970022E+03  0.50400001928E-02 0.  1.
       -1   -1    0    0    0  501  0.00000000000E+00  0.00000000000E+00 -0.76599726760E+03  0.76599726762E+03  0.50400001928E-02 0. -1.
    10030    2    1    2    0    0  0.00000000000E+00  0.00000000000E+00  0.22537243261E+03  0.17573669678E+04  0.17428556814E+04 0.  0.
        4    1    3    3  502    0  0.12807203413E+03 -0.77012294802E+03  0.50307003359E+03  0.92874801351E+03  0.12699999809E+01 0.  1.
       -4    1    3    3    0  502 -0.12807203413E+03  0.77012294802E+03 -0.27769760098E+03  0.82861895434E+03  0.12699999809E+01 0. -1.
</event>
<event>
 5   0  0.5310003E-04  0.1754897E+04  0.7818609E-02  0.8730659E-01
       -2   -1    0    0    0  501  0.00000000000E+00  0.00000000000E+00  0.42930059004E+03  0.42930059005E+03  0.25500000920E-02 0.  1.
        2   -1    0    0  501    0  0.00000000000E+00  0.00000000000E+00 -0.17934192918E+04  0.17934192918E+04  0.25500000920E-02 0. -1.
    10030    2    1    2    0    0  0.00000000000E+00  0.00000000000E+00 -0.13641187017E+04  0.22227198818E+04  0.17548971026E+04 0.  0.
        1    1    3    3  502    0  0.74236857901E+03 -0.41913467476E+02 -0.91979091696E+02  0.74921825871E+03  0.50400001928E-02 0.  1.
       -1    1    3    3    0  502 -0.74236857901E+03  0.41913467476E+02 -0.12721396100E+04  0.14735016231E+04  0.50400001928E-02 0. -1.
</event>
<event>
 5   0  0.5299877E-04  0.1683228E+04  0.7818609E-02  0.8770988E-01
        2   -1    0    0  501    0  0.00000000000E+00  0.00000000000E+00  0.72197074795E+03  0.72197074796E+03  0.25500000920E-02 0. -1.
       -2   -1    0    0    0  501  0.00000000000E+00  0.00000000000E+00 -0.98108452241E+03  0.98108452242E+03  0.25500000920E-02 0.  1.
    10030    2    1    2    0    0  0.00000000000E+00  0.00000000000E+00 -0.25911377446E+03  0.17030552704E+04  0.16832282394E+04 0.  0.
        3    1    3    3  502    0  0.40505439364E+03  0.60941072347E+02  0.61431169077E+03  0.73835068885E+03  0.10100000352E+00 0. -1.
       -3    1    3    3    0  502 -0.40505439364E+03 -0.60941072347E+02 -0.87342546523E+03  0.96470458153E+03  0.10100000352E+00 0.  1.
</event>
<event>
 5   0  0.2630135E-04  0.1701934E+04  0.7818609E-02  0.8760262E-01
        1   -1    0    0  501    0  0.00000000000E+00  0.00000000000E+00  0.99084446415E+03  0.99084446416E+03  0.50400001928E-02 0. -1.
       -1   -1    0    0    0  501  0.00000000000E+00  0.00000000000E+00 -0.73083627057E+03  0.73083627059E+03  0.50400001928E-02 0.  1.
    10030    2    1    2    0    0  0.00000000000E+00  0.00000000000E+00  0.26000819358E+03  0.17216807348E+04  0.17019342795E+04 0.  0.
        1    1    3    3  502    0 -0.76994606700E+03  0.13510608409E+03  0.47017104986E+03  0.91221237451E+03  0.50400001928E-02 0. -1.
       -1    1    3    3    0  502  0.76994606700E+03 -0.13510608409E+03 -0.21016285628E+03  0.80946836025E+03  0.50400001928E-02 0.  1.
</event>
<event>
 5   0  0.5299877E-04  0.1691573E+04  0.7818609E-02  0.8766185E-01
        2   -1    0    0  501    0  0.00000000000E+00  0.00000000000E+00  0.41563365674E+03  0.41563365675E+03  0.25500000920E-02 0.  1.
       -2   -1    0    0    0  501  0.00000000000E+00  0.00000000000E+00 -0.17211179382E+04  0.17211179382E+04  0.25500000920E-02 0. -1.
    10030    2    1    2    0    0  0.00000000000E+00  0.00000000000E+00 -0.13054842814E+04  0.21367515949E+04  0.16915726911E+04 0.  0.
        3    1    3    3  502    0  0.32557478429E+03 -0.34619549066E+03 -0.15365169444E+04  0.16083328600E+04  0.10100000352E+00 0. -1.
       -3    1    3    3    0  502 -0.32557478429E+03  0.34619549066E+03  0.23103266292E+03  0.52841873496E+03  0.10100000352E+00 0.  1.
</event>
<event>
 5   0  0.5310003E-04  0.1704292E+04  0.7818609E-02  0.8758920E-01
        2   -1    0    0  501    0  0.00000000000E+00  0.00000000000E+00  0.18810377927E+04  0.18810377927E+04  0.25500000920E-02 0.  1.
       -2   -1    0    0    0  501  0.00000000000E+00  0.00000000000E+00 -0.38603829282E+03  0.38603829283E+03  0.25500000920E-02 0. -1.
    10030    2    1    2    0    0  0.00000000000E+00  0.00000000000E+00  0.14949994998E+04  0.22670760855E+04  0.17042917804E+04 0.  0.
        1    1    3    3  502    0 -0.19933406056E+02  0.11819135790E+03  0.18697685560E+04  0.18736064129E+04  0.50400001928E-02 0.  1.
       -1    1    3    3    0  502  0.19933406056E+02 -0.11819135790E+03 -0.37476905612E+03  0.39346967254E+03  0.50400001928E-02 0. -1.
</event>
<event>
 5   0  0.2595644E-04  0.1759211E+04  0.7818609E-02  0.8728297E-01
        1   -1    0    0  501    0  0.00000000000E+00  0.00000000000E+00  0.10915012808E+04  0.10915012809E+04  0.50400001928E-02 0.  1.
       -1   -1    0    0    0  501  0.00000000000E+00  0.00000000000E+00 -0.70884541067E+03  0.70884541069E+03  0.50400001928E-02 0. -1.
    10030    2    1    2    0    0  0.00000000000E+00  0.00000000000E+00  0.38265587018E+03  0.18003466915E+04  0.17592108159E+04 0.  0.
        2    1    3    3  502    0  0.43100888597E+03  0.42676085992E+03 -0.46060181286E+03  0.76160850925E+03  0.25500000920E-02 0. -1.
       -2    1    3    3    0  502 -0.43100888597E+03 -0.42676085992E+03  0.84325768304E+03  0.10387381823E+04  0.25500000920E-02 0.  1.
</event>
<event>
 5   0  0.5198430E-04  0.1709241E+04  0.7818609E-02  0.8756111E-01
        2   -1    0    0  501    0  0.00000000000E+00  0.00000000000E+00  0.12883175571E+04  0.12883175571E+04  0.25500000920E-02 0. -1.
       -2   -1    0    0    0  501  0.00000000000E+00  0.00000000000E+00 -0.56692235477E+03  0.56692235478E+03  0.25500000920E-02 0.  1.
    10030    2    1    2    0    0  0.00000000000E+00  0.00000000000E+00  0.72139520234E+03  0.18552399119E+04  0.17092407942E+04 0.  0.
        4    1    3    3  502    0  0.12577268082E+03  0.63207909036E+03  0.96991729574E+03  0.11645101619E+04  0.12699999809E+01 0. -1.
       -4    1    3    3    0  502 -0.12577268082E+03 -0.63207909036E+03 -0.24852209340E+03  0.69072974999E+03  0.12699999809E+01 0.  1.
</event>
<event>
 5   0  0.5021349E-04  0.1712379E+04  0.7818609E-02  0.8754336E-01
       -2   -1    0    0    0  501  0.00000000000E+00  0.00000000000E+00  0.35601869724E+03  0.35601869725E+03  0.25500000920E-02 0.  1.
        2   -1    0    0  501    0  0.00000000000E+00  0.00000000000E+00 -0.20590502103E+04  0.20590502103E+04  0.25500000920E-02 0. -1.
    10030    2    1    2    0    0  0.00000000000E+00  0.00000000000E+00 -0.17030315131E+04  0.24150689076E+04  0.17123788990E+04 0.  0.
        2    1    3    3  502    0  0.30569165768E+03 -0.28028683029E+03  0.20489137325E+03  0.46258898782E+03  0.25500000920E-02 0.  1.
       -2    1    3    3    0  502 -0.30569165768E+03  0.28028683029E+03 -0.19079228863E+04  0.19524799197E+04  0.25500000920E-02 0. -1.
</event>
<event>
 5   0  0.2583422E-04  0.1675763E+04  0.7818609E-02  0.8775309E-01
       -1   -1    0    0    0  501  0.00000000000E+00  0.00000000000E+00  0.52021680385E+03  0.52021680388E+03  0.50400001928E-02 0. -1.
        1   -1    0    0  501    0  0.00000000000E+00  0.00000000000E+00 -0.13495251069E+04  0.13495251069E+04  0.50400001928E-02 0.  1.
    10030    2    1    2    0    0  0.00000000000E+00  0.00000000000E+00 -0.82930830307E+03  0.18697419108E+04  0.16757632743E+04 0.  0.
        3    1    3    3  502    0  0.35156904499E+03 -0.75919075790E+03 -0.36383853744E+03  0.91233211705E+03  0.10100000352E+00 0. -1.
       -3    1    3    3    0  502 -0.35156904499E+03  0.75919075790E+03 -0.46546976563E+03  0.95740979376E+03  0.10100000352E+00 0.  1.
</event>
<event>
 5   0  0.2561518E-04  0.1676403E+04  0.7818609E-02  0.8774938E-01
        1   -1    0    0  501    0  0.00000000000E+00  0.00000000000E+00  0.19136655840E+04  0.19136655840E+04  0.50400001928E-02 0. -1.
       -1   -1    0    0    0  501  0.00000000000E+00  0.00000000000E+00 -0.36713942056E+03  0.36713942059E+03  0.50400001928E-02 0.  1.
    10030    2    1    2    0    0  0.00000000000E+00  0.00000000000E+00  0.15465261635E+04  0.22808050046E+04  0.16764033807E+04 0.  0.
        4    1    3    3  502    0  0.19066318361E+03  0.81068609162E+03  0.64407622939E+03  0.10528058657E+04  0.12699999809E+01 0.  1.
       -4    1    3    3    0  502 -0.19066318361E+03 -0.81068609162E+03  0.90244993408E+03  0.12279991389E+04  0.12699999809E+01 0. -1.
</event>
<event>
 5   0  0.2785059E-04  0.1711060E+04  0.7818609E-02  0.8755081E-01
       -1   -1    0    0    0  501  0.00000000000E+00  0.00000000000E+00  0.32995436258E+03  0.32995436261E+03  0.50400001928E-02 0.  1.
        1   -1    0    0  501    0  0.00000000000E+00  0.00000000000E+00 -0.22182818492E+04  0.22182818492E+04  0.50400001928E-02 0. -1.
    10030    2    1    2    0    0  0.00000000000E+00  0.00000000000E+00 -0.18883274867E+04  0.25482362118E+04  0.17110602253E+04 0.  0.
        5    1    3    3  502    0 -0.45395832288E+03 -0.72394706849E+03 -0.10061462641E+04  0.13200492081E+04  0.46999998093E+01 0. -1.
       -5    1    3    3    0  502  0.45395832288E+03  0.72394706849E+03 -0.88218122252E+03  0.12281870038E+04  0.46999998093E+01 0.  1.
</event>
<event>
 5   0  0.2561518E-04  0.1702256E+04  0.7818609E-02  0.8760079E-01
       -1   -1    0    0    0  501  0.00000000000E+00  0.00000000000E+00  0.37458931215E+03  0.37458931218E+03  0.50400001928E-02 0. -1.
        1   -1    0    0  501    0  0.00000000000E+00  0.00000000000E+00 -0.19339017856E+04  0.19339017856E+04  0.50400001928E-02 0.  1.
    10030    2    1    2    0    0  0.00000000000E+00  0.00000000000E+00 -0.15593124735E+04  0.23084910978E+04  0.17022560791E+04 0.  0.
        4    1    3    3  502    0  0.71567900526E+03  0.15834938492E+03 -0.19298607126E+03  0.75796847090E+03  0.12699999809E+01 0. -1.
       -4    1    3    3    0  502 -0.71567900526E+03 -0.15834938492E+03 -0.13663264022E+04  0.15505226269E+04  0.12699999809E+01 0.  1.
</event>
<event>
 5   0  0.2630135E-04  0.1697701E+04  0.7818609E-02  0.8762677E-01
        1   -1    0    0  501    0  0.00000000000E+00  0.00000000000E+00  0.17044341964E+04  0.17044341964E+04  0.50400001928E-02 0.  1.
       -1   -1    0    0    0  501  0.00000000000E+00  0.00000000000E+00 -0.42274848572E+03  0.42274848575E+03  0.50400001928E-02 0. -1.
    10030    2    1    2    0    0  0.00000000000E+00  0.00000000000E+00  0.12816857107E+04  0.21271826821E+04  0.16977007694E+04 0.  0.
        1    1    3    3  502    0  0.74571087070E+03 -0.35446995388E+03  0.88769338629E+03  0.12123255334E+04  0.50400001928E-02 0. -1.
       -1    1    3    3    0  502 -0.74571087070E+03  0.35446995388E+03  0.39399232436E+03  0.91485714872E+03  0.50400001928E-02 0.  1.
</event>
<event>
 5   0  0.5342255E-04  0.1684952E+04  0.7818609E-02  0.8769993E-01
        2   -1    0    0  501    0  0.00000000000E+00  0.00000000000E+00  0.11500964413E+04  0.11500964413E+04  0.25500000920E-02 0.  1.
       -2   -1    0    0    0  501  0.00000000000E+00  0.00000000000E+00 -0.61713624852E+03  0.61713624853E+03  0.25500000920E-02 0. -1.
    10030    2    1    2    0    0  0.00000000000E+00  0.00000000000E+00  0.53296019275E+03  0.17672326898E+04  0.16849524660E+04 0.  0.
        5    1    3    3  502    0  0.47958206212E+03  0.36695079084E+03  0.88261200694E+03  0.10694287643E+04  0.46999998093E+01 0.  1.
       -5    1    3    3    0  502 -0.47958206212E+03 -0.36695079084E+03 -0.34965181420E+03  0.69780392546E+03  0.46999998093E+01 0. -1.
</event>
<event>
 5   0  0.2561518E-04  0.1686225E+04  0.7818609E-02  0.8769260E-01
        1   -1    0    0  501    0  0.00000000000E+00  0.00000000000E+00  0.91065157650E+03  0.91065157651E+03  0.50400001928E-02 0.  1.
       -1   -1    0    0    0  501  0.00000000000E+00  0.00000000000E+00 -0.78058279413E+03  0.78058279415E+03  0.50400001928E-02 0. -1.
    10030    2    1    2    0    0  0.00000000000E+00  0.00000000000E+00  0.13006878237E+03  0.16912343707E+04  0.16862253136E+04 0.  0.
        4    1    3    3  502    0  0.74669705539E+03 -0.38942655611E+03  0.10550029594E+03  0.84872932109E+03  0.12699999809E+01 0.  1.
       -4    1    3    3    0  502 -0.74669705539E+03  0.38942655611E+03  0.24568486430E+02  0.84250504957E+03  0.12699999809E+01 0. -1.
</event>
<event>
 5   0  0.1910750E-04  0.1660287E+04  0.7818609E-02  0.8784344E-01
        4   -1    0    0  501    0  0.00000000000E+00  0.00000000000E+00  0.43291290408E+03  0.43291476692E+03  0.12699999809E+01 0. -1.
       -4   -1    0    0    0  501  0.00000000000E+00  0.00000000000E+00 -0.15918574228E+04  0.15918579294E+04  0.12699999809E+01 0.  1.
    10030    2    1    2    0    0  0.00000000000E+00  0.00000000000E+00 -0.11589445187E+04  0.20247726964E+04  0.16602867446E+04 0.  0.
        4    1    3    3  502    0  0.29173768444E+03  0.19447191871E+03 -0.14971294801E+04  0.15376373099E+04  0.12699999809E+01 0.  1.
       -4    1    3    3    0  502 -0.29173768444E+03 -0.19447191871E+03  0.33818496140E+03  0.48713538642E+03  0.12699999809E+01 0. -1.
</event>
<event>
 5   0  0.5299877E-04  0.1716726E+04  0.7818609E-02  0.8751882E-01
       -2   -1    0    0    0  501  0.00000000000E+00  0.00000000000E+00  0.43406832787E+03  0.43406832788E+03  0.25500000920E-02 0. -1.
        2   -1    0    0  501    0  0.00000000000E+00  0.00000000000E+00 -0.16973993428E+04  0.16973993428E+04  0.25500000920E-02 0.  1.
    10030    2    1    2    0    0  0.00000000000E+00  0.00000000000E+00 -0.12633310150E+04  0.21314676707E+04  0.17167262967E+04 0.  0.
        3    1    3    3  502    0 -0.49346373786E+03  0.55478447081E+02  0.23762644126E+03  0.55050036736E+03  0.10100000352E+00 0. -1.
       -3    1    3    3    0  502  0.49346373786E+03 -0.55478447081E+02 -0.15009574562E+04  0.15809673034E+04  0.10100000352E+00 0.  1.
</event>
<event>
 5   0  0.5299877E-04  0.1599065E+04  0.7818609E-02  0.8821123E-01
       -2   -1    0    0    0  501  0.00000000000E+00  0.00000000000E+00  0.25929444465E+03  0.25929444467E+03  0.25500000920E-02 0.  1.
        2   -1    0    0  501    0  0.00000000000E+00  0.00000000000E+00 -0.24653520576E+04  0.24653520576E+04  0.25500000920E-02 0. -1.
    10030    2    1    2    0    0  0.00000000000E+00  0.00000000000E+00 -0.22060576129E+04  0.27246465022E+04  0.15990648425E+04 0.  0.
        3    1    3    3  502    0  0.62004275573E+03 -0.21154050984E+03 -0.32211140959E+03  0.73003984592E+03  0.10100000352E+00 0.  1.
       -3    1    3    3    0  502 -0.62004275573E+03  0.21154050984E+03 -0.18839462033E+04  0.19946066563E+04  0.10100000352E+00 0. -1.
</event>
<event>
 5   0  0.2785059E-04  0.1707541E+04  0.7818609E-02  0.8757075E-01
       -1   -1    0    0    0  501  0.00000000000E+00  0.00000000000E+00  0.49044925316E+03  0.49044925319E+03  0.50400001928E-02 0.  1.
        1   -1    0    0  501    0  0.00000000000E+00  0.00000000000E+00 -0.14862380344E+04  0.14862380345E+04  0.50400001928E-02 0. -1.
    10030    2    1    2    0    0  0.00000000000E+00  0.00000000000E+00 -0.99578878128E+03  0.19766872876E+04  0.17075413132E+04 0.  0.
        5    1    3    3  502    0  0.76400845435E+03  0.16976222025E+03 -0.89280149212E+03  0.11872846011E+04  0.46999998093E+01 0. -1.
       -5    1    3    3    0  502 -0.76400845435E+03 -0.16976222025E+03 -0.10298728916E+03  0.78940268651E+03  0.46999998093E+01 0.  1.
</event>
<event>
 5   0  0.5342255E-04  0.1672022E+04  0.7818609E-02  0.8777484E-01
        2   -1    0    0  501    0  0.00000000000E+00  0.00000000000E+00  0.12704548119E+04  0.12704548119E+04  0.25500000920E-02 0. -1.
       -2   -1    0    0    0  501  0.00000000000E+00  0.00000000000E+00 -0.55012905824E+03  0.55012905825E+03  0.25500000920E-02 0.  1.
    10030    2    1    2    0    0  0.00000000000E+00  0.00000000000E+00  0.72032575368E+03  0.18205838702E+04  0.16720216616E+04 0.  0.
        5    1    3    3  502    0  0.22125154955E+03 -0.11007827448E+03 -0.50943550716E+03  0.56622972427E+03  0.46999998093E+01 0.  1.
       -5    1    3    3    0  502 -0.22125154955E+03  0.11007827448E+03  0.12297612608E+04  0.12543541459E+04  0.46999998093E+01 0. -1.
</event>
<event>
 5   0  0.5299877E-04  0.1807545E+04  0.7818609E-02  0.8702297E-01
       -2   -1    0    0    0  501  0.00000000000E+00  0.00000000000E+00  0.93689957941E+03  0.93689957942E+03  0.25500000920E-02 0. -1.
        2   -1    0    0  501    0  0.00000000000E+00  0.00000000000E+00 -0.87181674729E+03  0.87181674729E+03  0.25500000920E-02 0.  1.
    10030    2    1    2    0    0  0.00000000000E+00  0.00000000000E+00  0.65082832129E+02  0.18087163267E+04  0.18075450134E+04 0.  0.
        3    1    3    3  502    0 -0.11713638073E+03  0.89476025248E+03 -0.17369684716E+02  0.90256221794E+03  0.10100000352E+00 0.  1.
       -3    1    3    3    0  502  0.11713638073E+03 -0.89476025248E+03  0.82452516845E+02  0.90615410877E+03  0.10100000352E+00 0. -1.
</event>
<event>
 5   0  0.2583422E-04  0.1673237E+04  0.7818609E-02  0.8776777E-01
        1   -1    0    0  501    0  0.00000000000E+00  0.00000000000E+00  0.11254272346E+04  0.11254272346E+04  0.50400001928E-02 0. -1.
       -1   -1    0    0    0  501  0.00000000000E+00  0.00000000000E+00 -0.62192426708E+03  0.62192426710E+03  0.50400001928E-02 0.  1.
    10030    2    1    2    0    0  0.00000000000E+00  0.00000000000E+00  0.50350296750E+03  0.17473515017E+04  0.16732369922E+04 0.  0.
        3    1    3    3  502    0 -0.77090064582E+03  0.21832262943E+03  0.50320293204E+03  0.94613200837E+03  0.10100000352E+00 0. -1.
       -3    1    3    3    0  502  0.77090064582E+03 -0.21832262943E+03  0.30003545202E+00  0.80121949331E+03  0.10100000352E+00 0.  1.
</event>
<event>
 5   0  0.2583422E-04  0.1709083E+04  0.7818609E-02  0.8756201E-01
        1   -1    0    0  501    0  0.00000000000E+00  0.00000000000E+00  0.76376523484E+03  0.76376523486E+03  0.50400001928E-02 0. -1.
       -1   -1    0    0    0  501  0.00000000000E+00  0.00000000000E+00 -0.95610643930E+03  0.95610643931E+03  0.50400001928E-02 0.  1.
    10030    2    1    2    0    0  0.00000000000E+00  0.00000000000E+00 -0.19234120445E+03  0.17198716742E+04  0.17090826301E+04 0.  0.
        3    1    3    3  502    0 -0.23217424379E+03  0.19129653299E+03 -0.90105828533E+03  0.94995014963E+03  0.10100000352E+00 0.  1.
       -3    1    3    3    0  502  0.23217424379E+03 -0.19129653299E+03  0.70871708088E+03  0.76992152454E+03  0.10100000352E+00 0. -1.
</event>
<event>
 5   0  0.2561518E-04  0.1770956E+04  0.7818609E-02  0.8721899E-01
        1   -1    0    0  501    0  0.00000000000E+00  0.00000000000E+00  0.62696255324E+03  0.62696255326E+03  0.50400001928E-02 0. -1.
       -1   -1    0    0    0  501  0.00000000000E+00  0.00000000000E+00 -0.12505874727E+04  0.12505874727E+04  0.50400001928E-02 0.  1.
    10030    2    1    2    0    0  0.00000000000E+00  0.00000000000E+00 -0.62362491941E+03  0.18775500259E+04  0.17709562557E+04 0.  0.
        4    1    3    3  502    0  0.75596331418E+03  0.31092803111E+03  0.49139993972E+02  0.81888529406E+03  0.12699999809E+01 0. -1.
       -4    1    3    3    0  502 -0.75596331418E+03 -0.31092803111E+03 -0.67276491338E+03  0.10586647319E+04  0.12699999809E+01 0.  1.
</event>
<event>
 5   0  0.5310003E-04  0.1698368E+04  0.7818609E-02  0.8762296E-01
       -2   -1    0    0    0  501  0.00000000000E+00  0.00000000000E+00  0.50570339352E+03  0.50570339353E+03  0.25500000920E-02 0. -1.
        2   -1    0    0  501    0  0.00000000000E+00  0.00000000000E+00 -0.14259618436E+04  0.14259618436E+04  0.25500000920E-02 0.  1.
    10030    2    1    2    0    0  0.00000000000E+00  0.00000000000E+00 -0.92025845006E+03  0.19316652371E+04  0.16983683268E+04 0.  0.
        1    1    3    3  502    0 -0.19918963259E+03 -0.63602858618E+03  0.13837232572E+03  0.68070241128E+03  0.50400001928E-02 0. -1.
       -1    1    3    3    0  502  0.19918963259E+03  0.63602858618E+03 -0.10586307758E+04  0.12509628258E+04  0.50400001928E-02 0.  1.
</event>
<event>
 5   0  0.1910750E-04  0.1683893E+04  0.7818609E-02  0.8770604E-01
        4   -1    0    0  501    0  0.00000000000E+00  0.00000000000E+00  0.63640688750E+03  0.63640815469E+03  0.12699999809E+01 0. -1.
       -4   -1    0    0    0  501  0.00000000000E+00  0.00000000000E+00 -0.11138667377E+04  0.11138674617E+04  0.12699999809E+01 0.  1.
    10030    2    1    2    0    0  0.00000000000E+00  0.00000000000E+00 -0.47745985016E+03  0.17502756164E+04  0.16838933531E+04 0.  0.
        2    1    3    3  502    0 -0.65158644828E+03 -0.16466732610E+03 -0.76586541681E+03  0.10189357509E+04  0.25500000920E-02 0.  1.
       -2    1    3    3    0  502  0.65158644828E+03  0.16466732610E+03  0.28840556665E+03  0.73133986542E+03  0.25500000920E-02 0. -1.
</event>
<event>
 5   0  0.5021349E-04  0.1524685E+04  0.7818609E-02  0.8868202E-01
        2   -1    0    0  501    0  0.00000000000E+00  0.00000000000E+00  0.13154635208E+04  0.13154635208E+04  0.25500000920E-02 0. -1.
       -2   -1    0    0    0  501  0.00000000000E+00  0.00000000000E+00 -0.44179571073E+03  0.44179571073E+03  0.25500000920E-02 0.  1.
    10030    2    1    2    0    0  0.00000000000E+00  0.00000000000E+00  0.87366781005E+03  0.17572592315E+04  0.15246850706E+04 0.  0.
        2    1    3    3  502    0 -0.10690576288E+03 -0.47093673699E+03  0.11166912300E+04  0.12166386298E+04  0.25500000920E-02 0. -1.
       -2    1    3    3    0  502  0.10690576288E+03  0.47093673699E+03 -0.24302341992E+03  0.54062060173E+03  0.25500000920E-02 0.  1.
</event>
<event>
 5   0  0.5299877E-04  0.1695084E+04  0.7818609E-02  0.8764173E-01
        2   -1    0    0  501    0  0.00000000000E+00  0.00000000000E+00  0.10868983635E+04  0.10868983635E+04  0.25500000920E-02 0. -1.
       -2   -1    0    0    0  501  0.00000000000E+00  0.00000000000E+00 -0.66089644495E+03  0.66089644495E+03  0.25500000920E-02 0.  1.
    10030    2    1    2    0    0  0.00000000000E+00  0.00000000000E+00  0.42600191854E+03  0.17477948084E+04  0.16950837908E+04 0.  0.
        3    1    3    3  502    0 -0.81986415041E+03 -0.62066929813E+02  0.42506048244E+03  0.92558411440E+03  0.10100000352E+00 0. -1.
       -3    1    3    3    0  502  0.81986415041E+03  0.62066929813E+02  0.94143609546E+00  0.82221069404E+03  0.10100000352E+00 0.  1.
</event>
<event>
 5   0  0.2595644E-04  0.1724680E+04  0.7818609E-02  0.8747412E-01
       -1   -1    0    0    0  501  0.00000000000E+00  0.00000000000E+00  0.46652931994E+03  0.46652931997E+03  0.50400001928E-02 0. -1.
        1   -1    0    0  501    0  0.00000000000E+00  0.00000000000E+00 -0.15939630056E+04  0.15939630056E+04  0.50400001928E-02 0.  1.
    10030    2    1    2    0    0  0.00000000000E+00  0.00000000000E+00 -0.11274336857E+04  0.20604923256E+04  0.17246802336E+04 0.  0.
        2    1    3    3  502    0 -0.23472275031E+03  0.19395473792E+03  0.40016835626E+03  0.50283985844E+03  0.25500000920E-02 0. -1.
       -2    1    3    3    0  502  0.23472275031E+03 -0.19395473792E+03 -0.15276020419E+04  0.15576524672E+04  0.25500000920E-02 0.  1.
</event>
<event>
 5   0  0.2630135E-04  0.1703766E+04  0.7818609E-02  0.8759219E-01
       -1   -1    0    0    0  501  0.00000000000E+00  0.00000000000E+00  0.55564088821E+03  0.55564088823E+03  0.50400001928E-02 0. -1.
        1   -1    0    0  501    0  0.00000000000E+00  0.00000000000E+00 -0.13060674884E+04  0.13060674885E+04  0.50400001928E-02 0.  1.
    10030    2    1    2    0    0  0.00000000000E+00  0.00000000000E+00 -0.75042660024E+03  0.18617083767E+04  0.17037658282E+04 0.  0.
        1    1    3    3  502    0 -0.69436402656E+02  0.19091570611E+03  0.52878502410E+03  0.56646608248E+03  0.50400001928E-02 0. -1.
       -1    1    3    3    0  502  0.69436402656E+02 -0.19091570611E+03 -0.12792116243E+04  0.12952422942E+04  0.50400001928E-02 0.  1.
</event>
<event>
 5   0  0.5299877E-04  0.1733954E+04  0.7818609E-02  0.8742232E-01
       -2   -1    0    0    0  501  0.00000000000E+00  0.00000000000E+00  0.31217821100E+03  0.31217821101E+03  0.25500000920E-02 0. -1.
        2   -1    0    0  501    0  0.00000000000E+00  0.00000000000E+00 -0.24077572300E+04  0.24077572300E+04  0.25500000920E-02 0.  1.
    10030    2    1    2    0    0  0.00000000000E+00  0.00000000000E+00 -0.20955790190E+04  0.27199354411E+04  0.17339542608E+04 0.  0.
        3    1    3    3  502    0 -0.30414988467E+03  0.35256181932E+02 -0.23201220439E+04  0.23402385476E+04  0.10100000352E+00 0.  1.
       -3    1    3    3    0  502  0.30414988467E+03 -0.35256181932E+02  0.22454302486E+03  0.37969689349E+03  0.10100000352E+00 0. -1.
</event>
<event>
 5   0  0.5342255E-04  0.1636862E+04  0.7818609E-02  0.8798217E-01
        2   -1    0    0  501    0  0.00000000000E+00  0.00000000000E+00  0.71868588722E+03  0.71868588723E+03  0.25500000920E-02 0. -1.
       -2   -1    0    0    0  501  0.00000000000E+00  0.00000000000E+00 -0.93201930413E+03  0.93201930413E+03  0.25500000920E-02 0.  1.
    10030    2    1    2    0    0  0.00000000000E+00  0.00000000000E+00 -0.21333341690E+03  0.16507051914E+04  0.16368617785E+04 0.  0.
        5    1    3    3  502    0  0.27503026418E+03 -0.21050388123E+03  0.64112562147E+03  0.72870960109E+03  0.46999998093E+01 0. -1.
       -5    1    3    3    0  502 -0.27503026418E+03  0.21050388123E+03 -0.85445903837E+03  0.92199559027E+03  0.46999998093E+01 0.  1.
</event>
<event>
 5   0  0.2583422E-04  0.1678556E+04  0.7818609E-02  0.8773690E-01
        1   -1    0    0  501    0  0.00000000000E+00  0.00000000000E+00  0.88167165762E+03  0.88167165764E+03  0.50400001928E-02 0. -1.
       -1   -1    0    0    0  501  0.00000000000E+00  0.00000000000E+00 -0.79892321530E+03  0.79892321531E+03  0.50400001928E-02 0.  1.
    10030    2    1    2    0    0  0.00000000000E+00  0.00000000000E+00  0.82748442327E+02  0.16805948730E+04  0.16785564698E+04 0.  0.
        3    1    3    3  502    0 -0.65394615373E+03 -0.11216488104E+03  0.55596472475E+03  0.86563463302E+03  0.10100000352E+00 0. -1.
       -3    1    3    3    0  502  0.65394615373E+03  0.11216488104E+03 -0.47321628242E+03  0.81496023993E+03  0.10100000352E+00 0.  1.
</event>
<event>
 5   0  0.2595644E-04  0.1696505E+04  0.7818609E-02  0.8763360E-01
        1   -1    0    0  501    0  0.00000000000E+00  0.00000000000E+00  0.13217226555E+04  0.13217226555E+04  0.50400001928E-02 0. -1.
       -1   -1    0    0    0  501  0.00000000000E+00  0.00000000000E+00 -0.54438947200E+03  0.54438947202E+03  0.50400001928E-02 0.  1.
    10030    2    1    2    0    0  0.00000000000E+00  0.00000000000E+00  0.77733318352E+03  0.18661121275E+04  0.16965045224E+04 0.  0.
        2    1    3    3  502    0 -0.11743168395E+03  0.19167403091E+03 -0.51103123135E+03  0.55828492183E+03  0.25500000920E-02 0.  1.
       -2    1    3    3    0  502  0.11743168395E+03 -0.19167403091E+03  0.12883644149E+04  0.13078272057E+04  0.25500000920E-02 0. -1.
</event>
<event>
 5   0  0.2595644E-04  0.1705426E+04  0.7818609E-02  0.8758276E-01
        1   -1    0    0  501    0  0.00000000000E+00  0.00000000000E+00  0.12433147119E+04  0.12433147120E+04  0.50400001928E-02 0.  1.
       -1   -1    0    0    0  501  0.00000000000E+00  0.00000000000E+00 -0.58482324201E+03  0.58482324204E+03  0.50400001928E-02 0. -1.
    10030    2    1    2    0    0  0.00000000000E+00  0.00000000000E+00  0.65849146993E+03  0.18281379540E+04  0.17054258597E+04 0.  0.
        2    1    3    3  502    0 -0.34716281163E+03 -0.54222939815E+03 -0.27007583985E+03  0.69819459842E+03  0.25500000920E-02 0. -1.
       -2    1    3    3    0  502  0.34716281163E+03  0.54222939815E+03  0.92856730978E+03  0.11299433556E+04  0.25500000920E-02 0.  1.
</event>
<event>
 5   0  0.5198430E-04  0.1715932E+04  0.7818609E-02  0.8752330E-01
       -2   -1    0    0    0  501  0.00000000000E+00  0.00000000000E+00  0.95275347366E+03  0.95275347366E+03  0.25500000920E-02 0. -1.
        2   -1    0    0  501    0  0.00000000000E+00  0.00000000000E+00 -0.77260876890E+03  0.77260876890E+03  0.25500000920E-02 0.  1.
    10030    2    1    2    0    0  0.00000000000E+00  0.00000000000E+00  0.18014470476E+03  0.17253622426E+04  0.17159320364E+04 0.  0.
        4    1    3    3  502    0 -0.83775232815E+03 -0.12394584379E+03  0.22835100413E+03  0.87711876590E+03  0.12699999809E+01 0. -1.
       -4    1    3    3    0  502  0.83775232815E+03  0.12394584379E+03 -0.48206299370E+02  0.84824347667E+03  0.12699999809E+01 0.  1.
</event>
<event>
 5   0  0.2785059E-04  0.1721128E+04  0.7818609E-02  0.8749405E-01
       -1   -1    0    0    0  501  0.00000000000E+00  0.00000000000E+00  0.48062110765E+03  0.48062110768E+03  0.50400001928E-02 0. -1.
        1   -1    0    0  501    0  0.00000000000E+00  0.00000000000E+00 -0.15408614320E+04  0.15408614320E+04  0.50400001928E-02 0.  1.
    10030    2    1    2    0    0  0.00000000000E+00  0.00000000000E+00 -0.10602403243E+04  0.20214825397E+04  0.17211281512E+04 0.  0.
        5    1    3    3  502    0 -0.34421906617E+03  0.66254456892E+03 -0.27550058910E+02  0.74715002983E+03  0.46999998093E+01 0. -1.
       -5    1    3    3    0  502  0.34421906617E+03 -0.66254456892E+03 -0.10326902654E+04  0.12743325098E+04  0.46999998093E+01 0.  1.
</event>
<event>
 5   0  0.5342255E-04  0.1678801E+04  0.7818609E-02  0.8773548E-01
        2   -1    0    0  501    0  0.00000000000E+00  0.00000000000E+00  0.78742412989E+03  0.78742412989E+03  0.25500000920E-02 0. -1.
       -2   -1    0    0    0  501  0.00000000000E+00  0.00000000000E+00 -0.89480737436E+03  0.89480737436E+03  0.25500000920E-02 0.  1.
    10030    2    1    2    0    0  0.00000000000E+00  0.00000000000E+00 -0.10738324447E+03  0.16822315043E+04  0.16788006650E+04 0.  0.
        5    1    3    3  502    0 -0.39986550234E+03  0.72341963708E+03  0.92697441280E+02  0.83177118061E+03  0.46999998093E+01 0. -1.
       -5    1    3    3    0  502  0.39986550234E+03 -0.72341963708E+03 -0.20008068575E+03  0.85046032364E+03  0.46999998093E+01 0.  1.
</event>
<event>
 5   0  0.2595644E-04  0.1700167E+04  0.7818609E-02  0.8761269E-01
       -1   -1    0    0    0  501  0.00000000000E+00  0.00000000000E+00  0.10104987163E+04  0.10104987163E+04  0.50400001928E-02 0.  1.
        1   -1    0    0  501    0  0.00000000000E+00  0.00000000000E+00 -0.71513367400E+03  0.71513367402E+03  0.50400001928E-02 0. -1.
    10030    2    1    2    0    0  0.00000000000E+00  0.00000000000E+00  0.29536504232E+03  0.17256323904E+04  0.17001666502E+04 0.  0.
        2    1    3    3  502    0  0.47175734145E+03  0.70623343591E+03  0.18457254372E+03  0.86913041548E+03  0.25500000920E-02 0. -1.
       -2    1    3    3    0  502 -0.47175734145E+03 -0.70623343591E+03  0.11079249860E+03  0.85650197487E+03  0.25500000920E-02 0.  1.
</event>
<event>
 5   0  0.5310003E-04  0.1676118E+04  0.7818609E-02  0.8775104E-01
       -2   -1    0    0    0  501  0.00000000000E+00  0.00000000000E+00  0.13722367786E+04  0.13722367786E+04  0.25500000920E-02 0. -1.
        2   -1    0    0  501    0  0.00000000000E+00  0.00000000000E+00 -0.51182344111E+03  0.51182344111E+03  0.25500000920E-02 0.  1.
    10030    2    1    2    0    0  0.00000000000E+00  0.00000000000E+00  0.86041333745E+03  0.18840602197E+04  0.16761180746E+04 0.  0.
        1    1    3    3  502    0  0.56790710373E+03 -0.11072978138E+02 -0.26243965453E+03  0.62571212359E+03  0.50400001928E-02 0.  1.
       -1    1    3    3    0  502 -0.56790710373E+03  0.11072978138E+02  0.11228529920E+04  0.12583480961E+04  0.50400001928E-02 0. -1.
</event>
<event>
 5   0  0.2785059E-04  0.1692582E+04  0.7818609E-02  0.8765606E-01
       -1   -1    0    0    0  501  0.00000000000E+00  0.00000000000E+00  0.63732936898E+03  0.63732936900E+03  0.50400001928E-02 0.  1.
        1   -1    0    0  501    0  0.00000000000E+00  0.00000000000E+00 -0.11237656818E+04  0.11237656818E+04  0.50400001928E-02 0. -1.
    10030    2    1    2    0    0  0.00000000000E+00  0.00000000000E+00 -0.48643631279E+03  0.17610950508E+04  0.16925824918E+04 0.  0.
        5    1    3    3  502    0 -0.10174819212E+03  0.71793249841E+03 -0.69723757256E+03  0.10059533237E+04  0.46999998093E+01 0. -1.
       -5    1    3    3    0  502  0.10174819212E+03 -0.71793249841E+03  0.21080125976E+03  0.75514172708E+03  0.46999998093E+01 0.  1.
</event>
<event>
 5   0  0.2595644E-04  0.1682812E+04  0.7818609E-02  0.8771228E-01
        1   -1    0    0  501    0  0.00000000000E+00  0.00000000000E+00  0.12431701152E+04  0.12431701152E+04  0.50400001928E-02 0.  1.
       -1   -1    0    0    0  501  0.00000000000E+00  0.00000000000E+00 -0.56948305188E+03  0.56948305190E+03  0.50400001928E-02 0. -1.
    10030    2    1    2    0    0  0.00000000000E+00  0.00000000000E+00  0.67368706331E+03  0.18126531671E+04  0.16828123024E+04 0.  0.
        2    1    3    3  502    0 -0.49724208801E+03  0.64469707075E+03  0.10814021940E+03  0.82132716635E+03  0.25500000920E-02 0.  1.
       -2    1    3    3    0  502  0.49724208801E+03 -0.64469707075E+03  0.56554684391E+03  0.99132600076E+03  0.25500000920E-02 0. -1.
</event>
<event>
 5   0  0.5021349E-04  0.1759372E+04  0.7818609E-02  0.8728209E-01
        2   -1    0    0  501    0  0.00000000000E+00  0.00000000000E+00  0.12992974702E+04  0.12992974702E+04  0.25500000920E-02 0. -1.
       -2   -1    0    0    0  501  0.00000000000E+00  0.00000000000E+00 -0.59558899879E+03  0.59558899880E+03  0.25500000920E-02 0.  1.
    10030    2    1    2    0    0  0.00000000000E+00  0.00000000000E+00  0.70370847137E+03  0.18948864690E+04  0.17593717963E+04 0.  0.
        2    1    3    3  502    0 -0.63344264625E+02 -0.50979720462E+03  0.11209595059E+04  0.12330676784E+04  0.25500000920E-02 0. -1.
       -2    1    3    3    0  502  0.63344264625E+02  0.50979720462E+03 -0.41725103452E+03  0.66181879055E+03  0.25500000920E-02 0.  1.
</event>
<event>
 5   0  0.5021349E-04  0.1731297E+04  0.7818609E-02  0.8743713E-01
        2   -1    0    0  501    0  0.00000000000E+00  0.00000000000E+00  0.16790217638E+04  0.16790217638E+04  0.25500000920E-02 0. -1.
       -2   -1    0    0    0  501  0.00000000000E+00  0.00000000000E+00 -0.44629996522E+03  0.44629996523E+03  0.25500000920E-02 0.  1.
    10030    2    1    2    0    0  0.00000000000E+00  0.00000000000E+00  0.12327217986E+04  0.21253217291E+04  0.17312970338E+04 0.  0.
        2    1    3    3  502    0 -0.41642536233E+03 -0.75868992584E+03  0.59416668035E+03  0.10497878500E+04  0.25500000920E-02 0. -1.
       -2    1    3    3    0  502  0.41642536233E+03  0.75868992584E+03  0.63855511826E+03  0.10755338791E+04  0.25500000920E-02 0.  1.
</event>
<event>
 5   0  0.5198430E-04  0.1597201E+04  0.7818609E-02  0.8822270E-01
       -2   -1    0    0    0  501  0.00000000000E+00  0.00000000000E+00  0.42550992142E+03  0.42550992143E+03  0.25500000920E-02 0.  1.
        2   -1    0    0  501    0  0.00000000000E+00  0.00000000000E+00 -0.14988193388E+04  0.14988193388E+04  0.25500000920E-02 0. -1.
    10030    2    1    2    0    0  0.00000000000E+00  0.00000000000E+00 -0.10733094174E+04  0.19243292602E+04  0.15972006750E+04 0.  0.
        4    1    3    3  502    0 -0.39121487479E+03 -0.54641982690E+03 -0.10564549351E+04  0.12520871967E+04  0.12699999809E+01 0. -1.
       -4    1    3    3    0  502  0.39121487479E+03  0.54641982690E+03 -0.16854482327E+02  0.67224206352E+03  0.12699999809E+01 0.  1.
</event>
<event>
 5   0  0.5021349E-04  0.1526867E+04  0.7818609E-02  0.8866781E-01
        2   -1    0    0  501    0  0.00000000000E+00  0.00000000000E+00  0.69826285797E+03  0.69826285798E+03  0.25500000920E-02 0.  1.
       -2   -1    0    0    0  501  0.00000000000E+00  0.00000000000E+00 -0.83468648091E+03  0.83468648092E+03  0.25500000920E-02 0. -1.
    10030    2    1    2    0    0  0.00000000000E+00  0.00000000000E+00 -0.13642362294E+03  0.15329493389E+04  0.15268668150E+04 0.  0.
        2    1    3    3  502    0 -0.27242341494E+03 -0.99418209861E+02 -0.77723476354E+03  0.82957361043E+03  0.25500000920E-02 0. -1.
       -2    1    3    3    0  502  0.27242341494E+03  0.99418209861E+02  0.64081114060E+03  0.70337572846E+03  0.25500000920E-02 0.  1.
</event>
<event>
 5   0  0.5021349E-04  0.1737064E+04  0.7818609E-02  0.8740503E-01
       -2   -1    0    0    0  501  0.00000000000E+00  0.00000000000E+00  0.56974837537E+03  0.56974837538E+03  0.25500000920E-02 0. -1.
        2   -1    0    0  501    0  0.00000000000E+00  0.00000000000E+00 -0.13240014156E+04  0.13240014156E+04  0.25500000920E-02 0.  1.
    10030    2    1    2    0    0  0.00000000000E+00  0.00000000000E+00 -0.75425304024E+03  0.18937497910E+04  0.17370637933E+04 0.  0.
        2    1    3    3  502    0 -0.15571247408E+03  0.29696992156E+03  0.49633534787E+03  0.59898771811E+03  0.25500000920E-02 0. -1.
       -2    1    3    3    0  502  0.15571247408E+03 -0.29696992156E+03 -0.12505883881E+04  0.12947620729E+04  0.25500000920E-02 0.  1.
</event>
<event>
 5   0  0.5299877E-04  0.1710902E+04  0.7818609E-02  0.8755171E-01
       -2   -1    0    0    0  501  0.00000000000E+00  0.00000000000E+00  0.69842302025E+03  0.69842302025E+03  0.25500000920E-02 0.  1.
        2   -1    0    0  501    0  0.00000000000E+00  0.00000000000E+00 -0.10477836430E+04  0.10477836430E+04  0.25500000920E-02 0. -1.
    10030    2    1    2    0    0  0.00000000000E+00  0.00000000000E+00 -0.34936062278E+03  0.17462066633E+04  0.17109017699E+04 0.  0.
        3    1    3    3  502    0  0.29042609951E+03  0.28534674179E+03  0.59319163883E+03  0.71947648530E+03  0.10100000352E+00 0.  1.
       -3    1    3    3    0  502 -0.29042609951E+03 -0.28534674179E+03 -0.94255226161E+03  0.10267301780E+04  0.10100000352E+00 0. -1.
</event>
<event>
 5   0  0.2561518E-04  0.1672441E+04  0.7818609E-02  0.8777240E-01
       -1   -1    0    0    0  501  0.00000000000E+00  0.00000000000E+00  0.12925003539E+04  0.12925003539E+04  0.50400001928E-02 0.  1.
        1   -1    0    0  501    0  0.00000000000E+00  0.00000000000E+00 -0.54101680098E+03  0.54101680100E+03  0.50400001928E-02 0. -1.
    10030    2    1    2    0    0  0.00000000000E+00  0.00000000000E+00  0.75148355296E+03  0.18335171549E+04  0.16724406199E+04 0.  0.
        4    1    3    3  502    0  0.60064416279E+03 -0.55634771019E+03  0.56232951408E+03  0.99323324564E+03  0.12699999809E+01 0.  1.
       -4    1    3    3    0  502 -0.60064416279E+03  0.55634771019E+03  0.18915403888E+03  0.84028390931E+03  0.12699999809E+01 0. -1.
</event>
<event>
 5   0  0.2630135E-04  0.1707952E+04  0.7818609E-02  0.8756842E-01
       -1   -1    0    0    0  501  0.00000000000E+00  0.00000000000E+00  0.58864936331E+03  0.58864936333E+03  0.50400001928E-02 0. -1.
        1   -1    0    0  501    0  0.00000000000E+00  0.00000000000E+00 -0.12388955367E+04  0.12388955367E+04  0.50400001928E-02 0.  1.
    10030    2    1    2    0    0  0.00000000000E+00  0.00000000000E+00 -0.65024617341E+03  0.18275449000E+04  0.17079520707E+04 0.  0.
        1    1    3    3  502    0 -0.76731396806E+03  0.33480017165E+03 -0.14475804694E+03  0.84959800653E+03  0.50400001928E-02 0. -1.
       -1    1    3    3    0  502  0.76731396806E+03 -0.33480017165E+03 -0.50548812647E+03  0.97794689352E+03  0.50400001928E-02 0.  1.
</event>
<event>
 5   0  0.2583422E-04  0.1733831E+04  0.7818609E-02  0.8742301E-01
        1   -1    0    0  501    0  0.00000000000E+00  0.00000000000E+00  0.12502742810E+04  0.12502742810E+04  0.50400001928E-02 0.  1.
       -1   -1    0    0    0  501  0.00000000000E+00  0.00000000000E+00 -0.60110211140E+03  0.60110211142E+03  0.50400001928E-02 0. -1.
    10030    2    1    2    0    0  0.00000000000E+00  0.00000000000E+00  0.64917216959E+03  0.18513763924E+04  0.17338310300E+04 0.  0.
        3    1    3    3  502    0 -0.25606920233E+03  0.32929291875E+03 -0.48689414949E+03  0.64114833364E+03  0.10100000352E+00 0. -1.
       -3    1    3    3    0  502  0.25606920233E+03 -0.32929291875E+03  0.11360663191E+04  0.12102280588E+04  0.10100000352E+00 0.  1.
</event>
<event>
 5   0  0.2595644E-04  0.1684208E+04  0.7818609E-02  0.8770423E-01
        1   -1    0    0  501    0  0.00000000000E+00  0.00000000000E+00  0.60719647318E+03  0.60719647320E+03  0.50400001928E-02 0.  1.
       -1   -1    0    0    0  501  0.00000000000E+00  0.00000000000E+00 -0.11678906994E+04  0.11678906994E+04  0.50400001928E-02 0. -1.
    10030    2    1    2    0    0  0.00000000000E+00  0.00000000000E+00 -0.56069422618E+03  0.17750871726E+04  0.16842079607E+04 0.  0.
        2    1    3    3  502    0  0.30255127803E+03  0.77930376238E+03 -0.38724732170E+03  0.92131000107E+03  0.25500000920E-02 0. -1.
       -2    1    3    3    0  502 -0.30255127803E+03 -0.77930376238E+03 -0.17344690448E+03  0.85377717150E+03  0.25500000920E-02 0.  1.
</event>
<event>
 5   0  0.2630135E-04  0.1727187E+04  0.7818609E-02  0.8746008E-01
       -1   -1    0    0    0  501  0.00000000000E+00  0.00000000000E+00  0.68414065811E+03  0.68414065813E+03  0.50400001928E-02 0.  1.
        1   -1    0    0  501    0  0.00000000000E+00  0.00000000000E+00 -0.10901181136E+04  0.10901181137E+04  0.50400001928E-02 0. -1.
    10030    2    1    2    0    0  0.00000000000E+00  0.00000000000E+00 -0.40597745553E+03  0.17742587718E+04  0.17271874521E+04 0.  0.
        1    1    3    3  502    0  0.66786400518E+03 -0.23086242259E+03  0.30698255208E+03  0.77044018256E+03  0.50400001928E-02 0.  1.
       -1    1    3    3    0  502 -0.66786400518E+03  0.23086242259E+03 -0.71296000762E+03  0.10038185892E+04  0.50400001928E-02 0. -1.
</event>
<event>
 5   0  0.5198430E-04  0.1704406E+04  0.7818609E-02  0.8758855E-01
       -2   -1    0    0    0  501  0.00000000000E+00  0.00000000000E+00  0.43035023682E+03  0.43035023683E+03  0.25500000920E-02 0.  1.
        2   -1    0    0  501    0  0.00000000000E+00  0.00000000000E+00 -0.16875796896E+04  0.16875796896E+04  0.25500000920E-02 0. -1.
    10030    2    1    2    0    0  0.00000000000E+00  0.00000000000E+00 -0.12572294528E+04  0.21179299264E+04  0.17044064293E+04 0.  0.
        4    1    3    3  502    0 -0.49820678032E+03  0.10234011930E+03  0.22107333841E+03  0.55457959738E+03  0.12699999809E+01 0.  1.
       -4    1    3    3    0  502  0.49820678032E+03 -0.10234011930E+03 -0.14783027912E+04  0.15633503290E+04  0.12699999809E+01 0. -1.
</event>
<event>
 5   0  0.5198430E-04  0.1932712E+04  0.7818609E-02  0.8638743E-01
       -2   -1    0    0    0  501  0.00000000000E+00  0.00000000000E+00  0.35934840316E+03  0.35934840317E+03  0.25500000920E-02 0. -1.
        2   -1    0    0  501    0  0.00000000000E+00  0.00000000000E+00 -0.25987152165E+04  0.25987152165E+04  0.25500000920E-02 0.  1.
    10030    2    1    2    0    0  0.00000000000E+00  0.00000000000E+00 -0.22393668134E+04  0.29580636197E+04  0.19327122531E+04 0.  0.
        4    1    3    3  502    0  0.25419154677E+02  0.85392161147E+03 -0.42837694967E+03  0.95568649456E+03  0.12699999809E+01 0. -1.
       -4    1    3    3    0  502 -0.25419154677E+02 -0.85392161147E+03 -0.18109898637E+04  0.20023771252E+04  0.12699999809E+01 0.  1.
</event>
<event>
 5   0  0.5021349E-04  0.1695136E+04  0.7818609E-02  0.8764143E-01
        2   -1    0    0  501    0  0.00000000000E+00  0.00000000000E+00  0.76571818750E+03  0.76571818750E+03  0.25500000920E-02 0.  1.
       -2   -1    0    0    0  501  0.00000000000E+00  0.00000000000E+00 -0.93816686157E+03  0.93816686157E+03  0.25500000920E-02 0. -1.
    10030    2    1    2    0    0  0.00000000000E+00  0.00000000000E+00 -0.17244867407E+03  0.17038850491E+04  0.16951358988E+04 0.  0.
        2    1    3    3  502    0  0.11716294865E+02  0.30640571807E+03  0.70801194456E+03  0.77155858448E+03  0.25500000920E-02 0.  1.
       -2    1    3    3    0  502 -0.11716294865E+02 -0.30640571807E+03 -0.88046061863E+03  0.93232646460E+03  0.25500000920E-02 0. -1.
</event>
<event>
 5   0  0.2785059E-04  0.1352734E+04  0.7818609E-02  0.8988761E-01
        1   -1    0    0  501    0  0.00000000000E+00  0.00000000000E+00  0.89036960040E+03  0.89036960042E+03  0.50400001928E-02 0.  1.
       -1   -1    0    0    0  501  0.00000000000E+00  0.00000000000E+00 -0.51380060664E+03  0.51380060666E+03  0.50400001928E-02 0. -1.
    10030    2    1    2    0    0  0.00000000000E+00  0.00000000000E+00  0.37656899377E+03  0.14041702071E+04  0.13527341806E+04 0.  0.
        5    1    3    3  502    0 -0.65179223942E+03 -0.11209596081E+03  0.33527292283E+03  0.74150431595E+03  0.46999998093E+01 0.  1.
       -5    1    3    3    0  502  0.65179223942E+03  0.11209596081E+03  0.41296070941E+02  0.66266589113E+03  0.46999998093E+01 0. -1.
</event>
<event>
 5   0  0.2561518E-04  0.1767017E+04  0.7818609E-02  0.8724039E-01
        1   -1    0    0  501    0  0.00000000000E+00  0.00000000000E+00  0.80113191594E+03  0.80113191596E+03  0.50400001928E-02 0.  1.
       -1   -1    0    0    0  501  0.00000000000E+00  0.00000000000E+00 -0.97435507962E+03  0.97435507964E+03  0.50400001928E-02 0. -1.
    10030    2    1    2    0    0  0.00000000000E+00  0.00000000000E+00 -0.17322316368E+03  0.17754869956E+04  0.17670166403E+04 0.  0.
        4    1    3    3  502    0 -0.28573419231E+03  0.34980792827E+03  0.67635415064E+03  0.81330570226E+03  0.12699999809E+01 0.  1.
       -4    1    3    3    0  502  0.28573419231E+03 -0.34980792827E+03 -0.84957731432E+03  0.96218129334E+03  0.12699999809E+01 0. -1.
</event>
<event>
 5   0  0.2583422E-04  0.1707380E+04  0.7818609E-02  0.8757166E-01
        1   -1    0    0  501    0  0.00000000000E+00  0.00000000000E+00  0.89250427966E+03  0.89250427967E+03  0.50400001928E-02 0.  1.
       -1   -1    0    0    0  501  0.00000000000E+00  0.00000000000E+00 -0.81656416841E+03  0.81656416843E+03  0.50400001928E-02 0. -1.
    10030    2    1    2    0    0  0.00000000000E+00  0.00000000000E+00  0.75940111248E+02  0.17090684481E+04  0.17073804672E+04 0.  0.
        3    1    3    3  502    0 -0.60351432961E+03 -0.45159664549E+03  0.43913793991E+03  0.87235956849E+03  0.10100000352E+00 0.  1.
       -3    1    3    3    0  502  0.60351432961E+03  0.45159664549E+03 -0.36319782866E+03  0.83670887961E+03  0.10100000352E+00 0. -1.
</event>
<event>
 5   0  0.2561518E-04  0.1708260E+04  0.7818609E-02  0.8756667E-01
        1   -1    0    0  501    0  0.00000000000E+00  0.00000000000E+00  0.18188459819E+04  0.18188459819E+04  0.50400001928E-02 0. -1.
       -1   -1    0    0    0  501  0.00000000000E+00  0.00000000000E+00 -0.40109959325E+03  0.40109959328E+03  0.50400001928E-02 0.  1.
    10030    2    1    2    0    0  0.00000000000E+00  0.00000000000E+00  0.14177463886E+04  0.22199455752E+04  0.17082603824E+04 0.  0.
        4    1    3    3  502    0 -0.72194192332E+02  0.37387838025E+03 -0.28468949466E+03  0.47544375681E+03  0.12699999809E+01 0.  1.
       -4    1    3    3    0  502  0.72194192332E+02 -0.37387838025E+03  0.17024358833E+04  0.17445018184E+04  0.12699999809E+01 0. -1.
</event>
<event>
 5   0  0.2561518E-04  0.1730184E+04  0.7818609E-02  0.8744334E-01
       -1   -1    0    0    0  501  0.00000000000E+00  0.00000000000E+00  0.58628789676E+03  0.58628789678E+03  0.50400001928E-02 0.  1.
        1   -1    0    0  501    0  0.00000000000E+00  0.00000000000E+00 -0.12764789858E+04  0.12764789858E+04  0.50400001928E-02 0. -1.
    10030    2    1    2    0    0  0.00000000000E+00  0.00000000000E+00 -0.69019108904E+03  0.18627668826E+04  0.17301840132E+04 0.  0.
        4    1    3    3  502    0  0.50697548861E+03 -0.24049129820E+03  0.36378321350E+03  0.66873017719E+03  0.12699999809E+01 0. -1.
       -4    1    3    3    0  502 -0.50697548861E+03  0.24049129820E+03 -0.10539743025E+04  0.11940367054E+04  0.12699999809E+01 0.  1.
</event>
<event>
 5   0  0.5310003E-04  0.1687564E+04  0.7818609E-02  0.8768489E-01
        2   -1    0    0  501    0  0.00000000000E+00  0.00000000000E+00  0.27552245251E+04  0.27552245251E+04  0.25500000920E-02 0. -1.
       -2   -1    0    0    0  501  0.00000000000E+00  0.00000000000E+00 -0.25840668665E+03  0.25840668666E+03  0.25500000920E-02 0.  1.
    10030    2    1    2    0    0  0.00000000000E+00  0.00000000000E+00  0.24968178384E+04  0.30136312117E+04  0.16875644468E+04 0.  0.
        1    1    3    3  502    0 -0.80700928101E+03 -0.23070302200E+03  0.14028622478E+04  0.16347814381E+04  0.50400001928E-02 0.  1.
       -1    1    3    3    0  502  0.80700928101E+03  0.23070302200E+03  0.10939555906E+04  0.13788497736E+04  0.50400001928E-02 0. -1.
</event>
<event>
 5   0  0.5021349E-04  0.1698381E+04  0.7818609E-02  0.8762288E-01
       -2   -1    0    0    0  501  0.00000000000E+00  0.00000000000E+00  0.50005309022E+03  0.50005309022E+03  0.25500000920E-02 0. -1.
        2   -1    0    0  501    0  0.00000000000E+00  0.00000000000E+00 -0.14420959865E+04  0.14420959865E+04  0.25500000920E-02 0.  1.
    10030    2    1    2    0    0  0.00000000000E+00  0.00000000000E+00 -0.94204289633E+03  0.19421490768E+04  0.16983810579E+04 0.  0.
        2    1    3    3  502    0 -0.13928236592E+03 -0.34347490633E+03  0.40267558157E+03  0.54728622561E+03  0.25500000920E-02 0. -1.
       -2    1    3    3    0  502  0.13928236592E+03  0.34347490633E+03 -0.13447184779E+04  0.13948628512E+04  0.25500000920E-02 0.  1.
</event>
<event>
 5   0  0.5299877E-04  0.1756204E+04  0.7818609E-02  0.8729943E-01
        2   -1    0    0  501    0  0.00000000000E+00  0.00000000000E+00  0.87239222006E+03  0.87239222006E+03  0.25500000920E-02 0. -1.
       -2   -1    0    0    0  501  0.00000000000E+00  0.00000000000E+00 -0.88384958814E+03  0.88384958814E+03  0.25500000920E-02 0.  1.
    10030    2    1    2    0    0  0.00000000000E+00  0.00000000000E+00 -0.11457368082E+02  0.17562418082E+04  0.17562044350E+04 0.  0.
        3    1    3    3  502    0 -0.49170203134E+03 -0.40378399182E+03  0.59947102086E+03  0.87417270303E+03  0.10100000352E+00 0. -1.
       -3    1    3    3    0  502  0.49170203134E+03  0.40378399182E+03 -0.61092838894E+03  0.88206910517E+03  0.10100000352E+00 0.  1.
</event>
<event>
 5   0  0.5342255E-04  0.1696373E+04  0.7818609E-02  0.8763436E-01
       -2   -1    0    0    0  501  0.00000000000E+00  0.00000000000E+00  0.56285431042E+03  0.56285431043E+03  0.25500000920E-02 0.  1.
        2   -1    0    0  501    0  0.00000000000E+00  0.00000000000E+00 -0.12781638845E+04  0.12781638845E+04  0.25500000920E-02 0. -1.
    10030    2    1    2    0    0  0.00000000000E+00  0.00000000000E+00 -0.71530957407E+03  0.18410181949E+04  0.16963726617E+04 0.  0.
        5    1    3    3  502    0  0.22953435511E+03 -0.18271936348E+03 -0.12213297483E+04  0.12560815380E+04  0.46999998093E+01 0. -1.
       -5    1    3    3    0  502 -0.22953435511E+03  0.18271936348E+03  0.50602017421E+03  0.58493665697E+03  0.46999998093E+01 0.  1.
</event>
<event>
 5   0  0.2785059E-04  0.1705717E+04  0.7818609E-02  0.8758110E-01
       -1   -1    0    0    0  501  0.00000000000E+00  0.00000000000E+00  0.41135948375E+03  0.41135948378E+03  0.50400001928E-02 0.  1.
        1   -1    0    0  501    0  0.00000000000E+00  0.00000000000E+00 -0.17682047649E+04  0.17682047649E+04  0.50400001928E-02 0. -1.
    10030    2    1    2    0    0  0.00000000000E+00  0.00000000000E+00 -0.13568452811E+04  0.21795642487E+04  0.17057172090E+04 0.  0.
        5    1    3    3  502    0 -0.28949680330E+03 -0.25504664395E+03  0.29345147786E+03  0.48476081687E+03  0.46999998093E+01 0.  1.
       -5    1    3    3    0  502  0.28949680330E+03  0.25504664395E+03 -0.16502967590E+04  0.16948034318E+04  0.46999998093E+01 0. -1.
</event>
<event>
 5   0  0.2595644E-04  0.1693833E+04  0.7818609E-02  0.8764889E-01
       -1   -1    0    0    0  501  0.00000000000E+00  0.00000000000E+00  0.40887336965E+03  0.40887336968E+03  0.50400001928E-02 0. -1.
        1   -1    0    0  501    0  0.00000000000E+00  0.00000000000E+00 -0.17542542667E+04  0.17542542667E+04  0.50400001928E-02 0.  1.
    10030    2    1    2    0    0  0.00000000000E+00  0.00000000000E+00 -0.13453808970E+04  0.21631276364E+04  0.16938333487E+04 0.  0.
        2    1    3    3  502    0  0.34317868970E+03 -0.65930443392E+03 -0.15423864483E+03  0.75910704727E+03  0.25500000920E-02 0. -1.
       -2    1    3    3    0  502 -0.34317868970E+03  0.65930443392E+03 -0.11911422522E+04  0.14040205891E+04  0.25500000920E-02 0.  1.
</event>
<event>
 5   0  0.2785059E-04  0.1722238E+04  0.7818609E-02  0.8748782E-01
        1   -1    0    0  501    0  0.00000000000E+00  0.00000000000E+00  0.47930434530E+03  0.47930434532E+03  0.50400001928E-02 0.  1.
       -1   -1    0    0    0  501  0.00000000000E+00  0.00000000000E+00 -0.15470879103E+04  0.15470879104E+04  0.50400001928E-02 0. -1.
    10030    2    1    2    0    0  0.00000000000E+00  0.00000000000E+00 -0.10677835650E+04  0.20263922557E+04  0.17222380300E+04 0.  0.
        5    1    3    3  502    0 -0.66711779797E+03  0.23930969236E+03  0.41548903232E+02  0.70997442671E+03  0.46999998093E+01 0.  1.
       -5    1    3    3    0  502  0.66711779797E+03 -0.23930969236E+03 -0.11093324683E+04  0.13164178290E+04  0.46999998093E+01 0. -1.
</event>
<event>
 5   0  0.5021349E-04  0.1655367E+04  0.7818609E-02  0.8787238E-01
       -2   -1    0    0    0  501  0.00000000000E+00  0.00000000000E+00  0.39210697292E+03  0.39210697293E+03  0.25500000920E-02 0. -1.
        2   -1    0    0  501    0  0.00000000000E+00  0.00000000000E+00 -0.17471256024E+04  0.17471256024E+04  0.25500000920E-02 0.  1.
    10030    2    1    2    0    0  0.00000000000E+00  0.00000000000E+00 -0.13550186295E+04  0.21392325753E+04  0.16553671874E+04 0.  0.
        2    1    3    3  502    0 -0.34990567365E+03  0.25689461965E+03 -0.15882205759E+04  0.16464730256E+04  0.25500000920E-02 0.  1.
       -2    1    3    3    0  502  0.34990567365E+03 -0.25689461965E+03  0.23320194646E+03  0.49275954977E+03  0.25500000920E-02 0. -1.
</event>
<event>
 5   0  0.5310003E-04  0.1624988E+04  0.7818609E-02  0.8805342E-01
       -2   -1    0    0    0  501  0.00000000000E+00  0.00000000000E+00  0.63598868473E+03  0.63598868474E+03  0.25500000920E-02 0. -1.
        2   -1    0    0  501    0  0.00000000000E+00  0.00000000000E+00 -0.10379843393E+04  0.10379843393E+04  0.25500000920E-02 0.  1.
    10030    2    1    2    0    0  0.00000000000E+00  0.00000000000E+00 -0.40199565456E+03  0.16739730240E+04  0.16249877473E+04 0.  0.
        1    1    3    3  502    0 -0.79998184026E+03 -0.11657725948E+03 -0.28459263541E+03  0.85706135739E+03  0.50400001928E-02 0.  1.
       -1    1    3    3    0  502  0.79998184026E+03  0.11657725948E+03 -0.11740301915E+03  0.81691166665E+03  0.50400001928E-02 0. -1.
</event>
<event>
 5   0  0.5310003E-04  0.1682398E+04  0.7818609E-02  0.8771468E-01
       -2   -1    0    0    0  501  0.00000000000E+00  0.00000000000E+00  0.75927264756E+03  0.75927264756E+03  0.25500000920E-02 0. -1.
        2   -1    0    0  501    0  0.00000000000E+00  0.00000000000E+00 -0.93196491061E+03  0.93196491061E+03  0.25500000920E-02 0.  1.
    10030    2    1    2    0    0  0.00000000000E+00  0.00000000000E+00 -0.17269226305E+03  0.16912375582E+04  0.16823976523E+04 0.  0.
        1    1    3    3  502    0  0.50435710019E+03 -0.34506374818E+01  0.59041292301E+03  0.77651491363E+03  0.50400001928E-02 0. -1.
       -1    1    3    3    0  502 -0.50435710019E+03  0.34506374818E+01 -0.76310518606E+03  0.91472264454E+03  0.50400001928E-02 0.  1.
</event>
<event>
 5   0  0.5299877E-04  0.1696245E+04  0.7818609E-02  0.8763509E-01
        2   -1    0    0  501    0  0.00000000000E+00  0.00000000000E+00  0.95356083576E+03  0.95356083576E+03  0.25500000920E-02 0.  1.
       -2   -1    0    0    0  501  0.00000000000E+00  0.00000000000E+00 -0.75434322496E+03  0.75434322496E+03  0.25500000920E-02 0. -1.
    10030    2    1    2    0    0  0.00000000000E+00  0.00000000000E+00  0.19921761081E+03  0.17079040607E+04  0.16962454493E+04 0.  0.
        3    1    3    3  502    0 -0.49928085672E+03 -0.55127975381E+03 -0.31077250449E+03  0.80608330872E+03  0.10100000352E+00 0. -1.
       -3    1    3    3    0  502  0.49928085672E+03  0.55127975381E+03  0.50999011530E+03  0.90182075201E+03  0.10100000352E+00 0.  1.
</event>
<event>
 5   0  0.2561518E-04  0.1705561E+04  0.7818609E-02  0.8758199E-01
       -1   -1    0    0    0  501  0.00000000000E+00  0.00000000000E+00  0.56864253945E+03  0.56864253947E+03  0.50400001928E-02 0.  1.
        1   -1    0    0  501    0  0.00000000000E+00  0.00000000000E+00 -0.12788955463E+04  0.12788955464E+04  0.50400001928E-02 0. -1.
    10030    2    1    2    0    0  0.00000000000E+00  0.00000000000E+00 -0.71025300689E+03  0.18475380858E+04  0.17055608007E+04 0.  0.
        4    1    3    3  502    0  0.77813175837E+03 -0.17601358860E+03 -0.68147421439E+03  0.10492275895E+04  0.12699999809E+01 0. -1.
       -4    1    3    3    0  502 -0.77813175837E+03  0.17601358860E+03 -0.28778792504E+02  0.79831049633E+03  0.12699999809E+01 0.  1.
</event>
<event>
 5   0  0.5299877E-04  0.1771711E+04  0.7818609E-02  0.8721490E-01
       -2   -1    0    0    0  501  0.00000000000E+00  0.00000000000E+00  0.53334579602E+03  0.53334579602E+03  0.25500000920E-02 0. -1.
        2   -1    0    0  501    0  0.00000000000E+00  0.00000000000E+00 -0.14713527890E+04  0.14713527890E+04  0.25500000920E-02 0.  1.
    10030    2    1    2    0    0  0.00000000000E+00  0.00000000000E+00 -0.93800699297E+03  0.20046985850E+04  0.17717108392E+04 0.  0.
        3    1    3    3  502    0  0.66426583021E+02  0.29430220700E+02 -0.14679758941E+04  0.14697727255E+04  0.10100000352E+00 0.  1.
       -3    1    3    3    0  502 -0.66426583021E+02 -0.29430220700E+02  0.52996890111E+03  0.53492585951E+03  0.10100000352E+00 0. -1.
</event>
<event>
 5   0  0.2595644E-04  0.1703048E+04  0.7818609E-02  0.8759628E-01
       -1   -1    0    0    0  501  0.00000000000E+00  0.00000000000E+00  0.99456970652E+03  0.99456970653E+03  0.50400001928E-02 0.  1.
        1   -1    0    0  501    0  0.00000000000E+00  0.00000000000E+00 -0.72905171262E+03  0.72905171263E+03  0.50400001928E-02 0. -1.
    10030    2    1    2    0    0  0.00000000000E+00  0.00000000000E+00  0.26551799390E+03  0.17236214192E+04  0.17030475600E+04 0.  0.
        2    1    3    3  502    0  0.38348486826E+03 -0.21983100616E+03  0.86936071816E+03  0.97528168943E+03  0.25500000920E-02 0.  1.
       -2    1    3    3    0  502 -0.38348486826E+03  0.21983100616E+03 -0.60384272426E+03  0.74833972973E+03  0.25500000920E-02 0. -1.
</event>
<event>
 5   0  0.5342255E-04  0.1684319E+04  0.7818609E-02  0.8770359E-01
       -2   -1    0    0    0  501  0.00000000000E+00  0.00000000000E+00  0.40896572528E+03  0.40896572529E+03  0.25500000920E-02 0.  1.
        2   -1    0    0  501    0  0.00000000000E+00  0.00000000000E+00 -0.17342095846E+04  0.17342095846E+04  0.25500000920E-02 0. -1.
    10030    2    1    2    0    0  0.00000000000E+00  0.00000000000E+00 -0.13252438593E+04  0.21431753099E+04  0.16843185929E+04 0.  0.
        5    1    3    3  502    0 -0.40363692293E+03 -0.69792154100E+03 -0.97219875203E+03  0.12630161307E+04  0.46999998093E+01 0. -1.
       -5    1    3    3    0  502  0.40363692293E+03  0.69792154100E+03 -0.35304510727E+03  0.88015917919E+03  0.46999998093E+01 0.  1.
</event>
<event>
 5   0  0.5299877E-04  0.1736340E+04  0.7818609E-02  0.8740905E-01
       -2   -1    0    0    0  501  0.00000000000E+00  0.00000000000E+00  0.45321415295E+03  0.45321415296E+03  0.25500000920E-02 0. -1.
        2   -1    0    0  501    0  0.00000000000E+00  0.00000000000E+00 -0.16630538183E+04  0.16630538183E+04  0.25500000920E-02 0.  1.
    10030    2    1    2    0    0  0.00000000000E+00  0.00000000000E+00 -0.12098396653E+04  0.21162679713E+04  0.17363404362E+04 0.  0.
        3    1    3    3  502    0 -0.79048696229E+03  0.32181607640E+03 -0.41111652483E+03  0.94733944907E+03  0.10100000352E+00 0. -1.
       -3    1    3    3    0  502  0.79048696229E+03 -0.32181607640E+03 -0.79872314052E+03  0.11689285222E+04  0.10100000352E+00 0.  1.
</event>
<event>
 5   0  0.2595644E-04  0.1715017E+04  0.7818609E-02  0.8752846E-01
       -1   -1    0    0    0  501  0.00000000000E+00  0.00000000000E+00  0.46515322650E+03  0.46515322653E+03  0.50400001928E-02 0.  1.
        1   -1    0    0  501    0  0.00000000000E+00  0.00000000000E+00 -0.15808145375E+04  0.15808145375E+04  0.50400001928E-02 0. -1.
    10030    2    1    2    0    0  0.00000000000E+00  0.00000000000E+00 -0.11156613110E+04  0.20459677640E+04  0.17150171809E+04 0.  0.
        2    1    3    3  502    0 -0.80290357549E+03  0.46849426173E+02 -0.91267112225E+03  0.12164775369E+04  0.25500000920E-02 0. -1.
       -2    1    3    3    0  502  0.80290357549E+03 -0.46849426173E+02 -0.20299018875E+03  0.82949022719E+03  0.25500000920E-02 0.  1.
</event>
<event>
 5   0  0.2595644E-04  0.1694056E+04  0.7818609E-02  0.8764762E-01
       -1   -1    0    0    0  501  0.00000000000E+00  0.00000000000E+00  0.83083444874E+03  0.83083444875E+03  0.50400001928E-02 0. -1.
        1   -1    0    0  501    0  0.00000000000E+00  0.00000000000E+00 -0.86353737122E+03  0.86353737123E+03  0.50400001928E-02 0.  1.
    10030    2    1    2    0    0  0.00000000000E+00  0.00000000000E+00 -0.32702922482E+02  0.16943718200E+04  0.16940561925E+04 0.  0.
        2    1    3    3  502    0  0.52220738759E+03  0.44947002505E+03 -0.50912239636E+03  0.85669683876E+03  0.25500000920E-02 0.  1.
       -2    1    3    3    0  502 -0.52220738759E+03 -0.44947002505E+03  0.47641947387E+03  0.83767498122E+03  0.25500000920E-02 0. -1.
</event>
<event>
 5   0  0.2785059E-04  0.1696059E+04  0.7818609E-02  0.8763615E-01
        1   -1    0    0  501    0  0.00000000000E+00  0.00000000000E+00  0.93289591642E+03  0.93289591643E+03  0.50400001928E-02 0.  1.
       -1   -1    0    0    0  501  0.00000000000E+00  0.00000000000E+00 -0.77088320257E+03  0.77088320259E+03  0.50400001928E-02 0. -1.
    10030    2    1    2    0    0  0.00000000000E+00  0.00000000000E+00  0.16201271384E+03  0.17037791190E+04  0.16960587157E+04 0.  0.
        5    1    3    3  502    0 -0.22955734260E+03  0.17113570313E+03  0.88285512815E+03  0.92813752738E+03  0.46999998093E+01 0.  1.
       -5    1    3    3    0  502  0.22955734260E+03 -0.17113570313E+03 -0.72084241430E+03  0.77564159164E+03  0.46999998093E+01 0. -1.
</event>
<event>
 5   0  0.5021349E-04  0.1755411E+04  0.7818609E-02  0.8730378E-01
       -2   -1    0    0    0  501  0.00000000000E+00  0.00000000000E+00  0.78487612685E+03  0.78487612686E+03  0.25500000920E-02 0. -1.
        2   -1    0    0  501    0  0.00000000000E+00  0.00000000000E+00 -0.98151397147E+03  0.98151397147E+03  0.25500000920E-02 0.  1.
    10030    2    1    2    0    0  0.00000000000E+00  0.00000000000E+00 -0.19663784462E+03  0.17663900983E+04  0.17554109313E+04 0.  0.
        2    1    3    3  502    0  0.23361441252E+03  0.44083583760E+03  0.62831592643E+03  0.80230470076E+03  0.25500000920E-02 0. -1.
       -2    1    3    3    0  502 -0.23361441252E+03 -0.44083583760E+03 -0.82495377105E+03  0.96408539757E+03  0.25500000920E-02 0.  1.
</event>
<event>
 5   0  0.5021349E-04  0.1695107E+04  0.7818609E-02  0.8764160E-01
        2   -1    0    0  501    0  0.00000000000E+00  0.00000000000E+00  0.71993423960E+03  0.71993423960E+03  0.25500000920E-02 0.  1.
       -2   -1    0    0    0  501  0.00000000000E+00  0.00000000000E+00 -0.99779520907E+03  0.99779520908E+03  0.25500000920E-02 0. -1.
    10030    2    1    2    0    0  0.00000000000E+00  0.00000000000E+00 -0.27786096948E+03  0.17177294487E+04  0.16951069997E+04 0.  0.
        2    1    3    3  502    0  0.41035398874E+03 -0.10106372654E+03  0.60554605635E+03  0.73843774230E+03  0.25500000920E-02 0.  1.
       -2    1    3    3    0  502 -0.41035398874E+03  0.10106372654E+03 -0.88340702582E+03  0.97929170637E+03  0.25500000920E-02 0. -1.
</event>
<event>
 5   0  0.2583422E-04  0.1683790E+04  0.7818609E-02  0.8770664E-01
        1   -1    0    0  501    0  0.00000000000E+00  0.00000000000E+00  0.79485675171E+03  0.79485675172E+03  0.50400001928E-02 0. -1.
       -1   -1    0    0    0  501  0.00000000000E+00  0.00000000000E+00 -0.89171677305E+03  0.89171677306E+03  0.50400001928E-02 0.  1.
    10030    2    1    2    0    0  0.00000000000E+00  0.00000000000E+00 -0.96860021341E+02  0.16865735248E+04  0.16837898891E+04 0.  0.
        3    1    3    3  502    0 -0.50882468584E+03  0.19070966044E+03  0.59568389474E+03  0.80629526116E+03  0.10100000352E+00 0. -1.
       -3    1    3    3    0  502  0.50882468584E+03 -0.19070966044E+03 -0.69254391608E+03  0.88027826363E+03  0.10100000352E+00 0.  1.
</event>
<event>
 5   0  0.5198430E-04  0.1699378E+04  0.7818609E-02  0.8761719E-01
        2   -1    0    0  501    0  0.00000000000E+00  0.00000000000E+00  0.24236177715E+04  0.24236177715E+04  0.25500000920E-02 0. -1.
       -2   -1    0    0    0  501  0.00000000000E+00  0.00000000000E+00 -0.29788993684E+03  0.29788993685E+03  0.25500000920E-02 0.  1.
    10030    2    1    2    0    0  0.00000000000E+00  0.00000000000E+00  0.21257278347E+04  0.27215077083E+04  0.16993779390E+04 0.  0.
        4    1    3    3  502    0  0.29598096700E+03  0.67869633492E+03  0.17303848005E+04  0.18821441546E+04  0.12699999809E+01 0. -1.
       -4    1    3    3    0  502 -0.29598096700E+03 -0.67869633492E+03  0.39534303414E+03  0.83936355377E+03  0.12699999809E+01 0.  1.
</event>
<event>
 5   0  0.2630135E-04  0.1718145E+04  0.7818609E-02  0.8751082E-01
        1   -1    0    0  501    0  0.00000000000E+00  0.00000000000E+00  0.13601640858E+04  0.13601640858E+04  0.50400001928E-02 0. -1.
       -1   -1    0    0    0  501  0.00000000000E+00  0.00000000000E+00 -0.54258598375E+03  0.54258598378E+03  0.50400001928E-02 0.  1.
    10030    2    1    2    0    0  0.00000000000E+00  0.00000000000E+00  0.81757810205E+03  0.19027500696E+04  0.17181454753E+04 0.  0.
        1    1    3    3  502    0  0.16149413900E+03  0.17221873687E+03  0.13235313873E+04  0.13444236622E+04  0.50400001928E-02 0. -1.
       -1    1    3    3    0  502 -0.16149413900E+03 -0.17221873687E+03 -0.50595328528E+03  0.55832640737E+03  0.50400001928E-02 0.  1.
</event>
<event>
 5   0  0.5021349E-04  0.1642545E+04  0.7818609E-02  0.8794829E-01
        2   -1    0    0  501    0  0.00000000000E+00  0.00000000000E+00  0.21738205883E+04  0.21738205883E+04  0.25500000920E-02 0.  1.
       -2   -1    0    0    0  501  0.00000000000E+00  0.00000000000E+00 -0.31027773434E+03  0.31027773435E+03  0.25500000920E-02 0. -1.
    10030    2    1    2    0    0  0.00000000000E+00  0.00000000000E+00  0.18635428540E+04  0.24840983227E+04  0.16425445224E+04 0.  0.
        2    1    3    3  502    0  0.49373870763E+03 -0.37346760529E+03  0.11561895666E+03  0.62978068147E+03  0.25500000920E-02 0. -1.
       -2    1    3    3    0  502 -0.49373870763E+03  0.37346760529E+03  0.17479238973E+04  0.18543176412E+04  0.25500000920E-02 0.  1.
</event>
<event>
 5   0  0.2583422E-04  0.1695455E+04  0.7818609E-02  0.8763961E-01
       -1   -1    0    0    0  501  0.00000000000E+00  0.00000000000E+00  0.65888058170E+03  0.65888058172E+03  0.50400001928E-02 0.  1.
        1   -1    0    0  501    0  0.00000000000E+00  0.00000000000E+00 -0.10907011762E+04  0.10907011762E+04  0.50400001928E-02 0. -1.
    10030    2    1    2    0    0  0.00000000000E+00  0.00000000000E+00 -0.43182059447E+03  0.17495817579E+04  0.16954548952E+04 0.  0.
        3    1    3    3  502    0  0.80249399184E+03  0.27303206201E+03 -0.20565827157E+03  0.87226053946E+03  0.10100000352E+00 0.  1.
       -3    1    3    3    0  502 -0.80249399184E+03 -0.27303206201E+03 -0.22616232290E+03  0.87732121844E+03  0.10100000352E+00 0. -1.
</event>
<event>
 5   0  0.5310003E-04  0.1731792E+04  0.7818609E-02  0.8743437E-01
       -2   -1    0    0    0  501  0.00000000000E+00  0.00000000000E+00  0.78239727852E+03  0.78239727853E+03  0.25500000920E-02 0. -1.
        2   -1    0    0  501    0  0.00000000000E+00  0.00000000000E+00 -0.95830529265E+03  0.95830529265E+03  0.25500000920E-02 0.  1.
    10030    2    1    2    0    0  0.00000000000E+00  0.00000000000E+00 -0.17590801412E+03  0.17407025712E+04  0.17317915036E+04 0.  0.
        1    1    3    3  502    0  0.19374902020E+03 -0.79206521910E+03  0.20486865372E+03  0.84075987026E+03  0.50400001928E-02 0.  1.
       -1    1    3    3    0  502 -0.19374902020E+03  0.79206521910E+03 -0.38077666785E+03  0.89994270092E+03  0.50400001928E-02 0. -1.
</event>
<event>
 5   0  0.1910750E-04  0.1691814E+04  0.7818609E-02  0.8766047E-01
        4   -1    0    0  501    0  0.00000000000E+00  0.00000000000E+00  0.81865898455E+03  0.81865996964E+03  0.12699999809E+01 0.  1.
       -4   -1    0    0    0  501  0.00000000000E+00  0.00000000000E+00 -0.87405960896E+03  0.87406053161E+03  0.12699999809E+01 0. -1.
    10030    2    1    2    0    0  0.00000000000E+00  0.00000000000E+00 -0.55400624404E+02  0.16927205012E+04  0.16918136618E+04 0.  0.
        2    1    3    3  502    0  0.41601780919E+03 -0.36612152381E+03  0.61173737810E+03  0.82543225496E+03  0.25500000920E-02 0.  1.
       -2    1    3    3    0  502 -0.41601780919E+03  0.36612152381E+03 -0.66713800250E+03  0.86728824629E+03  0.25500000920E-02 0. -1.
</event>
<event>
 5   0  0.2630135E-04  0.1695148E+04  0.7818609E-02  0.8764137E-01
       -1   -1    0    0    0  501  0.00000000000E+00  0.00000000000E+00  0.60448115673E+03  0.60448115675E+03  0.50400001928E-02 0.  1.
        1   -1    0    0  501    0  0.00000000000E+00  0.00000000000E+00 -0.11884266967E+04  0.11884266967E+04  0.50400001928E-02 0. -1.
    10030    2    1    2    0    0  0.00000000000E+00  0.00000000000E+00 -0.58394553992E+03  0.17929078534E+04  0.16951478335E+04 0.  0.
        1    1    3    3  502    0 -0.42236586941E+03  0.61496491219E+02  0.48251853884E+03  0.64420407203E+03  0.50400001928E-02 0.  1.
       -1    1    3    3    0  502  0.42236586941E+03 -0.61496491219E+02 -0.10664640788E+04  0.11487037814E+04  0.50400001928E-02 0. -1.
</event>
<event>
 5   0  0.2561518E-04  0.1707763E+04  0.7818609E-02  0.8756949E-01
        1   -1    0    0  501    0  0.00000000000E+00  0.00000000000E+00  0.64948885710E+03  0.64948885712E+03  0.50400001928E-02 0.  1.
       -1   -1    0    0    0  501  0.00000000000E+00  0.00000000000E+00 -0.11225955524E+04  0.11225955524E+04  0.50400001928E-02 0. -1.
    10030    2    1    2    0    0  0.00000000000E+00  0.00000000000E+00 -0.47310669534E+03  0.17720844096E+04  0.17077626326E+04 0.  0.
        4    1    3    3  502    0 -0.49212725645E+03  0.32879490397E+03  0.40210892758E+03  0.71553373642E+03  0.12699999809E+01 0.  1.
       -4    1    3    3    0  502  0.49212725645E+03 -0.32879490397E+03 -0.87521562292E+03  0.10565506731E+04  0.12699999809E+01 0. -1.
</event>
<event>
 5   0  0.2561518E-04  0.1699053E+04  0.7818609E-02  0.8761905E-01
        1   -1    0    0  501    0  0.00000000000E+00  0.00000000000E+00  0.10530786056E+04  0.10530786056E+04  0.50400001928E-02 0. -1.
       -1   -1    0    0    0  501  0.00000000000E+00  0.00000000000E+00 -0.68531945575E+03  0.68531945577E+03  0.50400001928E-02 0.  1.
    10030    2    1    2    0    0  0.00000000000E+00  0.00000000000E+00  0.36775914988E+03  0.17383980614E+04  0.16990529796E+04 0.  0.
        4    1    3    3  502    0 -0.44292402198E+03 -0.16886100242E+03  0.90518565323E+03  0.10217917631E+04  0.12699999809E+01 0. -1.
       -4    1    3    3    0  502  0.44292402198E+03  0.16886100242E+03 -0.53742650336E+03  0.71660629833E+03  0.12699999809E+01 0.  1.
</event>
<event>
 5   0  0.5021349E-04  0.1735677E+04  0.7818609E-02  0.8741274E-01
       -2   -1    0    0    0  501  0.00000000000E+00  0.00000000000E+00  0.77294968779E+03  0.77294968779E+03  0.25500000920E-02 0. -1.
        2   -1    0    0  501    0  0.00000000000E+00  0.00000000000E+00 -0.97437600109E+03  0.97437600109E+03  0.25500000920E-02 0.  1.
    10030    2    1    2    0    0  0.00000000000E+00  0.00000000000E+00 -0.20142631330E+03  0.17473256889E+04  0.17356769582E+04 0.  0.
        2    1    3    3  502    0  0.37973941766E+03 -0.43246263213E+03 -0.75462442614E+03  0.94904371767E+03  0.25500000920E-02 0.  1.
       -2    1    3    3    0  502 -0.37973941766E+03  0.43246263213E+03  0.55319811284E+03  0.79828197121E+03  0.25500000920E-02 0. -1.
</event>
<event>
 5   0  0.5021349E-04  0.1710148E+04  0.7818609E-02  0.8755598E-01
       -2   -1    0    0    0  501  0.00000000000E+00  0.00000000000E+00  0.16598057688E+04  0.16598057688E+04  0.25500000920E-02 0. -1.
        2   -1    0    0  501    0  0.00000000000E+00  0.00000000000E+00 -0.44050438498E+03  0.44050438498E+03  0.25500000920E-02 0.  1.
    10030    2    1    2    0    0  0.00000000000E+00  0.00000000000E+00  0.12193013838E+04  0.21003101538E+04  0.17101482034E+04 0.  0.
        2    1    3    3  502    0  0.10906414962E+03  0.75051399468E+03  0.12459482426E+03  0.76856367022E+03  0.25500000920E-02 0.  1.
       -2    1    3    3    0  502 -0.10906414962E+03 -0.75051399468E+03  0.10947065596E+04  0.13317464836E+04  0.25500000920E-02 0. -1.
</event>
<event>
 5   0  0.5198430E-04  0.1663597E+04  0.7818609E-02  0.8782403E-01
       -2   -1    0    0    0  501  0.00000000000E+00  0.00000000000E+00  0.25848569499E+03  0.25848569501E+03  0.25500000920E-02 0.  1.
        2   -1    0    0  501    0  0.00000000000E+00  0.00000000000E+00 -0.26767001422E+04  0.26767001422E+04  0.25500000920E-02 0. -1.
    10030    2    1    2    0    0  0.00000000000E+00  0.00000000000E+00 -0.24182144472E+04  0.29351858372E+04  0.16635969423E+04 0.  0.
        4    1    3    3  502    0 -0.29966455501E+03 -0.49277710023E+03 -0.15158062718E+03  0.59632743982E+03  0.12699999809E+01 0.  1.
       -4    1    3    3    0  502  0.29966455501E+03  0.49277710023E+03 -0.22666338201E+04  0.23388583974E+04  0.12699999809E+01 0. -1.
</event>
<event>
 5   0  0.5342255E-04  0.1692680E+04  0.7818609E-02  0.8765550E-01
       -2   -1    0    0    0  501  0.00000000000E+00  0.00000000000E+00  0.34823923195E+03  0.34823923196E+03  0.25500000920E-02 0.  1.
        2   -1    0    0  501    0  0.00000000000E+00  0.00000000000E+00 -0.20568946154E+04  0.20568946154E+04  0.25500000920E-02 0. -1.
    10030    2    1    2    0    0  0.00000000000E+00  0.00000000000E+00 -0.17086553834E+04  0.24051338473E+04  0.16926800065E+04 0.  0.
        5    1    3    3  502    0 -0.80451833570E+03  0.26029237372E+03 -0.90491340530E+03  0.12385040304E+04  0.46999998093E+01 0. -1.
       -5    1    3    3    0  502  0.80451833570E+03 -0.26029237372E+03 -0.80374197813E+03  0.11666298169E+04  0.46999998093E+01 0.  1.
</event>
<event>
 5   0  0.5021349E-04  0.1622031E+04  0.7818609E-02  0.8807127E-01
        2   -1    0    0  501    0  0.00000000000E+00  0.00000000000E+00  0.10203605468E+04  0.10203605468E+04  0.25500000920E-02 0.  1.
       -2   -1    0    0    0  501  0.00000000000E+00  0.00000000000E+00 -0.64462119085E+03  0.64462119085E+03  0.25500000920E-02 0. -1.
    10030    2    1    2    0    0  0.00000000000E+00  0.00000000000E+00  0.37573935599E+03  0.16649817377E+04  0.16220308638E+04 0.  0.
        2    1    3    3  502    0 -0.14417001795E+03  0.26603918414E+03 -0.58450713811E+03  0.65818723482E+03  0.25500000920E-02 0. -1.
       -2    1    3    3    0  502  0.14417001795E+03 -0.26603918414E+03  0.96024649411E+03  0.10067945029E+04  0.25500000920E-02 0.  1.
</event>
<event>
 5   0  0.5310003E-04  0.1712958E+04  0.7818609E-02  0.8754008E-01
        2   -1    0    0  501    0  0.00000000000E+00  0.00000000000E+00  0.18437583307E+04  0.18437583307E+04  0.25500000920E-02 0.  1.
       -2   -1    0    0    0  501  0.00000000000E+00  0.00000000000E+00 -0.39785906783E+03  0.39785906784E+03  0.25500000920E-02 0. -1.
    10030    2    1    2    0    0  0.00000000000E+00  0.00000000000E+00  0.14458992629E+04  0.22416173986E+04  0.17129576419E+04 0.  0.
        1    1    3    3  502    0  0.43364458381E+03 -0.73849831522E+03  0.70811049998E+03  0.11112370885E+04  0.50400001928E-02 0.  1.
       -1    1    3    3    0  502 -0.43364458381E+03  0.73849831522E+03  0.73778876290E+03  0.11303803100E+04  0.50400001928E-02 0. -1.
</event>
<event>
 5   0  0.5198430E-04  0.1681212E+04  0.7818609E-02  0.8772153E-01
        2   -1    0    0  501    0  0.00000000000E+00  0.00000000000E+00  0.18355322060E+04  0.18355322060E+04  0.25500000920E-02 0.  1.
       -2   -1    0    0    0  501  0.00000000000E+00  0.00000000000E+00 -0.38496669338E+03  0.38496669339E+03  0.25500000920E-02 0. -1.
    10030    2    1    2    0    0  0.00000000000E+00  0.00000000000E+00  0.14505655126E+04  0.22204988994E+04  0.16812123768E+04 0.  0.
        4    1    3    3  502    0  0.19282300352E+03 -0.60657270417E+03  0.52424518741E-01  0.63648469877E+03  0.12699999809E+01 0. -1.
       -4    1    3    3    0  502 -0.19282300352E+03  0.60657270417E+03  0.14505130881E+04  0.15840142006E+04  0.12699999809E+01 0.  1.
</event>
<event>
 5   0  0.5198430E-04  0.1723950E+04  0.7818609E-02  0.8747822E-01
        2   -1    0    0  501    0  0.00000000000E+00  0.00000000000E+00  0.13555115895E+04  0.13555115895E+04  0.25500000920E-02 0. -1.
       -2   -1    0    0    0  501  0.00000000000E+00  0.00000000000E+00 -0.54813305636E+03  0.54813305636E+03  0.25500000920E-02 0.  1.
    10030    2    1    2    0    0  0.00000000000E+00  0.00000000000E+00  0.80737853314E+03  0.19036446459E+04  0.17239497794E+04 0.  0.
        4    1    3    3  502    0 -0.37700955396E+03  0.19742869362E+03  0.12314120609E+04  0.13028781867E+04  0.12699999809E+01 0. -1.
       -4    1    3    3    0  502  0.37700955396E+03 -0.19742869362E+03 -0.42403352776E+03  0.60076645912E+03  0.12699999809E+01 0.  1.
</event>
<event>
 5   0  0.5342255E-04  0.1691509E+04  0.7818609E-02  0.8766222E-01
       -2   -1    0    0    0  501  0.00000000000E+00  0.00000000000E+00  0.16238256630E+04  0.16238256630E+04  0.25500000920E-02 0.  1.
        2   -1    0    0  501    0  0.00000000000E+00  0.00000000000E+00 -0.44050324633E+03  0.44050324634E+03  0.25500000920E-02 0. -1.
    10030    2    1    2    0    0  0.00000000000E+00  0.00000000000E+00  0.11833224166E+04  0.20643289093E+04  0.16915087656E+04 0.  0.
        5    1    3    3  502    0  0.25249727001E+03 -0.36881974747E+03  0.14678891229E+04  0.15344391303E+04  0.46999998093E+01 0.  1.
       -5    1    3    3    0  502 -0.25249727001E+03  0.36881974747E+03 -0.28456670631E+03  0.52988977895E+03  0.46999998093E+01 0. -1.
</event>
<event>
 5   0  0.2561518E-04  0.1707725E+04  0.7818609E-02  0.8756971E-01
       -1   -1    0    0    0  501  0.00000000000E+00  0.00000000000E+00  0.43937291048E+03  0.43937291051E+03  0.50400001928E-02 0. -1.
        1   -1    0    0  501    0  0.00000000000E+00  0.00000000000E+00 -0.16593677561E+04  0.16593677561E+04  0.50400001928E-02 0.  1.
    10030    2    1    2    0    0  0.00000000000E+00  0.00000000000E+00 -0.12199948456E+04  0.20987406666E+04  0.17077250839E+04 0.  0.
        4    1    3    3  502    0  0.65515866710E+03  0.28419457170E+02 -0.12820523916E+04  0.14400348927E+04  0.12699999809E+01 0.  1.
       -4    1    3    3    0  502 -0.65515866710E+03 -0.28419457170E+02  0.62057545972E+02  0.65870577387E+03  0.12699999809E+01 0. -1.
</event>
<event>
 5   0  0.5342255E-04  0.1558308E+04  0.7818609E-02  0.8846578E-01
       -2   -1    0    0    0  501  0.00000000000E+00  0.00000000000E+00  0.80937688490E+03  0.80937688490E+03  0.25500000920E-02 0. -1.
        2   -1    0    0  501    0  0.00000000000E+00  0.00000000000E+00 -0.75005968015E+03  0.75005968015E+03  0.25500000920E-02 0.  1.
    10030    2    1    2    0    0  0.00000000000E+00  0.00000000000E+00  0.59317204753E+02  0.15594365651E+04  0.15583080150E+04 0.  0.
        5    1    3    3  502    0  0.31727011157E+03 -0.17601521704E+03 -0.66034578527E+03  0.75347218027E+03  0.46999998093E+01 0.  1.
       -5    1    3    3    0  502 -0.31727011157E+03  0.17601521704E+03  0.71966299002E+03  0.80596438478E+03  0.46999998093E+01 0. -1.
</event>
<event>
 5   0  0.5299877E-04  0.1493756E+04  0.7818609E-02  0.8888616E-01
       -2   -1    0    0    0  501  0.00000000000E+00  0.00000000000E+00  0.40317551842E+03  0.40317551842E+03  0.25500000920E-02 0.  1.
        2   -1    0    0  501    0  0.00000000000E+00  0.00000000000E+00 -0.13835823558E+04  0.13835823558E+04  0.25500000920E-02 0. -1.
    10030    2    1    2    0    0  0.00000000000E+00  0.00000000000E+00 -0.98040683739E+03  0.17867578742E+04  0.14937557144E+04 0.  0.
        3    1    3    3  502    0 -0.29210587360E+03  0.52377499857E+03 -0.10226727468E+04  0.11855486695E+04  0.10100000352E+00 0. -1.
       -3    1    3    3    0  502  0.29210587360E+03 -0.52377499857E+03  0.42265909445E+02  0.60120920470E+03  0.10100000352E+00 0.  1.
</event>
<event>
 5   0  0.1910750E-04  0.1487820E+04  0.7818609E-02  0.8892593E-01
       -4   -1    0    0    0  501  0.00000000000E+00  0.00000000000E+00  0.78557551121E+03  0.78557653778E+03  0.12699999809E+01 0.  1.
        4   -1    0    0  501    0  0.00000000000E+00  0.00000000000E+00 -0.70445274121E+03  0.70445388600E+03  0.12699999809E+01 0. -1.
    10030    2    1    2    0    0  0.00000000000E+00  0.00000000000E+00  0.81122769998E+02  0.14900304238E+04  0.14878204730E+04 0.  0.
        4    1    3    3  502    0  0.53241376606E+03 -0.16302636989E+02  0.56063094225E+03  0.77332972306E+03  0.12699999809E+01 0.  1.
       -4    1    3    3    0  502 -0.53241376606E+03  0.16302636989E+02 -0.47950817225E+03  0.71670070072E+03  0.12699999809E+01 0. -1.
</event>
<event>
 5   0  0.2630135E-04  0.1696081E+04  0.7818609E-02  0.8763602E-01
        1   -1    0    0  501    0  0.00000000000E+00  0.00000000000E+00  0.86873913068E+03  0.86873913070E+03  0.50400001928E-02 0. -1.
       -1   -1    0    0    0  501  0.00000000000E+00  0.00000000000E+00 -0.82783532503E+03  0.82783532504E+03  0.50400001928E-02 0.  1.
    10030    2    1    2    0    0  0.00000000000E+00  0.00000000000E+00  0.40903805655E+02  0.16965744557E+04  0.16960812960E+04 0.  0.
        1    1    3    3  502    0  0.56612931021E+03  0.55587881617E+03 -0.27908346952E+03  0.84106553676E+03  0.50400001928E-02 0.  1.
       -1    1    3    3    0  502 -0.56612931021E+03 -0.55587881617E+03  0.31998727518E+03  0.85550891898E+03  0.50400001928E-02 0. -1.
</event>
<event>
 5   0  0.2785059E-04  0.1756924E+04  0.7818609E-02  0.8729548E-01
        1   -1    0    0  501    0  0.00000000000E+00  0.00000000000E+00  0.97370177420E+03  0.97370177421E+03  0.50400001928E-02 0.  1.
       -1   -1    0    0    0  501  0.00000000000E+00  0.00000000000E+00 -0.79253753349E+03  0.79253753351E+03  0.50400001928E-02 0. -1.
    10030    2    1    2    0    0  0.00000000000E+00  0.00000000000E+00  0.18116424071E+03  0.17662393077E+04  0.17569236779E+04 0.  0.
        5    1    3    3  502    0  0.11940859505E+03  0.55463844073E+03 -0.58363842464E+03  0.81396444223E+03  0.46999998093E+01 0. -1.
       -5    1    3    3    0  502 -0.11940859505E+03 -0.55463844073E+03  0.76480266535E+03  0.95227486549E+03  0.46999998093E+01 0.  1.
</event>
<event>
 5   0  0.2785059E-04  0.1598338E+04  0.7818609E-02  0.8821570E-01
        1   -1    0    0  501    0  0.00000000000E+00  0.00000000000E+00  0.18092514687E+04  0.18092514687E+04  0.50400001928E-02 0.  1.
       -1   -1    0    0    0  501  0.00000000000E+00  0.00000000000E+00 -0.35300301702E+03  0.35300301705E+03  0.50400001928E-02 0. -1.
    10030    2    1    2    0    0  0.00000000000E+00  0.00000000000E+00  0.14562484516E+04  0.21622544857E+04  0.15983381708E+04 0.  0.
        5    1    3    3  502    0  0.10940884810E+03 -0.43440156598E+03 -0.16716294271E+03  0.47816373344E+03  0.46999998093E+01 0. -1.
       -5    1    3    3    0  502 -0.10940884810E+03  0.43440156598E+03  0.16234113944E+04  0.16840907523E+04  0.46999998093E+01 0.  1.
</event>
<event>
 5   0  0.5310003E-04  0.2118333E+04  0.7818609E-02  0.8553210E-01
       -2   -1    0    0    0  501  0.00000000000E+00  0.00000000000E+00  0.10548937984E+04  0.10548937984E+04  0.25500000920E-02 0.  1.
        2   -1    0    0  501    0  0.00000000000E+00  0.00000000000E+00 -0.10634564756E+04  0.10634564756E+04  0.25500000920E-02 0. -1.
    10030    2    1    2    0    0  0.00000000000E+00  0.00000000000E+00 -0.85626772468E+01  0.21183502740E+04  0.21183329681E+04 0.  0.
        1    1    3    3  502    0  0.71200196857E+03  0.77955987094E+03 -0.88977043904E+02  0.10595174892E+04  0.50400001928E-02 0.  1.
       -1    1    3    3    0  502 -0.71200196857E+03 -0.77955987094E+03  0.80414366657E+02  0.10588327847E+04  0.50400001928E-02 0. -1.
</event>
<event>
 5   0  0.5310003E-04  0.1697091E+04  0.7818609E-02  0.8763025E-01
       -2   -1    0    0    0  501  0.00000000000E+00  0.00000000000E+00  0.49851365183E+03  0.49851365183E+03  0.25500000920E-02 0. -1.
        2   -1    0    0  501    0  0.00000000000E+00  0.00000000000E+00 -0.14443527851E+04  0.14443527851E+04  0.25500000920E-02 0.  1.
    10030    2    1    2    0    0  0.00000000000E+00  0.00000000000E+00 -0.94583913330E+03  0.19428664370E+04  0.16970911366E+04 0.  0.
        1    1    3    3  502    0  0.25945027395E+03 -0.72787624054E+03 -0.71559912686E+02  0.77604064798E+03  0.50400001928E-02 0. -1.
       -1    1    3    3    0  502 -0.25945027395E+03  0.72787624054E+03 -0.87427922061E+03  0.11668257890E+04  0.50400001928E-02 0.  1.
</event>
<event>
 5   0  0.2561518E-04  0.1694164E+04  0.7818609E-02  0.8764700E-01
       -1   -1    0    0    0  501  0.00000000000E+00  0.00000000000E+00  0.55780381577E+03  0.55780381579E+03  0.50400001928E-02 0. -1.
        1   -1    0    0  501    0  0.00000000000E+00  0.00000000000E+00 -0.12863800739E+04  0.12863800740E+04  0.50400001928E-02 0.  1.
    10030    2    1    2    0    0  0.00000000000E+00  0.00000000000E+00 -0.72857625818E+03  0.18441838897E+04  0.16941637628E+04 0.  0.
        4    1    3    3  502    0  0.39652920591E+03  0.39142098611E+03  0.33025552498E+03  0.64770064396E+03  0.12699999809E+01 0. -1.
       -4    1    3    3    0  502 -0.39652920591E+03 -0.39142098611E+03 -0.10588317832E+04  0.11964832458E+04  0.12699999809E+01 0.  1.
</event>
<event>
 5   0  0.5021349E-04  0.1697019E+04  0.7818609E-02  0.8763067E-01
        2   -1    0    0  501    0  0.00000000000E+00  0.00000000000E+00  0.15433412554E+04  0.15433412554E+04  0.25500000920E-02 0.  1.
       -2   -1    0    0    0  501  0.00000000000E+00  0.00000000000E+00 -0.46649961861E+03  0.46649961862E+03  0.25500000920E-02 0. -1.
    10030    2    1    2    0    0  0.00000000000E+00  0.00000000000E+00  0.10768416368E+04  0.20098408740E+04  0.16970186882E+04 0.  0.
        2    1    3    3  502    0  0.81598098031E+03 -0.12065214437E+03  0.77405972240E+03  0.11311721151E+04  0.25500000920E-02 0. -1.
       -2    1    3    3    0  502 -0.81598098031E+03  0.12065214437E+03  0.30278191439E+03  0.87866875890E+03  0.25500000920E-02 0.  1.
</event>
<event>
 5   0  0.1910750E-04  0.1686740E+04  0.7818609E-02  0.8768964E-01
        3   -1    0    0  501    0  0.00000000000E+00  0.00000000000E+00  0.51050019261E+03  0.51050020260E+03  0.10100000352E+00 0.  1.
       -3   -1    0    0    0  501  0.00000000000E+00  0.00000000000E+00 -0.13932858000E+04  0.13932858037E+04  0.10100000352E+00 0. -1.
    10030    2    1    2    0    0  0.00000000000E+00  0.00000000000E+00 -0.88278560740E+03  0.19037860063E+04  0.16867396744E+04 0.  0.
        4    1    3    3  502    0 -0.36498061079E+03 -0.17978386835E+03  0.39240771513E+03  0.56525968666E+03  0.12699999809E+01 0.  1.
       -4    1    3    3    0  502  0.36498061079E+03  0.17978386835E+03 -0.12751933225E+04  0.13385263196E+04  0.12699999809E+01 0. -1.
</event>
<event>
 5   0  0.5342255E-04  0.1695398E+04  0.7818609E-02  0.8763993E-01
        2   -1    0    0  501    0  0.00000000000E+00  0.00000000000E+00  0.75859502267E+03  0.75859502267E+03  0.25500000920E-02 0.  1.
       -2   -1    0    0    0  501  0.00000000000E+00  0.00000000000E+00 -0.94726912180E+03  0.94726912180E+03  0.25500000920E-02 0. -1.
    10030    2    1    2    0    0  0.00000000000E+00  0.00000000000E+00 -0.18867409913E+03  0.17058641445E+04  0.16953980546E+04 0.  0.
        5    1    3    3  502    0 -0.79367433928E+03 -0.21164707053E+03 -0.30505315201E+03  0.87623795561E+03  0.46999998093E+01 0. -1.
       -5    1    3    3    0  502  0.79367433928E+03  0.21164707053E+03  0.11637905288E+03  0.82962618886E+03  0.46999998093E+01 0.  1.
</event>
<event>
 5   0  0.5342255E-04  0.1656263E+04  0.7818609E-02  0.8786710E-01
        2   -1    0    0  501    0  0.00000000000E+00  0.00000000000E+00  0.90510192035E+03  0.90510192036E+03  0.25500000920E-02 0. -1.
       -2   -1    0    0    0  501  0.00000000000E+00  0.00000000000E+00 -0.75770697886E+03  0.75770697886E+03  0.25500000920E-02 0.  1.
    10030    2    1    2    0    0  0.00000000000E+00  0.00000000000E+00  0.14739494150E+03  0.16628088992E+04  0.16562633144E+04 0.  0.
        5    1    3    3  502    0 -0.26125273868E+03  0.69348763050E+03 -0.29736007798E+03  0.79851311392E+03  0.46999998093E+01 0.  1.
       -5    1    3    3    0  502  0.26125273868E+03 -0.69348763050E+03  0.44475501948E+03  0.86429578530E+03  0.46999998093E+01 0. -1.
</event>
<event>
 5   0  0.2630135E-04  0.1608602E+04  0.7818609E-02  0.8815281E-01
       -1   -1    0    0    0  501  0.00000000000E+00  0.00000000000E+00  0.49579155014E+03  0.49579155016E+03  0.50400001928E-02 0. -1.
        1   -1    0    0  501    0  0.00000000000E+00  0.00000000000E+00 -0.13047816400E+04  0.13047816400E+04  0.50400001928E-02 0.  1.
    10030    2    1    2    0    0  0.00000000000E+00  0.00000000000E+00 -0.80899008985E+03  0.18005731902E+04  0.16086015192E+04 0.  0.
        1    1    3    3  502    0 -0.28438497043E+03 -0.24160400497E+03  0.39303220131E+03  0.54196090073E+03  0.50400001928E-02 0. -1.
       -1    1    3    3    0  502  0.28438497043E+03  0.24160400497E+03 -0.12020222912E+04  0.12586122894E+04  0.50400001928E-02 0.  1.
</event>
<event>
 5   0  0.2561518E-04  0.1696129E+04  0.7818609E-02  0.8763575E-01
        1   -1    0    0  501    0  0.00000000000E+00  0.00000000000E+00  0.43060206894E+03  0.43060206897E+03  0.50400001928E-02 0.  1.
       -1   -1    0    0    0  501  0.00000000000E+00  0.00000000000E+00 -0.16702503149E+04  0.16702503149E+04  0.50400001928E-02 0. -1.
    10030    2    1    2    0    0  0.00000000000E+00  0.00000000000E+00 -0.12396482460E+04  0.21008523839E+04  0.16961288174E+04 0.  0.
        4    1    3    3  502    0  0.40150933770E+03 -0.93743611397E+02  0.29810153750E+03  0.50878654906E+03  0.12699999809E+01 0.  1.
       -4    1    3    3    0  502 -0.40150933770E+03  0.93743611397E+02 -0.15377497835E+04  0.15920658348E+04  0.12699999809E+01 0. -1.
</event>
<event>
 5   0  0.5299877E-04  0.1682606E+04  0.7818609E-02  0.8771348E-01
        2   -1    0    0  501    0  0.00000000000E+00  0.00000000000E+00  0.16218997996E+04  0.16218997996E+04  0.25500000920E-02 0.  1.
       -2   -1    0    0    0  501  0.00000000000E+00  0.00000000000E+00 -0.43639586486E+03  0.43639586487E+03  0.25500000920E-02 0. -1.
    10030    2    1    2    0    0  0.00000000000E+00  0.00000000000E+00  0.11855039347E+04  0.20582956645E+04  0.16826055578E+04 0.  0.
        3    1    3    3  502    0 -0.62777487478E+03  0.23947041354E+03 -0.26598054461E+02  0.67242459731E+03  0.10100000352E+00 0. -1.
       -3    1    3    3    0  502  0.62777487478E+03 -0.23947041354E+03  0.12121019892E+04  0.13858710672E+04  0.10100000352E+00 0.  1.
</event>
<event>
 5   0  0.5310003E-04  0.1681717E+04  0.7818609E-02  0.8771861E-01
        2   -1    0    0  501    0  0.00000000000E+00  0.00000000000E+00  0.16186756884E+04  0.16186756884E+04  0.25500000920E-02 0.  1.
       -2   -1    0    0    0  501  0.00000000000E+00  0.00000000000E+00 -0.43680318835E+03  0.43680318836E+03  0.25500000920E-02 0. -1.
    10030    2    1    2    0    0  0.00000000000E+00  0.00000000000E+00  0.11818725000E+04  0.20554788767E+04  0.16817166249E+04 0.  0.
        1    1    3    3  502    0 -0.31136066858E+03  0.35553805225E+03 -0.25911228472E+03  0.53897305003E+03  0.50400001928E-02 0. -1.
       -1    1    3    3    0  502  0.31136066858E+03 -0.35553805225E+03  0.14409847847E+04  0.15165058267E+04  0.50400001928E-02 0.  1.
</event>
<event>
 5   0  0.5342255E-04  0.1696057E+04  0.7818609E-02  0.8763616E-01
       -2   -1    0    0    0  501  0.00000000000E+00  0.00000000000E+00  0.62271980011E+03  0.62271980011E+03  0.25500000920E-02 0. -1.
        2   -1    0    0  501    0  0.00000000000E+00  0.00000000000E+00 -0.11548575768E+04  0.11548575768E+04  0.25500000920E-02 0.  1.
    10030    2    1    2    0    0  0.00000000000E+00  0.00000000000E+00 -0.53213777665E+03  0.17775773769E+04  0.16960574039E+04 0.  0.
        5    1    3    3  502    0 -0.30478501764E+02  0.14033073315E+03 -0.11420080643E+04  0.11510109307E+04  0.46999998093E+01 0.  1.
       -5    1    3    3    0  502  0.30478501764E+02 -0.14033073315E+03  0.60987028763E+03  0.62656644617E+03  0.46999998093E+01 0. -1.
</event>
<event>
 5   0  0.1910750E-04  0.1701721E+04  0.7818609E-02  0.8760383E-01
        4   -1    0    0  501    0  0.00000000000E+00  0.00000000000E+00  0.77415927695E+03  0.77416031866E+03  0.12699999809E+01 0.  1.
       -4   -1    0    0    0  501  0.00000000000E+00  0.00000000000E+00 -0.93515914925E+03  0.93516001161E+03  0.12699999809E+01 0. -1.
    10030    2    1    2    0    0  0.00000000000E+00  0.00000000000E+00 -0.16099987230E+03  0.17093203303E+04  0.17017211971E+04 0.  0.
        3    1    3    3  502    0  0.65861674199E+03 -0.53748941251E+03 -0.11661695524E+03  0.85806200583E+03  0.10100000352E+00 0. -1.
       -3    1    3    3    0  502 -0.65861674199E+03  0.53748941251E+03 -0.44382917062E+02  0.85125832444E+03  0.10100000352E+00 0.  1.
</event>
<event>
 5   0  0.5299877E-04  0.1706706E+04  0.7818609E-02  0.8757549E-01
        2   -1    0    0  501    0  0.00000000000E+00  0.00000000000E+00  0.12613422122E+04  0.12613422122E+04  0.25500000920E-02 0. -1.
       -2   -1    0    0    0  501  0.00000000000E+00  0.00000000000E+00 -0.57733050786E+03  0.57733050786E+03  0.25500000920E-02 0.  1.
    10030    2    1    2    0    0  0.00000000000E+00  0.00000000000E+00  0.68401170430E+03  0.18386727200E+04  0.17067059969E+04 0.  0.
        3    1    3    3  502    0  0.34752879928E+03 -0.61441814509E+03  0.85858776905E+03  0.11115119841E+04  0.10100000352E+00 0. -1.
       -3    1    3    3    0  502 -0.34752879928E+03  0.61441814509E+03 -0.17457606475E+03  0.72716073596E+03  0.10100000352E+00 0.  1.
</event>
<event>
 5   0  0.5198430E-04  0.1691919E+04  0.7818609E-02  0.8765986E-01
       -2   -1    0    0    0  501  0.00000000000E+00  0.00000000000E+00  0.11510984380E+04  0.11510984380E+04  0.25500000920E-02 0. -1.
        2   -1    0    0  501    0  0.00000000000E+00  0.00000000000E+00 -0.62170867219E+03  0.62170867219E+03  0.25500000920E-02 0.  1.
    10030    2    1    2    0    0  0.00000000000E+00  0.00000000000E+00  0.52938976577E+03  0.17728071101E+04  0.16919194797E+04 0.  0.
        4    1    3    3  502    0 -0.82779273588E+03 -0.10830186596E+03  0.40788913855E+03  0.92916374767E+03  0.12699999809E+01 0. -1.
       -4    1    3    3    0  502  0.82779273588E+03  0.10830186596E+03  0.12150062722E+03  0.84364336248E+03  0.12699999809E+01 0.  1.
</event>
<event>
 5   0  0.2785059E-04  0.1660299E+04  0.7818609E-02  0.8784337E-01
        1   -1    0    0  501    0  0.00000000000E+00  0.00000000000E+00  0.54775289526E+03  0.54775289528E+03  0.50400001928E-02 0. -1.
       -1   -1    0    0    0  501  0.00000000000E+00  0.00000000000E+00 -0.12581367232E+04  0.12581367232E+04  0.50400001928E-02 0.  1.
    10030    2    1    2    0    0  0.00000000000E+00  0.00000000000E+00 -0.71038382792E+03  0.18058896185E+04  0.16602988078E+04 0.  0.
        5    1    3    3  502    0  0.81698243386E+02  0.74199024707E+03  0.39838312671E+02  0.74755154396E+03  0.46999998093E+01 0. -1.
       -5    1    3    3    0  502 -0.81698243386E+02 -0.74199024707E+03 -0.75022214059E+03  0.10583380745E+04  0.46999998093E+01 0.  1.
</event>
<event>
 5   0  0.5299877E-04  0.1793359E+04  0.7818609E-02  0.8709839E-01
        2   -1    0    0  501    0  0.00000000000E+00  0.00000000000E+00  0.12868353336E+04  0.12868353336E+04  0.25500000920E-02 0.  1.
       -2   -1    0    0    0  501  0.00000000000E+00  0.00000000000E+00 -0.62481488005E+03  0.62481488005E+03  0.25500000920E-02 0. -1.
    10030    2    1    2    0    0  0.00000000000E+00  0.00000000000E+00  0.66202045358E+03  0.19116502137E+04  0.17933587088E+04 0.  0.
        3    1    3    3  502    0  0.97965211255E+02  0.49825006205E+03  0.11188004206E+04  0.12286434382E+04  0.10100000352E+00 0.  1.
       -3    1    3    3    0  502 -0.97965211255E+02 -0.49825006205E+03 -0.45677996697E+03  0.68300677550E+03  0.10100000352E+00 0. -1.
</event>
<event>
 5   0  0.5198430E-04  0.1667366E+04  0.7818609E-02  0.8780199E-01
        2   -1    0    0  501    0  0.00000000000E+00  0.00000000000E+00  0.41108806653E+03  0.41108806654E+03  0.25500000920E-02 0.  1.
       -2   -1    0    0    0  501  0.00000000000E+00  0.00000000000E+00 -0.16907009477E+04  0.16907009477E+04  0.25500000920E-02 0. -1.
    10030    2    1    2    0    0  0.00000000000E+00  0.00000000000E+00 -0.12796128812E+04  0.21017890142E+04  0.16673655672E+04 0.  0.
        4    1    3    3  502    0  0.40017779609E+03 -0.72097261077E+03 -0.79461036009E+03  0.11451423541E+04  0.12699999809E+01 0.  1.
       -4    1    3    3    0  502 -0.40017779609E+03  0.72097261077E+03 -0.48500252108E+03  0.95664666012E+03  0.12699999809E+01 0. -1.
</event>
<event>
 5   0  0.5310003E-04  0.1255491E+04  0.7818609E-02  0.9065625E-01
       -2   -1    0    0    0  501  0.00000000000E+00  0.00000000000E+00  0.12297822557E+04  0.12297822557E+04  0.25500000920E-02 0. -1.
        2   -1    0    0  501    0  0.00000000000E+00  0.00000000000E+00 -0.32043449546E+03  0.32043449547E+03  0.25500000920E-02 0.  1.
    10030    2    1    2    0    0  0.00000000000E+00  0.00000000000E+00  0.90934776028E+03  0.15502167512E+04  0.12554913885E+04 0.  0.
        1    1    3    3  502    0  0.36984030830E+03 -0.89303880251E+01  0.10808791893E+04  0.11424366185E+04  0.50400001928E-02 0. -1.
       -1    1    3    3    0  502 -0.36984030830E+03  0.89303880251E+01 -0.17153142899E+03  0.40778013270E+03  0.50400001928E-02 0.  1.
</event>
<event>
 5   0  0.2561518E-04  0.1721381E+04  0.7818609E-02  0.8749263E-01
       -1   -1    0    0    0  501  0.00000000000E+00  0.00000000000E+00  0.48553317637E+03  0.48553317639E+03  0.50400001928E-02 0. -1.
        1   -1    0    0  501    0  0.00000000000E+00  0.00000000000E+00 -0.15257201899E+04  0.15257201899E+04  0.50400001928E-02 0.  1.
    10030    2    1    2    0    0  0.00000000000E+00  0.00000000000E+00 -0.10401870135E+04  0.20112533663E+04  0.17213805739E+04 0.  0.
        4    1    3    3  502    0  0.21537719104E+03  0.24110096310E+03  0.41189449032E+03  0.52361788824E+03  0.12699999809E+01 0. -1.
       -4    1    3    3    0  502 -0.21537719104E+03 -0.24110096310E+03 -0.14520815039E+04  0.14876354781E+04  0.12699999809E+01 0.  1.
</event>
<event>
 5   0  0.5299877E-04  0.1684672E+04  0.7818609E-02  0.8770155E-01
       -2   -1    0    0    0  501  0.00000000000E+00  0.00000000000E+00  0.56365500259E+03  0.56365500260E+03  0.25500000920E-02 0.  1.
        2   -1    0    0  501    0  0.00000000000E+00  0.00000000000E+00 -0.12588021322E+04  0.12588021322E+04  0.25500000920E-02 0. -1.
    10030    2    1    2    0    0  0.00000000000E+00  0.00000000000E+00 -0.69514712963E+03  0.18224571348E+04  0.16846722163E+04 0.  0.
        3    1    3    3  502    0  0.80625051527E+03 -0.17416753769E+03 -0.53228977863E+03  0.98168561322E+03  0.10100000352E+00 0. -1.
       -3    1    3    3    0  502 -0.80625051527E+03  0.17416753769E+03 -0.16285735100E+03  0.84077152160E+03  0.10100000352E+00 0.  1.
</event>
<event>
 5   0  0.5342255E-04  0.1746049E+04  0.7818609E-02  0.8735528E-01
        2   -1    0    0  501    0  0.00000000000E+00  0.00000000000E+00  0.16412892490E+04  0.16412892490E+04  0.25500000920E-02 0.  1.
       -2   -1    0    0    0  501  0.00000000000E+00  0.00000000000E+00 -0.46437363626E+03  0.46437363627E+03  0.25500000920E-02 0. -1.
    10030    2    1    2    0    0  0.00000000000E+00  0.00000000000E+00  0.11769156127E+04  0.21056628853E+04  0.17460486325E+04 0.  0.
        5    1    3    3  502    0  0.11251691009E+03 -0.36347647274E+03 -0.35910222233E+03  0.52321286048E+03  0.46999998093E+01 0. -1.
       -5    1    3    3    0  502 -0.11251691009E+03  0.36347647274E+03  0.15360178351E+04  0.15824500248E+04  0.46999998093E+01 0.  1.
</event>
<event>
 5   0  0.2583422E-04  0.1695646E+04  0.7818609E-02  0.8763851E-01
       -1   -1    0    0    0  501  0.00000000000E+00  0.00000000000E+00  0.13799745316E+04  0.13799745316E+04  0.50400001928E-02 0. -1.
        1   -1    0    0  501    0  0.00000000000E+00  0.00000000000E+00 -0.52088225740E+03  0.52088225743E+03  0.50400001928E-02 0.  1.
    10030    2    1    2    0    0  0.00000000000E+00  0.00000000000E+00  0.85909227423E+03  0.19008567891E+04  0.16956464835E+04 0.  0.
        3    1    3    3  502    0 -0.17539926424E+03  0.68215503456E+03 -0.99480991421E+02  0.71133457032E+03  0.10100000352E+00 0.  1.
       -3    1    3    3    0  502  0.17539926424E+03 -0.68215503456E+03  0.95857326566E+03  0.11895222188E+04  0.10100000352E+00 0. -1.
</event>
<event>
 5   0  0.1910750E-04  0.1707972E+04  0.7818609E-02  0.8756830E-01
       -3   -1    0    0    0  501  0.00000000000E+00  0.00000000000E+00  0.97990671931E+03  0.97990672452E+03  0.10100000352E+00 0.  1.
        3   -1    0    0  501    0  0.00000000000E+00  0.00000000000E+00 -0.74424678518E+03  0.74424679204E+03  0.10100000352E+00 0. -1.
    10030    2    1    2    0    0  0.00000000000E+00  0.00000000000E+00  0.23565993413E+03  0.17241535166E+04  0.17079724073E+04 0.  0.
        5    1    3    3  502    0  0.59640200894E+03 -0.46235384180E+03 -0.28571207655E+03  0.80692001585E+03  0.46999998093E+01 0. -1.
       -5    1    3    3    0  502 -0.59640200894E+03  0.46235384180E+03  0.52137201068E+03  0.91723350071E+03  0.46999998093E+01 0.  1.
</event>
<event>
 5   0  0.2561518E-04  0.1685134E+04  0.7818609E-02  0.8769889E-01
       -1   -1    0    0    0  501  0.00000000000E+00  0.00000000000E+00  0.46706990434E+03  0.46706990437E+03  0.50400001928E-02 0.  1.
        1   -1    0    0  501    0  0.00000000000E+00  0.00000000000E+00 -0.15199424376E+04  0.15199424376E+04  0.50400001928E-02 0. -1.
    10030    2    1    2    0    0  0.00000000000E+00  0.00000000000E+00 -0.10528725332E+04  0.19870123419E+04  0.16851342605E+04 0.  0.
        4    1    3    3  502    0 -0.36630686364E+03  0.56236994239E+03  0.74205546634E+02  0.67523976964E+03  0.12699999809E+01 0.  1.
       -4    1    3    3    0  502  0.36630686364E+03 -0.56236994239E+03 -0.11270780799E+04  0.13117725723E+04  0.12699999809E+01 0. -1.
</event>
<event>
 5   0  0.5198430E-04  0.1696896E+04  0.7818609E-02  0.8763137E-01
       -2   -1    0    0    0  501  0.00000000000E+00  0.00000000000E+00  0.55323786274E+03  0.55323786275E+03  0.25500000920E-02 0.  1.
        2   -1    0    0  501    0  0.00000000000E+00  0.00000000000E+00 -0.13011834951E+04  0.13011834951E+04  0.25500000920E-02 0. -1.
    10030    2    1    2    0    0  0.00000000000E+00  0.00000000000E+00 -0.74794563236E+03  0.18544213579E+04  0.16968959613E+04 0.  0.
        4    1    3    3  502    0  0.21044639834E+03 -0.22431242675E+02  0.52392744170E+03  0.56505966436E+03  0.12699999809E+01 0.  1.
       -4    1    3    3    0  502 -0.21044639834E+03  0.22431242675E+02 -0.12718730741E+04  0.12893616935E+04  0.12699999809E+01 0. -1.
</event>
<event>
 5   0  0.2583422E-04  0.1683089E+04  0.7818609E-02  0.8771068E-01
       -1   -1    0    0    0  501  0.00000000000E+00  0.00000000000E+00  0.14357838317E+04  0.14357838317E+04  0.50400001928E-02 0. -1.
        1   -1    0    0  501    0  0.00000000000E+00  0.00000000000E+00 -0.49324785818E+03  0.49324785820E+03  0.50400001928E-02 0.  1.
    10030    2    1    2    0    0  0.00000000000E+00  0.00000000000E+00  0.94253597356E+03  0.19290316899E+04  0.16830891834E+04 0.  0.
        3    1    3    3  502    0  0.63110014310E+03 -0.41460170867E+03  0.45477567539E+02  0.75647219830E+03  0.10100000352E+00 0. -1.
       -3    1    3    3    0  502 -0.63110014310E+03  0.41460170867E+03  0.89705840602E+03  0.11725594916E+04  0.10100000352E+00 0.  1.
</event>
<event>
 5   0  0.5342255E-04  0.1544435E+04  0.7818609E-02  0.8855430E-01
        2   -1    0    0  501    0  0.00000000000E+00  0.00000000000E+00  0.14626637813E+04  0.14626637813E+04  0.25500000920E-02 0. -1.
       -2   -1    0    0    0  501  0.00000000000E+00  0.00000000000E+00 -0.40769433762E+03  0.40769433763E+03  0.25500000920E-02 0.  1.
    10030    2    1    2    0    0  0.00000000000E+00  0.00000000000E+00  0.10549694437E+04  0.18703581189E+04  0.15444348371E+04 0.  0.
        5    1    3    3  502    0  0.80965426317E+02  0.19078123355E+03  0.14283359720E+04  0.14433012916E+04  0.46999998093E+01 0. -1.
       -5    1    3    3    0  502 -0.80965426317E+02 -0.19078123355E+03 -0.37336652832E+03  0.42705682737E+03  0.46999998093E+01 0.  1.
</event>
<event>
 5   0  0.5021349E-04  0.1720311E+04  0.7818609E-02  0.8749864E-01
       -2   -1    0    0    0  501  0.00000000000E+00  0.00000000000E+00  0.96287939052E+03  0.96287939052E+03  0.25500000920E-02 0. -1.
        2   -1    0    0  501    0  0.00000000000E+00  0.00000000000E+00 -0.76839044907E+03  0.76839044907E+03  0.25500000920E-02 0.  1.
    10030    2    1    2    0    0  0.00000000000E+00  0.00000000000E+00  0.19448894145E+03  0.17312698396E+04  0.17203108176E+04 0.  0.
        2    1    3    3  502    0  0.48324550840E+03 -0.26708311439E+03  0.76099720500E+03  0.94020016880E+03  0.25500000920E-02 0. -1.
       -2    1    3    3    0  502 -0.48324550840E+03  0.26708311439E+03 -0.56650826355E+03  0.79106967080E+03  0.25500000920E-02 0.  1.
</event>
<event>
 5   0  0.5342255E-04  0.1682426E+04  0.7818609E-02  0.8771452E-01
       -2   -1    0    0    0  501  0.00000000000E+00  0.00000000000E+00  0.77391049989E+03  0.77391049989E+03  0.25500000920E-02 0.  1.
        2   -1    0    0  501    0  0.00000000000E+00  0.00000000000E+00 -0.91436817057E+03  0.91436817057E+03  0.25500000920E-02 0. -1.
    10030    2    1    2    0    0  0.00000000000E+00  0.00000000000E+00 -0.14045767068E+03  0.16882786705E+04  0.16824257820E+04 0.  0.
        5    1    3    3  502    0 -0.31595565467E+03 -0.73764906694E+03 -0.32342171209E+03  0.86520391558E+03  0.46999998093E+01 0.  1.
       -5    1    3    3    0  502  0.31595565467E+03  0.73764906694E+03  0.18296404141E+03  0.82307475489E+03  0.46999998093E+01 0. -1.
</event>
<event>
 5   0  0.2583422E-04  0.1707835E+04  0.7818609E-02  0.8756909E-01
        1   -1    0    0  501    0  0.00000000000E+00  0.00000000000E+00  0.10761883838E+04  0.10761883838E+04  0.50400001928E-02 0. -1.
       -1   -1    0    0    0  501  0.00000000000E+00  0.00000000000E+00 -0.67755301602E+03  0.67755301604E+03  0.50400001928E-02 0.  1.
    10030    2    1    2    0    0  0.00000000000E+00  0.00000000000E+00  0.39863536775E+03  0.17537413998E+04  0.17078345181E+04 0.  0.
        3    1    3    3  502    0 -0.29248959058E+02 -0.76930518108E+03 -0.18005681493E+03  0.79063672445E+03  0.10100000352E+00 0.  1.
       -3    1    3    3    0  502  0.29248959058E+02  0.76930518108E+03  0.57869218267E+03  0.96310467538E+03  0.10100000352E+00 0. -1.
</event>
<event>
 5   0  0.2561518E-04  0.1694326E+04  0.7818609E-02  0.8764607E-01
        1   -1    0    0  501    0  0.00000000000E+00  0.00000000000E+00  0.67470709139E+03  0.67470709141E+03  0.50400001928E-02 0.  1.
       -1   -1    0    0    0  501  0.00000000000E+00  0.00000000000E+00 -0.10636991661E+04  0.10636991661E+04  0.50400001928E-02 0. -1.
    10030    2    1    2    0    0  0.00000000000E+00  0.00000000000E+00 -0.38899207470E+03  0.17384062575E+04  0.16943262620E+04 0.  0.
        4    1    3    3  502    0 -0.27338486732E+03  0.36519139164E+03 -0.92691621755E+03  0.10330921186E+04  0.12699999809E+01 0. -1.
       -4    1    3    3    0  502  0.27338486732E+03 -0.36519139164E+03  0.53792414285E+03  0.70531413893E+03  0.12699999809E+01 0.  1.
</event>
<event>
 5   0  0.5299877E-04  0.1712403E+04  0.7818609E-02  0.8754322E-01
       -2   -1    0    0    0  501  0.00000000000E+00  0.00000000000E+00  0.39937111877E+03  0.39937111878E+03  0.25500000920E-02 0. -1.
        2   -1    0    0  501    0  0.00000000000E+00  0.00000000000E+00 -0.18355878675E+04  0.18355878675E+04  0.25500000920E-02 0.  1.
    10030    2    1    2    0    0  0.00000000000E+00  0.00000000000E+00 -0.14362167487E+04  0.22349589863E+04  0.17124027333E+04 0.  0.
        3    1    3    3  502    0  0.59923372150E+03  0.18591647574E+03  0.42291114293E+02  0.62883585894E+03  0.10100000352E+00 0. -1.
       -3    1    3    3    0  502 -0.59923372150E+03 -0.18591647574E+03 -0.14785078630E+04  0.16061231273E+04  0.10100000352E+00 0.  1.
</event>
<event>
 5   0  0.2595644E-04  0.1712424E+04  0.7818609E-02  0.8754310E-01
       -1   -1    0    0    0  501  0.00000000000E+00  0.00000000000E+00  0.51402022528E+03  0.51402022530E+03  0.50400001928E-02 0. -1.
        1   -1    0    0  501    0  0.00000000000E+00  0.00000000000E+00 -0.14262068326E+04  0.14262068326E+04  0.50400001928E-02 0.  1.
    10030    2    1    2    0    0  0.00000000000E+00  0.00000000000E+00 -0.91218660732E+03  0.19402270579E+04  0.17124241968E+04 0.  0.
        2    1    3    3  502    0 -0.19169883703E+03 -0.33421007833E+03 -0.13224381351E+04  0.13774205755E+04  0.25500000920E-02 0.  1.
       -2    1    3    3    0  502  0.19169883703E+03  0.33421007833E+03  0.41025152780E+03  0.56280648241E+03  0.25500000920E-02 0. -1.
</event>
<event>
 5   0  0.5198430E-04  0.1690947E+04  0.7818609E-02  0.8766544E-01
       -2   -1    0    0    0  501  0.00000000000E+00  0.00000000000E+00  0.70504212066E+03  0.70504212067E+03  0.25500000920E-02 0. -1.
        2   -1    0    0  501    0  0.00000000000E+00  0.00000000000E+00 -0.10138765645E+04  0.10138765645E+04  0.25500000920E-02 0.  1.
    10030    2    1    2    0    0  0.00000000000E+00  0.00000000000E+00 -0.30883444388E+03  0.17189186852E+04  0.16909472885E+04 0.  0.
        4    1    3    3  502    0 -0.32657679824E+03 -0.20559658211E+03  0.61029101157E+03  0.72206584979E+03  0.12699999809E+01 0. -1.
       -4    1    3    3    0  502  0.32657679824E+03  0.20559658211E+03 -0.91912545545E+03  0.99685283542E+03  0.12699999809E+01 0.  1.
</event>
<event>
 5   0  0.2561518E-04  0.1959382E+04  0.7818609E-02  0.8625850E-01
        1   -1    0    0  501    0  0.00000000000E+00  0.00000000000E+00  0.18774458645E+04  0.18774458645E+04  0.50400001928E-02 0.  1.
       -1   -1    0    0    0  501  0.00000000000E+00  0.00000000000E+00 -0.51122355770E+03  0.51122355772E+03  0.50400001928E-02 0. -1.
    10030    2    1    2    0    0  0.00000000000E+00  0.00000000000E+00  0.13662223068E+04  0.23886694222E+04  0.19593821008E+04 0.  0.
        4    1    3    3  502    0 -0.97838676468E+03 -0.19338954874E+02  0.74000879333E+03  0.12268778601E+04  0.12699999809E+01 0. -1.
       -4    1    3    3    0  502  0.97838676468E+03  0.19338954874E+02  0.62621351346E+03  0.11617915621E+04  0.12699999809E+01 0.  1.
</event>
<event>
 5   0  0.2630135E-04  0.1681075E+04  0.7818609E-02  0.8772232E-01
        1   -1    0    0  501    0  0.00000000000E+00  0.00000000000E+00  0.85870178813E+03  0.85870178814E+03  0.50400001928E-02 0. -1.
       -1   -1    0    0    0  501  0.00000000000E+00  0.00000000000E+00 -0.82275724220E+03  0.82275724222E+03  0.50400001928E-02 0.  1.
    10030    2    1    2    0    0  0.00000000000E+00  0.00000000000E+00  0.35944545928E+02  0.16814590304E+04  0.16810747932E+04 0.  0.
        1    1    3    3  502    0 -0.57270185562E+03 -0.42937221923E+03 -0.42275889434E+03  0.83130800600E+03  0.50400001928E-02 0.  1.
       -1    1    3    3    0  502  0.57270185562E+03  0.42937221923E+03  0.45870344027E+03  0.85015102436E+03  0.50400001928E-02 0. -1.
</event>
<event>
 5   0  0.2785059E-04  0.1691664E+04  0.7818609E-02  0.8766133E-01
       -1   -1    0    0    0  501  0.00000000000E+00  0.00000000000E+00  0.10021280014E+04  0.10021280014E+04  0.50400001928E-02 0. -1.
        1   -1    0    0  501    0  0.00000000000E+00  0.00000000000E+00 -0.71391269351E+03  0.71391269353E+03  0.50400001928E-02 0.  1.
    10030    2    1    2    0    0  0.00000000000E+00  0.00000000000E+00  0.28821530789E+03  0.17160406950E+04  0.16916641520E+04 0.  0.
        5    1    3    3  502    0  0.81371267222E+03  0.50209917984E+02 -0.84439711475E+02  0.81963498197E+03  0.46999998093E+01 0. -1.
       -5    1    3    3    0  502 -0.81371267222E+03 -0.50209917984E+02  0.37265501937E+03  0.89640571298E+03  0.46999998093E+01 0.  1.
</event>
<event>
 5   0  0.2583422E-04  0.1694275E+04  0.7818609E-02  0.8764637E-01
       -1   -1    0    0    0  501  0.00000000000E+00  0.00000000000E+00  0.56085590074E+03  0.56085590076E+03  0.50400001928E-02 0. -1.
        1   -1    0    0  501    0  0.00000000000E+00  0.00000000000E+00 -0.12795470814E+04  0.12795470814E+04  0.50400001928E-02 0.  1.
    10030    2    1    2    0    0  0.00000000000E+00  0.00000000000E+00 -0.71869118066E+03  0.18404029822E+04  0.16942745125E+04 0.  0.
        3    1    3    3  502    0 -0.32585546729E+03  0.51903009553E+03 -0.99465465851E+03  0.11682944516E+04  0.10100000352E+00 0.  1.
       -3    1    3    3    0  502  0.32585546729E+03 -0.51903009553E+03  0.27596347784E+03  0.67210853063E+03  0.10100000352E+00 0. -1.
</event>
<event>
 5   0  0.5021349E-04  0.1660005E+04  0.7818609E-02  0.8784509E-01
       -2   -1    0    0    0  501  0.00000000000E+00  0.00000000000E+00  0.74045301462E+03  0.74045301462E+03  0.25500000920E-02 0. -1.
        2   -1    0    0  501    0  0.00000000000E+00  0.00000000000E+00 -0.93038248093E+03  0.93038248093E+03  0.25500000920E-02 0.  1.
    10030    2    1    2    0    0  0.00000000000E+00  0.00000000000E+00 -0.18992946631E+03  0.16708354955E+04  0.16600054370E+04 0.  0.
        2    1    3    3  502    0  0.37635039827E+03 -0.43582136910E+03  0.50670152348E+03  0.76702432944E+03  0.25500000920E-02 0. -1.
       -2    1    3    3    0  502 -0.37635039827E+03  0.43582136910E+03 -0.69663098979E+03  0.90381116611E+03  0.25500000920E-02 0.  1.
</event>
<event>
 5   0  0.2561518E-04  0.1698474E+04  0.7818609E-02  0.8762235E-01
       -1   -1    0    0    0  501  0.00000000000E+00  0.00000000000E+00  0.14569411990E+04  0.14569411990E+04  0.50400001928E-02 0.  1.
        1   -1    0    0  501    0  0.00000000000E+00  0.00000000000E+00 -0.49501182142E+03  0.49501182145E+03  0.50400001928E-02 0. -1.
    10030    2    1    2    0    0  0.00000000000E+00  0.00000000000E+00  0.96192937756E+03  0.19519530204E+04  0.16984735696E+04 0.  0.
        4    1    3    3  502    0 -0.22828849891E+03  0.30293483723E+03  0.13541722671E+04  0.14062963045E+04  0.12699999809E+01 0.  1.
       -4    1    3    3    0  502  0.22828849891E+03 -0.30293483723E+03 -0.39224288951E+03  0.54565671591E+03  0.12699999809E+01 0. -1.
</event>
<event>
 5   0  0.5299877E-04  0.1720543E+04  0.7818609E-02  0.8749734E-01
       -2   -1    0    0    0  501  0.00000000000E+00  0.00000000000E+00  0.36049751666E+03  0.36049751667E+03  0.25500000920E-02 0. -1.
        2   -1    0    0  501    0  0.00000000000E+00  0.00000000000E+00 -0.20529038139E+04  0.20529038139E+04  0.25500000920E-02 0.  1.
    10030    2    1    2    0    0  0.00000000000E+00  0.00000000000E+00 -0.16924062972E+04  0.24134013305E+04  0.17205426201E+04 0.  0.
        3    1    3    3  502    0  0.76929241736E+03 -0.16424802756E+02 -0.30659984082E+03  0.82830191968E+03  0.10100000352E+00 0. -1.
       -3    1    3    3    0  502 -0.76929241736E+03  0.16424802756E+02 -0.13858064564E+04  0.15850994109E+04  0.10100000352E+00 0.  1.
</event>
<event>
 5   0  0.1910750E-04  0.1695751E+04  0.7818609E-02  0.8763792E-01
        3   -1    0    0  501    0  0.00000000000E+00  0.00000000000E+00  0.14921159430E+04  0.14921159464E+04  0.10100000352E+00 0.  1.
       -3   -1    0    0    0  501  0.00000000000E+00  0.00000000000E+00 -0.48179414282E+03  0.48179415341E+03  0.10100000352E+00 0. -1.
    10030    2    1    2    0    0  0.00000000000E+00  0.00000000000E+00  0.10103218002E+04  0.19739100998E+04  0.16957508491E+04 0.  0.
        5    1    3    3  502    0  0.84428258509E+03  0.36162043788E+02  0.42493656489E+03  0.94589320278E+03  0.46999998093E+01 0.  1.
       -5    1    3    3    0  502 -0.84428258509E+03 -0.36162043788E+02  0.58538523528E+03  0.10280168970E+04  0.46999998093E+01 0. -1.
</event>
<event>
 5   0  0.5198430E-04  0.1719097E+04  0.7818609E-02  0.8750547E-01
        2   -1    0    0  501    0  0.00000000000E+00  0.00000000000E+00  0.10901520838E+04  0.10901520838E+04  0.25500000920E-02 0. -1.
       -2   -1    0    0    0  501  0.00000000000E+00  0.00000000000E+00 -0.67772541634E+03  0.67772541634E+03  0.25500000920E-02 0.  1.
    10030    2    1    2    0    0  0.00000000000E+00  0.00000000000E+00  0.41242666748E+03  0.17678775002E+04  0.17190971757E+04 0.  0.
        4    1    3    3  502    0  0.26163230183E+03 -0.74469468213E+02 -0.63229119492E+03  0.68832472796E+03  0.12699999809E+01 0.  1.
       -4    1    3    3    0  502 -0.26163230183E+03  0.74469468213E+02  0.10447178624E+04  0.10795527722E+04  0.12699999809E+01 0. -1.
</event>
<event>
 5   0  0.2630135E-04  0.1665124E+04  0.7818609E-02  0.8781509E-01
       -1   -1    0    0    0  501  0.00000000000E+00  0.00000000000E+00  0.85224488729E+03  0.85224488730E+03  0.50400001928E-02 0. -1.
        1   -1    0    0  501    0  0.00000000000E+00  0.00000000000E+00 -0.81333330742E+03  0.81333330743E+03  0.50400001928E-02 0.  1.
    10030    2    1    2    0    0  0.00000000000E+00  0.00000000000E+00  0.38911579868E+02  0.16655781947E+04  0.16651236025E+04 0.  0.
        1    1    3    3  502    0  0.76871003452E+03 -0.87900289835E+02 -0.28806524991E+03  0.82560472767E+03  0.50400001928E-02 0.  1.
       -1    1    3    3    0  502 -0.76871003452E+03  0.87900289835E+02  0.32697682978E+03  0.83997346706E+03  0.50400001928E-02 0. -1.
</event>
<event>
 5   0  0.5342255E-04  0.1728327E+04  0.7818609E-02  0.8745372E-01
        2   -1    0    0  501    0  0.00000000000E+00  0.00000000000E+00  0.18433861339E+04  0.18433861339E+04  0.25500000920E-02 0.  1.
       -2   -1    0    0    0  501  0.00000000000E+00  0.00000000000E+00 -0.40511217993E+03  0.40511217994E+03  0.25500000920E-02 0. -1.
    10030    2    1    2    0    0  0.00000000000E+00  0.00000000000E+00  0.14382739539E+04  0.22484983138E+04  0.17283265608E+04 0.  0.
        5    1    3    3  502    0  0.73484208176E+03 -0.45450142402E+03  0.70112640403E+03  0.11127285176E+04  0.46999998093E+01 0. -1.
       -5    1    3    3    0  502 -0.73484208176E+03  0.45450142402E+03  0.73714754991E+03  0.11357697962E+04  0.46999998093E+01 0.  1.
</event>
<event>
 5   0  0.1910750E-04  0.1338891E+04  0.7818609E-02  0.8999280E-01
       -3   -1    0    0    0  501  0.00000000000E+00  0.00000000000E+00  0.23448803127E+03  0.23448805302E+03  0.10100000352E+00 0. -1.
        3   -1    0    0  501    0  0.00000000000E+00  0.00000000000E+00 -0.19112167363E+04  0.19112167390E+04  0.10100000352E+00 0.  1.
    10030    2    1    2    0    0  0.00000000000E+00  0.00000000000E+00 -0.16767287050E+04  0.21457047920E+04  0.13388912966E+04 0.  0.
        3    1    3    3  502    0 -0.18442844975E+03  0.34567831868E+03 -0.17082816339E+04  0.17526361585E+04  0.10100000352E+00 0.  1.
       -3    1    3    3    0  502  0.18442844975E+03 -0.34567831868E+03  0.31552928928E+02  0.39306863346E+03  0.10100000352E+00 0. -1.
</event>
<event>
 5   0  0.5310003E-04  0.1704429E+04  0.7818609E-02  0.8758842E-01
       -2   -1    0    0    0  501  0.00000000000E+00  0.00000000000E+00  0.64588325090E+03  0.64588325091E+03  0.25500000920E-02 0. -1.
        2   -1    0    0  501    0  0.00000000000E+00  0.00000000000E+00 -0.11244600271E+04  0.11244600271E+04  0.25500000920E-02 0.  1.
    10030    2    1    2    0    0  0.00000000000E+00  0.00000000000E+00 -0.47857677623E+03  0.17703432780E+04  0.17044294035E+04 0.  0.
        1    1    3    3  502    0  0.46755227551E+03  0.18014684497E+03  0.47672660108E+03  0.69161135639E+03  0.50400001928E-02 0. -1.
       -1    1    3    3    0  502 -0.46755227551E+03 -0.18014684497E+03 -0.95530337731E+03  0.10787319217E+04  0.50400001928E-02 0.  1.
</event>
<event>
 5   0  0.5299877E-04  0.1707511E+04  0.7818609E-02  0.8757092E-01
        2   -1    0    0  501    0  0.00000000000E+00  0.00000000000E+00  0.74457951605E+03  0.74457951606E+03  0.25500000920E-02 0. -1.
       -2   -1    0    0    0  501  0.00000000000E+00  0.00000000000E+00 -0.97894006611E+03  0.97894006612E+03  0.25500000920E-02 0.  1.
    10030    2    1    2    0    0  0.00000000000E+00  0.00000000000E+00 -0.23436055006E+03  0.17235195822E+04  0.17075113126E+04 0.  0.
        3    1    3    3  502    0 -0.67152795336E+03 -0.13862043968E+03  0.39624682676E+03  0.79194505893E+03  0.10100000352E+00 0. -1.
       -3    1    3    3    0  502  0.67152795336E+03  0.13862043968E+03 -0.63060737682E+03  0.93157452324E+03  0.10100000352E+00 0.  1.
</event>
<event>
 5   0  0.2630135E-04  0.1682384E+04  0.7818609E-02  0.8771475E-01
        1   -1    0    0  501    0  0.00000000000E+00  0.00000000000E+00  0.13416214824E+04  0.13416214824E+04  0.50400001928E-02 0. -1.
       -1   -1    0    0    0  501  0.00000000000E+00  0.00000000000E+00 -0.52742474442E+03  0.52742474445E+03  0.50400001928E-02 0.  1.
    10030    2    1    2    0    0  0.00000000000E+00  0.00000000000E+00  0.81419673793E+03  0.18690462268E+04  0.16823844596E+04 0.  0.
        1    1    3    3  502    0  0.22773237643E+03 -0.43871426391E+03 -0.34906020412E+03  0.60512417466E+03  0.50400001928E-02 0.  1.
       -1    1    3    3    0  502 -0.22773237643E+03  0.43871426391E+03  0.11632569421E+04  0.12639220521E+04  0.50400001928E-02 0. -1.
</event>
<event>
 5   0  0.2595644E-04  0.1689243E+04  0.7818609E-02  0.8767524E-01
       -1   -1    0    0    0  501  0.00000000000E+00  0.00000000000E+00  0.80433254125E+03  0.80433254126E+03  0.50400001928E-02 0.  1.
        1   -1    0    0  501    0  0.00000000000E+00  0.00000000000E+00 -0.88692819248E+03  0.88692819249E+03  0.50400001928E-02 0. -1.
    10030    2    1    2    0    0  0.00000000000E+00  0.00000000000E+00 -0.82595651232E+02  0.16912607338E+04  0.16892426788E+04 0.  0.
        2    1    3    3  502    0  0.77696824170E+03  0.32705267537E+03 -0.93725504752E+02  0.84819076352E+03  0.25500000920E-02 0.  1.
       -2    1    3    3    0  502 -0.77696824170E+03 -0.32705267537E+03  0.11129853520E+02  0.84306997024E+03  0.25500000920E-02 0. -1.
</event>
<event>
 5   0  0.5310003E-04  0.1724746E+04  0.7818609E-02  0.8747376E-01
       -2   -1    0    0    0  501  0.00000000000E+00  0.00000000000E+00  0.27430960897E+03  0.27430960899E+03  0.25500000920E-02 0.  1.
        2   -1    0    0  501    0  0.00000000000E+00  0.00000000000E+00 -0.27111222046E+04  0.27111222046E+04  0.25500000920E-02 0. -1.
    10030    2    1    2    0    0  0.00000000000E+00  0.00000000000E+00 -0.24368125957E+04  0.29854318136E+04  0.17247456298E+04 0.  0.
        1    1    3    3  502    0 -0.25671981935E+03 -0.56319307590E+03 -0.22578289414E+04  0.23411285815E+04  0.50400001928E-02 0. -1.
       -1    1    3    3    0  502  0.25671981935E+03  0.56319307590E+03 -0.17898365421E+03  0.64430323209E+03  0.50400001928E-02 0.  1.
</event>
<event>
 5   0  0.5299877E-04  0.1704983E+04  0.7818609E-02  0.8758527E-01
        2   -1    0    0  501    0  0.00000000000E+00  0.00000000000E+00  0.49107066521E+03  0.49107066521E+03  0.25500000920E-02 0. -1.
       -2   -1    0    0    0  501  0.00000000000E+00  0.00000000000E+00 -0.14799133293E+04  0.14799133293E+04  0.25500000920E-02 0.  1.
    10030    2    1    2    0    0  0.00000000000E+00  0.00000000000E+00 -0.98884266407E+03  0.19709839945E+04  0.17049833114E+04 0.  0.
        3    1    3    3  502    0 -0.66348234304E+03 -0.15568836355E+03  0.97627343344E+02  0.68846117860E+03  0.10100000352E+00 0. -1.
       -3    1    3    3    0  502  0.66348234304E+03  0.15568836355E+03 -0.10864700074E+04  0.12825228159E+04  0.10100000352E+00 0.  1.
</event>
<event>
 5   0  0.2785059E-04  0.1713234E+04  0.7818609E-02  0.8753852E-01
       -1   -1    0    0    0  501  0.00000000000E+00  0.00000000000E+00  0.10424408056E+04  0.10424408056E+04  0.50400001928E-02 0.  1.
        1   -1    0    0  501    0  0.00000000000E+00  0.00000000000E+00 -0.70391783933E+03  0.70391783935E+03  0.50400001928E-02 0. -1.
    10030    2    1    2    0    0  0.00000000000E+00  0.00000000000E+00  0.33852296624E+03  0.17463586449E+04  0.17132339940E+04 0.  0.
        5    1    3    3  502    0 -0.71231676697E+03 -0.32855547476E+03  0.52004695073E+03  0.94117734644E+03  0.46999998093E+01 0.  1.
       -5    1    3    3    0  502  0.71231676697E+03  0.32855547476E+03 -0.18152398449E+03  0.80518129849E+03  0.46999998093E+01 0. -1.
</event>
<event>
 5   0  0.5299877E-04  0.1717300E+04  0.7818609E-02  0.8751559E-01
        2   -1    0    0  501    0  0.00000000000E+00  0.00000000000E+00  0.15006800556E+04  0.15006800556E+04  0.25500000920E-02 0. -1.
       -2   -1    0    0    0  501  0.00000000000E+00  0.00000000000E+00 -0.49129694135E+03  0.49129694136E+03  0.25500000920E-02 0.  1.
    10030    2    1    2    0    0  0.00000000000E+00  0.00000000000E+00  0.10093831143E+04  0.19919769970E+04  0.17172996492E+04 0.  0.
        3    1    3    3  502    0 -0.52664331026E+03  0.64977815360E+03  0.72995643576E+03  0.11101356824E+04  0.10100000352E+00 0.  1.
       -3    1    3    3    0  502  0.52664331026E+03 -0.64977815360E+03  0.27942667850E+03  0.88184131452E+03  0.10100000352E+00 0. -1.
</event>
<event>
 5   0  0.2595644E-04  0.1710954E+04  0.7818609E-02  0.8755141E-01
        1   -1    0    0  501    0  0.00000000000E+00  0.00000000000E+00  0.75887005895E+03  0.75887005897E+03  0.50400001928E-02 0. -1.
       -1   -1    0    0    0  501  0.00000000000E+00  0.00000000000E+00 -0.96438225505E+03  0.96438225506E+03  0.50400001928E-02 0.  1.
    10030    2    1    2    0    0  0.00000000000E+00  0.00000000000E+00 -0.20551219610E+03  0.17232523140E+04  0.17109539079E+04 0.  0.
        2    1    3    3  502    0  0.26672066619E+03 -0.25168431762E+03  0.67568748398E+03  0.76879027409E+03  0.25500000920E-02 0. -1.
       -2    1    3    3    0  502 -0.26672066619E+03  0.25168431762E+03 -0.88119968008E+03  0.95446203994E+03  0.25500000920E-02 0.  1.
</event>
<event>
 5   0  0.2561518E-04  0.1705258E+04  0.7818609E-02  0.8758371E-01
       -1   -1    0    0    0  501  0.00000000000E+00  0.00000000000E+00  0.25274584636E+03  0.25274584641E+03  0.50400001928E-02 0.  1.
        1   -1    0    0  501    0  0.00000000000E+00  0.00000000000E+00 -0.28763135560E+04  0.28763135560E+04  0.50400001928E-02 0. -1.
    10030    2    1    2    0    0  0.00000000000E+00  0.00000000000E+00 -0.26235677096E+04  0.31290594024E+04  0.17052581085E+04 0.  0.
        4    1    3    3  502    0  0.49067278575E+03  0.64908875535E+03 -0.84432685118E+03  0.11725892032E+04  0.12699999809E+01 0.  1.
       -4    1    3    3    0  502 -0.49067278575E+03 -0.64908875535E+03 -0.17792408584E+04  0.19564701992E+04  0.12699999809E+01 0. -1.
</event>
<event>
 5   0  0.5299877E-04  0.1678437E+04  0.7818609E-02  0.8773759E-01
       -2   -1    0    0    0  501  0.00000000000E+00  0.00000000000E+00  0.56513075957E+03  0.56513075958E+03  0.25500000920E-02 0. -1.
        2   -1    0    0  501    0  0.00000000000E+00  0.00000000000E+00 -0.12462380267E+04  0.12462380267E+04  0.25500000920E-02 0.  1.
    10030    2    1    2    0    0  0.00000000000E+00  0.00000000000E+00 -0.68110726715E+03  0.18113687863E+04  0.16784367044E+04 0.  0.
        3    1    3    3  502    0  0.14649958002E+03  0.70912433364E+03 -0.79837866984E+03  0.10778348473E+04  0.10100000352E+00 0.  1.
       -3    1    3    3    0  502 -0.14649958002E+03 -0.70912433364E+03  0.11727140269E+03  0.73353393895E+03  0.10100000352E+00 0. -1.
</event>
<event>
 5   0  0.2583422E-04  0.1713600E+04  0.7818609E-02  0.8753646E-01
        1   -1    0    0  501    0  0.00000000000E+00  0.00000000000E+00  0.16989411780E+04  0.16989411780E+04  0.50400001928E-02 0. -1.
       -1   -1    0    0    0  501  0.00000000000E+00  0.00000000000E+00 -0.43209621081E+03  0.43209621084E+03  0.50400001928E-02 0.  1.
    10030    2    1    2    0    0  0.00000000000E+00  0.00000000000E+00  0.12668449672E+04  0.21310373888E+04  0.17135997729E+04 0.  0.
        3    1    3    3  502    0  0.35184076135E+03 -0.60306670771E+03  0.12510120113E+04  0.14326592191E+04  0.10100000352E+00 0. -1.
       -3    1    3    3    0  502 -0.35184076135E+03  0.60306670771E+03  0.15832955834E+02  0.69837816975E+03  0.10100000352E+00 0.  1.
</event>
<event>
 5   0  0.2630135E-04  0.1682630E+04  0.7818609E-02  0.8771334E-01
       -1   -1    0    0    0  501  0.00000000000E+00  0.00000000000E+00  0.41590947307E+03  0.41590947310E+03  0.50400001928E-02 0.  1.
        1   -1    0    0  501    0  0.00000000000E+00  0.00000000000E+00 -0.17018389854E+04  0.17018389854E+04  0.50400001928E-02 0. -1.
    10030    2    1    2    0    0  0.00000000000E+00  0.00000000000E+00 -0.12859295123E+04  0.21177484585E+04  0.16826300315E+04 0.  0.
        1    1    3    3  502    0  0.63084367320E+03  0.40092678880E+03 -0.11289596807E+04  0.13539778398E+04  0.50400001928E-02 0. -1.
       -1    1    3    3    0  502 -0.63084367320E+03 -0.40092678880E+03 -0.15696983167E+03  0.76377061876E+03  0.50400001928E-02 0.  1.
</event>
<event>
 5   0  0.2561518E-04  0.1699191E+04  0.7818609E-02  0.8761826E-01
       -1   -1    0    0    0  501  0.00000000000E+00  0.00000000000E+00  0.67882938939E+03  0.67882938941E+03  0.50400001928E-02 0.  1.
        1   -1    0    0  501    0  0.00000000000E+00  0.00000000000E+00 -0.10633199854E+04  0.10633199854E+04  0.50400001928E-02 0. -1.
    10030    2    1    2    0    0  0.00000000000E+00  0.00000000000E+00 -0.38449059598E+03  0.17421493748E+04  0.16991914035E+04 0.  0.
        4    1    3    3  502    0 -0.46614028160E+03  0.49101180221E+03 -0.71847730818E+03  0.98721355709E+03  0.12699999809E+01 0. -1.
       -4    1    3    3    0  502  0.46614028160E+03 -0.49101180221E+03  0.33398671220E+03  0.75493581771E+03  0.12699999809E+01 0.  1.
</event>
<event>
 5   0  0.5021349E-04  0.1376904E+04  0.7818609E-02  0.8970708E-01
        2   -1    0    0  501    0  0.00000000000E+00  0.00000000000E+00  0.15130910587E+04  0.15130910587E+04  0.25500000920E-02 0. -1.
       -2   -1    0    0    0  501  0.00000000000E+00  0.00000000000E+00 -0.31324362088E+03  0.31324362089E+03  0.25500000920E-02 0.  1.
    10030    2    1    2    0    0  0.00000000000E+00  0.00000000000E+00  0.11998474379E+04  0.18263346796E+04  0.13769039501E+04 0.  0.
        2    1    3    3  502    0  0.29091945927E+03 -0.50547121089E+03  0.10851617483E+04  0.12319542592E+04  0.25500000920E-02 0. -1.
       -2    1    3    3    0  502 -0.29091945927E+03  0.50547121089E+03  0.11468568961E+03  0.59438042046E+03  0.25500000920E-02 0.  1.
</event>
<event>
 5   0  0.5021349E-04  0.1699306E+04  0.7818609E-02  0.8761760E-01
        2   -1    0    0  501    0  0.00000000000E+00  0.00000000000E+00  0.55215528869E+03  0.55215528870E+03  0.25500000920E-02 0.  1.
       -2   -1    0    0    0  501  0.00000000000E+00  0.00000000000E+00 -0.13074400147E+04  0.13074400147E+04  0.25500000920E-02 0. -1.
    10030    2    1    2    0    0  0.00000000000E+00  0.00000000000E+00 -0.75528472598E+03  0.18595953034E+04  0.16993056450E+04 0.  0.
        2    1    3    3  502    0  0.59790880393E+03  0.47362436649E+03 -0.78724068228E+03  0.10961582323E+04  0.25500000920E-02 0. -1.
       -2    1    3    3    0  502 -0.59790880393E+03 -0.47362436649E+03  0.31955956304E+02  0.76343707108E+03  0.25500000920E-02 0.  1.
</event>
<event>
 5   0  0.5021349E-04  0.1698525E+04  0.7818609E-02  0.8762206E-01
       -2   -1    0    0    0  501  0.00000000000E+00  0.00000000000E+00  0.11889677985E+04  0.11889677985E+04  0.25500000920E-02 0.  1.
        2   -1    0    0  501    0  0.00000000000E+00  0.00000000000E+00 -0.60661574841E+03  0.60661574841E+03  0.25500000920E-02 0. -1.
    10030    2    1    2    0    0  0.00000000000E+00  0.00000000000E+00  0.58235205005E+03  0.17955835469E+04  0.16985247610E+04 0.  0.
        2    1    3    3  502    0 -0.39391622313E+03 -0.45058998682E+03 -0.34578685313E+03  0.69120899507E+03  0.25500000920E-02 0. -1.
       -2    1    3    3    0  502  0.39391622313E+03  0.45058998682E+03  0.92813890317E+03  0.11043745518E+04  0.25500000920E-02 0.  1.
</event>
<event>
 5   0  0.2595644E-04  0.1682094E+04  0.7818609E-02  0.8771643E-01
        1   -1    0    0  501    0  0.00000000000E+00  0.00000000000E+00  0.19375312581E+04  0.19375312581E+04  0.50400001928E-02 0.  1.
       -1   -1    0    0    0  501  0.00000000000E+00  0.00000000000E+00 -0.36508299292E+03  0.36508299296E+03  0.50400001928E-02 0. -1.
    10030    2    1    2    0    0  0.00000000000E+00  0.00000000000E+00  0.15724482652E+04  0.23026142511E+04  0.16820935891E+04 0.  0.
        2    1    3    3  502    0 -0.64398887007E+03  0.51642144393E+03  0.56572134174E+03  0.10007264407E+04  0.25500000920E-02 0. -1.
       -2    1    3    3    0  502  0.64398887007E+03 -0.51642144393E+03  0.10067269234E+04  0.13018878104E+04  0.25500000920E-02 0.  1.
</event>
<event>
 5   0  0.2561518E-04  0.1642362E+04  0.7818609E-02  0.8794938E-01
       -1   -1    0    0    0  501  0.00000000000E+00  0.00000000000E+00  0.58482172356E+03  0.58482172358E+03  0.50400001928E-02 0. -1.
        1   -1    0    0  501    0  0.00000000000E+00  0.00000000000E+00 -0.11530658676E+04  0.11530658676E+04  0.50400001928E-02 0.  1.
    10030    2    1    2    0    0  0.00000000000E+00  0.00000000000E+00 -0.56824414401E+03  0.17378875912E+04  0.16423616752E+04 0.  0.
        4    1    3    3  502    0 -0.83929672386E+02  0.55411958730E+03 -0.91923513618E+03  0.10766092863E+04  0.12699999809E+01 0.  1.
       -4    1    3    3    0  502  0.83929672386E+02 -0.55411958730E+03  0.35099099217E+03  0.66127830482E+03  0.12699999809E+01 0. -1.
</event>
<event>
 5   0  0.2583422E-04  0.1710382E+04  0.7818609E-02  0.8755465E-01
        1   -1    0    0  501    0  0.00000000000E+00  0.00000000000E+00  0.10493415369E+04  0.10493415369E+04  0.50400001928E-02 0. -1.
       -1   -1    0    0    0  501  0.00000000000E+00  0.00000000000E+00 -0.69696228884E+03  0.69696228886E+03  0.50400001928E-02 0.  1.
    10030    2    1    2    0    0  0.00000000000E+00  0.00000000000E+00  0.35237924805E+03  0.17463038258E+04  0.17103818046E+04 0.  0.
        3    1    3    3  502    0  0.30472557423E+03 -0.75895235040E+03 -0.79030581188E+02  0.82165210931E+03  0.10100000352E+00 0.  1.
       -3    1    3    3    0  502 -0.30472557423E+03  0.75895235040E+03  0.43140982924E+03  0.92465171645E+03  0.10100000352E+00 0. -1.
</event>
<event>
 5   0  0.5342255E-04  0.1815576E+04  0.7818609E-02  0.8698060E-01
        2   -1    0    0  501    0  0.00000000000E+00  0.00000000000E+00  0.11088185717E+04  0.11088185717E+04  0.25500000920E-02 0.  1.
       -2   -1    0    0    0  501  0.00000000000E+00  0.00000000000E+00 -0.74320443881E+03  0.74320443881E+03  0.25500000920E-02 0. -1.
    10030    2    1    2    0    0  0.00000000000E+00  0.00000000000E+00  0.36561413286E+03  0.18520230105E+04  0.18155758142E+04 0.  0.
        5    1    3    3  502    0  0.66808306729E+03 -0.93869046073E+02 -0.43676587949E+03  0.80369951231E+03  0.46999998093E+01 0. -1.
       -5    1    3    3    0  502 -0.66808306729E+03  0.93869046073E+02  0.80238001234E+03  0.10483234982E+04  0.46999998093E+01 0.  1.
</event>
<event>
 5   0  0.2561518E-04  0.1701277E+04  0.7818609E-02  0.8760636E-01
        1   -1    0    0  501    0  0.00000000000E+00  0.00000000000E+00  0.13082245213E+04  0.13082245213E+04  0.50400001928E-02 0. -1.
       -1   -1    0    0    0  501  0.00000000000E+00  0.00000000000E+00 -0.55310545135E+03  0.55310545137E+03  0.50400001928E-02 0.  1.
    10030    2    1    2    0    0  0.00000000000E+00  0.00000000000E+00  0.75511906990E+03  0.18613299726E+04  0.17012773017E+04 0.  0.
        4    1    3    3  502    0 -0.38021699599E+03  0.36996140307E+03  0.11050581040E+04  0.12258023617E+04  0.12699999809E+01 0. -1.
       -4    1    3    3    0  502  0.38021699599E+03 -0.36996140307E+03 -0.34993903409E+03  0.63552761095E+03  0.12699999809E+01 0.  1.
</event>
<event>
 5   0  0.5342255E-04  0.1445953E+04  0.7818609E-02  0.8921211E-01
        2   -1    0    0  501    0  0.00000000000E+00  0.00000000000E+00  0.14374069763E+04  0.14374069763E+04  0.25500000920E-02 0. -1.
       -2   -1    0    0    0  501  0.00000000000E+00  0.00000000000E+00 -0.36363738361E+03  0.36363738362E+03  0.25500000920E-02 0.  1.
    10030    2    1    2    0    0  0.00000000000E+00  0.00000000000E+00  0.10737695927E+04  0.18010443599E+04  0.14459528513E+04 0.  0.
        5    1    3    3  502    0 -0.28432279890E+03 -0.34440450948E+03 -0.17125443124E+03  0.47833470535E+03  0.46999998093E+01 0.  1.
       -5    1    3    3    0  502  0.28432279890E+03  0.34440450948E+03  0.12450240239E+04  0.13227096545E+04  0.46999998093E+01 0. -1.
</event>
<event>
 5   0  0.2561518E-04  0.1666352E+04  0.7818609E-02  0.8780791E-01
        1   -1    0    0  501    0  0.00000000000E+00  0.00000000000E+00  0.78761137940E+03  0.78761137941E+03  0.50400001928E-02 0. -1.
       -1   -1    0    0    0  501  0.00000000000E+00  0.00000000000E+00 -0.88137684539E+03  0.88137684541E+03  0.50400001928E-02 0.  1.
    10030    2    1    2    0    0  0.00000000000E+00  0.00000000000E+00 -0.93765465996E+02  0.16689882248E+04  0.16663522233E+04 0.  0.
        4    1    3    3  502    0  0.31606607854E+03  0.63399139825E+03  0.39237455032E+03  0.80981618883E+03  0.12699999809E+01 0. -1.
       -4    1    3    3    0  502 -0.31606607854E+03 -0.63399139825E+03 -0.48614001632E+03  0.85917203599E+03  0.12699999809E+01 0.  1.
</event>
<event>
 5   0  0.2785059E-04  0.1681933E+04  0.7818609E-02  0.8771736E-01
        1   -1    0    0  501    0  0.00000000000E+00  0.00000000000E+00  0.11808941762E+04  0.11808941762E+04  0.50400001928E-02 0. -1.
       -1   -1    0    0    0  501  0.00000000000E+00  0.00000000000E+00 -0.59888882947E+03  0.59888882949E+03  0.50400001928E-02 0.  1.
    10030    2    1    2    0    0  0.00000000000E+00  0.00000000000E+00  0.58200534675E+03  0.17797830057E+04  0.16819326157E+04 0.  0.
        5    1    3    3  502    0 -0.72306373736E+03  0.32230058341E+02 -0.16209287581E+03  0.74172510766E+03  0.46999998093E+01 0.  1.
       -5    1    3    3    0  502  0.72306373736E+03 -0.32230058341E+02  0.74409822255E+03  0.10380578981E+04  0.46999998093E+01 0. -1.
</event>
<event>
 5   0  0.2583422E-04  0.1685919E+04  0.7818609E-02  0.8769436E-01
        1   -1    0    0  501    0  0.00000000000E+00  0.00000000000E+00  0.92284091274E+03  0.92284091275E+03  0.50400001928E-02 0.  1.
       -1   -1    0    0    0  501  0.00000000000E+00  0.00000000000E+00 -0.76999236272E+03  0.76999236274E+03  0.50400001928E-02 0. -1.
    10030    2    1    2    0    0  0.00000000000E+00  0.00000000000E+00  0.15284855002E+03  0.16928332755E+04  0.16859186871E+04 0.  0.
        3    1    3    3  502    0  0.61335928967E+03  0.43875279467E+03  0.45462117686E+03  0.88056462438E+03  0.10100000352E+00 0.  1.
       -3    1    3    3    0  502 -0.61335928967E+03 -0.43875279467E+03 -0.30177262685E+03  0.81226865111E+03  0.10100000352E+00 0. -1.
</event>
<event>
 5   0  0.2630135E-04  0.1730740E+04  0.7818609E-02  0.8744024E-01
       -1   -1    0    0    0  501  0.00000000000E+00  0.00000000000E+00  0.81692132281E+03  0.81692132283E+03  0.50400001928E-02 0.  1.
        1   -1    0    0  501    0  0.00000000000E+00  0.00000000000E+00 -0.91669233627E+03  0.91669233629E+03  0.50400001928E-02 0. -1.
    10030    2    1    2    0    0  0.00000000000E+00  0.00000000000E+00 -0.99771013459E+02  0.17336136591E+04  0.17307403225E+04 0.  0.
        1    1    3    3  502    0 -0.60156426733E+03 -0.57462094275E+03  0.18883077307E+03  0.85306849458E+03  0.50400001928E-02 0.  1.
       -1    1    3    3    0  502  0.60156426733E+03  0.57462094275E+03 -0.28860178653E+03  0.88054516453E+03  0.50400001928E-02 0. -1.
</event>
<event>
 5   0  0.5198430E-04  0.1693092E+04  0.7818609E-02  0.8765314E-01
        2   -1    0    0  501    0  0.00000000000E+00  0.00000000000E+00  0.90279118709E+03  0.90279118710E+03  0.25500000920E-02 0.  1.
       -2   -1    0    0    0  501  0.00000000000E+00  0.00000000000E+00 -0.79380536334E+03  0.79380536334E+03  0.25500000920E-02 0. -1.
    10030    2    1    2    0    0  0.00000000000E+00  0.00000000000E+00  0.10898582375E+03  0.16965965504E+04  0.16930924207E+04 0.  0.
        4    1    3    3  502    0  0.19434693526E+03  0.42294772058E+03  0.76305138020E+03  0.89381459336E+03  0.12699999809E+01 0.  1.
       -4    1    3    3    0  502 -0.19434693526E+03 -0.42294772058E+03 -0.65406555644E+03  0.80278195708E+03  0.12699999809E+01 0. -1.
</event>
<event>
 5   0  0.5021349E-04  0.1689929E+04  0.7818609E-02  0.8767129E-01
        2   -1    0    0  501    0  0.00000000000E+00  0.00000000000E+00  0.21687045822E+04  0.21687045822E+04  0.25500000920E-02 0.  1.
       -2   -1    0    0    0  501  0.00000000000E+00  0.00000000000E+00 -0.32921251435E+03  0.32921251436E+03  0.25500000920E-02 0. -1.
    10030    2    1    2    0    0  0.00000000000E+00  0.00000000000E+00  0.18394920678E+04  0.24979170965E+04  0.16899286238E+04 0.  0.
        2    1    3    3  502    0 -0.22266907053E+03  0.30199508864E+03 -0.19932069314E+03  0.42486619924E+03  0.25500000920E-02 0. -1.
       -2    1    3    3    0  502  0.22266907053E+03 -0.30199508864E+03  0.20388127610E+04  0.20730508973E+04  0.25500000920E-02 0.  1.
</event>
<event>
 5   0  0.2583422E-04  0.1723198E+04  0.7818609E-02  0.8748243E-01
        1   -1    0    0  501    0  0.00000000000E+00  0.00000000000E+00  0.12579953774E+04  0.12579953774E+04  0.50400001928E-02 0.  1.
       -1   -1    0    0    0  501  0.00000000000E+00  0.00000000000E+00 -0.59010775026E+03  0.59010775028E+03  0.50400001928E-02 0. -1.
    10030    2    1    2    0    0  0.00000000000E+00  0.00000000000E+00  0.66788762713E+03  0.18481031277E+04  0.17231979828E+04 0.  0.
        3    1    3    3  502    0  0.36172272602E+03  0.39095934273E+03  0.10602781701E+04  0.11865421807E+04  0.10100000352E+00 0.  1.
       -3    1    3    3    0  502 -0.36172272602E+03 -0.39095934273E+03 -0.39239054301E+03  0.66156094703E+03  0.10100000352E+00 0. -1.
</event>
<event>
 5   0  0.5299877E-04  0.1672110E+04  0.7818609E-02  0.8777433E-01
        2   -1    0    0  501    0  0.00000000000E+00  0.00000000000E+00  0.87441141976E+03  0.87441141976E+03  0.25500000920E-02 0.  1.
       -2   -1    0    0    0  501  0.00000000000E+00  0.00000000000E+00 -0.79938147811E+03  0.79938147812E+03  0.25500000920E-02 0. -1.
    10030    2    1    2    0    0  0.00000000000E+00  0.00000000000E+00  0.75029941646E+02  0.16737928979E+04  0.16721103949E+04 0.  0.
        3    1    3    3  502    0  0.72449691322E+03 -0.91287630211E+02  0.44505984044E+03  0.85516517730E+03  0.10100000352E+00 0.  1.
       -3    1    3    3    0  502 -0.72449691322E+03  0.91287630211E+02 -0.37002989879E+03  0.81862772058E+03  0.10100000352E+00 0. -1.
</event>
<event>
 5   0  0.2630135E-04  0.1657954E+04  0.7818609E-02  0.8785715E-01
        1   -1    0    0  501    0  0.00000000000E+00  0.00000000000E+00  0.19008989383E+04  0.19008989383E+04  0.50400001928E-02 0.  1.
       -1   -1    0    0    0  501  0.00000000000E+00  0.00000000000E+00 -0.36151469151E+03  0.36151469154E+03  0.50400001928E-02 0. -1.
    10030    2    1    2    0    0  0.00000000000E+00  0.00000000000E+00  0.15393842468E+04  0.22624136298E+04  0.16579540323E+04 0.  0.
        1    1    3    3  502    0  0.85963935450E+02 -0.15608947770E+03  0.18744548981E+04  0.18829059690E+04  0.50400001928E-02 0.  1.
       -1    1    3    3    0  502 -0.85963935450E+02  0.15608947770E+03 -0.33507065128E+03  0.37950766082E+03  0.50400001928E-02 0. -1.
</event>
<event>
 5   0  0.2561518E-04  0.1693929E+04  0.7818609E-02  0.8764834E-01
       -1   -1    0    0    0  501  0.00000000000E+00  0.00000000000E+00  0.31232512763E+03  0.31232512767E+03  0.50400001928E-02 0. -1.
        1   -1    0    0  501    0  0.00000000000E+00  0.00000000000E+00 -0.22968015217E+04  0.22968015217E+04  0.50400001928E-02 0.  1.
    10030    2    1    2    0    0  0.00000000000E+00  0.00000000000E+00 -0.19844763941E+04  0.26091266494E+04  0.16939289577E+04 0.  0.
        4    1    3    3  502    0 -0.42427423620E+03  0.31541928553E+03 -0.20114449195E+04  0.20797620610E+04  0.12699999809E+01 0.  1.
       -4    1    3    3    0  502  0.42427423620E+03 -0.31541928553E+03  0.26968525431E+02  0.52936458840E+03  0.12699999809E+01 0. -1.
</event>
<event>
 5   0  0.2785059E-04  0.1703619E+04  0.7818609E-02  0.8759303E-01
       -1   -1    0    0    0  501  0.00000000000E+00  0.00000000000E+00  0.89695734298E+03  0.89695734299E+03  0.50400001928E-02 0. -1.
        1   -1    0    0  501    0  0.00000000000E+00  0.00000000000E+00 -0.80893390756E+03  0.80893390758E+03  0.50400001928E-02 0.  1.
    10030    2    1    2    0    0  0.00000000000E+00  0.00000000000E+00  0.88023435417E+02  0.17058912506E+04  0.17036187465E+04 0.  0.
        5    1    3    3  502    0 -0.41099055385E+03 -0.46122325181E+03 -0.54321492313E+03  0.82264492102E+03  0.46999998093E+01 0.  1.
       -5    1    3    3    0  502  0.41099055385E+03  0.46122325181E+03  0.63123835855E+03  0.88324632955E+03  0.46999998093E+01 0. -1.
</event>
<event>
 5   0  0.5299877E-04  0.1792358E+04  0.7818609E-02  0.8710374E-01
       -2   -1    0    0    0  501  0.00000000000E+00  0.00000000000E+00  0.82025586533E+03  0.82025586533E+03  0.25500000920E-02 0. -1.
        2   -1    0    0  501    0  0.00000000000E+00  0.00000000000E+00 -0.97912976140E+03  0.97912976141E+03  0.25500000920E-02 0.  1.
    10030    2    1    2    0    0  0.00000000000E+00  0.00000000000E+00 -0.15887389608E+03  0.17993856267E+04  0.17923581447E+04 0.  0.
        3    1    3    3  502    0 -0.37482229929E+03 -0.73834456616E+03  0.26467873124E+03  0.86930966600E+03  0.10100000352E+00 0. -1.
       -3    1    3    3    0  502  0.37482229929E+03  0.73834456616E+03 -0.42355262732E+03  0.93007596074E+03  0.10100000352E+00 0.  1.
</event>
<event>
 5   0  0.2630135E-04  0.1627354E+04  0.7818609E-02  0.8803917E-01
       -1   -1    0    0    0  501  0.00000000000E+00  0.00000000000E+00  0.50609915541E+03  0.50609915544E+03  0.50400001928E-02 0. -1.
        1   -1    0    0  501    0  0.00000000000E+00  0.00000000000E+00 -0.13081833303E+04  0.13081833303E+04  0.50400001928E-02 0.  1.
    10030    2    1    2    0    0  0.00000000000E+00  0.00000000000E+00 -0.80208417490E+03  0.18142824858E+04  0.16273542683E+04 0.  0.
        1    1    3    3  502    0 -0.20212673073E+03  0.44356675524E+02  0.47627183002E+03  0.51928564975E+03  0.50400001928E-02 0. -1.
       -1    1    3    3    0  502  0.20212673073E+03 -0.44356675524E+02 -0.12783560049E+04  0.12949968360E+04  0.50400001928E-02 0.  1.
</event>
<event>
 5   0  0.5310003E-04  0.1698428E+04  0.7818609E-02  0.8762261E-01
       -2   -1    0    0    0  501  0.00000000000E+00  0.00000000000E+00  0.69439269480E+03  0.69439269481E+03  0.25500000920E-02 0.  1.
        2   -1    0    0  501    0  0.00000000000E+00  0.00000000000E+00 -0.10385545541E+04  0.10385545541E+04  0.25500000920E-02 0. -1.
    10030    2    1    2    0    0  0.00000000000E+00  0.00000000000E+00 -0.34416185933E+03  0.17329472489E+04  0.16984283271E+04 0.  0.
        1    1    3    3  502    0 -0.46538128563E+03  0.52650823173E+03 -0.65860973062E+03  0.96309783323E+03  0.50400001928E-02 0. -1.
       -1    1    3    3    0  502  0.46538128563E+03 -0.52650823173E+03  0.31444787128E+03  0.76984941571E+03  0.50400001928E-02 0.  1.
</event>
<event>
 5   0  0.2561518E-04  0.1658859E+04  0.7818609E-02  0.8785183E-01
        1   -1    0    0  501    0  0.00000000000E+00  0.00000000000E+00  0.83190967880E+03  0.83190967882E+03  0.50400001928E-02 0.  1.
       -1   -1    0    0    0  501  0.00000000000E+00  0.00000000000E+00 -0.82695633589E+03  0.82695633591E+03  0.50400001928E-02 0. -1.
    10030    2    1    2    0    0  0.00000000000E+00  0.00000000000E+00  0.49533429131E+01  0.16588660147E+04  0.16588586194E+04 0.  0.
        4    1    3    3  502    0 -0.64087267855E+03  0.34884167947E+03  0.39686790653E+03  0.83061065222E+03  0.12699999809E+01 0. -1.
       -4    1    3    3    0  502  0.64087267855E+03 -0.34884167947E+03 -0.39191456361E+03  0.82825536251E+03  0.12699999809E+01 0.  1.
</event>
<event>
 5   0  0.2785059E-04  0.1711844E+04  0.7818609E-02  0.8754638E-01
        1   -1    0    0  501    0  0.00000000000E+00  0.00000000000E+00  0.11411756215E+04  0.11411756215E+04  0.50400001928E-02 0. -1.
       -1   -1    0    0    0  501  0.00000000000E+00  0.00000000000E+00 -0.64197198863E+03  0.64197198865E+03  0.50400001928E-02 0.  1.
    10030    2    1    2    0    0  0.00000000000E+00  0.00000000000E+00  0.49920363283E+03  0.17831476101E+04  0.17118443657E+04 0.  0.
        5    1    3    3  502    0 -0.80853454664E+03 -0.17267818662E+03  0.18940201715E+02  0.82699860368E+03  0.46999998093E+01 0.  1.
       -5    1    3    3    0  502  0.80853454664E+03  0.17267818662E+03  0.48026343111E+03  0.95614900643E+03  0.46999998093E+01 0. -1.
</event>
<event>
 5   0  0.2595644E-04  0.1707127E+04  0.7818609E-02  0.8757310E-01
       -1   -1    0    0    0  501  0.00000000000E+00  0.00000000000E+00  0.43223736351E+03  0.43223736354E+03  0.50400001928E-02 0.  1.
        1   -1    0    0  501    0  0.00000000000E+00  0.00000000000E+00 -0.16855795644E+04  0.16855795644E+04  0.50400001928E-02 0. -1.
    10030    2    1    2    0    0  0.00000000000E+00  0.00000000000E+00 -0.12533422009E+04  0.21178169280E+04  0.17071267873E+04 0.  0.
        2    1    3    3  502    0 -0.61052435224E+03 -0.34291835969E+03 -0.12321899712E+04  0.14172597191E+04  0.25500000920E-02 0. -1.
       -2    1    3    3    0  502  0.61052435224E+03  0.34291835969E+03 -0.21152229664E+02  0.70055720888E+03  0.25500000920E-02 0.  1.
</event>
<event>
 5   0  0.2595644E-04  0.1699125E+04  0.7818609E-02  0.8761864E-01
       -1   -1    0    0    0  501  0.00000000000E+00  0.00000000000E+00  0.11307187249E+04  0.11307187249E+04  0.50400001928E-02 0. -1.
        1   -1    0    0  501    0  0.00000000000E+00  0.00000000000E+00 -0.63831651628E+03  0.63831651630E+03  0.50400001928E-02 0.  1.
    10030    2    1    2    0    0  0.00000000000E+00  0.00000000000E+00  0.49240220865E+03  0.17690352412E+04  0.16991249953E+04 0.  0.
        2    1    3    3  502    0  0.21012295642E+03  0.58822504073E+03  0.84573791212E+03  0.10513957254E+04  0.25500000920E-02 0.  1.
       -2    1    3    3    0  502 -0.21012295642E+03 -0.58822504073E+03 -0.35333570347E+03  0.71763951585E+03  0.25500000920E-02 0. -1.
</event>
<event>
 5   0  0.2785059E-04  0.1557079E+04  0.7818609E-02  0.8847359E-01
        1   -1    0    0  501    0  0.00000000000E+00  0.00000000000E+00  0.13110362300E+04  0.13110362300E+04  0.50400001928E-02 0.  1.
       -1   -1    0    0    0  501  0.00000000000E+00  0.00000000000E+00 -0.46232406251E+03  0.46232406254E+03  0.50400001928E-02 0. -1.
    10030    2    1    2    0    0  0.00000000000E+00  0.00000000000E+00  0.84871216753E+03  0.17733602926E+04  0.15570787983E+04 0.  0.
        5    1    3    3  502    0  0.20114232202E+03 -0.73230182627E+03  0.61956173371E+03  0.98010358143E+03  0.46999998093E+01 0.  1.
       -5    1    3    3    0  502 -0.20114232202E+03  0.73230182627E+03  0.22915043382E+03  0.79325671115E+03  0.46999998093E+01 0. -1.
</event>
<event>
 5   0  0.5021349E-04  0.1720620E+04  0.7818609E-02  0.8749691E-01
        2   -1    0    0  501    0  0.00000000000E+00  0.00000000000E+00  0.15466790264E+04  0.15466790264E+04  0.25500000920E-02 0.  1.
       -2   -1    0    0    0  501  0.00000000000E+00  0.00000000000E+00 -0.47853052634E+03  0.47853052634E+03  0.25500000920E-02 0. -1.
    10030    2    1    2    0    0  0.00000000000E+00  0.00000000000E+00  0.10681485001E+04  0.20252095528E+04  0.17206198053E+04 0.  0.
        2    1    3    3  502    0  0.37439587269E+03 -0.63925333759E+03  0.10489005553E+04  0.12841376383E+04  0.25500000920E-02 0. -1.
       -2    1    3    3    0  502 -0.37439587269E+03  0.63925333759E+03  0.19247944817E+02  0.74107191452E+03  0.25500000920E-02 0.  1.
</event>
<event>
 5   0  0.2561518E-04  0.1560737E+04  0.7818609E-02  0.8845039E-01
       -1   -1    0    0    0  501  0.00000000000E+00  0.00000000000E+00  0.59334878850E+03  0.59334878852E+03  0.50400001928E-02 0. -1.
        1   -1    0    0  501    0  0.00000000000E+00  0.00000000000E+00 -0.10263353786E+04  0.10263353786E+04  0.50400001928E-02 0.  1.
    10030    2    1    2    0    0  0.00000000000E+00  0.00000000000E+00 -0.43298659010E+03  0.16196841671E+04  0.15607368177E+04 0.  0.
        4    1    3    3  502    0 -0.20908765957E+03  0.60452781859E+03 -0.68036753884E+03  0.93384856034E+03  0.12699999809E+01 0.  1.
       -4    1    3    3    0  502  0.20908765957E+03 -0.60452781859E+03  0.24738094875E+03  0.68583560679E+03  0.12699999809E+01 0. -1.
</event>
<event>
 5   0  0.2630135E-04  0.1680725E+04  0.7818609E-02  0.8772434E-01
       -1   -1    0    0    0  501  0.00000000000E+00  0.00000000000E+00  0.11585586662E+04  0.11585586662E+04  0.50400001928E-02 0. -1.
        1   -1    0    0  501    0  0.00000000000E+00  0.00000000000E+00 -0.60955866426E+03  0.60955866428E+03  0.50400001928E-02 0.  1.
    10030    2    1    2    0    0  0.00000000000E+00  0.00000000000E+00  0.54900000191E+03  0.17681173305E+04  0.16807254065E+04 0.  0.
        1    1    3    3  502    0  0.30504906513E+03  0.25727208292E+03  0.10525263925E+04  0.11256356709E+04  0.50400001928E-02 0. -1.
       -1    1    3    3    0  502 -0.30504906513E+03 -0.25727208292E+03 -0.50352639057E+03  0.64248165952E+03  0.50400001928E-02 0.  1.
</event>
<event>
 5   0  0.2630135E-04  0.1755894E+04  0.7818609E-02  0.8730113E-01
       -1   -1    0    0    0  501  0.00000000000E+00  0.00000000000E+00  0.13221626594E+04  0.13221626594E+04  0.50400001928E-02 0. -1.
        1   -1    0    0  501    0  0.00000000000E+00  0.00000000000E+00 -0.58297709055E+03  0.58297709057E+03  0.50400001928E-02 0.  1.
    10030    2    1    2    0    0  0.00000000000E+00  0.00000000000E+00  0.73918556887E+03  0.19051397500E+04  0.17558935508E+04 0.  0.
        1    1    3    3  502    0 -0.25614793500E+03 -0.62438565235E+03  0.97885652385E+03  0.11889614383E+04  0.50400001928E-02 0.  1.
       -1    1    3    3    0  502  0.25614793500E+03  0.62438565235E+03 -0.23967095498E+03  0.71617831170E+03  0.50400001928E-02 0. -1.
</event>
<event>
 5   0  0.5198430E-04  0.1690853E+04  0.7818609E-02  0.8766599E-01
       -2   -1    0    0    0  501  0.00000000000E+00  0.00000000000E+00  0.39843647675E+03  0.39843647675E+03  0.25500000920E-02 0. -1.
        2   -1    0    0  501    0  0.00000000000E+00  0.00000000000E+00 -0.17938757917E+04  0.17938757917E+04  0.25500000920E-02 0.  1.
    10030    2    1    2    0    0  0.00000000000E+00  0.00000000000E+00 -0.13954393150E+04  0.21923122685E+04  0.16908525071E+04 0.  0.
        4    1    3    3  502    0  0.17868619254E+03 -0.36273183122E+03 -0.16603673315E+04  0.17088956742E+04  0.12699999809E+01 0.  1.
       -4    1    3    3    0  502 -0.17868619254E+03  0.36273183122E+03  0.26492801655E+03  0.48341659429E+03  0.12699999809E+01 0. -1.
</event>
<event>
 5   0  0.2583422E-04  0.1488734E+04  0.7818609E-02  0.8891980E-01
       -1   -1    0    0    0  501  0.00000000000E+00  0.00000000000E+00  0.12601493623E+04  0.12601493623E+04  0.50400001928E-02 0.  1.
        1   -1    0    0  501    0  0.00000000000E+00  0.00000000000E+00 -0.43969539760E+03  0.43969539763E+03  0.50400001928E-02 0. -1.
    10030    2    1    2    0    0  0.00000000000E+00  0.00000000000E+00  0.82045396473E+03  0.16998447600E+04  0.14887335221E+04 0.  0.
        3    1    3    3  502    0  0.46616373884E+02 -0.71906114256E+03  0.19704275949E+03  0.74702601851E+03  0.10100000352E+00 0. -1.
       -3    1    3    3    0  502 -0.46616373884E+02  0.71906114256E+03  0.62341120524E+03  0.95281874146E+03  0.10100000352E+00 0.  1.
</event>
<event>
 5   0  0.5198430E-04  0.1696014E+04  0.7818609E-02  0.8763641E-01
        2   -1    0    0  501    0  0.00000000000E+00  0.00000000000E+00  0.20066069633E+04  0.20066069633E+04  0.25500000920E-02 0. -1.
       -2   -1    0    0    0  501  0.00000000000E+00  0.00000000000E+00 -0.35837388192E+03  0.35837388193E+03  0.25500000920E-02 0.  1.
    10030    2    1    2    0    0  0.00000000000E+00  0.00000000000E+00  0.16482330814E+04  0.23649808452E+04  0.16960135930E+04 0.  0.
        4    1    3    3  502    0 -0.67071695554E+03 -0.51812021961E+03  0.78457459042E+03  0.11549323345E+04  0.12699999809E+01 0. -1.
       -4    1    3    3    0  502  0.67071695554E+03  0.51812021961E+03  0.86365849093E+03  0.12100485107E+04  0.12699999809E+01 0.  1.
</event>
<event>
 5   0  0.5299877E-04  0.1715556E+04  0.7818609E-02  0.8752541E-01
        2   -1    0    0  501    0  0.00000000000E+00  0.00000000000E+00  0.28727319871E+03  0.28727319872E+03  0.25500000920E-02 0.  1.
       -2   -1    0    0    0  501  0.00000000000E+00  0.00000000000E+00 -0.25612668558E+04  0.25612668558E+04  0.25500000920E-02 0. -1.
    10030    2    1    2    0    0  0.00000000000E+00  0.00000000000E+00 -0.22739936571E+04  0.28485400545E+04  0.17155562625E+04 0.  0.
        3    1    3    3  502    0 -0.70365233962E+03 -0.36179514462E+03 -0.58689722199E+03  0.98512471348E+03  0.10100000352E+00 0.  1.
       -3    1    3    3    0  502  0.70365233962E+03  0.36179514462E+03 -0.16870964351E+04  0.18634153411E+04  0.10100000352E+00 0. -1.
</event>
<event>
 5   0  0.5310003E-04  0.1710788E+04  0.7818609E-02  0.8755235E-01
       -2   -1    0    0    0  501  0.00000000000E+00  0.00000000000E+00  0.73616936568E+03  0.73616936569E+03  0.25500000920E-02 0. -1.
        2   -1    0    0  501    0  0.00000000000E+00  0.00000000000E+00 -0.99392776100E+03  0.99392776100E+03  0.25500000920E-02 0.  1.
    10030    2    1    2    0    0  0.00000000000E+00  0.00000000000E+00 -0.25775839532E+03  0.17300971267E+04  0.17107883205E+04 0.  0.
        1    1    3    3  502    0 -0.73487397170E+03  0.82244261728E+02 -0.56372686012E+03  0.92983431089E+03  0.50400001928E-02 0.  1.
       -1    1    3    3    0  502  0.73487397170E+03 -0.82244261728E+02  0.30596846480E+03  0.80026281580E+03  0.50400001928E-02 0. -1.
</event>
<event>
 5   0  0.5198430E-04  0.1672580E+04  0.7818609E-02  0.8777159E-01
        2   -1    0    0  501    0  0.00000000000E+00  0.00000000000E+00  0.14400393628E+04  0.14400393628E+04  0.25500000920E-02 0. -1.
       -2   -1    0    0    0  501  0.00000000000E+00  0.00000000000E+00 -0.48566803505E+03  0.48566803506E+03  0.25500000920E-02 0.  1.
    10030    2    1    2    0    0  0.00000000000E+00  0.00000000000E+00  0.95437132778E+03  0.19257073979E+04  0.16725801479E+04 0.  0.
        4    1    3    3  502    0 -0.67241374327E+03  0.45283933607E+03  0.71363323824E+03  0.10800359800E+04  0.12699999809E+01 0. -1.
       -4    1    3    3    0  502  0.67241374327E+03 -0.45283933607E+03  0.24073808955E+03  0.84567141792E+03  0.12699999809E+01 0.  1.
</event>
<event>
 5   0  0.2583422E-04  0.1484701E+04  0.7818609E-02  0.8894691E-01
        1   -1    0    0  501    0  0.00000000000E+00  0.00000000000E+00  0.53477765296E+03  0.53477765299E+03  0.50400001928E-02 0. -1.
       -1   -1    0    0    0  501  0.00000000000E+00  0.00000000000E+00 -0.10304919992E+04  0.10304919993E+04  0.50400001928E-02 0.  1.
    10030    2    1    2    0    0  0.00000000000E+00  0.00000000000E+00 -0.49571434628E+03  0.15652696522E+04  0.14847007682E+04 0.  0.
        3    1    3    3  502    0 -0.60068819518E+03 -0.38684624322E+03 -0.46030619829E+03  0.84991654302E+03  0.10100000352E+00 0.  1.
       -3    1    3    3    0  502  0.60068819518E+03  0.38684624322E+03 -0.35408147991E+02  0.71535310922E+03  0.10100000352E+00 0. -1.
</event>
<event>
 5   0  0.5299877E-04  0.1629373E+04  0.7818609E-02  0.8802703E-01
       -2   -1    0    0    0  501  0.00000000000E+00  0.00000000000E+00  0.86518520780E+03  0.86518520781E+03  0.25500000920E-02 0. -1.
        2   -1    0    0  501    0  0.00000000000E+00  0.00000000000E+00 -0.76713573331E+03  0.76713573332E+03  0.25500000920E-02 0.  1.
    10030    2    1    2    0    0  0.00000000000E+00  0.00000000000E+00  0.98049474490E+02  0.16323209411E+04  0.16293734855E+04 0.  0.
        3    1    3    3  502    0  0.73641414928E+03 -0.19776874107E+02  0.39752980193E+03  0.83709430630E+03  0.10100000352E+00 0. -1.
       -3    1    3    3    0  502 -0.73641414928E+03  0.19776874107E+02 -0.29948032744E+03  0.79522663483E+03  0.10100000352E+00 0.  1.
</event>
<event>
 5   0  0.2630135E-04  0.1690973E+04  0.7818609E-02  0.8766530E-01
       -1   -1    0    0    0  501  0.00000000000E+00  0.00000000000E+00  0.15416094596E+04  0.15416094596E+04  0.50400001928E-02 0.  1.
        1   -1    0    0  501    0  0.00000000000E+00  0.00000000000E+00 -0.46370176271E+03  0.46370176274E+03  0.50400001928E-02 0. -1.
    10030    2    1    2    0    0  0.00000000000E+00  0.00000000000E+00  0.10779076969E+04  0.20053112224E+04  0.16909725295E+04 0.  0.
        1    1    3    3  502    0 -0.15510937139E+03 -0.54737763278E+03  0.12806494256E+04  0.14013365553E+04  0.50400001928E-02 0.  1.
       -1    1    3    3    0  502  0.15510937139E+03  0.54737763278E+03 -0.20274172863E+03  0.60397466711E+03  0.50400001928E-02 0. -1.
</event>
<event>
 5   0  0.5198430E-04  0.1708201E+04  0.7818609E-02  0.8756701E-01
        2   -1    0    0  501    0  0.00000000000E+00  0.00000000000E+00  0.72938981448E+03  0.72938981449E+03  0.25500000920E-02 0. -1.
       -2   -1    0    0    0  501  0.00000000000E+00  0.00000000000E+00 -0.10001341167E+04  0.10001341167E+04  0.25500000920E-02 0.  1.
    10030    2    1    2    0    0  0.00000000000E+00  0.00000000000E+00 -0.27074430225E+03  0.17295239312E+04  0.17082009693E+04 0.  0.
        4    1    3    3  502    0 -0.52416885987E+03 -0.50891917073E+03 -0.58331343475E+03  0.93488389228E+03  0.12699999809E+01 0.  1.
       -4    1    3    3    0  502  0.52416885987E+03  0.50891917073E+03  0.31256913251E+03  0.79464003894E+03  0.12699999809E+01 0. -1.
</event>
<event>
 5   0  0.5021349E-04  0.1726636E+04  0.7818609E-02  0.8746317E-01
        2   -1    0    0  501    0  0.00000000000E+00  0.00000000000E+00  0.22046846648E+04  0.22046846648E+04  0.25500000920E-02 0.  1.
       -2   -1    0    0    0  501  0.00000000000E+00  0.00000000000E+00 -0.33806114365E+03  0.33806114366E+03  0.25500000920E-02 0. -1.
    10030    2    1    2    0    0  0.00000000000E+00  0.00000000000E+00  0.18666235212E+04  0.25427458085E+04  0.17266362897E+04 0.  0.
        2    1    3    3  502    0  0.52788186399E+03  0.46561417944E+03  0.19718512902E+03  0.73098413221E+03  0.25500000920E-02 0. -1.
       -2    1    3    3    0  502 -0.52788186399E+03 -0.46561417944E+03  0.16694383922E+04  0.18117616763E+04  0.25500000920E-02 0.  1.
</event>
<event>
 5   0  0.5310003E-04  0.1707097E+04  0.7818609E-02  0.8757327E-01
        2   -1    0    0  501    0  0.00000000000E+00  0.00000000000E+00  0.12240607759E+04  0.12240607759E+04  0.25500000920E-02 0. -1.
       -2   -1    0    0    0  501  0.00000000000E+00  0.00000000000E+00 -0.59518731754E+03  0.59518731754E+03  0.25500000920E-02 0.  1.
    10030    2    1    2    0    0  0.00000000000E+00  0.00000000000E+00  0.62887345833E+03  0.18192480934E+04  0.17070974778E+04 0.  0.
        1    1    3    3  502    0 -0.56817828591E+03 -0.33839845883E+03 -0.26064993410E+03  0.71082942377E+03  0.50400001928E-02 0.  1.
       -1    1    3    3    0  502  0.56817828591E+03  0.33839845883E+03  0.88952339243E+03  0.11084186696E+04  0.50400001928E-02 0. -1.
</event>
<event>
 5   0  0.5299877E-04  0.1710899E+04  0.7818609E-02  0.8755173E-01
        2   -1    0    0  501    0  0.00000000000E+00  0.00000000000E+00  0.62666906350E+03  0.62666906350E+03  0.25500000920E-02 0.  1.
       -2   -1    0    0    0  501  0.00000000000E+00  0.00000000000E+00 -0.11677513062E+04  0.11677513062E+04  0.25500000920E-02 0. -1.
    10030    2    1    2    0    0  0.00000000000E+00  0.00000000000E+00 -0.54108224270E+03  0.17944203697E+04  0.17108987316E+04 0.  0.
        3    1    3    3  502    0  0.51345250136E+03 -0.18082595561E+03 -0.96265103889E+03  0.11059062032E+04  0.10100000352E+00 0.  1.
       -3    1    3    3    0  502 -0.51345250136E+03  0.18082595561E+03  0.42156879619E+03  0.68851416651E+03  0.10100000352E+00 0. -1.
</event>
<event>
 5   0  0.5021349E-04  0.1797501E+04  0.7818609E-02  0.8707629E-01
        2   -1    0    0  501    0  0.00000000000E+00  0.00000000000E+00  0.65022944663E+03  0.65022944663E+03  0.25500000920E-02 0. -1.
       -2   -1    0    0    0  501  0.00000000000E+00  0.00000000000E+00 -0.12422581703E+04  0.12422581703E+04  0.25500000920E-02 0.  1.
    10030    2    1    2    0    0  0.00000000000E+00  0.00000000000E+00 -0.59202872369E+03  0.18924876169E+04  0.17975014244E+04 0.  0.
        2    1    3    3  502    0 -0.50733811480E+03 -0.10846215472E+03 -0.10686873040E+04  0.11879598291E+04  0.25500000920E-02 0.  1.
       -2    1    3    3    0  502  0.50733811480E+03  0.10846215472E+03  0.47665858030E+03  0.70452778789E+03  0.25500000920E-02 0. -1.
</event>
<event>
 5   0  0.2595644E-04  0.1698096E+04  0.7818609E-02  0.8762451E-01
        1   -1    0    0  501    0  0.00000000000E+00  0.00000000000E+00  0.76781266893E+03  0.76781266895E+03  0.50400001928E-02 0.  1.
       -1   -1    0    0    0  501  0.00000000000E+00  0.00000000000E+00 -0.93887757183E+03  0.93887757185E+03  0.50400001928E-02 0. -1.
    10030    2    1    2    0    0  0.00000000000E+00  0.00000000000E+00 -0.17106490290E+03  0.17066902408E+04  0.16980955147E+04 0.  0.
        2    1    3    3  502    0  0.61031876476E+03 -0.14953524858E+03  0.48834995422E+03  0.79582376377E+03  0.25500000920E-02 0.  1.
       -2    1    3    3    0  502 -0.61031876476E+03  0.14953524858E+03 -0.65941485712E+03  0.91086647703E+03  0.25500000920E-02 0. -1.
</event>
<event>
 5   0  0.2595644E-04  0.1692018E+04  0.7818609E-02  0.8765930E-01
        1   -1    0    0  501    0  0.00000000000E+00  0.00000000000E+00  0.14597481260E+04  0.14597481261E+04  0.50400001928E-02 0.  1.
       -1   -1    0    0    0  501  0.00000000000E+00  0.00000000000E+00 -0.49031156987E+03  0.49031156990E+03  0.50400001928E-02 0. -1.
    10030    2    1    2    0    0  0.00000000000E+00  0.00000000000E+00  0.96943655617E+03  0.19500596960E+04  0.16920181977E+04 0.  0.
        2    1    3    3  502    0 -0.58443537074E+03 -0.35336919270E+03  0.10601599663E+04  0.12611001717E+04  0.25500000920E-02 0.  1.
       -2    1    3    3    0  502  0.58443537074E+03  0.35336919270E+03 -0.90723410114E+02  0.68895952426E+03  0.25500000920E-02 0. -1.
</event>
<event>
 5   0  0.2561518E-04  0.1698857E+04  0.7818609E-02  0.8762017E-01
        1   -1    0    0  501    0  0.00000000000E+00  0.00000000000E+00  0.93583933673E+03  0.93583933675E+03  0.50400001928E-02 0.  1.
       -1   -1    0    0    0  501  0.00000000000E+00  0.00000000000E+00 -0.77099615226E+03  0.77099615228E+03  0.50400001928E-02 0. -1.
    10030    2    1    2    0    0  0.00000000000E+00  0.00000000000E+00  0.16484318447E+03  0.17068354890E+04  0.16988567071E+04 0.  0.
        4    1    3    3  502    0 -0.15776416391E+03 -0.81576723678E+03  0.25977600314E+03  0.87054632314E+03  0.12699999809E+01 0.  1.
       -4    1    3    3    0  502  0.15776416391E+03  0.81576723678E+03 -0.94932818671E+02  0.83628916589E+03  0.12699999809E+01 0. -1.
</event>
<event>
 5   0  0.2785059E-04  0.1707881E+04  0.7818609E-02  0.8756882E-01
        1   -1    0    0  501    0  0.00000000000E+00  0.00000000000E+00  0.44036913836E+03  0.44036913839E+03  0.50400001928E-02 0.  1.
       -1   -1    0    0    0  501  0.00000000000E+00  0.00000000000E+00 -0.16559163199E+04  0.16559163199E+04  0.50400001928E-02 0. -1.
    10030    2    1    2    0    0  0.00000000000E+00  0.00000000000E+00 -0.12155471815E+04  0.20962854583E+04  0.17078810767E+04 0.  0.
        5    1    3    3  502    0 -0.28092893095E+03 -0.31770577589E+03 -0.15175007594E+04  0.15756549968E+04  0.46999998093E+01 0. -1.
       -5    1    3    3    0  502  0.28092893095E+03  0.31770577589E+03  0.30195357783E+03  0.52063046150E+03  0.46999998093E+01 0.  1.
</event>
<event>
 5   0  0.2785059E-04  0.1659759E+04  0.7818609E-02  0.8784654E-01
       -1   -1    0    0    0  501  0.00000000000E+00  0.00000000000E+00  0.42248834375E+03  0.42248834378E+03  0.50400001928E-02 0.  1.
        1   -1    0    0  501    0  0.00000000000E+00  0.00000000000E+00 -0.16301048113E+04  0.16301048113E+04  0.50400001928E-02 0. -1.
    10030    2    1    2    0    0  0.00000000000E+00  0.00000000000E+00 -0.12076164676E+04  0.20525931551E+04  0.16597593583E+04 0.  0.
        5    1    3    3  502    0 -0.25601596703E+03  0.76117265129E+03 -0.86247928526E+03  0.11784823240E+04  0.46999998093E+01 0. -1.
       -5    1    3    3    0  502  0.25601596703E+03 -0.76117265129E+03 -0.34513718230E+03  0.87411083110E+03  0.46999998093E+01 0.  1.
</event>
<event>
 5   0  0.5299877E-04  0.1667813E+04  0.7818609E-02  0.8779938E-01
        2   -1    0    0  501    0  0.00000000000E+00  0.00000000000E+00  0.12723247100E+04  0.12723247100E+04  0.25500000920E-02 0. -1.
       -2   -1    0    0    0  501  0.00000000000E+00  0.00000000000E+00 -0.54655860134E+03  0.54655860135E+03  0.25500000920E-02 0.  1.
    10030    2    1    2    0    0  0.00000000000E+00  0.00000000000E+00  0.72576610870E+03  0.18188833114E+04  0.16678129559E+04 0.  0.
        3    1    3    3  502    0  0.65924006899E+03  0.23624141415E+03  0.85665511479E+03  0.11064653046E+04  0.10100000352E+00 0. -1.
       -3    1    3    3    0  502 -0.65924006899E+03 -0.23624141415E+03 -0.13088900609E+03  0.71241800682E+03  0.10100000352E+00 0.  1.
</event>
<event>
 5   0  0.5299877E-04  0.1629665E+04  0.7818609E-02  0.8802528E-01
       -2   -1    0    0    0  501  0.00000000000E+00  0.00000000000E+00  0.33008253211E+03  0.33008253212E+03  0.25500000920E-02 0.  1.
        2   -1    0    0  501    0  0.00000000000E+00  0.00000000000E+00 -0.20114718404E+04  0.20114718404E+04  0.25500000920E-02 0. -1.
    10030    2    1    2    0    0  0.00000000000E+00  0.00000000000E+00 -0.16813893082E+04  0.23415543725E+04  0.16296646506E+04 0.  0.
        3    1    3    3  502    0 -0.19924011208E+03  0.44864137945E+03 -0.17751614272E+04  0.18417854958E+04  0.10100000352E+00 0. -1.
       -3    1    3    3    0  502  0.19924011208E+03 -0.44864137945E+03  0.93772118969E+02  0.49976887669E+03  0.10100000352E+00 0.  1.
</event>
<event>
 5   0  0.2785059E-04  0.1693793E+04  0.7818609E-02  0.8764912E-01
        1   -1    0    0  501    0  0.00000000000E+00  0.00000000000E+00  0.10687100835E+04  0.10687100835E+04  0.50400001928E-02 0.  1.
       -1   -1    0    0    0  501  0.00000000000E+00  0.00000000000E+00 -0.67112113774E+03  0.67112113776E+03  0.50400001928E-02 0. -1.
    10030    2    1    2    0    0  0.00000000000E+00  0.00000000000E+00  0.39758894573E+03  0.17398312212E+04  0.16937932898E+04 0.  0.
        5    1    3    3  502    0  0.64250309531E+03  0.25458442472E+03 -0.30398737270E+03  0.75501911867E+03  0.46999998093E+01 0. -1.
       -5    1    3    3    0  502 -0.64250309531E+03 -0.25458442472E+03  0.70157631842E+03  0.98481210257E+03  0.46999998093E+01 0.  1.
</event>
<event>
 5   0  0.5310003E-04  0.1704833E+04  0.7818609E-02  0.8758613E-01
       -2   -1    0    0    0  501  0.00000000000E+00  0.00000000000E+00  0.29838955694E+03  0.29838955695E+03  0.25500000920E-02 0. -1.
        2   -1    0    0  501    0  0.00000000000E+00  0.00000000000E+00 -0.24351185754E+04  0.24351185754E+04  0.25500000920E-02 0.  1.
    10030    2    1    2    0    0  0.00000000000E+00  0.00000000000E+00 -0.21367290185E+04  0.27335081323E+04  0.17048330743E+04 0.  0.
        1    1    3    3  502    0 -0.40205020672E+03 -0.69500585112E+03 -0.15273268824E+04  0.17255158381E+04  0.50400001928E-02 0.  1.
       -1    1    3    3    0  502  0.40205020672E+03  0.69500585112E+03 -0.60940213610E+03  0.10079922943E+04  0.50400001928E-02 0. -1.
</event>
<event>
 5   0  0.2595644E-04  0.1680558E+04  0.7818609E-02  0.8772531E-01
       -1   -1    0    0    0  501  0.00000000000E+00  0.00000000000E+00  0.53846243093E+03  0.53846243096E+03  0.50400001928E-02 0.  1.
        1   -1    0    0  501    0  0.00000000000E+00  0.00000000000E+00 -0.13112681260E+04  0.13112681260E+04  0.50400001928E-02 0. -1.
    10030    2    1    2    0    0  0.00000000000E+00  0.00000000000E+00 -0.77280569505E+03  0.18497305570E+04  0.16805577916E+04 0.  0.
        2    1    3    3  502    0  0.90549145946E+02 -0.46181072436E+03 -0.11526111824E+04  0.12449822612E+04  0.25500000920E-02 0. -1.
       -2    1    3    3    0  502 -0.90549145946E+02  0.46181072436E+03  0.37980548734E+03  0.60474829573E+03  0.25500000920E-02 0.  1.
</event>
<event>
 5   0  0.5299877E-04  0.1728674E+04  0.7818609E-02  0.8745177E-01
       -2   -1    0    0    0  501  0.00000000000E+00  0.00000000000E+00  0.31493167496E+03  0.31493167497E+03  0.25500000920E-02 0. -1.
        2   -1    0    0  501    0  0.00000000000E+00  0.00000000000E+00 -0.23721930684E+04  0.23721930684E+04  0.25500000920E-02 0.  1.
    10030    2    1    2    0    0  0.00000000000E+00  0.00000000000E+00 -0.20572613935E+04  0.26871247434E+04  0.17286743318E+04 0.  0.
        3    1    3    3  502    0 -0.14662756723E+03  0.16275900700E+01  0.29545541065E+03  0.32984269343E+03  0.10100000352E+00 0. -1.
       -3    1    3    3    0  502  0.14662756723E+03 -0.16275900700E+01 -0.23527168041E+04  0.23572820500E+04  0.10100000352E+00 0.  1.
</event>
<event>
 5   0  0.5198430E-04  0.1695215E+04  0.7818609E-02  0.8764098E-01
       -2   -1    0    0    0  501  0.00000000000E+00  0.00000000000E+00  0.48494741511E+03  0.48494741512E+03  0.25500000920E-02 0. -1.
        2   -1    0    0  501    0  0.00000000000E+00  0.00000000000E+00 -0.14814767235E+04  0.14814767235E+04  0.25500000920E-02 0.  1.
    10030    2    1    2    0    0  0.00000000000E+00  0.00000000000E+00 -0.99652930834E+03  0.19664241386E+04  0.16952148036E+04 0.  0.
        4    1    3    3  502    0  0.22492131964E+03  0.10757366175E+03 -0.14379779928E+04  0.14594327711E+04  0.12699999809E+01 0.  1.
       -4    1    3    3    0  502 -0.22492131964E+03 -0.10757366175E+03  0.44144868448E+03  0.50699136744E+03  0.12699999809E+01 0. -1.
</event>
<event>
 5   0  0.5342255E-04  0.1711627E+04  0.7818609E-02  0.8754761E-01
       -2   -1    0    0    0  501  0.00000000000E+00  0.00000000000E+00  0.55967215682E+03  0.55967215682E+03  0.25500000920E-02 0. -1.
        2   -1    0    0  501    0  0.00000000000E+00  0.00000000000E+00 -0.13086525839E+04  0.13086525839E+04  0.25500000920E-02 0.  1.
    10030    2    1    2    0    0  0.00000000000E+00  0.00000000000E+00 -0.74898042704E+03  0.18683247407E+04  0.17116266113E+04 0.  0.
        5    1    3    3  502    0  0.56205495655E+03  0.55176240346E+03 -0.91116501028E+01  0.78768815925E+03  0.46999998093E+01 0. -1.
       -5    1    3    3    0  502 -0.56205495655E+03 -0.55176240346E+03 -0.73986877694E+03  0.10806365814E+04  0.46999998093E+01 0.  1.
</event>
<event>
 5   0  0.2630135E-04  0.1701293E+04  0.7818609E-02  0.8760627E-01
       -1   -1    0    0    0  501  0.00000000000E+00  0.00000000000E+00  0.71260005887E+03  0.71260005889E+03  0.50400001928E-02 0. -1.
        1   -1    0    0  501    0  0.00000000000E+00  0.00000000000E+00 -0.10154354848E+04  0.10154354849E+04  0.50400001928E-02 0.  1.
    10030    2    1    2    0    0  0.00000000000E+00  0.00000000000E+00 -0.30283542597E+03  0.17280355437E+04  0.17012929040E+04 0.  0.
        1    1    3    3  502    0 -0.14257065179E+03 -0.44714301454E+03 -0.87203160321E+03  0.99030418722E+03  0.50400001928E-02 0.  1.
       -1    1    3    3    0  502  0.14257065179E+03  0.44714301454E+03  0.56919617724E+03  0.73773135653E+03  0.50400001928E-02 0. -1.
</event>
<event>
 5   0  0.2583422E-04  0.1715686E+04  0.7818609E-02  0.8752468E-01
       -1   -1    0    0    0  501  0.00000000000E+00  0.00000000000E+00  0.44408720768E+03  0.44408720771E+03  0.50400001928E-02 0. -1.
        1   -1    0    0  501    0  0.00000000000E+00  0.00000000000E+00 -0.16570954466E+04  0.16570954466E+04  0.50400001928E-02 0.  1.
    10030    2    1    2    0    0  0.00000000000E+00  0.00000000000E+00 -0.12130082389E+04  0.21011826543E+04  0.17156863230E+04 0.  0.
        3    1    3    3  502    0  0.29641662739E+03  0.33809270282E+03 -0.15012193866E+04  0.15671085315E+04  0.10100000352E+00 0.  1.
       -3    1    3    3    0  502 -0.29641662739E+03 -0.33809270282E+03  0.28821114774E+03  0.53407412273E+03  0.10100000352E+00 0. -1.
</event>
<event>
 5   0  0.2561518E-04  0.1709191E+04  0.7818609E-02  0.8756140E-01
       -1   -1    0    0    0  501  0.00000000000E+00  0.00000000000E+00  0.77760835785E+03  0.77760835786E+03  0.50400001928E-02 0.  1.
        1   -1    0    0  501    0  0.00000000000E+00  0.00000000000E+00 -0.93920423485E+03  0.93920423487E+03  0.50400001928E-02 0. -1.
    10030    2    1    2    0    0  0.00000000000E+00  0.00000000000E+00 -0.16159587701E+03  0.17168125927E+04  0.17091905251E+04 0.  0.
        4    1    3    3  502    0 -0.61717847638E+03 -0.19998360566E+03  0.47794588440E+03  0.80581424382E+03  0.12699999809E+01 0.  1.
       -4    1    3    3    0  502  0.61717847638E+03  0.19998360566E+03 -0.63954176140E+03  0.91099834891E+03  0.12699999809E+01 0. -1.
</event>
<event>
 5   0  0.2785059E-04  0.1426358E+04  0.7818609E-02  0.8934957E-01
       -1   -1    0    0    0  501  0.00000000000E+00  0.00000000000E+00  0.76924345383E+03  0.76924345385E+03  0.50400001928E-02 0.  1.
        1   -1    0    0  501    0  0.00000000000E+00  0.00000000000E+00 -0.66120033474E+03  0.66120033475E+03  0.50400001928E-02 0. -1.
    10030    2    1    2    0    0  0.00000000000E+00  0.00000000000E+00  0.10804311909E+03  0.14304437886E+04  0.14263576399E+04 0.  0.
        5    1    3    3  502    0 -0.32059842547E+03  0.63687532354E+03  0.39543754398E+02  0.71412836847E+03  0.46999998093E+01 0. -1.
       -5    1    3    3    0  502  0.32059842547E+03 -0.63687532354E+03  0.68499364695E+02  0.71631542013E+03  0.46999998093E+01 0.  1.
</event>
<event>
 5   0  0.5299877E-04  0.1655964E+04  0.7818609E-02  0.8786886E-01
       -2   -1    0    0    0  501  0.00000000000E+00  0.00000000000E+00  0.44993891613E+03  0.44993891614E+03  0.25500000920E-02 0.  1.
        2   -1    0    0  501    0  0.00000000000E+00  0.00000000000E+00 -0.15236606916E+04  0.15236606916E+04  0.25500000920E-02 0. -1.
    10030    2    1    2    0    0  0.00000000000E+00  0.00000000000E+00 -0.10737217755E+04  0.19735996078E+04  0.16559640578E+04 0.  0.
        3    1    3    3  502    0 -0.28870300881E+03 -0.65703928875E+02  0.38468717050E+03  0.48543862940E+03  0.10100000352E+00 0.  1.
       -3    1    3    3    0  502  0.28870300881E+03  0.65703928875E+02 -0.14584089460E+04  0.14881609784E+04  0.10100000352E+00 0. -1.
</event>
<event>
 5   0  0.2595644E-04  0.1691267E+04  0.7818609E-02  0.8766361E-01
       -1   -1    0    0    0  501  0.00000000000E+00  0.00000000000E+00  0.44366799234E+03  0.44366799236E+03  0.50400001928E-02 0.  1.
        1   -1    0    0  501    0  0.00000000000E+00  0.00000000000E+00 -0.16117823254E+04  0.16117823254E+04  0.50400001928E-02 0. -1.
    10030    2    1    2    0    0  0.00000000000E+00  0.00000000000E+00 -0.11681143330E+04  0.20554503177E+04  0.16912672508E+04 0.  0.
        2    1    3    3  502    0  0.76368069657E+03 -0.14055900280E+03 -0.17709132558E+03  0.79644609182E+03  0.25500000920E-02 0.  1.
       -2    1    3    3    0  502 -0.76368069657E+03  0.14055900280E+03 -0.99102300746E+03  0.12590042259E+04  0.25500000920E-02 0. -1.
</event>
<event>
 5   0  0.2561518E-04  0.1599240E+04  0.7818609E-02  0.8821015E-01
        1   -1    0    0  501    0  0.00000000000E+00  0.00000000000E+00  0.46568243752E+03  0.46568243755E+03  0.50400001928E-02 0. -1.
       -1   -1    0    0    0  501  0.00000000000E+00  0.00000000000E+00 -0.13730217465E+04  0.13730217465E+04  0.50400001928E-02 0.  1.
    10030    2    1    2    0    0  0.00000000000E+00  0.00000000000E+00 -0.90733930895E+03  0.18387041840E+04  0.15992399616E+04 0.  0.
        4    1    3    3  502    0  0.52699011085E+03  0.11155556860E+03 -0.11331115318E+04  0.12546340416E+04  0.12699999809E+01 0.  1.
       -4    1    3    3    0  502 -0.52699011085E+03 -0.11155556860E+03  0.22577222286E+03  0.58407014248E+03  0.12699999809E+01 0. -1.
</event>
<event>
 5   0  0.2583422E-04  0.1657564E+04  0.7818609E-02  0.8785944E-01
        1   -1    0    0  501    0  0.00000000000E+00  0.00000000000E+00  0.10788420994E+04  0.10788420994E+04  0.50400001928E-02 0.  1.
       -1   -1    0    0    0  501  0.00000000000E+00  0.00000000000E+00 -0.63668253642E+03  0.63668253644E+03  0.50400001928E-02 0. -1.
    10030    2    1    2    0    0  0.00000000000E+00  0.00000000000E+00  0.44215956301E+03  0.17155246359E+04  0.16575643870E+04 0.  0.
        3    1    3    3  502    0  0.46140143827E+03  0.54472256041E+03 -0.21467205300E+03  0.74545157830E+03  0.10100000352E+00 0. -1.
       -3    1    3    3    0  502 -0.46140143827E+03 -0.54472256041E+03  0.65683161600E+03  0.97007305758E+03  0.10100000352E+00 0.  1.
</event>
<event>
 5   0  0.2561518E-04  0.1675379E+04  0.7818609E-02  0.8775532E-01
       -1   -1    0    0    0  501  0.00000000000E+00  0.00000000000E+00  0.68310259525E+03  0.68310259527E+03  0.50400001928E-02 0.  1.
        1   -1    0    0  501    0  0.00000000000E+00  0.00000000000E+00 -0.10272597747E+04  0.10272597747E+04  0.50400001928E-02 0. -1.
    10030    2    1    2    0    0  0.00000000000E+00  0.00000000000E+00 -0.34415717943E+03  0.17103623700E+04  0.16753791429E+04 0.  0.
        4    1    3    3  502    0 -0.19124981366E+03 -0.60221179919E+03 -0.73355064201E+03  0.96815995559E+03  0.12699999809E+01 0. -1.
       -4    1    3    3    0  502  0.19124981366E+03  0.60221179919E+03  0.38939346258E+03  0.74220241438E+03  0.12699999809E+01 0.  1.
</event>
<event>
 5   0  0.5021349E-04  0.1599379E+04  0.7818609E-02  0.8820929E-01
       -2   -1    0    0    0  501  0.00000000000E+00  0.00000000000E+00  0.61198593636E+03  0.61198593636E+03  0.25500000920E-02 0. -1.
        2   -1    0    0  501    0  0.00000000000E+00  0.00000000000E+00 -0.10449643293E+04  0.10449643293E+04  0.25500000920E-02 0.  1.
    10030    2    1    2    0    0  0.00000000000E+00  0.00000000000E+00 -0.43297839294E+03  0.16569502657E+04  0.15993792215E+04 0.  0.
        2    1    3    3  502    0  0.35102393600E+02 -0.31631025011E+03  0.54355279086E+03  0.62986823131E+03  0.25500000920E-02 0. -1.
       -2    1    3    3    0  502 -0.35102393600E+02  0.31631025011E+03 -0.97653118379E+03  0.10270820344E+04  0.25500000920E-02 0.  1.
</event>
<event>
 5   0  0.5342255E-04  0.1691264E+04  0.7818609E-02  0.8766363E-01
       -2   -1    0    0    0  501  0.00000000000E+00  0.00000000000E+00  0.50604488820E+03  0.50604488821E+03  0.25500000920E-02 0.  1.
        2   -1    0    0  501    0  0.00000000000E+00  0.00000000000E+00 -0.14131023305E+04  0.14131023305E+04  0.25500000920E-02 0. -1.
    10030    2    1    2    0    0  0.00000000000E+00  0.00000000000E+00 -0.90705744230E+03  0.19191472187E+04  0.16912636824E+04 0.  0.
        5    1    3    3  502    0  0.10596085133E+03  0.76700627677E+03 -0.83924871585E+03  0.11418786396E+04  0.46999998093E+01 0. -1.
       -5    1    3    3    0  502 -0.10596085133E+03 -0.76700627677E+03 -0.67808726450E+02  0.77726857907E+03  0.46999998093E+01 0.  1.
</event>
<event>
 5   0  0.5299877E-04  0.1688600E+04  0.7818609E-02  0.8767893E-01
       -2   -1    0    0    0  501  0.00000000000E+00  0.00000000000E+00  0.76598417950E+03  0.76598417951E+03  0.25500000920E-02 0. -1.
        2   -1    0    0  501    0  0.00000000000E+00  0.00000000000E+00 -0.93062264238E+03  0.93062264238E+03  0.25500000920E-02 0.  1.
    10030    2    1    2    0    0  0.00000000000E+00  0.00000000000E+00 -0.16463846287E+03  0.16966068219E+04  0.16885996816E+04 0.  0.
        3    1    3    3  502    0  0.52987904202E+03  0.81546130753E+02 -0.73765486682E+03  0.91189707937E+03  0.10100000352E+00 0.  1.
       -3    1    3    3    0  502 -0.52987904202E+03 -0.81546130753E+02  0.57301640394E+03  0.78470974252E+03  0.10100000352E+00 0. -1.
</event>
<event>
 5   0  0.5342255E-04  0.1728841E+04  0.7818609E-02  0.8745084E-01
       -2   -1    0    0    0  501  0.00000000000E+00  0.00000000000E+00  0.82289003978E+03  0.82289003979E+03  0.25500000920E-02 0.  1.
        2   -1    0    0  501    0  0.00000000000E+00  0.00000000000E+00 -0.90804715345E+03  0.90804715345E+03  0.25500000920E-02 0. -1.
    10030    2    1    2    0    0  0.00000000000E+00  0.00000000000E+00 -0.85157113668E+02  0.17309371932E+04  0.17288411821E+04 0.  0.
        5    1    3    3  502    0  0.40031685989E+03 -0.65634924258E+03  0.35306246025E+03  0.84600420057E+03  0.46999998093E+01 0. -1.
       -5    1    3    3    0  502 -0.40031685989E+03  0.65634924258E+03 -0.43821957392E+03  0.88493299267E+03  0.46999998093E+01 0.  1.
</event>
<event>
 5   0  0.2561518E-04  0.1694640E+04  0.7818609E-02  0.8764428E-01
        1   -1    0    0  501    0  0.00000000000E+00  0.00000000000E+00  0.90336962701E+03  0.90336962702E+03  0.50400001928E-02 0. -1.
       -1   -1    0    0    0  501  0.00000000000E+00  0.00000000000E+00 -0.79474758537E+03  0.79474758539E+03  0.50400001928E-02 0.  1.
    10030    2    1    2    0    0  0.00000000000E+00  0.00000000000E+00  0.10862204164E+03  0.16981172124E+04  0.16946395838E+04 0.  0.
        4    1    3    3  502    0  0.44302312153E+03  0.48873746244E+03  0.58720628739E+03  0.88314587145E+03  0.12699999809E+01 0. -1.
       -4    1    3    3    0  502 -0.44302312153E+03 -0.48873746244E+03 -0.47858424576E+03  0.81497134096E+03  0.12699999809E+01 0.  1.
</event>
<event>
 5   0  0.2583422E-04  0.1703414E+04  0.7818609E-02  0.8759419E-01
        1   -1    0    0  501    0  0.00000000000E+00  0.00000000000E+00  0.12542862526E+04  0.12542862526E+04  0.50400001928E-02 0. -1.
       -1   -1    0    0    0  501  0.00000000000E+00  0.00000000000E+00 -0.57834099031E+03  0.57834099033E+03  0.50400001928E-02 0.  1.
    10030    2    1    2    0    0  0.00000000000E+00  0.00000000000E+00  0.67594526224E+03  0.18326272429E+04  0.17034143987E+04 0.  0.
        3    1    3    3  502    0  0.65766321736E+02 -0.45252978475E+03  0.11110153798E+04  0.12014422997E+04  0.10100000352E+00 0. -1.
       -3    1    3    3    0  502 -0.65766321736E+02  0.45252978475E+03 -0.43507011754E+03  0.63118494321E+03  0.10100000352E+00 0.  1.
</event>
<event>
 5   0  0.2583422E-04  0.1789364E+04  0.7818609E-02  0.8711976E-01
        1   -1    0    0  501    0  0.00000000000E+00  0.00000000000E+00  0.58264449155E+03  0.58264449157E+03  0.50400001928E-02 0. -1.
       -1   -1    0    0    0  501  0.00000000000E+00  0.00000000000E+00 -0.13738319346E+04  0.13738319346E+04  0.50400001928E-02 0.  1.
    10030    2    1    2    0    0  0.00000000000E+00  0.00000000000E+00 -0.79118744306E+03  0.19564764262E+04  0.17893636959E+04 0.  0.
        3    1    3    3  502    0  0.52327368534E+03 -0.20506365108E+03  0.36554328833E+03  0.67043892832E+03  0.10100000352E+00 0. -1.
       -3    1    3    3    0  502 -0.52327368534E+03  0.20506365108E+03 -0.11567307314E+04  0.12860374979E+04  0.10100000352E+00 0.  1.
</event>
<event>
 5   0  0.2785059E-04  0.1692915E+04  0.7818609E-02  0.8765415E-01
        1   -1    0    0  501    0  0.00000000000E+00  0.00000000000E+00  0.22479487055E+04  0.22479487055E+04  0.50400001928E-02 0.  1.
       -1   -1    0    0    0  501  0.00000000000E+00  0.00000000000E+00 -0.31873077349E+03  0.31873077353E+03  0.50400001928E-02 0. -1.
    10030    2    1    2    0    0  0.00000000000E+00  0.00000000000E+00  0.19292179320E+04  0.25666794790E+04  0.16929151541E+04 0.  0.
        5    1    3    3  502    0  0.80820447151E+03  0.25145377595E+03  0.97476483393E+03  0.12909732920E+04  0.46999998093E+01 0.  1.
       -5    1    3    3    0  502 -0.80820447151E+03 -0.25145377595E+03  0.95445309809E+03  0.12757061870E+04  0.46999998093E+01 0. -1.
</event>
<event>
 5   0  0.5021349E-04  0.1742697E+04  0.7818609E-02  0.8737381E-01
       -2   -1    0    0    0  501  0.00000000000E+00  0.00000000000E+00  0.52953144651E+03  0.52953144651E+03  0.25500000920E-02 0. -1.
        2   -1    0    0  501    0  0.00000000000E+00  0.00000000000E+00 -0.14338105971E+04  0.14338105971E+04  0.25500000920E-02 0.  1.
    10030    2    1    2    0    0  0.00000000000E+00  0.00000000000E+00 -0.90427915060E+03  0.19633420436E+04  0.17426965307E+04 0.  0.
        2    1    3    3  502    0  0.72502547582E+03 -0.12054753152E+03  0.75150921703E+02  0.73881073962E+03  0.25500000920E-02 0. -1.
       -2    1    3    3    0  502 -0.72502547582E+03  0.12054753152E+03 -0.97943007231E+03  0.12245313040E+04  0.25500000920E-02 0.  1.
</event>
<event>
 5   0  0.5299877E-04  0.1256518E+04  0.7818609E-02  0.9064776E-01
        2   -1    0    0  501    0  0.00000000000E+00  0.00000000000E+00  0.15668707054E+04  0.15668707054E+04  0.25500000920E-02 0.  1.
       -2   -1    0    0    0  501  0.00000000000E+00  0.00000000000E+00 -0.25190945371E+03  0.25190945373E+03  0.25500000920E-02 0. -1.
    10030    2    1    2    0    0  0.00000000000E+00  0.00000000000E+00  0.13149612517E+04  0.18187801591E+04  0.12565182743E+04 0.  0.
        3    1    3    3  502    0 -0.34882202671E+03  0.42273797227E+03  0.21292554938E+03  0.58798086644E+03  0.10100000352E+00 0. -1.
       -3    1    3    3    0  502  0.34882202671E+03 -0.42273797227E+03  0.11020357023E+04  0.12307992927E+04  0.10100000352E+00 0.  1.
</event>
<event>
 5   0  0.5299877E-04  0.1697935E+04  0.7818609E-02  0.8762543E-01
       -2   -1    0    0    0  501  0.00000000000E+00  0.00000000000E+00  0.72343671574E+03  0.72343671575E+03  0.25500000920E-02 0.  1.
        2   -1    0    0  501    0  0.00000000000E+00  0.00000000000E+00 -0.99628097476E+03  0.99628097476E+03  0.25500000920E-02 0. -1.
    10030    2    1    2    0    0  0.00000000000E+00  0.00000000000E+00 -0.27284425902E+03  0.17197176905E+04  0.16979354951E+04 0.  0.
        3    1    3    3  502    0  0.14519060271E+03  0.61506194074E+03 -0.71058495842E+03  0.95095346647E+03  0.10100000352E+00 0. -1.
       -3    1    3    3    0  502 -0.14519060271E+03 -0.61506194074E+03  0.43774069940E+03  0.76876422404E+03  0.10100000352E+00 0.  1.
</event>
<event>
 5   0  0.2595644E-04  0.1703266E+04  0.7818609E-02  0.8759504E-01
       -1   -1    0    0    0  501  0.00000000000E+00  0.00000000000E+00  0.45022721355E+03  0.45022721358E+03  0.50400001928E-02 0. -1.
        1   -1    0    0  501    0  0.00000000000E+00  0.00000000000E+00 -0.16109180655E+04  0.16109180655E+04  0.50400001928E-02 0.  1.
    10030    2    1    2    0    0  0.00000000000E+00  0.00000000000E+00 -0.11606908519E+04  0.20611452791E+04  0.17032664524E+04 0.  0.
        2    1    3    3  502    0  0.14212067464E+03 -0.18544645883E+03 -0.15713760643E+04  0.15886508146E+04  0.25500000920E-02 0.  1.
       -2    1    3    3    0  502 -0.14212067464E+03  0.18544645883E+03  0.41068521239E+03  0.47249446446E+03  0.25500000920E-02 0. -1.
</event>
<event>
 5   0  0.5198430E-04  0.1665628E+04  0.7818609E-02  0.8781215E-01
        2   -1    0    0  501    0  0.00000000000E+00  0.00000000000E+00  0.35836163165E+03  0.35836163166E+03  0.25500000920E-02 0. -1.
       -2   -1    0    0    0  501  0.00000000000E+00  0.00000000000E+00 -0.19354158120E+04  0.19354158120E+04  0.25500000920E-02 0.  1.
    10030    2    1    2    0    0  0.00000000000E+00  0.00000000000E+00 -0.15770541803E+04  0.22937774436E+04  0.16656275314E+04 0.  0.
        4    1    3    3  502    0  0.64793064243E+03  0.45555850731E+03 -0.11429314648E+04  0.13905544280E+04  0.12699999809E+01 0.  1.
       -4    1    3    3    0  502 -0.64793064243E+03 -0.45555850731E+03 -0.43412271549E+03  0.90322301564E+03  0.12699999809E+01 0. -1.
</event>
<event>
 5   0  0.5299877E-04  0.1666391E+04  0.7818609E-02  0.8780768E-01
        2   -1    0    0  501    0  0.00000000000E+00  0.00000000000E+00  0.19997003216E+04  0.19997003216E+04  0.25500000920E-02 0. -1.
       -2   -1    0    0    0  501  0.00000000000E+00  0.00000000000E+00 -0.34715937885E+03  0.34715937886E+03  0.25500000920E-02 0.  1.
    10030    2    1    2    0    0  0.00000000000E+00  0.00000000000E+00  0.16525409428E+04  0.23468597005E+04  0.16663909764E+04 0.  0.
        3    1    3    3  502    0 -0.46102890079E+03  0.42500019113E+03  0.15989932176E+04  0.17175424682E+04  0.10100000352E+00 0. -1.
       -3    1    3    3    0  502  0.46102890079E+03 -0.42500019113E+03  0.53547725175E+02  0.62931723232E+03  0.10100000352E+00 0.  1.
</event>
<event>
 5   0  0.5299877E-04  0.1702641E+04  0.7818609E-02  0.8759860E-01
        2   -1    0    0  501    0  0.00000000000E+00  0.00000000000E+00  0.77486121391E+03  0.77486121392E+03  0.25500000920E-02 0.  1.
       -2   -1    0    0    0  501  0.00000000000E+00  0.00000000000E+00 -0.93532403276E+03  0.93532403276E+03  0.25500000920E-02 0. -1.
    10030    2    1    2    0    0  0.00000000000E+00  0.00000000000E+00 -0.16046281884E+03  0.17101852467E+04  0.17026406731E+04 0.  0.
        3    1    3    3  502    0  0.43381839209E+03  0.53694463847E+03 -0.58067438915E+03  0.90204805776E+03  0.10100000352E+00 0. -1.
       -3    1    3    3    0  502 -0.43381839209E+03 -0.53694463847E+03  0.42021157030E+03  0.80813718892E+03  0.10100000352E+00 0.  1.
</event>
<event>
 5   0  0.5299877E-04  0.1751926E+04  0.7818609E-02  0.8732291E-01
        2   -1    0    0  501    0  0.00000000000E+00  0.00000000000E+00  0.11831404695E+04  0.11831404695E+04  0.25500000920E-02 0.  1.
       -2   -1    0    0    0  501  0.00000000000E+00  0.00000000000E+00 -0.64853771808E+03  0.64853771809E+03  0.25500000920E-02 0. -1.
    10030    2    1    2    0    0  0.00000000000E+00  0.00000000000E+00  0.53460275137E+03  0.18316781875E+04  0.17519260489E+04 0.  0.
        3    1    3    3  502    0  0.26803151009E+03 -0.57472653028E+03  0.89909442721E+03  0.11002373718E+04  0.10100000352E+00 0.  1.
       -3    1    3    3    0  502 -0.26803151009E+03  0.57472653028E+03 -0.36449167584E+03  0.73144081576E+03  0.10100000352E+00 0. -1.
</event>
<event>
 5   0  0.5342255E-04  0.1691078E+04  0.7818609E-02  0.8766469E-01
        2   -1    0    0  501    0  0.00000000000E+00  0.00000000000E+00  0.11349229298E+04  0.11349229298E+04  0.25500000920E-02 0. -1.
       -2   -1    0    0    0  501  0.00000000000E+00  0.00000000000E+00 -0.62994234896E+03  0.62994234897E+03  0.25500000920E-02 0.  1.
    10030    2    1    2    0    0  0.00000000000E+00  0.00000000000E+00  0.50498058080E+03  0.17648652787E+04  0.16910777821E+04 0.  0.
        5    1    3    3  502    0  0.56688390985E+03  0.23139316562E+03 -0.35605964831E+03  0.70830835623E+03  0.46999998093E+01 0.  1.
       -5    1    3    3    0  502 -0.56688390985E+03 -0.23139316562E+03  0.86104022911E+03  0.10565569225E+04  0.46999998093E+01 0. -1.
</event>
<event>
 5   0  0.2583422E-04  0.1670720E+04  0.7818609E-02  0.8778242E-01
        1   -1    0    0  501    0  0.00000000000E+00  0.00000000000E+00  0.47347737016E+03  0.47347737019E+03  0.50400001928E-02 0.  1.
       -1   -1    0    0    0  501  0.00000000000E+00  0.00000000000E+00 -0.14738320478E+04  0.14738320478E+04  0.50400001928E-02 0. -1.
    10030    2    1    2    0    0  0.00000000000E+00  0.00000000000E+00 -0.10003546777E+04  0.19473094180E+04  0.16707197516E+04 0.  0.
        3    1    3    3  502    0  0.32189052614E+03 -0.78543469634E+02  0.39361389997E+03  0.51450413010E+03  0.10100000352E+00 0.  1.
       -3    1    3    3    0  502 -0.32189052614E+03  0.78543469634E+02 -0.13939685777E+04  0.14328052879E+04  0.10100000352E+00 0. -1.
</event>
<event>
 5   0  0.2595644E-04  0.1691449E+04  0.7818609E-02  0.8766256E-01
       -1   -1    0    0    0  501  0.00000000000E+00  0.00000000000E+00  0.10118458528E+04  0.10118458528E+04  0.50400001928E-02 0.  1.
        1   -1    0    0  501    0  0.00000000000E+00  0.00000000000E+00 -0.70687667028E+03  0.70687667029E+03  0.50400001928E-02 0. -1.
    10030    2    1    2    0    0  0.00000000000E+00  0.00000000000E+00  0.30496918255E+03  0.17187225231E+04  0.16914493517E+04 0.  0.
        2    1    3    3  502    0  0.22189889209E+03 -0.26428514985E+03 -0.63208200668E+03  0.72014819441E+03  0.25500000920E-02 0. -1.
       -2    1    3    3    0  502 -0.22189889209E+03  0.26428514985E+03  0.93705118923E+03  0.99857432872E+03  0.25500000920E-02 0.  1.
</event>
<event>
 5   0  0.2561518E-04  0.1666991E+04  0.7818609E-02  0.8780418E-01
       -1   -1    0    0    0  501  0.00000000000E+00  0.00000000000E+00  0.58378685404E+03  0.58378685406E+03  0.50400001928E-02 0. -1.
        1   -1    0    0  501    0  0.00000000000E+00  0.00000000000E+00 -0.11900145437E+04  0.11900145437E+04  0.50400001928E-02 0.  1.
    10030    2    1    2    0    0  0.00000000000E+00  0.00000000000E+00 -0.60622768961E+03  0.17738013977E+04  0.16669911178E+04 0.  0.
        4    1    3    3  502    0 -0.67413239886E+03  0.30134499065E+03 -0.71447149491E+03  0.10274893793E+04  0.12699999809E+01 0.  1.
       -4    1    3    3    0  502  0.67413239886E+03 -0.30134499065E+03  0.10824380530E+03  0.74631201844E+03  0.12699999809E+01 0. -1.
</event>
<event>
 5   0  0.5299877E-04  0.1627848E+04  0.7818609E-02  0.8803620E-01
       -2   -1    0    0    0  501  0.00000000000E+00  0.00000000000E+00  0.13760307840E+04  0.13760307840E+04  0.25500000920E-02 0. -1.
        2   -1    0    0  501    0  0.00000000000E+00  0.00000000000E+00 -0.48143717277E+03  0.48143717278E+03  0.25500000920E-02 0.  1.
    10030    2    1    2    0    0  0.00000000000E+00  0.00000000000E+00  0.89459361127E+03  0.18574679568E+04  0.16278481137E+04 0.  0.
        3    1    3    3  502    0  0.11972962130E+03  0.62035582056E+03  0.10328002355E+04  0.12107241068E+04  0.10100000352E+00 0. -1.
       -3    1    3    3    0  502 -0.11972962130E+03 -0.62035582056E+03 -0.13820662419E+03  0.64674384998E+03  0.10100000352E+00 0.  1.
</event>
<event>
 5   0  0.5299877E-04  0.1696196E+04  0.7818609E-02  0.8763537E-01
        2   -1    0    0  501    0  0.00000000000E+00  0.00000000000E+00  0.15916334060E+04  0.15916334060E+04  0.25500000920E-02 0.  1.
       -2   -1    0    0    0  501  0.00000000000E+00  0.00000000000E+00 -0.45190706391E+03  0.45190706392E+03  0.25500000920E-02 0. -1.
    10030    2    1    2    0    0  0.00000000000E+00  0.00000000000E+00  0.11397263421E+04  0.20435404699E+04  0.16961961907E+04 0.  0.
        3    1    3    3  502    0  0.54959141671E+03 -0.33418381546E+03 -0.96087069511E+02  0.65035550506E+03  0.10100000352E+00 0. -1.
       -3    1    3    3    0  502 -0.54959141671E+03  0.33418381546E+03  0.12358134116E+04  0.13931849649E+04  0.10100000352E+00 0.  1.
</event>
<event>
 5   0  0.5310003E-04  0.1727779E+04  0.7818609E-02  0.8745678E-01
        2   -1    0    0  501    0  0.00000000000E+00  0.00000000000E+00  0.41397141817E+03  0.41397141818E+03  0.25500000920E-02 0.  1.
       -2   -1    0    0    0  501  0.00000000000E+00  0.00000000000E+00 -0.18027939676E+04  0.18027939676E+04  0.25500000920E-02 0. -1.
    10030    2    1    2    0    0  0.00000000000E+00  0.00000000000E+00 -0.13888225495E+04  0.22167653858E+04  0.17277791242E+04 0.  0.
        1    1    3    3  502    0  0.23114549180E+02  0.56032001525E+03  0.14868864999E+03  0.58017335041E+03  0.50400001928E-02 0.  1.
       -1    1    3    3    0  502 -0.23114549180E+02 -0.56032001525E+03 -0.15375111995E+04  0.16365920354E+04  0.50400001928E-02 0. -1.
</event>
<event>
 5   0  0.2630135E-04  0.1701581E+04  0.7818609E-02  0.8760463E-01
        1   -1    0    0  501    0  0.00000000000E+00  0.00000000000E+00  0.78962803632E+03  0.78962803634E+03  0.50400001928E-02 0. -1.
       -1   -1    0    0    0  501  0.00000000000E+00  0.00000000000E+00 -0.91669012253E+03  0.91669012255E+03  0.50400001928E-02 0.  1.
    10030    2    1    2    0    0  0.00000000000E+00  0.00000000000E+00 -0.12706208621E+03  0.17063181589E+04  0.17015807020E+04 0.  0.
        1    1    3    3  502    0 -0.61455578884E+03  0.19383656398E+03 -0.62058895739E+03  0.89464075762E+03  0.50400001928E-02 0.  1.
       -1    1    3    3    0  502  0.61455578884E+03 -0.19383656398E+03  0.49352687117E+03  0.81167740127E+03  0.50400001928E-02 0. -1.
</event>
<event>
 5   0  0.5021349E-04  0.1706710E+04  0.7818609E-02  0.8757547E-01
       -2   -1    0    0    0  501  0.00000000000E+00  0.00000000000E+00  0.35689815363E+03  0.35689815364E+03  0.25500000920E-02 0.  1.
        2   -1    0    0  501    0  0.00000000000E+00  0.00000000000E+00 -0.20403984814E+04  0.20403984814E+04  0.25500000920E-02 0. -1.
    10030    2    1    2    0    0  0.00000000000E+00  0.00000000000E+00 -0.16835003278E+04  0.23972966350E+04  0.17067096422E+04 0.  0.
        2    1    3    3  502    0 -0.21397667879E+03 -0.77733965850E+03 -0.12344731490E+04  0.14744378316E+04  0.25500000920E-02 0. -1.
       -2    1    3    3    0  502  0.21397667879E+03  0.77733965850E+03 -0.44902717875E+03  0.92285880340E+03  0.25500000920E-02 0.  1.
</event>
<event>
 5   0  0.5299877E-04  0.1634508E+04  0.7818609E-02  0.8799625E-01
       -2   -1    0    0    0  501  0.00000000000E+00  0.00000000000E+00  0.86394174552E+03  0.86394174552E+03  0.25500000920E-02 0.  1.
        2   -1    0    0  501    0  0.00000000000E+00  0.00000000000E+00 -0.77308909056E+03  0.77308909056E+03  0.25500000920E-02 0. -1.
    10030    2    1    2    0    0  0.00000000000E+00  0.00000000000E+00  0.90852654962E+02  0.16370308361E+04  0.16345078016E+04 0.  0.
        3    1    3    3  502    0  0.31568346115E+03 -0.11871992443E+03 -0.70013759909E+03  0.77713778441E+03  0.10100000352E+00 0. -1.
       -3    1    3    3    0  502 -0.31568346115E+03  0.11871992443E+03  0.79099025405E+03  0.85989305167E+03  0.10100000352E+00 0.  1.
</event>
<event>
 5   0  0.2630135E-04  0.1712052E+04  0.7818609E-02  0.8754520E-01
        1   -1    0    0  501    0  0.00000000000E+00  0.00000000000E+00  0.17476263219E+04  0.17476263219E+04  0.50400001928E-02 0. -1.
       -1   -1    0    0    0  501  0.00000000000E+00  0.00000000000E+00 -0.41930042816E+03  0.41930042819E+03  0.50400001928E-02 0.  1.
    10030    2    1    2    0    0  0.00000000000E+00  0.00000000000E+00  0.13283258938E+04  0.21669267501E+04  0.17120519444E+04 0.  0.
        1    1    3    3  502    0  0.69587968854E+03  0.22248700546E+03  0.99501477089E+02  0.73732594725E+03  0.50400001928E-02 0.  1.
       -1    1    3    3    0  502 -0.69587968854E+03 -0.22248700546E+03  0.12288244167E+04  0.14296008029E+04  0.50400001928E-02 0. -1.
</event>
<event>
 5   0  0.5198430E-04  0.1688495E+04  0.7818609E-02  0.8767953E-01
       -2   -1    0    0    0  501  0.00000000000E+00  0.00000000000E+00  0.84107563557E+03  0.84107563557E+03  0.25500000920E-02 0. -1.
        2   -1    0    0  501    0  0.00000000000E+00  0.00000000000E+00 -0.84743119055E+03  0.84743119055E+03  0.25500000920E-02 0.  1.
    10030    2    1    2    0    0  0.00000000000E+00  0.00000000000E+00 -0.63555549810E+01  0.16885068261E+04  0.16884948649E+04 0.  0.
        4    1    3    3  502    0 -0.33400502637E+03 -0.70354940258E+03  0.32272481468E+03  0.84302671276E+03  0.12699999809E+01 0. -1.
       -4    1    3    3    0  502  0.33400502637E+03  0.70354940258E+03 -0.32908036966E+03  0.84548011337E+03  0.12699999809E+01 0.  1.
</event>
<event>
 5   0  0.2785059E-04  0.1702226E+04  0.7818609E-02  0.8760096E-01
        1   -1    0    0  501    0  0.00000000000E+00  0.00000000000E+00  0.16194558047E+04  0.16194558047E+04  0.50400001928E-02 0.  1.
       -1   -1    0    0    0  501  0.00000000000E+00  0.00000000000E+00 -0.44730689126E+03  0.44730689129E+03  0.50400001928E-02 0. -1.
    10030    2    1    2    0    0  0.00000000000E+00  0.00000000000E+00  0.11721489135E+04  0.20667626960E+04  0.17022264733E+04 0.  0.
        5    1    3    3  502    0  0.98522907823E+02  0.82468195818E+03  0.81180418848E+03  0.11614022671E+04  0.46999998093E+01 0.  1.
       -5    1    3    3    0  502 -0.98522907823E+02 -0.82468195818E+03  0.36034472499E+03  0.90536042896E+03  0.46999998093E+01 0. -1.
</event>
<event>
 5   0  0.5342255E-04  0.1708517E+04  0.7818609E-02  0.8756521E-01
        2   -1    0    0  501    0  0.00000000000E+00  0.00000000000E+00  0.20020132725E+04  0.20020132725E+04  0.25500000920E-02 0.  1.
       -2   -1    0    0    0  501  0.00000000000E+00  0.00000000000E+00 -0.36451205821E+03  0.36451205821E+03  0.25500000920E-02 0. -1.
    10030    2    1    2    0    0  0.00000000000E+00  0.00000000000E+00  0.16375012143E+04  0.23665253307E+04  0.17085174609E+04 0.  0.
        5    1    3    3  502    0 -0.15846822173E+03 -0.66371427115E+03  0.10691164441E+03  0.69071050429E+03  0.46999998093E+01 0. -1.
       -5    1    3    3    0  502  0.15846822173E+03  0.66371427115E+03  0.15305895699E+04  0.16758148265E+04  0.46999998093E+01 0.  1.
</event>
<event>
 5   0  0.5198430E-04  0.1668401E+04  0.7818609E-02  0.8779595E-01
        2   -1    0    0  501    0  0.00000000000E+00  0.00000000000E+00  0.93772902688E+03  0.93772902689E+03  0.25500000920E-02 0.  1.
       -2   -1    0    0    0  501  0.00000000000E+00  0.00000000000E+00 -0.74210165386E+03  0.74210165387E+03  0.25500000920E-02 0. -1.
    10030    2    1    2    0    0  0.00000000000E+00  0.00000000000E+00  0.19562737302E+03  0.16798306808E+04  0.16684007453E+04 0.  0.
        4    1    3    3  502    0 -0.52752260011E+03 -0.63859204925E+03 -0.19039469154E+01  0.82830256363E+03  0.12699999809E+01 0. -1.
       -4    1    3    3    0  502  0.52752260011E+03  0.63859204925E+03  0.19753131994E+03  0.85152811712E+03  0.12699999809E+01 0.  1.
</event>
<event>
 5   0  0.5299877E-04  0.1613571E+04  0.7818609E-02  0.8812254E-01
        2   -1    0    0  501    0  0.00000000000E+00  0.00000000000E+00  0.11030871681E+04  0.11030871681E+04  0.25500000920E-02 0.  1.
       -2   -1    0    0    0  501  0.00000000000E+00  0.00000000000E+00 -0.59007371094E+03  0.59007371095E+03  0.25500000920E-02 0. -1.
    10030    2    1    2    0    0  0.00000000000E+00  0.00000000000E+00  0.51301345716E+03  0.16931608791E+04  0.16135708708E+04 0.  0.
        3    1    3    3  502    0  0.34784172960E+03 -0.51139565034E+03  0.80011738782E+03  0.10112898816E+04  0.10100000352E+00 0.  1.
       -3    1    3    3    0  502 -0.34784172960E+03  0.51139565034E+03 -0.28710393066E+03  0.68187099750E+03  0.10100000352E+00 0. -1.
</event>
<event>
 5   0  0.5299877E-04  0.1690687E+04  0.7818609E-02  0.8766694E-01
       -2   -1    0    0    0  501  0.00000000000E+00  0.00000000000E+00  0.12187106460E+04  0.12187106460E+04  0.25500000920E-02 0.  1.
        2   -1    0    0  501    0  0.00000000000E+00  0.00000000000E+00 -0.58636230118E+03  0.58636230118E+03  0.25500000920E-02 0. -1.
    10030    2    1    2    0    0  0.00000000000E+00  0.00000000000E+00  0.63234834485E+03  0.18050729472E+04  0.16906874092E+04 0.  0.
        3    1    3    3  502    0  0.51356281678E+02 -0.56311429652E+03 -0.35472760644E+03  0.66750795020E+03  0.10100000352E+00 0. -1.
       -3    1    3    3    0  502 -0.51356281678E+02  0.56311429652E+03  0.98707595129E+03  0.11375649970E+04  0.10100000352E+00 0.  1.
</event>
<event>
 5   0  0.5021349E-04  0.1705380E+04  0.7818609E-02  0.8758302E-01
        2   -1    0    0  501    0  0.00000000000E+00  0.00000000000E+00  0.93565240854E+03  0.93565240855E+03  0.25500000920E-02 0. -1.
       -2   -1    0    0    0  501  0.00000000000E+00  0.00000000000E+00 -0.77708340235E+03  0.77708340235E+03  0.25500000920E-02 0.  1.
    10030    2    1    2    0    0  0.00000000000E+00  0.00000000000E+00  0.15856900619E+03  0.17127358109E+04  0.17053796727E+04 0.  0.
        2    1    3    3  502    0  0.45476712271E+03  0.52962630444E+03  0.57105242472E+03  0.90189690654E+03  0.25500000920E-02 0. -1.
       -2    1    3    3    0  502 -0.45476712271E+03 -0.52962630444E+03 -0.41248341852E+03  0.81083890436E+03  0.25500000920E-02 0.  1.
</event>
<event>
 5   0  0.5299877E-04  0.1706106E+04  0.7818609E-02  0.8757890E-01
       -2   -1    0    0    0  501  0.00000000000E+00  0.00000000000E+00  0.38813141910E+03  0.38813141911E+03  0.25500000920E-02 0.  1.
        2   -1    0    0  501    0  0.00000000000E+00  0.00000000000E+00 -0.18748785967E+04  0.18748785967E+04  0.25500000920E-02 0. -1.
    10030    2    1    2    0    0  0.00000000000E+00  0.00000000000E+00 -0.14867471776E+04  0.22630100158E+04  0.17061058471E+04 0.  0.
        3    1    3    3  502    0  0.45393626910E+03  0.71034852062E+03 -0.91655182583E+03  0.12452792525E+04  0.10100000352E+00 0.  1.
       -3    1    3    3    0  502 -0.45393626910E+03 -0.71034852062E+03 -0.57019535177E+03  0.10177307633E+04  0.10100000352E+00 0. -1.
</event>
<event>
 5   0  0.2785059E-04  0.1674939E+04  0.7818609E-02  0.8775788E-01
        1   -1    0    0  501    0  0.00000000000E+00  0.00000000000E+00  0.11208066357E+04  0.11208066357E+04  0.50400001928E-02 0.  1.
       -1   -1    0    0    0  501  0.00000000000E+00  0.00000000000E+00 -0.62575962830E+03  0.62575962832E+03  0.50400001928E-02 0. -1.
    10030    2    1    2    0    0  0.00000000000E+00  0.00000000000E+00  0.49504700738E+03  0.17465662640E+04  0.16749394541E+04 0.  0.
        5    1    3    3  502    0 -0.18542740606E+03  0.81255800397E+03  0.16217202032E+03  0.84909109458E+03  0.46999998093E+01 0. -1.
       -5    1    3    3    0  502  0.18542740606E+03 -0.81255800397E+03  0.33287498706E+03  0.89747516943E+03  0.46999998093E+01 0.  1.
</event>
<event>
 5   0  0.5310003E-04  0.1613651E+04  0.7818609E-02  0.8812205E-01
        2   -1    0    0  501    0  0.00000000000E+00  0.00000000000E+00  0.12974970302E+04  0.12974970302E+04  0.25500000920E-02 0.  1.
       -2   -1    0    0    0  501  0.00000000000E+00  0.00000000000E+00 -0.50171015772E+03  0.50171015773E+03  0.25500000920E-02 0. -1.
    10030    2    1    2    0    0  0.00000000000E+00  0.00000000000E+00  0.79578687251E+03  0.17992071880E+04  0.16136510647E+04 0.  0.
        1    1    3    3  502    0 -0.63669887987E+03 -0.45947131219E+03  0.60489811111E+03  0.99116147787E+03  0.50400001928E-02 0.  1.
       -1    1    3    3    0  502  0.63669887987E+03  0.45947131219E+03  0.19088876140E+03  0.80804571010E+03  0.50400001928E-02 0. -1.
</event>
<event>
 5   0  0.2630135E-04  0.1655413E+04  0.7818609E-02  0.8787211E-01
        1   -1    0    0  501    0  0.00000000000E+00  0.00000000000E+00  0.72263802901E+03  0.72263802903E+03  0.50400001928E-02 0. -1.
       -1   -1    0    0    0  501  0.00000000000E+00  0.00000000000E+00 -0.94805165161E+03  0.94805165162E+03  0.50400001928E-02 0.  1.
    10030    2    1    2    0    0  0.00000000000E+00  0.00000000000E+00 -0.22541362259E+03  0.16706896807E+04  0.16554131532E+04 0.  0.
        1    1    3    3  502    0  0.33912811938E+02 -0.46396541121E+03  0.57821601819E+03  0.74212380728E+03  0.50400001928E-02 0. -1.
       -1    1    3    3    0  502 -0.33912811938E+02  0.46396541121E+03 -0.80362964079E+03  0.92856587337E+03  0.50400001928E-02 0.  1.
</event>
<event>
 5   0  0.5198430E-04  0.1662590E+04  0.7818609E-02  0.8782993E-01
        2   -1    0    0  501    0  0.00000000000E+00  0.00000000000E+00  0.10858068593E+04  0.10858068593E+04  0.25500000920E-02 0.  1.
       -2   -1    0    0    0  501  0.00000000000E+00  0.00000000000E+00 -0.63644038389E+03  0.63644038389E+03  0.25500000920E-02 0. -1.
    10030    2    1    2    0    0  0.00000000000E+00  0.00000000000E+00  0.44936647543E+03  0.17222472432E+04  0.16625899487E+04 0.  0.
        4    1    3    3  502    0  0.29554235364E+03  0.54776509008E+03 -0.34614125617E+03  0.71218484878E+03  0.12699999809E+01 0. -1.
       -4    1    3    3    0  502 -0.29554235364E+03 -0.54776509008E+03  0.79550773160E+03  0.10100623944E+04  0.12699999809E+01 0.  1.
</event>
<event>
 5   0  0.5198430E-04  0.1726748E+04  0.7818609E-02  0.8746255E-01
       -2   -1    0    0    0  501  0.00000000000E+00  0.00000000000E+00  0.37943706097E+03  0.37943706098E+03  0.25500000920E-02 0.  1.
        2   -1    0    0  501    0  0.00000000000E+00  0.00000000000E+00 -0.19645268886E+04  0.19645268886E+04  0.25500000920E-02 0. -1.
    10030    2    1    2    0    0  0.00000000000E+00  0.00000000000E+00 -0.15850898277E+04  0.23439639496E+04  0.17267475888E+04 0.  0.
        4    1    3    3  502    0  0.77282167563E+03  0.85891602065E+02 -0.28321918669E+03  0.82755388359E+03  0.12699999809E+01 0.  1.
       -4    1    3    3    0  502 -0.77282167563E+03 -0.85891602065E+02 -0.13018706410E+04  0.15164100660E+04  0.12699999809E+01 0. -1.
</event>
<event>
 5   0  0.1910750E-04  0.1695921E+04  0.7818609E-02  0.8763694E-01
       -3   -1    0    0    0  501  0.00000000000E+00  0.00000000000E+00  0.10834175872E+04  0.10834175919E+04  0.10100000352E+00 0.  1.
        3   -1    0    0  501    0  0.00000000000E+00  0.00000000000E+00 -0.66367509538E+03  0.66367510306E+03  0.10100000352E+00 0. -1.
    10030    2    1    2    0    0  0.00000000000E+00  0.00000000000E+00  0.41974249178E+03  0.17470926949E+04  0.16959213205E+04 0.  0.
        4    1    3    3  502    0  0.38910622525E+03  0.68034848311E+03 -0.12355804946E+03  0.79343929667E+03  0.12699999809E+01 0. -1.
       -4    1    3    3    0  502 -0.38910622525E+03 -0.68034848311E+03  0.54330054124E+03  0.95365339826E+03  0.12699999809E+01 0.  1.
</event>
<event>
 5   0  0.5198430E-04  0.1682036E+04  0.7818609E-02  0.8771677E-01
       -2   -1    0    0    0  501  0.00000000000E+00  0.00000000000E+00  0.15182173738E+04  0.15182173738E+04  0.25500000920E-02 0.  1.
        2   -1    0    0  501    0  0.00000000000E+00  0.00000000000E+00 -0.46588258179E+03  0.46588258179E+03  0.25500000920E-02 0. -1.
    10030    2    1    2    0    0  0.00000000000E+00  0.00000000000E+00  0.10523347920E+04  0.19840999556E+04  0.16820357069E+04 0.  0.
        4    1    3    3  502    0 -0.37404230958E+03  0.22641791462E+03 -0.32127601034E+03  0.54257958784E+03  0.12699999809E+01 0. -1.
       -4    1    3    3    0  502  0.37404230958E+03 -0.22641791462E+03  0.13736108024E+04  0.14415203678E+04  0.12699999809E+01 0.  1.
</event>
<event>
 5   0  0.5310003E-04  0.1695615E+04  0.7818609E-02  0.8763869E-01
        2   -1    0    0  501    0  0.00000000000E+00  0.00000000000E+00  0.94947014961E+03  0.94947014961E+03  0.25500000920E-02 0. -1.
       -2   -1    0    0    0  501  0.00000000000E+00  0.00000000000E+00 -0.75703046643E+03  0.75703046644E+03  0.25500000920E-02 0.  1.
    10030    2    1    2    0    0  0.00000000000E+00  0.00000000000E+00  0.19243968318E+03  0.17065006160E+04  0.16956153222E+04 0.  0.
        1    1    3    3  502    0 -0.41979222679E+03 -0.12771130514E+03  0.82630232342E+03  0.93558068645E+03  0.50400001928E-02 0. -1.
       -1    1    3    3    0  502  0.41979222679E+03  0.12771130514E+03 -0.63386264025E+03  0.77091992960E+03  0.50400001928E-02 0.  1.
</event>
<event>
 5   0  0.2561518E-04  0.1699565E+04  0.7818609E-02  0.8761613E-01
        1   -1    0    0  501    0  0.00000000000E+00  0.00000000000E+00  0.16282960837E+04  0.16282960837E+04  0.50400001928E-02 0.  1.
       -1   -1    0    0    0  501  0.00000000000E+00  0.00000000000E+00 -0.44348824785E+03  0.44348824788E+03  0.50400001928E-02 0. -1.
    10030    2    1    2    0    0  0.00000000000E+00  0.00000000000E+00  0.11848078358E+04  0.20717843316E+04  0.16995648586E+04 0.  0.
        4    1    3    3  502    0 -0.30688235441E+03 -0.47241389916E+03 -0.18315475285E+03  0.59236724079E+03  0.12699999809E+01 0. -1.
       -4    1    3    3    0  502  0.30688235441E+03  0.47241389916E+03  0.13679625887E+04  0.14794170908E+04  0.12699999809E+01 0.  1.
</event>
<event>
 5   0  0.1910750E-04  0.1703498E+04  0.7818609E-02  0.8759372E-01
        3   -1    0    0  501    0  0.00000000000E+00  0.00000000000E+00  0.12395574553E+04  0.12395574594E+04  0.10100000352E+00 0.  1.
       -3   -1    0    0    0  501  0.00000000000E+00  0.00000000000E+00 -0.58527022448E+03  0.58527023319E+03  0.10100000352E+00 0. -1.
    10030    2    1    2    0    0  0.00000000000E+00  0.00000000000E+00  0.65428723077E+03  0.18248276926E+04  0.17034976745E+04 0.  0.
        1    1    3    3  502    0  0.55911768603E+03  0.44900933760E+03  0.81950377189E+03  0.10889483019E+04  0.50400001928E-02 0.  1.
       -1    1    3    3    0  502 -0.55911768603E+03 -0.44900933760E+03 -0.16521654112E+03  0.73587939064E+03  0.50400001928E-02 0. -1.
</event>
<event>
 5   0  0.2785059E-04  0.1710317E+04  0.7818609E-02  0.8755502E-01
       -1   -1    0    0    0  501  0.00000000000E+00  0.00000000000E+00  0.10418961818E+04  0.10418961818E+04  0.50400001928E-02 0.  1.
        1   -1    0    0  501    0  0.00000000000E+00  0.00000000000E+00 -0.70188971281E+03  0.70188971283E+03  0.50400001928E-02 0. -1.
    10030    2    1    2    0    0  0.00000000000E+00  0.00000000000E+00  0.34000646902E+03  0.17437858947E+04  0.17103171775E+04 0.  0.
        5    1    3    3  502    0  0.43085938100E+03 -0.55735551204E+03 -0.32423962878E+03  0.77552459656E+03  0.46999998093E+01 0. -1.
       -5    1    3    3    0  502 -0.43085938100E+03  0.55735551204E+03  0.66424609779E+03  0.96826129811E+03  0.46999998093E+01 0.  1.
</event>
<event>
 5   0  0.5198430E-04  0.1693796E+04  0.7818609E-02  0.8764911E-01
        2   -1    0    0  501    0  0.00000000000E+00  0.00000000000E+00  0.14849887310E+04  0.14849887310E+04  0.25500000920E-02 0. -1.
       -2   -1    0    0    0  501  0.00000000000E+00  0.00000000000E+00 -0.48299080940E+03  0.48299080941E+03  0.25500000920E-02 0.  1.
    10030    2    1    2    0    0  0.00000000000E+00  0.00000000000E+00  0.10019979216E+04  0.19679795404E+04  0.16937956301E+04 0.  0.
        4    1    3    3  502    0  0.64879032324E+03 -0.47194595519E+03  0.18584910289E+03  0.82353103772E+03  0.12699999809E+01 0. -1.
       -4    1    3    3    0  502 -0.64879032324E+03  0.47194595519E+03  0.81614881872E+03  0.11444485027E+04  0.12699999809E+01 0.  1.
</event>
<event>
 5   0  0.5310003E-04  0.1599770E+04  0.7818609E-02  0.8820689E-01
       -2   -1    0    0    0  501  0.00000000000E+00  0.00000000000E+00  0.11329797109E+04  0.11329797109E+04  0.25500000920E-02 0. -1.
        2   -1    0    0  501    0  0.00000000000E+00  0.00000000000E+00 -0.56471959053E+03  0.56471959054E+03  0.25500000920E-02 0.  1.
    10030    2    1    2    0    0  0.00000000000E+00  0.00000000000E+00  0.56826012035E+03  0.16976993014E+04  0.15997697815E+04 0.  0.
        1    1    3    3  502    0  0.66168861904E+03  0.36488511246E+03  0.56257077971E+03  0.94205034689E+03  0.50400001928E-02 0. -1.
       -1    1    3    3    0  502 -0.66168861904E+03 -0.36488511246E+03  0.56893406358E+01  0.75564895453E+03  0.50400001928E-02 0.  1.
</event>
<event>
 5   0  0.5021349E-04  0.1679633E+04  0.7818609E-02  0.8773067E-01
        2   -1    0    0  501    0  0.00000000000E+00  0.00000000000E+00  0.93097223105E+03  0.93097223105E+03  0.25500000920E-02 0.  1.
       -2   -1    0    0    0  501  0.00000000000E+00  0.00000000000E+00 -0.75758592600E+03  0.75758592600E+03  0.25500000920E-02 0. -1.
    10030    2    1    2    0    0  0.00000000000E+00  0.00000000000E+00  0.17338630505E+03  0.16885581571E+04  0.16796326500E+04 0.  0.
        2    1    3    3  502    0  0.28671595792E+03 -0.58124018679E+03 -0.45022852266E+03  0.78914632223E+03  0.25500000920E-02 0. -1.
       -2    1    3    3    0  502 -0.28671595792E+03  0.58124018679E+03  0.62361482772E+03  0.89941183482E+03  0.25500000920E-02 0.  1.
</event>
<event>
 5   0  0.5342255E-04  0.1694274E+04  0.7818609E-02  0.8764637E-01
        2   -1    0    0  501    0  0.00000000000E+00  0.00000000000E+00  0.95245782155E+03  0.95245782155E+03  0.25500000920E-02 0. -1.
       -2   -1    0    0    0  501  0.00000000000E+00  0.00000000000E+00 -0.75346250074E+03  0.75346250074E+03  0.25500000920E-02 0.  1.
    10030    2    1    2    0    0  0.00000000000E+00  0.00000000000E+00  0.19899532081E+03  0.17059203223E+04  0.16942741833E+04 0.  0.
        5    1    3    3  502    0  0.11596720881E+03  0.83701311232E+03  0.15974051542E+03  0.85998748013E+03  0.46999998093E+01 0.  1.
       -5    1    3    3    0  502 -0.11596720881E+03 -0.83701311232E+03  0.39254805388E+02  0.84593284217E+03  0.46999998093E+01 0. -1.
</event>
<event>
 5   0  0.5021349E-04  0.1693213E+04  0.7818609E-02  0.8765245E-01
        2   -1    0    0  501    0  0.00000000000E+00  0.00000000000E+00  0.22864085603E+04  0.22864085603E+04  0.25500000920E-02 0. -1.
       -2   -1    0    0    0  501  0.00000000000E+00  0.00000000000E+00 -0.31347965804E+03  0.31347965805E+03  0.25500000920E-02 0.  1.
    10030    2    1    2    0    0  0.00000000000E+00  0.00000000000E+00  0.19729289023E+04  0.25998882184E+04  0.16932130092E+04 0.  0.
        2    1    3    3  502    0 -0.74580796822E+03  0.37934066044E+03  0.78855049872E+03  0.11497568226E+04  0.25500000920E-02 0.  1.
       -2    1    3    3    0  502  0.74580796822E+03 -0.37934066044E+03  0.11843784036E+04  0.14501313958E+04  0.25500000920E-02 0. -1.
</event>
<event>
 5   0  0.2583422E-04  0.1692590E+04  0.7818609E-02  0.8765602E-01
       -1   -1    0    0    0  501  0.00000000000E+00  0.00000000000E+00  0.39988517197E+03  0.39988517200E+03  0.50400001928E-02 0.  1.
        1   -1    0    0  501    0  0.00000000000E+00  0.00000000000E+00 -0.17910516954E+04  0.17910516954E+04  0.50400001928E-02 0. -1.
    10030    2    1    2    0    0  0.00000000000E+00  0.00000000000E+00 -0.13911665234E+04  0.21909368674E+04  0.16925897498E+04 0.  0.
        3    1    3    3  502    0  0.18509083304E+03  0.40146677811E+03 -0.16297096597E+04  0.16886052752E+04  0.10100000352E+00 0. -1.
       -3    1    3    3    0  502 -0.18509083304E+03 -0.40146677811E+03  0.23854313629E+03  0.50233159215E+03  0.10100000352E+00 0.  1.
</event>
<event>
 5   0  0.5310003E-04  0.1702681E+04  0.7818609E-02  0.8759837E-01
        2   -1    0    0  501    0  0.00000000000E+00  0.00000000000E+00  0.92278162432E+03  0.92278162432E+03  0.25500000920E-02 0.  1.
       -2   -1    0    0    0  501  0.00000000000E+00  0.00000000000E+00 -0.78543046823E+03  0.78543046823E+03  0.25500000920E-02 0. -1.
    10030    2    1    2    0    0  0.00000000000E+00  0.00000000000E+00  0.13735115609E+03  0.17082120926E+04  0.17026811836E+04 0.  0.
        1    1    3    3  502    0  0.97450784930E+02  0.41277074663E+03 -0.67189872065E+03  0.79455914543E+03  0.50400001928E-02 0. -1.
       -1    1    3    3    0  502 -0.97450784930E+02 -0.41277074663E+03  0.80924987674E+03  0.91365294712E+03  0.50400001928E-02 0.  1.
</event>
<event>
 5   0  0.2595644E-04  0.1713294E+04  0.7818609E-02  0.8753818E-01
       -1   -1    0    0    0  501  0.00000000000E+00  0.00000000000E+00  0.47064649202E+03  0.47064649204E+03  0.50400001928E-02 0. -1.
        1   -1    0    0  501    0  0.00000000000E+00  0.00000000000E+00 -0.15592257722E+04  0.15592257722E+04  0.50400001928E-02 0.  1.
    10030    2    1    2    0    0  0.00000000000E+00  0.00000000000E+00 -0.10885792801E+04  0.20298722642E+04  0.17132940670E+04 0.  0.
        2    1    3    3  502    0  0.41822375729E+03  0.26175504141E+03 -0.13739869873E+04  0.14598859730E+04  0.25500000920E-02 0.  1.
       -2    1    3    3    0  502 -0.41822375729E+03 -0.26175504141E+03  0.28540770716E+03  0.56998629122E+03  0.25500000920E-02 0. -1.
</event>
<event>
 5   0  0.2561518E-04  0.1933193E+04  0.7818609E-02  0.8638508E-01
        1   -1    0    0  501    0  0.00000000000E+00  0.00000000000E+00  0.17636627353E+04  0.17636627353E+04  0.50400001928E-02 0. -1.
       -1   -1    0    0    0  501  0.00000000000E+00  0.00000000000E+00 -0.52975457929E+03  0.52975457932E+03  0.50400001928E-02 0.  1.
    10030    2    1    2    0    0  0.00000000000E+00  0.00000000000E+00  0.12339081560E+04  0.22934173146E+04  0.19331926033E+04 0.  0.
        4    1    3    3  502    0 -0.27133191085E+02 -0.23003766711E+03  0.17302495316E+04  0.17456857085E+04  0.12699999809E+01 0. -1.
       -4    1    3    3    0  502  0.27133191085E+02  0.23003766711E+03 -0.49634137558E+03  0.54773160614E+03  0.12699999809E+01 0.  1.
</event>
<event>
 5   0  0.5299877E-04  0.1552125E+04  0.7818609E-02  0.8850511E-01
       -2   -1    0    0    0  501  0.00000000000E+00  0.00000000000E+00  0.24762667036E+03  0.24762667037E+03  0.25500000920E-02 0.  1.
        2   -1    0    0  501    0  0.00000000000E+00  0.00000000000E+00 -0.24321822948E+04  0.24321822948E+04  0.25500000920E-02 0. -1.
    10030    2    1    2    0    0  0.00000000000E+00  0.00000000000E+00 -0.21845556244E+04  0.26798089651E+04  0.15521252570E+04 0.  0.
        3    1    3    3  502    0  0.95344187088E+02  0.46592672665E+03 -0.33448808621E+02  0.47675681602E+03  0.10100000352E+00 0.  1.
       -3    1    3    3    0  502 -0.95344187088E+02 -0.46592672665E+03 -0.21511068158E+04  0.22030521491E+04  0.10100000352E+00 0. -1.
</event>
<event>
 5   0  0.5342255E-04  0.1700285E+04  0.7818609E-02  0.8761202E-01
        2   -1    0    0  501    0  0.00000000000E+00  0.00000000000E+00  0.31747978407E+04  0.31747978407E+04  0.25500000920E-02 0. -1.
       -2   -1    0    0    0  501  0.00000000000E+00  0.00000000000E+00 -0.22764979545E+03  0.22764979546E+03  0.25500000920E-02 0.  1.
    10030    2    1    2    0    0  0.00000000000E+00  0.00000000000E+00  0.29471480453E+04  0.34024476362E+04  0.17002847750E+04 0.  0.
        5    1    3    3  502    0  0.28174298938E+03 -0.51481838154E+03  0.24276796313E+03  0.63511845506E+03  0.46999998093E+01 0.  1.
       -5    1    3    3    0  502 -0.28174298938E+03  0.51481838154E+03  0.27043800821E+04  0.27673291811E+04  0.46999998093E+01 0. -1.
</event>
<event>
 5   0  0.1910750E-04  0.1691491E+04  0.7818609E-02  0.8766232E-01
       -3   -1    0    0    0  501  0.00000000000E+00  0.00000000000E+00  0.15878138568E+04  0.15878138600E+04  0.10100000352E+00 0.  1.
        3   -1    0    0  501    0  0.00000000000E+00  0.00000000000E+00 -0.45048462476E+03  0.45048463608E+03  0.10100000352E+00 0. -1.
    10030    2    1    2    0    0  0.00000000000E+00  0.00000000000E+00  0.11373292321E+04  0.20382984961E+04  0.16914913471E+04 0.  0.
        1    1    3    3  502    0 -0.31068860084E+03  0.88816694056E+02  0.15104943089E+04  0.15446711200E+04  0.50400001928E-02 0.  1.
       -1    1    3    3    0  502  0.31068860084E+03 -0.88816694056E+02 -0.37316507683E+03  0.49362737609E+03  0.50400001928E-02 0. -1.
</event>
<event>
 5   0  0.5342255E-04  0.1609333E+04  0.7818609E-02  0.8814835E-01
       -2   -1    0    0    0  501  0.00000000000E+00  0.00000000000E+00  0.66446380137E+03  0.66446380137E+03  0.25500000920E-02 0.  1.
        2   -1    0    0  501    0  0.00000000000E+00  0.00000000000E+00 -0.97445180047E+03  0.97445180048E+03  0.25500000920E-02 0. -1.
    10030    2    1    2    0    0  0.00000000000E+00  0.00000000000E+00 -0.30998799911E+03  0.16389156018E+04  0.16093327159E+04 0.  0.
        5    1    3    3  502    0 -0.56089565035E+03 -0.52635395855E+03 -0.39558541901E+03  0.86496377612E+03  0.46999998093E+01 0. -1.
       -5    1    3    3    0  502  0.56089565035E+03  0.52635395855E+03  0.85597419904E+02  0.77395182573E+03  0.46999998093E+01 0.  1.
</event>
<event>
 5   0  0.5310003E-04  0.1699285E+04  0.7818609E-02  0.8761772E-01
       -2   -1    0    0    0  501  0.00000000000E+00  0.00000000000E+00  0.85079827669E+03  0.85079827669E+03  0.25500000920E-02 0.  1.
        2   -1    0    0  501    0  0.00000000000E+00  0.00000000000E+00 -0.84848795518E+03  0.84848795519E+03  0.25500000920E-02 0. -1.
    10030    2    1    2    0    0  0.00000000000E+00  0.00000000000E+00  0.23103215070E+01  0.16992862319E+04  0.16992846613E+04 0.  0.
        1    1    3    3  502    0  0.56591115790E+03 -0.61954295803E+03  0.13458382133E+03  0.84982452334E+03  0.50400001928E-02 0. -1.
       -1    1    3    3    0  502 -0.56591115790E+03  0.61954295803E+03 -0.13227349982E+03  0.84946170853E+03  0.50400001928E-02 0.  1.
</event>
<event>
 5   0  0.2561518E-04  0.1678761E+04  0.7818609E-02  0.8773571E-01
       -1   -1    0    0    0  501  0.00000000000E+00  0.00000000000E+00  0.60409473471E+03  0.60409473474E+03  0.50400001928E-02 0. -1.
        1   -1    0    0  501    0  0.00000000000E+00  0.00000000000E+00 -0.11663064218E+04  0.11663064218E+04  0.50400001928E-02 0.  1.
    10030    2    1    2    0    0  0.00000000000E+00  0.00000000000E+00 -0.56221168705E+03  0.17704011565E+04  0.16787609341E+04 0.  0.
        4    1    3    3  502    0 -0.14877828595E+03 -0.59482914044E+03  0.32342358846E+03  0.69322515473E+03  0.12699999809E+01 0. -1.
       -4    1    3    3    0  502  0.14877828595E+03  0.59482914044E+03 -0.88563527551E+03  0.10771760018E+04  0.12699999809E+01 0.  1.
</event>
<event>
 5   0  0.2785059E-04  0.1720659E+04  0.7818609E-02  0.8749669E-01
        1   -1    0    0  501    0  0.00000000000E+00  0.00000000000E+00  0.18204478285E+04  0.18204478285E+04  0.50400001928E-02 0. -1.
       -1   -1    0    0    0  501  0.00000000000E+00  0.00000000000E+00 -0.40658505316E+03  0.40658505319E+03  0.50400001928E-02 0.  1.
    10030    2    1    2    0    0  0.00000000000E+00  0.00000000000E+00  0.14138627753E+04  0.22270328817E+04  0.17206590332E+04 0.  0.
        5    1    3    3  502    0  0.34811760400E+03  0.76094628522E+03  0.96552946545E+03  0.12776910244E+04  0.46999998093E+01 0. -1.
       -5    1    3    3    0  502 -0.34811760400E+03 -0.76094628522E+03  0.44833330985E+03  0.94934185725E+03  0.46999998093E+01 0.  1.
</event>
<event>
 5   0  0.5342255E-04  0.1654991E+04  0.7818609E-02  0.8787460E-01
       -2   -1    0    0    0  501  0.00000000000E+00  0.00000000000E+00  0.28828832872E+03  0.28828832873E+03  0.25500000920E-02 0.  1.
        2   -1    0    0  501    0  0.00000000000E+00  0.00000000000E+00 -0.23752207490E+04  0.23752207490E+04  0.25500000920E-02 0. -1.
    10030    2    1    2    0    0  0.00000000000E+00  0.00000000000E+00 -0.20869324203E+04  0.26635090777E+04  0.16549905378E+04 0.  0.
        5    1    3    3  502    0 -0.56991675112E+03  0.59798202303E+03 -0.11212964609E+04  0.13927366752E+04  0.46999998093E+01 0.  1.
       -5    1    3    3    0  502  0.56991675112E+03 -0.59798202303E+03 -0.96563595932E+03  0.12707724025E+04  0.46999998093E+01 0. -1.
</event>
<event>
 5   0  0.5021349E-04  0.1698557E+04  0.7818609E-02  0.8762188E-01
        2   -1    0    0  501    0  0.00000000000E+00  0.00000000000E+00  0.12058056882E+04  0.12058056882E+04  0.25500000920E-02 0. -1.
       -2   -1    0    0    0  501  0.00000000000E+00  0.00000000000E+00 -0.59816732311E+03  0.59816732311E+03  0.25500000920E-02 0.  1.
    10030    2    1    2    0    0  0.00000000000E+00  0.00000000000E+00  0.60763836505E+03  0.18039730113E+04  0.16985565174E+04 0.  0.
        2    1    3    3  502    0  0.36520317659E+03  0.49191645408E+03  0.92846935939E+03  0.11123895493E+04  0.25500000920E-02 0. -1.
       -2    1    3    3    0  502 -0.36520317659E+03 -0.49191645408E+03 -0.32083099434E+03  0.69158346201E+03  0.25500000920E-02 0.  1.
</event>
<event>
 5   0  0.5299877E-04  0.1716291E+04  0.7818609E-02  0.8752127E-01
        2   -1    0    0  501    0  0.00000000000E+00  0.00000000000E+00  0.52055391732E+03  0.52055391733E+03  0.25500000920E-02 0. -1.
       -2   -1    0    0    0  501  0.00000000000E+00  0.00000000000E+00 -0.14146731801E+04  0.14146731801E+04  0.25500000920E-02 0.  1.
    10030    2    1    2    0    0  0.00000000000E+00  0.00000000000E+00 -0.89411926277E+03  0.19352270974E+04  0.17162909609E+04 0.  0.
        3    1    3    3  502    0  0.15262099743E+03 -0.37704064321E+03  0.40494936904E+03  0.57396586760E+03  0.10100000352E+00 0. -1.
       -3    1    3    3    0  502 -0.15262099743E+03  0.37704064321E+03 -0.12990686318E+04  0.13612612298E+04  0.10100000352E+00 0.  1.
</event>
<event>
 5   0  0.2630135E-04  0.1723375E+04  0.7818609E-02  0.8748144E-01
        1   -1    0    0  501    0  0.00000000000E+00  0.00000000000E+00  0.15769285476E+04  0.15769285476E+04  0.50400001928E-02 0. -1.
       -1   -1    0    0    0  501  0.00000000000E+00  0.00000000000E+00 -0.47085520390E+03  0.47085520393E+03  0.50400001928E-02 0.  1.
    10030    2    1    2    0    0  0.00000000000E+00  0.00000000000E+00  0.11060733437E+04  0.20477837515E+04  0.17233746115E+04 0.  0.
        1    1    3    3  502    0 -0.12445387949E+03 -0.44163886604E+03  0.14196962208E+04  0.14920023510E+04  0.50400001928E-02 0. -1.
       -1    1    3    3    0  502  0.12445387949E+03  0.44163886604E+03 -0.31362287708E+03  0.55578140053E+03  0.50400001928E-02 0.  1.
</event>
<event>
 5   0  0.5299877E-04  0.1630848E+04  0.7818609E-02  0.8801818E-01
        2   -1    0    0  501    0  0.00000000000E+00  0.00000000000E+00  0.11564866433E+04  0.11564866433E+04  0.25500000920E-02 0. -1.
       -2   -1    0    0    0  501  0.00000000000E+00  0.00000000000E+00 -0.57494542105E+03  0.57494542106E+03  0.25500000920E-02 0.  1.
    10030    2    1    2    0    0  0.00000000000E+00  0.00000000000E+00  0.58154122227E+03  0.17314320644E+04  0.16308484909E+04 0.  0.
        3    1    3    3  502    0  0.55271853970E+03 -0.30445735303E+03  0.83907711480E+03  0.10498773637E+04  0.10100000352E+00 0. -1.
       -3    1    3    3    0  502 -0.55271853970E+03  0.30445735303E+03 -0.25753589253E+03  0.68155470072E+03  0.10100000352E+00 0.  1.
</event>
<event>
 5   0  0.5342255E-04  0.1672720E+04  0.7818609E-02  0.8777078E-01
        2   -1    0    0  501    0  0.00000000000E+00  0.00000000000E+00  0.10515037426E+04  0.10515037426E+04  0.25500000920E-02 0. -1.
       -2   -1    0    0    0  501  0.00000000000E+00  0.00000000000E+00 -0.66523611144E+03  0.66523611144E+03  0.25500000920E-02 0.  1.
    10030    2    1    2    0    0  0.00000000000E+00  0.00000000000E+00  0.38626763118E+03  0.17167398541E+04  0.16727202526E+04 0.  0.
        5    1    3    3  502    0 -0.30301979918E+03  0.53157583519E+03 -0.39203050585E+03  0.72670755794E+03  0.46999998093E+01 0.  1.
       -5    1    3    3    0  502  0.30301979918E+03 -0.53157583519E+03  0.77829813703E+03  0.99003229612E+03  0.46999998093E+01 0. -1.
</event>
<event>
 5   0  0.2630135E-04  0.1710462E+04  0.7818609E-02  0.8755420E-01
       -1   -1    0    0    0  501  0.00000000000E+00  0.00000000000E+00  0.44623299641E+03  0.44623299644E+03  0.50400001928E-02 0. -1.
        1   -1    0    0  501    0  0.00000000000E+00  0.00000000000E+00 -0.16390991038E+04  0.16390991038E+04  0.50400001928E-02 0.  1.
    10030    2    1    2    0    0  0.00000000000E+00  0.00000000000E+00 -0.11928661074E+04  0.20853321003E+04  0.17104620482E+04 0.  0.
        1    1    3    3  502    0  0.10114081997E+03  0.34862530657E+03 -0.15405180152E+04  0.15827080669E+04  0.50400001928E-02 0.  1.
       -1    1    3    3    0  502 -0.10114081997E+03 -0.34862530657E+03  0.34765190783E+03  0.50262403333E+03  0.50400001928E-02 0. -1.
</event>
<event>
 5   0  0.2595644E-04  0.1702036E+04  0.7818609E-02  0.8760204E-01
        1   -1    0    0  501    0  0.00000000000E+00  0.00000000000E+00  0.78628757556E+03  0.78628757558E+03  0.50400001928E-02 0.  1.
       -1   -1    0    0    0  501  0.00000000000E+00  0.00000000000E+00 -0.92107759765E+03  0.92107759766E+03  0.50400001928E-02 0. -1.
    10030    2    1    2    0    0  0.00000000000E+00  0.00000000000E+00 -0.13479002209E+03  0.17073651732E+04  0.17020362760E+04 0.  0.
        2    1    3    3  502    0  0.62417932990E+03  0.72918256060E+02  0.50826139050E+03  0.80823669121E+03  0.25500000920E-02 0.  1.
       -2    1    3    3    0  502 -0.62417932990E+03 -0.72918256060E+02 -0.64305141259E+03  0.89912848202E+03  0.25500000920E-02 0. -1.
</event>
<event>
 5   0  0.5198430E-04  0.1805064E+04  0.7818609E-02  0.8703611E-01
        2   -1    0    0  501    0  0.00000000000E+00  0.00000000000E+00  0.92714745853E+03  0.92714745853E+03  0.25500000920E-02 0. -1.
       -2   -1    0    0    0  501  0.00000000000E+00  0.00000000000E+00 -0.87857031797E+03  0.87857031798E+03  0.25500000920E-02 0.  1.
    10030    2    1    2    0    0  0.00000000000E+00  0.00000000000E+00  0.48577140554E+02  0.18057177765E+04  0.18050642509E+04 0.  0.
        4    1    3    3  502    0 -0.52907065385E+03  0.72769195702E+03  0.95807695246E+02  0.90478288470E+03  0.12699999809E+01 0.  1.
       -4    1    3    3    0  502  0.52907065385E+03 -0.72769195702E+03 -0.47230554692E+02  0.90093489181E+03  0.12699999809E+01 0. -1.
</event>
<event>
 5   0  0.5198430E-04  0.1696007E+04  0.7818609E-02  0.8763645E-01
       -2   -1    0    0    0  501  0.00000000000E+00  0.00000000000E+00  0.35263208134E+03  0.35263208135E+03  0.25500000920E-02 0. -1.
        2   -1    0    0  501    0  0.00000000000E+00  0.00000000000E+00 -0.20392634182E+04  0.20392634182E+04  0.25500000920E-02 0.  1.
    10030    2    1    2    0    0  0.00000000000E+00  0.00000000000E+00 -0.16866313369E+04  0.23918954996E+04  0.16960067259E+04 0.  0.
        4    1    3    3  502    0  0.39681477038E+03  0.13844173128E+03  0.19542348869E+03  0.46348681512E+03  0.12699999809E+01 0. -1.
       -4    1    3    3    0  502 -0.39681477038E+03 -0.13844173128E+03 -0.18820548256E+04  0.19284086844E+04  0.12699999809E+01 0.  1.
</event>
<event>
 5   0  0.5021349E-04  0.1695760E+04  0.7818609E-02  0.8763787E-01
        2   -1    0    0  501    0  0.00000000000E+00  0.00000000000E+00  0.19669521240E+04  0.19669521240E+04  0.25500000920E-02 0. -1.
       -2   -1    0    0    0  501  0.00000000000E+00  0.00000000000E+00 -0.36548939882E+03  0.36548939883E+03  0.25500000920E-02 0.  1.
    10030    2    1    2    0    0  0.00000000000E+00  0.00000000000E+00  0.16014627252E+04  0.23324415228E+04  0.16957595930E+04 0.  0.
        2    1    3    3  502    0  0.63884838737E+02 -0.83989561652E+03  0.93404576717E+03  0.12577549103E+04  0.25500000920E-02 0. -1.
       -2    1    3    3    0  502 -0.63884838737E+02  0.83989561652E+03  0.66741695802E+03  0.10746866125E+04  0.25500000920E-02 0.  1.
</event>
<event>
 5   0  0.5310003E-04  0.1698235E+04  0.7818609E-02  0.8762372E-01
       -2   -1    0    0    0  501  0.00000000000E+00  0.00000000000E+00  0.38169102736E+03  0.38169102737E+03  0.25500000920E-02 0.  1.
        2   -1    0    0  501    0  0.00000000000E+00  0.00000000000E+00 -0.18889636579E+04  0.18889636579E+04  0.25500000920E-02 0. -1.
    10030    2    1    2    0    0  0.00000000000E+00  0.00000000000E+00 -0.15072726305E+04  0.22706546852E+04  0.16982349416E+04 0.  0.
        1    1    3    3  502    0 -0.32495976917E+03 -0.55429727600E+03 -0.14958667282E+04  0.16280238298E+04  0.50400001928E-02 0. -1.
       -1    1    3    3    0  502  0.32495976917E+03  0.55429727600E+03 -0.11405902305E+02  0.64263085547E+03  0.50400001928E-02 0.  1.
</event>
<event>
 5   0  0.5198430E-04  0.1685293E+04  0.7818609E-02  0.8769797E-01
       -2   -1    0    0    0  501  0.00000000000E+00  0.00000000000E+00  0.12623746311E+04  0.12623746311E+04  0.25500000920E-02 0. -1.
        2   -1    0    0  501    0  0.00000000000E+00  0.00000000000E+00 -0.56247437837E+03  0.56247437837E+03  0.25500000920E-02 0.  1.
    10030    2    1    2    0    0  0.00000000000E+00  0.00000000000E+00  0.69990025272E+03  0.18248490095E+04  0.16852933108E+04 0.  0.
        4    1    3    3  502    0 -0.31605340471E+03  0.61315545683E+03  0.87396922234E+03  0.11134061179E+04  0.12699999809E+01 0. -1.
       -4    1    3    3    0  502  0.31605340471E+03 -0.61315545683E+03 -0.17406896962E+03  0.71144289156E+03  0.12699999809E+01 0.  1.
</event>
<event>
 5   0  0.5299877E-04  0.1691805E+04  0.7818609E-02  0.8766052E-01
        2   -1    0    0  501    0  0.00000000000E+00  0.00000000000E+00  0.94060460252E+03  0.94060460253E+03  0.25500000920E-02 0. -1.
       -2   -1    0    0    0  501  0.00000000000E+00  0.00000000000E+00 -0.76073477205E+03  0.76073477206E+03  0.25500000920E-02 0.  1.
    10030    2    1    2    0    0  0.00000000000E+00  0.00000000000E+00  0.17986983047E+03  0.17013393746E+04  0.16918045134E+04 0.  0.
        3    1    3    3  502    0 -0.19522814426E+02  0.35725959440E+03 -0.68089341420E+03  0.76917579900E+03  0.10100000352E+00 0.  1.
       -3    1    3    3    0  502  0.19522814426E+02 -0.35725959440E+03  0.86076324467E+03  0.93216357558E+03  0.10100000352E+00 0. -1.
</event>
<event>
 5   0  0.2630135E-04  0.1709091E+04  0.7818609E-02  0.8756196E-01
        1   -1    0    0  501    0  0.00000000000E+00  0.00000000000E+00  0.92148144033E+03  0.92148144034E+03  0.50400001928E-02 0.  1.
       -1   -1    0    0    0  501  0.00000000000E+00  0.00000000000E+00 -0.79247173960E+03  0.79247173962E+03  0.50400001928E-02 0. -1.
    10030    2    1    2    0    0  0.00000000000E+00  0.00000000000E+00  0.12900970072E+03  0.17139531800E+04  0.17090909865E+04 0.  0.
        1    1    3    3  502    0  0.17023853829E+03 -0.15399352367E+03  0.88998256601E+03  0.91911051189E+03  0.50400001928E-02 0.  1.
       -1    1    3    3    0  502 -0.17023853829E+03  0.15399352367E+03 -0.76097286529E+03  0.79484266806E+03  0.50400001928E-02 0. -1.
</event>
<event>
 5   0  0.2583422E-04  0.1697820E+04  0.7818609E-02  0.8762609E-01
        1   -1    0    0  501    0  0.00000000000E+00  0.00000000000E+00  0.99759925898E+03  0.99759925899E+03  0.50400001928E-02 0.  1.
       -1   -1    0    0    0  501  0.00000000000E+00  0.00000000000E+00 -0.72238248964E+03  0.72238248965E+03  0.50400001928E-02 0. -1.
    10030    2    1    2    0    0  0.00000000000E+00  0.00000000000E+00  0.27521676934E+03  0.17199817486E+04  0.16978200569E+04 0.  0.
        3    1    3    3  502    0  0.45910172260E+03 -0.34254716223E+03 -0.49709603815E+03  0.75843090087E+03  0.10100000352E+00 0. -1.
       -3    1    3    3    0  502 -0.45910172260E+03  0.34254716223E+03  0.77231280749E+03  0.96155084778E+03  0.10100000352E+00 0.  1.
</event>
<event>
 5   0  0.2561518E-04  0.1710474E+04  0.7818609E-02  0.8755413E-01
       -1   -1    0    0    0  501  0.00000000000E+00  0.00000000000E+00  0.80049840662E+03  0.80049840664E+03  0.50400001928E-02 0. -1.
        1   -1    0    0  501    0  0.00000000000E+00  0.00000000000E+00 -0.91371877627E+03  0.91371877629E+03  0.50400001928E-02 0.  1.
    10030    2    1    2    0    0  0.00000000000E+00  0.00000000000E+00 -0.11322036965E+03  0.17142171829E+04  0.17104741150E+04 0.  0.
        4    1    3    3  502    0  0.71041615915E+03 -0.27444360817E+03  0.33336651689E+03  0.83135146643E+03  0.12699999809E+01 0. -1.
       -4    1    3    3    0  502 -0.71041615915E+03  0.27444360817E+03 -0.44658688654E+03  0.88286571650E+03  0.12699999809E+01 0.  1.
</event>
<event>
 5   0  0.2630135E-04  0.1688630E+04  0.7818609E-02  0.8767876E-01
        1   -1    0    0  501    0  0.00000000000E+00  0.00000000000E+00  0.15028695181E+04  0.15028695182E+04  0.50400001928E-02 0. -1.
       -1   -1    0    0    0  501  0.00000000000E+00  0.00000000000E+00 -0.47433794227E+03  0.47433794230E+03  0.50400001928E-02 0.  1.
    10030    2    1    2    0    0  0.00000000000E+00  0.00000000000E+00  0.10285315759E+04  0.19772074605E+04  0.16886302553E+04 0.  0.
        1    1    3    3  502    0 -0.82245539811E+03  0.13054904466E+03  0.35121230009E+03  0.90378427443E+03  0.50400001928E-02 0. -1.
       -1    1    3    3    0  502  0.82245539811E+03 -0.13054904466E+03  0.67731927578E+03  0.10734231860E+04  0.50400001928E-02 0.  1.
</event>
<event>
 5   0  0.5310003E-04  0.1703530E+04  0.7818609E-02  0.8759353E-01
        2   -1    0    0  501    0  0.00000000000E+00  0.00000000000E+00  0.12587315876E+04  0.12587315876E+04  0.25500000920E-02 0.  1.
       -2   -1    0    0    0  501  0.00000000000E+00  0.00000000000E+00 -0.57637692853E+03  0.57637692854E+03  0.25500000920E-02 0. -1.
    10030    2    1    2    0    0  0.00000000000E+00  0.00000000000E+00  0.68235465902E+03  0.18351085161E+04  0.17035302713E+04 0.  0.
        1    1    3    3  502    0  0.34876710335E+03 -0.10277881160E+03  0.11709320922E+04  0.12260848017E+04  0.50400001928E-02 0.  1.
       -1    1    3    3    0  502 -0.34876710335E+03  0.10277881160E+03 -0.48857743314E+03  0.60902371439E+03  0.50400001928E-02 0. -1.
</event>
<event>
 5   0  0.5198430E-04  0.1715499E+04  0.7818609E-02  0.8752574E-01
        2   -1    0    0  501    0  0.00000000000E+00  0.00000000000E+00  0.14751293193E+04  0.14751293193E+04  0.25500000920E-02 0.  1.
       -2   -1    0    0    0  501  0.00000000000E+00  0.00000000000E+00 -0.49875901120E+03  0.49875901120E+03  0.25500000920E-02 0. -1.
    10030    2    1    2    0    0  0.00000000000E+00  0.00000000000E+00  0.97637030808E+03  0.19738883305E+04  0.17154988087E+04 0.  0.
        4    1    3    3  502    0 -0.41882555109E+03 -0.60523131495E+03 -0.18627176343E+02  0.73625292627E+03  0.12699999809E+01 0.  1.
       -4    1    3    3    0  502  0.41882555109E+03  0.60523131495E+03  0.99499748442E+03  0.12376354042E+04  0.12699999809E+01 0. -1.
</event>
<event>
 5   0  0.5021349E-04  0.1694331E+04  0.7818609E-02  0.8764604E-01
       -2   -1    0    0    0  501  0.00000000000E+00  0.00000000000E+00  0.76251091102E+03  0.76251091103E+03  0.25500000920E-02 0. -1.
        2   -1    0    0  501    0  0.00000000000E+00  0.00000000000E+00 -0.94121804034E+03  0.94121804035E+03  0.25500000920E-02 0.  1.
    10030    2    1    2    0    0  0.00000000000E+00  0.00000000000E+00 -0.17870712932E+03  0.17037289514E+04  0.16943305763E+04 0.  0.
        2    1    3    3  502    0 -0.61214394589E+03 -0.53043480764E+03 -0.33893941352E+03  0.87804397480E+03  0.25500000920E-02 0.  1.
       -2    1    3    3    0  502  0.61214394589E+03  0.53043480764E+03  0.16023228420E+03  0.82568497658E+03  0.25500000920E-02 0. -1.
</event>
<event>
 5   0  0.2785059E-04  0.1730161E+04  0.7818609E-02  0.8744347E-01
       -1   -1    0    0    0  501  0.00000000000E+00  0.00000000000E+00  0.46296247072E+03  0.46296247074E+03  0.50400001928E-02 0.  1.
        1   -1    0    0  501    0  0.00000000000E+00  0.00000000000E+00 -0.16164676603E+04  0.16164676603E+04  0.50400001928E-02 0. -1.
    10030    2    1    2    0    0  0.00000000000E+00  0.00000000000E+00 -0.11535051896E+04  0.20794301310E+04  0.17301605265E+04 0.  0.
        5    1    3    3  502    0  0.42609140375E+03 -0.57797806445E+03  0.30543502496E+01  0.71808352327E+03  0.46999998093E+01 0.  1.
       -5    1    3    3    0  502 -0.42609140375E+03  0.57797806445E+03 -0.11565595398E+04  0.13613466078E+04  0.46999998093E+01 0. -1.
</event>
<event>
 5   0  0.2583422E-04  0.1703990E+04  0.7818609E-02  0.8759092E-01
        1   -1    0    0  501    0  0.00000000000E+00  0.00000000000E+00  0.74586558380E+03  0.74586558381E+03  0.50400001928E-02 0. -1.
       -1   -1    0    0    0  501  0.00000000000E+00  0.00000000000E+00 -0.97322504512E+03  0.97322504513E+03  0.50400001928E-02 0.  1.
    10030    2    1    2    0    0  0.00000000000E+00  0.00000000000E+00 -0.22735946132E+03  0.17190906289E+04  0.17039895146E+04 0.  0.
        3    1    3    3  502    0  0.41536653012E+02 -0.41430401541E+03 -0.86358537265E+03  0.95872457817E+03  0.10100000352E+00 0.  1.
       -3    1    3    3    0  502 -0.41536653012E+02  0.41430401541E+03  0.63622591133E+03  0.76036605078E+03  0.10100000352E+00 0. -1.
</event>
<event>
 5   0  0.5310003E-04  0.1745812E+04  0.7818609E-02  0.8735659E-01
        2   -1    0    0  501    0  0.00000000000E+00  0.00000000000E+00  0.15648575102E+04  0.15648575102E+04  0.25500000920E-02 0. -1.
       -2   -1    0    0    0  501  0.00000000000E+00  0.00000000000E+00 -0.48692283856E+03  0.48692283857E+03  0.25500000920E-02 0.  1.
    10030    2    1    2    0    0  0.00000000000E+00  0.00000000000E+00  0.10779346717E+04  0.20517803488E+04  0.17458119725E+04 0.  0.
        1    1    3    3  502    0 -0.47750617743E+03 -0.49580813842E+03  0.11698162764E+04  0.13573164628E+04  0.50400001928E-02 0. -1.
       -1    1    3    3    0  502  0.47750617743E+03  0.49580813842E+03 -0.91881604759E+02  0.69446388598E+03  0.50400001928E-02 0.  1.
</event>
<event>
 5   0  0.2561518E-04  0.1694784E+04  0.7818609E-02  0.8764345E-01
       -1   -1    0    0    0  501  0.00000000000E+00  0.00000000000E+00  0.97125609079E+03  0.97125609080E+03  0.50400001928E-02 0. -1.
        1   -1    0    0  501    0  0.00000000000E+00  0.00000000000E+00 -0.73932433891E+03  0.73932433893E+03  0.50400001928E-02 0.  1.
    10030    2    1    2    0    0  0.00000000000E+00  0.00000000000E+00  0.23193175188E+03  0.17105804297E+04  0.16947840774E+04 0.  0.
        4    1    3    3  502    0 -0.23500394725E+03 -0.63158190652E+03  0.63451417279E+03  0.92559840548E+03  0.12699999809E+01 0. -1.
       -4    1    3    3    0  502  0.23500394725E+03  0.63158190652E+03 -0.40258242091E+03  0.78498202425E+03  0.12699999809E+01 0.  1.
</event>
<event>
 5   0  0.2583422E-04  0.1687873E+04  0.7818609E-02  0.8768311E-01
        1   -1    0    0  501    0  0.00000000000E+00  0.00000000000E+00  0.61800760343E+03  0.61800760345E+03  0.50400001928E-02 0. -1.
       -1   -1    0    0    0  501  0.00000000000E+00  0.00000000000E+00 -0.11524590417E+04  0.11524590417E+04  0.50400001928E-02 0.  1.
    10030    2    1    2    0    0  0.00000000000E+00  0.00000000000E+00 -0.53445143831E+03  0.17704666452E+04  0.16878725668E+04 0.  0.
        3    1    3    3  502    0 -0.32928495796E+03  0.28257003412E+02 -0.10817560377E+04  0.11311158991E+04  0.10100000352E+00 0.  1.
       -3    1    3    3    0  502  0.32928495796E+03 -0.28257003412E+02  0.54730459944E+03  0.63935074611E+03  0.10100000352E+00 0. -1.
</event>
<event>
 5   0  0.2630135E-04  0.1703108E+04  0.7818609E-02  0.8759594E-01
        1   -1    0    0  501    0  0.00000000000E+00  0.00000000000E+00  0.15488402166E+04  0.15488402166E+04  0.50400001928E-02 0. -1.
       -1   -1    0    0    0  501  0.00000000000E+00  0.00000000000E+00 -0.46818508906E+03  0.46818508908E+03  0.50400001928E-02 0.  1.
    10030    2    1    2    0    0  0.00000000000E+00  0.00000000000E+00  0.10806551276E+04  0.20170253057E+04  0.17031076241E+04 0.  0.
        1    1    3    3  502    0  0.64314793443E+03  0.94717999999E+02  0.11917395176E+04  0.13575175295E+04  0.50400001928E-02 0. -1.
       -1    1    3    3    0  502 -0.64314793443E+03 -0.94717999999E+02 -0.11108439008E+03  0.65950777617E+03  0.50400001928E-02 0.  1.
</event>
<event>
 5   0  0.2785059E-04  0.1741909E+04  0.7818609E-02  0.8737816E-01
        1   -1    0    0  501    0  0.00000000000E+00  0.00000000000E+00  0.24508712490E+04  0.24508712490E+04  0.50400001928E-02 0.  1.
       -1   -1    0    0    0  501  0.00000000000E+00  0.00000000000E+00 -0.30950706464E+03  0.30950706469E+03  0.50400001928E-02 0. -1.
    10030    2    1    2    0    0  0.00000000000E+00  0.00000000000E+00  0.21413641844E+04  0.27603783137E+04  0.17419092585E+04 0.  0.
        5    1    3    3  502    0  0.57140563301E+03  0.65617023346E+03  0.10097983303E+04  0.13329585630E+04  0.46999998093E+01 0.  1.
       -5    1    3    3    0  502 -0.57140563301E+03 -0.65617023346E+03  0.11315658540E+04  0.14274197507E+04  0.46999998093E+01 0. -1.
</event>
<event>
 5   0  0.2583422E-04  0.1672491E+04  0.7818609E-02  0.8777211E-01
        1   -1    0    0  501    0  0.00000000000E+00  0.00000000000E+00  0.16231488653E+04  0.16231488653E+04  0.50400001928E-02 0. -1.
       -1   -1    0    0    0  501  0.00000000000E+00  0.00000000000E+00 -0.43083352715E+03  0.43083352718E+03  0.50400001928E-02 0.  1.
    10030    2    1    2    0    0  0.00000000000E+00  0.00000000000E+00  0.11923153381E+04  0.20539823925E+04  0.16724914957E+04 0.  0.
        3    1    3    3  502    0  0.74276550231E+03  0.16586759640E+03  0.17056515833E+03  0.77993918634E+03  0.10100000352E+00 0.  1.
       -3    1    3    3    0  502 -0.74276550231E+03 -0.16586759640E+03  0.10217501798E+04  0.12740432061E+04  0.10100000352E+00 0. -1.
</event>
<event>
 5   0  0.5198430E-04  0.1666261E+04  0.7818609E-02  0.8780844E-01
        2   -1    0    0  501    0  0.00000000000E+00  0.00000000000E+00  0.66541753888E+03  0.66541753889E+03  0.25500000920E-02 0. -1.
       -2   -1    0    0    0  501  0.00000000000E+00  0.00000000000E+00 -0.10431140106E+04  0.10431140106E+04  0.25500000920E-02 0.  1.
    10030    2    1    2    0    0  0.00000000000E+00  0.00000000000E+00 -0.37769647171E+03  0.17085315495E+04  0.16662609132E+04 0.  0.
        4    1    3    3  502    0  0.69386824282E+02 -0.83008723522E+03 -0.20491073687E+03  0.85781663101E+03  0.12699999809E+01 0.  1.
       -4    1    3    3    0  502 -0.69386824282E+02  0.83008723522E+03 -0.17278573484E+03  0.85071491847E+03  0.12699999809E+01 0. -1.
</event>
<event>
 5   0  0.5310003E-04  0.1676865E+04  0.7818609E-02  0.8774670E-01
        2   -1    0    0  501    0  0.00000000000E+00  0.00000000000E+00  0.66697506667E+03  0.66697506667E+03  0.25500000920E-02 0. -1.
       -2   -1    0    0    0  501  0.00000000000E+00  0.00000000000E+00 -0.10539660897E+04  0.10539660897E+04  0.25500000920E-02 0.  1.
    10030    2    1    2    0    0  0.00000000000E+00  0.00000000000E+00 -0.38699102300E+03  0.17209411564E+04  0.16768650547E+04 0.  0.
        1    1    3    3  502    0  0.14877616379E+03 -0.19368159092E+03  0.62966053931E+03  0.67536604917E+03  0.50400001928E-02 0. -1.
       -1    1    3    3    0  502 -0.14877616379E+03  0.19368159092E+03 -0.10166515623E+04  0.10455751072E+04  0.50400001928E-02 0.  1.
</event>
<event>
 5   0  0.2561518E-04  0.1705611E+04  0.7818609E-02  0.8758171E-01
       -1   -1    0    0    0  501  0.00000000000E+00  0.00000000000E+00  0.11298816943E+04  0.11298816944E+04  0.50400001928E-02 0. -1.
        1   -1    0    0  501    0  0.00000000000E+00  0.00000000000E+00 -0.64367572069E+03  0.64367572071E+03  0.50400001928E-02 0.  1.
    10030    2    1    2    0    0  0.00000000000E+00  0.00000000000E+00  0.48620597365E+03  0.17735574151E+04  0.17056112264E+04 0.  0.
        4    1    3    3  502    0 -0.16516305425E+03  0.68038278802E+03  0.74940448342E+03  0.10255770402E+04  0.12699999809E+01 0. -1.
       -4    1    3    3    0  502  0.16516305425E+03 -0.68038278802E+03 -0.26319850977E+03  0.74798037486E+03  0.12699999809E+01 0.  1.
</event>
<event>
 5   0  0.5342255E-04  0.1590848E+04  0.7818609E-02  0.8826190E-01
       -2   -1    0    0    0  501  0.00000000000E+00  0.00000000000E+00  0.35971909347E+03  0.35971909348E+03  0.25500000920E-02 0.  1.
        2   -1    0    0  501    0  0.00000000000E+00  0.00000000000E+00 -0.17588705098E+04  0.17588705098E+04  0.25500000920E-02 0. -1.
    10030    2    1    2    0    0  0.00000000000E+00  0.00000000000E+00 -0.13991514163E+04  0.21185896033E+04  0.15908479567E+04 0.  0.
        5    1    3    3  502    0 -0.19982952629E+03  0.76976381504E+03 -0.71883045659E+03  0.10720109542E+04  0.46999998093E+01 0.  1.
       -5    1    3    3    0  502  0.19982952629E+03 -0.76976381504E+03 -0.68032095971E+03  0.10465786491E+04  0.46999998093E+01 0. -1.
</event>
<event>
 5   0  0.2561518E-04  0.1644833E+04  0.7818609E-02  0.8793469E-01
       -1   -1    0    0    0  501  0.00000000000E+00  0.00000000000E+00  0.53205053444E+03  0.53205053446E+03  0.50400001928E-02 0. -1.
        1   -1    0    0  501    0  0.00000000000E+00  0.00000000000E+00 -0.12712493752E+04  0.12712493752E+04  0.50400001928E-02 0.  1.
    10030    2    1    2    0    0  0.00000000000E+00  0.00000000000E+00 -0.73919884076E+03  0.18032999097E+04  0.16448330122E+04 0.  0.
        4    1    3    3  502    0 -0.14515477241E+03 -0.68127021840E+03 -0.84895088804E+03  0.10981430880E+04  0.12699999809E+01 0.  1.
       -4    1    3    3    0  502  0.14515477241E+03  0.68127021840E+03  0.10975204728E+03  0.70515682171E+03  0.12699999809E+01 0. -1.
</event>
<event>
 5   0  0.2630135E-04  0.1710560E+04  0.7818609E-02  0.8755365E-01
        1   -1    0    0  501    0  0.00000000000E+00  0.00000000000E+00  0.14997161232E+04  0.14997161232E+04  0.50400001928E-02 0. -1.
       -1   -1    0    0    0  501  0.00000000000E+00  0.00000000000E+00 -0.48776128148E+03  0.48776128151E+03  0.50400001928E-02 0.  1.
    10030    2    1    2    0    0  0.00000000000E+00  0.00000000000E+00  0.10119548417E+04  0.19874774047E+04  0.17105595086E+04 0.  0.
        1    1    3    3  502    0 -0.63469015642E+02  0.32126617230E+03 -0.41203355917E+03  0.52631922187E+03  0.50400001928E-02 0.  1.
       -1    1    3    3    0  502  0.63469015642E+02 -0.32126617230E+03  0.14239884009E+04  0.14611581828E+04  0.50400001928E-02 0. -1.
</event>
<event>
 5   0  0.2630135E-04  0.1729068E+04  0.7818609E-02  0.8744958E-01
        1   -1    0    0  501    0  0.00000000000E+00  0.00000000000E+00  0.13234807779E+04  0.13234807779E+04  0.50400001928E-02 0.  1.
       -1   -1    0    0    0  501  0.00000000000E+00  0.00000000000E+00 -0.56473708584E+03  0.56473708587E+03  0.50400001928E-02 0. -1.
    10030    2    1    2    0    0  0.00000000000E+00  0.00000000000E+00  0.75874369206E+03  0.18882178638E+04  0.17290675842E+04 0.  0.
        1    1    3    3  502    0  0.66757536316E+03 -0.47813462497E+02 -0.21824236542E+03  0.70396926267E+03  0.50400001928E-02 0. -1.
       -1    1    3    3    0  502 -0.66757536316E+03  0.47813462497E+02  0.97698605748E+03  0.11842486011E+04  0.50400001928E-02 0.  1.
</event>
<event>
 5   0  0.2583422E-04  0.1730250E+04  0.7818609E-02  0.8744297E-01
       -1   -1    0    0    0  501  0.00000000000E+00  0.00000000000E+00  0.56894222639E+03  0.56894222641E+03  0.50400001928E-02 0. -1.
        1   -1    0    0  501    0  0.00000000000E+00  0.00000000000E+00 -0.13154966727E+04  0.13154966727E+04  0.50400001928E-02 0.  1.
    10030    2    1    2    0    0  0.00000000000E+00  0.00000000000E+00 -0.74655444634E+03  0.18844388991E+04  0.17302503932E+04 0.  0.
        3    1    3    3  502    0 -0.98327442591E+02  0.34052322536E+03  0.48623769242E+03  0.60170711871E+03  0.10100000352E+00 0. -1.
       -3    1    3    3    0  502  0.98327442591E+02 -0.34052322536E+03 -0.12327921388E+04  0.12827317804E+04  0.10100000352E+00 0.  1.
</event>
<event>
 5   0  0.5342255E-04  0.1715879E+04  0.7818609E-02  0.8752359E-01
        2   -1    0    0  501    0  0.00000000000E+00  0.00000000000E+00  0.79122037794E+03  0.79122037795E+03  0.25500000920E-02 0.  1.
       -2   -1    0    0    0  501  0.00000000000E+00  0.00000000000E+00 -0.93028464891E+03  0.93028464892E+03  0.25500000920E-02 0. -1.
    10030    2    1    2    0    0  0.00000000000E+00  0.00000000000E+00 -0.13906427097E+03  0.17215050269E+04  0.17158789835E+04 0.  0.
        5    1    3    3  502    0  0.33528800248E+02 -0.58671643055E+03  0.55755944340E+03  0.81009565685E+03  0.46999998093E+01 0.  1.
       -5    1    3    3    0  502 -0.33528800248E+02  0.58671643055E+03 -0.69662371437E+03  0.91140937001E+03  0.46999998093E+01 0. -1.
</event>
<event>
 5   0  0.5310003E-04  0.1684544E+04  0.7818609E-02  0.8770229E-01
       -2   -1    0    0    0  501  0.00000000000E+00  0.00000000000E+00  0.30613668226E+03  0.30613668227E+03  0.25500000920E-02 0. -1.
        2   -1    0    0  501    0  0.00000000000E+00  0.00000000000E+00 -0.23173389724E+04  0.23173389724E+04  0.25500000920E-02 0.  1.
    10030    2    1    2    0    0  0.00000000000E+00  0.00000000000E+00 -0.20112022902E+04  0.26234756547E+04  0.16845444069E+04 0.  0.
        1    1    3    3  502    0  0.17398757093E+02  0.39809887368E+03 -0.21612536986E+04  0.21976812734E+04  0.50400001928E-02 0.  1.
       -1    1    3    3    0  502 -0.17398757093E+02 -0.39809887368E+03  0.15005140837E+03  0.42579438131E+03  0.50400001928E-02 0. -1.
</event>
<event>
 5   0  0.2561518E-04  0.1689589E+04  0.7818609E-02  0.8767324E-01
       -1   -1    0    0    0  501  0.00000000000E+00  0.00000000000E+00  0.15979053473E+04  0.15979053473E+04  0.50400001928E-02 0.  1.
        1   -1    0    0  501    0  0.00000000000E+00  0.00000000000E+00 -0.44663338717E+03  0.44663338720E+03  0.50400001928E-02 0. -1.
    10030    2    1    2    0    0  0.00000000000E+00  0.00000000000E+00  0.11512719601E+04  0.20445387345E+04  0.16895891544E+04 0.  0.
        4    1    3    3  502    0  0.72336246290E+03 -0.23008097435E+02  0.48321813714E+02  0.72534077223E+03  0.12699999809E+01 0. -1.
       -4    1    3    3    0  502 -0.72336246290E+03  0.23008097435E+02  0.11029501464E+04  0.13191979623E+04  0.12699999809E+01 0.  1.
</event>
<event>
 5   0  0.2583422E-04  0.1692879E+04  0.7818609E-02  0.8765436E-01
       -1   -1    0    0    0  501  0.00000000000E+00  0.00000000000E+00  0.45742962781E+03  0.45742962784E+03  0.50400001928E-02 0.  1.
        1   -1    0    0  501    0  0.00000000000E+00  0.00000000000E+00 -0.15662725352E+04  0.15662725352E+04  0.50400001928E-02 0. -1.
    10030    2    1    2    0    0  0.00000000000E+00  0.00000000000E+00 -0.11088429074E+04  0.20237021631E+04  0.16928785696E+04 0.  0.
        3    1    3    3  502    0 -0.15295734429E+03  0.33858996972E+03 -0.14635861542E+04  0.15100078005E+04  0.10100000352E+00 0. -1.
       -3    1    3    3    0  502  0.15295734429E+03 -0.33858996972E+03  0.35474324677E+03  0.51369436253E+03  0.10100000352E+00 0.  1.
</event>
<event>
 5   0  0.5342255E-04  0.1700885E+04  0.7818609E-02  0.8760860E-01
        2   -1    0    0  501    0  0.00000000000E+00  0.00000000000E+00  0.48953675856E+03  0.48953675857E+03  0.25500000920E-02 0.  1.
       -2   -1    0    0    0  501  0.00000000000E+00  0.00000000000E+00 -0.14774214752E+04  0.14774214752E+04  0.25500000920E-02 0. -1.
    10030    2    1    2    0    0  0.00000000000E+00  0.00000000000E+00 -0.98788471668E+03  0.19669582338E+04  0.17008846169E+04 0.  0.
        5    1    3    3  502    0  0.28883441785E+03  0.73970476559E+03 -0.14195810459E+03  0.80669861450E+03  0.46999998093E+01 0.  1.
       -5    1    3    3    0  502 -0.28883441785E+03 -0.73970476559E+03 -0.84592661209E+03  0.11602596193E+04  0.46999998093E+01 0. -1.
</event>
<event>
 5   0  0.2583422E-04  0.1722491E+04  0.7818609E-02  0.8748640E-01
        1   -1    0    0  501    0  0.00000000000E+00  0.00000000000E+00  0.90558244362E+03  0.90558244363E+03  0.50400001928E-02 0.  1.
       -1   -1    0    0    0  501  0.00000000000E+00  0.00000000000E+00 -0.81907969655E+03  0.81907969657E+03  0.50400001928E-02 0. -1.
    10030    2    1    2    0    0  0.00000000000E+00  0.00000000000E+00  0.86502747062E+02  0.17246621402E+04  0.17224914434E+04 0.  0.
        3    1    3    3  502    0  0.86019437522E+03  0.40420570690E+02  0.29968259821E+02  0.86166483768E+03  0.10100000352E+00 0.  1.
       -3    1    3    3    0  502 -0.86019437522E+03 -0.40420570690E+02  0.56534487241E+02  0.86299730252E+03  0.10100000352E+00 0. -1.
</event>
<event>
 5   0  0.2630135E-04  0.1676688E+04  0.7818609E-02  0.8774773E-01
       -1   -1    0    0    0  501  0.00000000000E+00  0.00000000000E+00  0.71264826833E+03  0.71264826835E+03  0.50400001928E-02 0.  1.
        1   -1    0    0  501    0  0.00000000000E+00  0.00000000000E+00 -0.98620927521E+03  0.98620927522E+03  0.50400001928E-02 0. -1.
    10030    2    1    2    0    0  0.00000000000E+00  0.00000000000E+00 -0.27356100688E+03  0.16988575436E+04  0.16766876062E+04 0.  0.
        1    1    3    3  502    0 -0.45463016543E+03  0.64128379148E+03  0.15842537517E+03  0.80189281581E+03  0.50400001928E-02 0.  1.
       -1    1    3    3    0  502  0.45463016543E+03 -0.64128379148E+03 -0.43198638205E+03  0.89696472775E+03  0.50400001928E-02 0. -1.
</event>
<event>
 5   0  0.5198430E-04  0.1671597E+04  0.7818609E-02  0.8777732E-01
        2   -1    0    0  501    0  0.00000000000E+00  0.00000000000E+00  0.17632064239E+04  0.17632064239E+04  0.25500000920E-02 0. -1.
       -2   -1    0    0    0  501  0.00000000000E+00  0.00000000000E+00 -0.39618669024E+03  0.39618669024E+03  0.25500000920E-02 0.  1.
    10030    2    1    2    0    0  0.00000000000E+00  0.00000000000E+00  0.13670197337E+04  0.21593931142E+04  0.16715967424E+04 0.  0.
        4    1    3    3  502    0  0.12556405314E+03  0.74724660648E+03  0.11391625360E+04  0.13681508391E+04  0.12699999809E+01 0. -1.
       -4    1    3    3    0  502 -0.12556405314E+03 -0.74724660648E+03  0.22785719768E+03  0.79124227501E+03  0.12699999809E+01 0.  1.
</event>
<event>
 5   0  0.5021349E-04  0.1388674E+04  0.7818609E-02  0.8962058E-01
        2   -1    0    0  501    0  0.00000000000E+00  0.00000000000E+00  0.81580385336E+03  0.81580385336E+03  0.25500000920E-02 0.  1.
       -2   -1    0    0    0  501  0.00000000000E+00  0.00000000000E+00 -0.59095534715E+03  0.59095534715E+03  0.25500000920E-02 0. -1.
    10030    2    1    2    0    0  0.00000000000E+00  0.00000000000E+00  0.22484850621E+03  0.14067592005E+04  0.13886736829E+04 0.  0.
        2    1    3    3  502    0 -0.24666625722E+03 -0.45582194214E+03  0.58048693753E+03  0.77819211640E+03  0.25500000920E-02 0.  1.
       -2    1    3    3    0  502  0.24666625722E+03  0.45582194214E+03 -0.35563843132E+03  0.62856708411E+03  0.25500000920E-02 0. -1.
</event>
<event>
 5   0  0.2595644E-04  0.1659571E+04  0.7818609E-02  0.8784764E-01
        1   -1    0    0  501    0  0.00000000000E+00  0.00000000000E+00  0.50235162386E+03  0.50235162388E+03  0.50400001928E-02 0.  1.
       -1   -1    0    0    0  501  0.00000000000E+00  0.00000000000E+00 -0.13706420483E+04  0.13706420483E+04  0.50400001928E-02 0. -1.
    10030    2    1    2    0    0  0.00000000000E+00  0.00000000000E+00 -0.86829042443E+03  0.18729936722E+04  0.16595713407E+04 0.  0.
        2    1    3    3  502    0  0.54048441299E+03 -0.22353133687E+03 -0.10984441369E+04  0.12444553753E+04  0.25500000920E-02 0. -1.
       -2    1    3    3    0  502 -0.54048441299E+03  0.22353133687E+03  0.23015371248E+03  0.62853829686E+03  0.25500000920E-02 0.  1.
</event>
<event>
 5   0  0.5021349E-04  0.1684968E+04  0.7818609E-02  0.8769985E-01
       -2   -1    0    0    0  501  0.00000000000E+00  0.00000000000E+00  0.69556704556E+03  0.69556704557E+03  0.25500000920E-02 0.  1.
        2   -1    0    0  501    0  0.00000000000E+00  0.00000000000E+00 -0.10204320934E+04  0.10204320934E+04  0.25500000920E-02 0. -1.
    10030    2    1    2    0    0  0.00000000000E+00  0.00000000000E+00 -0.32486504785E+03  0.17159991390E+04  0.16849675800E+04 0.  0.
        2    1    3    3  502    0  0.82729360312E+03 -0.81712003034E+01 -0.32441349335E+03  0.88866506004E+03  0.25500000920E-02 0. -1.
       -2    1    3    3    0  502 -0.82729360312E+03  0.81712003034E+01 -0.45155450185E+00  0.82733407894E+03  0.25500000920E-02 0.  1.
</event>
<event>
 5   0  0.2595644E-04  0.1693012E+04  0.7818609E-02  0.8765360E-01
        1   -1    0    0  501    0  0.00000000000E+00  0.00000000000E+00  0.14918494783E+04  0.14918494783E+04  0.50400001928E-02 0. -1.
       -1   -1    0    0    0  501  0.00000000000E+00  0.00000000000E+00 -0.48032486134E+03  0.48032486137E+03  0.50400001928E-02 0.  1.
    10030    2    1    2    0    0  0.00000000000E+00  0.00000000000E+00  0.10115246170E+04  0.19721743397E+04  0.16930119832E+04 0.  0.
        2    1    3    3  502    0  0.13787339616E+02 -0.47174986787E+03  0.13243701982E+04  0.14059496614E+04  0.25500000920E-02 0. -1.
       -2    1    3    3    0  502 -0.13787339616E+02  0.47174986787E+03 -0.31284558123E+03  0.56622467826E+03  0.25500000920E-02 0.  1.
</event>
<event>
 5   0  0.1910750E-04  0.1697466E+04  0.7818609E-02  0.8762811E-01
        3   -1    0    0  501    0  0.00000000000E+00  0.00000000000E+00  0.13355892380E+04  0.13355892418E+04  0.10100000352E+00 0.  1.
       -3   -1    0    0    0  501  0.00000000000E+00  0.00000000000E+00 -0.53934799324E+03  0.53934800270E+03  0.10100000352E+00 0. -1.
    10030    2    1    2    0    0  0.00000000000E+00  0.00000000000E+00  0.79624124475E+03  0.18749372445E+04  0.16974656259E+04 0.  0.
        4    1    3    3  502    0  0.33602476745E+03 -0.75343798486E+03  0.61837908386E+03  0.10310071511E+04  0.12699999809E+01 0. -1.
       -4    1    3    3    0  502 -0.33602476745E+03  0.75343798486E+03  0.17786216089E+03  0.84393009340E+03  0.12699999809E+01 0.  1.
</event>
<event>
 5   0  0.2630135E-04  0.1779493E+04  0.7818609E-02  0.8717281E-01
        1   -1    0    0  501    0  0.00000000000E+00  0.00000000000E+00  0.62200205551E+03  0.62200205553E+03  0.50400001928E-02 0.  1.
       -1   -1    0    0    0  501  0.00000000000E+00  0.00000000000E+00 -0.12727433216E+04  0.12727433216E+04  0.50400001928E-02 0. -1.
    10030    2    1    2    0    0  0.00000000000E+00  0.00000000000E+00 -0.65074126607E+03  0.18947453771E+04  0.17794931438E+04 0.  0.
        1    1    3    3  502    0 -0.49194380063E+03  0.69720630604E+03 -0.56965675082E+02  0.85519028544E+03  0.50400001928E-02 0.  1.
       -1    1    3    3    0  502  0.49194380063E+03 -0.69720630604E+03 -0.59377559099E+03  0.10395550917E+04  0.50400001928E-02 0. -1.
</event>
<event>
 5   0  0.5021349E-04  0.1708658E+04  0.7818609E-02  0.8756442E-01
        2   -1    0    0  501    0  0.00000000000E+00  0.00000000000E+00  0.10255427990E+04  0.10255427990E+04  0.25500000920E-02 0.  1.
       -2   -1    0    0    0  501  0.00000000000E+00  0.00000000000E+00 -0.71169906832E+03  0.71169906833E+03  0.25500000920E-02 0. -1.
    10030    2    1    2    0    0  0.00000000000E+00  0.00000000000E+00  0.31384373070E+03  0.17372418673E+04  0.17086577827E+04 0.  0.
        2    1    3    3  502    0  0.39282920487E+03  0.32791765186E+03  0.85249608120E+03  0.99428081500E+03  0.25500000920E-02 0.  1.
       -2    1    3    3    0  502 -0.39282920487E+03 -0.32791765186E+03 -0.53865235050E+03  0.74296105235E+03  0.25500000920E-02 0. -1.
</event>
<event>
 5   0  0.5198430E-04  0.1719615E+04  0.7818609E-02  0.8750256E-01
        2   -1    0    0  501    0  0.00000000000E+00  0.00000000000E+00  0.10748055427E+04  0.10748055427E+04  0.25500000920E-02 0.  1.
       -2   -1    0    0    0  501  0.00000000000E+00  0.00000000000E+00 -0.68781645982E+03  0.68781645983E+03  0.25500000920E-02 0. -1.
    10030    2    1    2    0    0  0.00000000000E+00  0.00000000000E+00  0.38698908290E+03  0.17626220026E+04  0.17196150074E+04 0.  0.
        4    1    3    3  502    0 -0.52035021513E+03 -0.34414591888E+02 -0.50720930770E+03  0.72746931567E+03  0.12699999809E+01 0.  1.
       -4    1    3    3    0  502  0.52035021513E+03  0.34414591888E+02  0.89419839060E+03  0.10351526869E+04  0.12699999809E+01 0. -1.
</event>
<event>
 5   0  0.5310003E-04  0.1689868E+04  0.7818609E-02  0.8767164E-01
        2   -1    0    0  501    0  0.00000000000E+00  0.00000000000E+00  0.53405995584E+03  0.53405995585E+03  0.25500000920E-02 0.  1.
       -2   -1    0    0    0  501  0.00000000000E+00  0.00000000000E+00 -0.13367661490E+04  0.13367661490E+04  0.25500000920E-02 0. -1.
    10030    2    1    2    0    0  0.00000000000E+00  0.00000000000E+00 -0.80270619317E+03  0.18708261049E+04  0.16898677706E+04 0.  0.
        1    1    3    3  502    0  0.21429947621E+03 -0.38966767337E+03 -0.11967206470E+04  0.12766775115E+04  0.50400001928E-02 0. -1.
       -1    1    3    3    0  502 -0.21429947621E+03  0.38966767337E+03  0.39401445387E+03  0.59414859341E+03  0.50400001928E-02 0.  1.
</event>
<event>
 5   0  0.5310003E-04  0.1730754E+04  0.7818609E-02  0.8744016E-01
       -2   -1    0    0    0  501  0.00000000000E+00  0.00000000000E+00  0.44106455541E+03  0.44106455542E+03  0.25500000920E-02 0. -1.
        2   -1    0    0  501    0  0.00000000000E+00  0.00000000000E+00 -0.16978860995E+04  0.16978860995E+04  0.25500000920E-02 0.  1.
    10030    2    1    2    0    0  0.00000000000E+00  0.00000000000E+00 -0.12568215441E+04  0.21389506549E+04  0.17307540294E+04 0.  0.
        1    1    3    3  502    0  0.80017445947E+03  0.30678826788E+03 -0.47970177033E+03  0.98209571599E+03  0.50400001928E-02 0. -1.
       -1    1    3    3    0  502 -0.80017445947E+03 -0.30678826788E+03 -0.77711977372E+03  0.11568549389E+04  0.50400001928E-02 0.  1.
</event>
<event>
 5   0  0.2595644E-04  0.1660555E+04  0.7818609E-02  0.8784187E-01
        1   -1    0    0  501    0  0.00000000000E+00  0.00000000000E+00  0.97839074100E+03  0.97839074102E+03  0.50400001928E-02 0. -1.
       -1   -1    0    0    0  501  0.00000000000E+00  0.00000000000E+00 -0.70458596329E+03  0.70458596331E+03  0.50400001928E-02 0.  1.
    10030    2    1    2    0    0  0.00000000000E+00  0.00000000000E+00  0.27380477771E+03  0.16829767043E+04  0.16605545854E+04 0.  0.
        2    1    3    3  502    0 -0.42225041337E+03 -0.68765065057E+03  0.33499371655E+03  0.87371598301E+03  0.25500000920E-02 0. -1.
       -2    1    3    3    0  502  0.42225041337E+03  0.68765065057E+03 -0.61188938838E+02  0.80926072132E+03  0.25500000920E-02 0.  1.
</event>
<event>
 5   0  0.1910750E-04  0.1698605E+04  0.7818609E-02  0.8762161E-01
        4   -1    0    0  501    0  0.00000000000E+00  0.00000000000E+00  0.67225819439E+03  0.67225939400E+03  0.12699999809E+01 0. -1.
       -4   -1    0    0    0  501  0.00000000000E+00  0.00000000000E+00 -0.10729697841E+04  0.10729705357E+04  0.12699999809E+01 0.  1.
    10030    2    1    2    0    0  0.00000000000E+00  0.00000000000E+00 -0.40071158970E+03  0.17452299297E+04  0.16986046419E+04 0.  0.
        3    1    3    3  502    0  0.13717288667E+03 -0.26240412992E+02  0.66038018087E+03  0.67498663217E+03  0.10100000352E+00 0. -1.
       -3    1    3    3    0  502 -0.13717288667E+03  0.26240412992E+02 -0.10610917706E+04  0.10702432975E+04  0.10100000352E+00 0.  1.
</event>
<event>
 5   0  0.5310003E-04  0.1702843E+04  0.7818609E-02  0.8759744E-01
       -2   -1    0    0    0  501  0.00000000000E+00  0.00000000000E+00  0.34785858350E+03  0.34785858351E+03  0.25500000920E-02 0. -1.
        2   -1    0    0  501    0  0.00000000000E+00  0.00000000000E+00 -0.20839471165E+04  0.20839471165E+04  0.25500000920E-02 0.  1.
    10030    2    1    2    0    0  0.00000000000E+00  0.00000000000E+00 -0.17360885330E+04  0.24318057000E+04  0.17028433775E+04 0.  0.
        1    1    3    3  502    0 -0.57633596877E+02  0.73157416965E+02 -0.20766511007E+04  0.20787384235E+04  0.50400001928E-02 0.  1.
       -1    1    3    3    0  502  0.57633596877E+02 -0.73157416965E+02  0.34056256775E+03  0.35306727649E+03  0.50400001928E-02 0. -1.
</event>
<event>
 5   0  0.5342255E-04  0.1809701E+04  0.7818609E-02  0.8701157E-01
       -2   -1    0    0    0  501  0.00000000000E+00  0.00000000000E+00  0.13627827857E+04  0.13627827857E+04  0.25500000920E-02 0.  1.
        2   -1    0    0  501    0  0.00000000000E+00  0.00000000000E+00 -0.60079626675E+03  0.60079626675E+03  0.25500000920E-02 0. -1.
    10030    2    1    2    0    0  0.00000000000E+00  0.00000000000E+00  0.76198651895E+03  0.19635790525E+04  0.18097014229E+04 0.  0.
        5    1    3    3  502    0 -0.43569783997E+03  0.30097669288E+03 -0.41509084800E+03  0.67286111457E+03  0.46999998093E+01 0. -1.
       -5    1    3    3    0  502  0.43569783997E+03 -0.30097669288E+03  0.11770773669E+04  0.12907179379E+04  0.46999998093E+01 0.  1.
</event>
<event>
 5   0  0.5198430E-04  0.1698640E+04  0.7818609E-02  0.8762140E-01
       -2   -1    0    0    0  501  0.00000000000E+00  0.00000000000E+00  0.90213280154E+03  0.90213280155E+03  0.25500000920E-02 0.  1.
        2   -1    0    0  501    0  0.00000000000E+00  0.00000000000E+00 -0.79959886281E+03  0.79959886281E+03  0.25500000920E-02 0. -1.
    10030    2    1    2    0    0  0.00000000000E+00  0.00000000000E+00  0.10253393873E+03  0.17017316644E+04  0.16986398821E+04 0.  0.
        4    1    3    3  502    0 -0.41383254752E+03  0.40204645788E+02  0.79320185120E+03  0.89556941695E+03  0.12699999809E+01 0.  1.
       -4    1    3    3    0  502  0.41383254752E+03 -0.40204645788E+02 -0.69066791247E+03  0.80616224741E+03  0.12699999809E+01 0. -1.
</event>
<event>
 5   0  0.2630135E-04  0.1837608E+04  0.7818609E-02  0.8686552E-01
        1   -1    0    0  501    0  0.00000000000E+00  0.00000000000E+00  0.11198989282E+04  0.11198989282E+04  0.50400001928E-02 0.  1.
       -1   -1    0    0    0  501  0.00000000000E+00  0.00000000000E+00 -0.75381885076E+03  0.75381885077E+03  0.50400001928E-02 0. -1.
    10030    2    1    2    0    0  0.00000000000E+00  0.00000000000E+00  0.36608007747E+03  0.18737177790E+04  0.18376081444E+04 0.  0.
        1    1    3    3  502    0  0.75479889118E+03  0.49227618297E+03  0.36584977237E+03  0.97257558185E+03  0.50400001928E-02 0.  1.
       -1    1    3    3    0  502 -0.75479889118E+03 -0.49227618297E+03  0.23030510498E+00  0.90114219716E+03  0.50400001928E-02 0. -1.
</event>
<event>
 5   0  0.5299877E-04  0.1718693E+04  0.7818609E-02  0.8750774E-01
        2   -1    0    0  501    0  0.00000000000E+00  0.00000000000E+00  0.21710025114E+04  0.21710025114E+04  0.25500000920E-02 0. -1.
       -2   -1    0    0    0  501  0.00000000000E+00  0.00000000000E+00 -0.34015444977E+03  0.34015444978E+03  0.25500000920E-02 0.  1.
    10030    2    1    2    0    0  0.00000000000E+00  0.00000000000E+00  0.18308480616E+04  0.25111569612E+04  0.17186927180E+04 0.  0.
        3    1    3    3  502    0 -0.53581362953E+03  0.62798381648E+03  0.12643030808E+04  0.15099411279E+04  0.10100000352E+00 0. -1.
       -3    1    3    3    0  502  0.53581362953E+03 -0.62798381648E+03  0.56654498081E+03  0.10012158333E+04  0.10100000352E+00 0.  1.
</event>
<event>
 5   0  0.5310003E-04  0.1681288E+04  0.7818609E-02  0.8772109E-01
        2   -1    0    0  501    0  0.00000000000E+00  0.00000000000E+00  0.56140837968E+03  0.56140837969E+03  0.25500000920E-02 0.  1.
       -2   -1    0    0    0  501  0.00000000000E+00  0.00000000000E+00 -0.12587668778E+04  0.12587668778E+04  0.25500000920E-02 0. -1.
    10030    2    1    2    0    0  0.00000000000E+00  0.00000000000E+00 -0.69735849809E+03  0.18201752575E+04  0.16812879269E+04 0.  0.
        1    1    3    3  502    0 -0.32590437610E+03  0.70973599064E+03 -0.11949208487E+02  0.78107721922E+03  0.50400001928E-02 0.  1.
       -1    1    3    3    0  502  0.32590437610E+03 -0.70973599064E+03 -0.68540928961E+03  0.10390980382E+04  0.50400001928E-02 0. -1.
</event>
<event>
 5   0  0.2561518E-04  0.1687526E+04  0.7818609E-02  0.8768511E-01
        1   -1    0    0  501    0  0.00000000000E+00  0.00000000000E+00  0.93086036762E+03  0.93086036763E+03  0.50400001928E-02 0. -1.
       -1   -1    0    0    0  501  0.00000000000E+00  0.00000000000E+00 -0.76481511518E+03  0.76481511520E+03  0.50400001928E-02 0.  1.
    10030    2    1    2    0    0  0.00000000000E+00  0.00000000000E+00  0.16604525243E+03  0.16956754828E+04  0.16875260938E+04 0.  0.
        4    1    3    3  502    0  0.75084393289E+03  0.34866083695E+03 -0.80870761923E+02  0.83178884569E+03  0.12699999809E+01 0. -1.
       -4    1    3    3    0  502 -0.75084393289E+03 -0.34866083695E+03  0.24691601436E+03  0.86388663714E+03  0.12699999809E+01 0.  1.
</event>
<event>
 5   0  0.5299877E-04  0.1755926E+04  0.7818609E-02  0.8730095E-01
        2   -1    0    0  501    0  0.00000000000E+00  0.00000000000E+00  0.10473711935E+04  0.10473711935E+04  0.25500000920E-02 0.  1.
       -2   -1    0    0    0  501  0.00000000000E+00  0.00000000000E+00 -0.73595572572E+03  0.73595572573E+03  0.25500000920E-02 0. -1.
    10030    2    1    2    0    0  0.00000000000E+00  0.00000000000E+00  0.31141546780E+03  0.17833269193E+04  0.17559257693E+04 0.  0.
        3    1    3    3  502    0 -0.60322730670E+03  0.59932430048E+03  0.37762616949E+03  0.93041621589E+03  0.10100000352E+00 0.  1.
       -3    1    3    3    0  502  0.60322730670E+03 -0.59932430048E+03 -0.66210701695E+02  0.85291070337E+03  0.10100000352E+00 0. -1.
</event>
<event>
 5   0  0.5310003E-04  0.1660632E+04  0.7818609E-02  0.8784142E-01
        2   -1    0    0  501    0  0.00000000000E+00  0.00000000000E+00  0.12276160607E+04  0.12276160607E+04  0.25500000920E-02 0. -1.
       -2   -1    0    0    0  501  0.00000000000E+00  0.00000000000E+00 -0.56159617143E+03  0.56159617143E+03  0.25500000920E-02 0.  1.
    10030    2    1    2    0    0  0.00000000000E+00  0.00000000000E+00  0.66601988923E+03  0.17892122321E+04  0.16606317830E+04 0.  0.
        1    1    3    3  502    0 -0.49906562107E+03 -0.24464127218E+03 -0.33160602194E+03  0.64720815817E+03  0.50400001928E-02 0.  1.
       -1    1    3    3    0  502  0.49906562107E+03  0.24464127218E+03  0.99762591117E+03  0.11420040739E+04  0.50400001928E-02 0. -1.
</event>
<event>
 5   0  0.2595644E-04  0.1689699E+04  0.7818609E-02  0.8767261E-01
        1   -1    0    0  501    0  0.00000000000E+00  0.00000000000E+00  0.87700302358E+03  0.87700302359E+03  0.50400001928E-02 0. -1.
       -1   -1    0    0    0  501  0.00000000000E+00  0.00000000000E+00 -0.81387503242E+03  0.81387503243E+03  0.50400001928E-02 0.  1.
    10030    2    1    2    0    0  0.00000000000E+00  0.00000000000E+00  0.63127991162E+02  0.16908780560E+04  0.16896992209E+04 0.  0.
        2    1    3    3  502    0 -0.47704502436E+03 -0.68952269527E+03 -0.72226066076E+02  0.84156408382E+03  0.25500000920E-02 0.  1.
       -2    1    3    3    0  502  0.47704502436E+03  0.68952269527E+03  0.13535405724E+03  0.84931397220E+03  0.25500000920E-02 0. -1.
</event>
<event>
 5   0  0.5342255E-04  0.1696341E+04  0.7818609E-02  0.8763454E-01
        2   -1    0    0  501    0  0.00000000000E+00  0.00000000000E+00  0.23284494071E+04  0.23284494071E+04  0.25500000920E-02 0. -1.
       -2   -1    0    0    0  501  0.00000000000E+00  0.00000000000E+00 -0.30895793862E+03  0.30895793863E+03  0.25500000920E-02 0.  1.
    10030    2    1    2    0    0  0.00000000000E+00  0.00000000000E+00  0.20194914685E+04  0.26374073458E+04  0.16963406840E+04 0.  0.
        5    1    3    3  502    0 -0.26937496669E+03  0.36977064713E+02 -0.23934013347E+03  0.36226504866E+03  0.46999998093E+01 0.  1.
       -5    1    3    3    0  502  0.26937496669E+03 -0.36977064713E+02  0.22588316020E+04  0.22751422971E+04  0.46999998093E+01 0. -1.
</event>
<event>
 5   0  0.2630135E-04  0.1692663E+04  0.7818609E-02  0.8765560E-01
       -1   -1    0    0    0  501  0.00000000000E+00  0.00000000000E+00  0.81351082666E+03  0.81351082668E+03  0.50400001928E-02 0.  1.
        1   -1    0    0  501    0  0.00000000000E+00  0.00000000000E+00 -0.88047656970E+03  0.88047656971E+03  0.50400001928E-02 0. -1.
    10030    2    1    2    0    0  0.00000000000E+00  0.00000000000E+00 -0.66965743035E+02  0.16939873964E+04  0.16926632531E+04 0.  0.
        1    1    3    3  502    0  0.79580008817E+03  0.20926507803E+03 -0.23159623413E+03  0.85482540259E+03  0.50400001928E-02 0. -1.
       -1    1    3    3    0  502 -0.79580008817E+03 -0.20926507803E+03  0.16463049109E+03  0.83916199380E+03  0.50400001928E-02 0.  1.
</event>
<event>
 5   0  0.5310003E-04  0.1698928E+04  0.7818609E-02  0.8761976E-01
       -2   -1    0    0    0  501  0.00000000000E+00  0.00000000000E+00  0.42450182937E+03  0.42450182938E+03  0.25500000920E-02 0. -1.
        2   -1    0    0  501    0  0.00000000000E+00  0.00000000000E+00 -0.16998489576E+04  0.16998489576E+04  0.25500000920E-02 0.  1.
    10030    2    1    2    0    0  0.00000000000E+00  0.00000000000E+00 -0.12753471282E+04  0.21243507870E+04  0.16989278880E+04 0.  0.
        1    1    3    3  502    0 -0.12598349722E+03  0.80500592813E+03 -0.93798628160E+03  0.12424671627E+04  0.50400001928E-02 0. -1.
       -1    1    3    3    0  502  0.12598349722E+03 -0.80500592813E+03 -0.33736084662E+03  0.88188362427E+03  0.50400001928E-02 0.  1.
</event>
<event>
 5   0  0.5021349E-04  0.1515137E+04  0.7818609E-02  0.8874449E-01
       -2   -1    0    0    0  501  0.00000000000E+00  0.00000000000E+00  0.33228455340E+03  0.33228455341E+03  0.25500000920E-02 0.  1.
        2   -1    0    0  501    0  0.00000000000E+00  0.00000000000E+00 -0.17271645189E+04  0.17271645189E+04  0.25500000920E-02 0. -1.
    10030    2    1    2    0    0  0.00000000000E+00  0.00000000000E+00 -0.13948799655E+04  0.20594490723E+04  0.15151370774E+04 0.  0.
        2    1    3    3  502    0 -0.36965592422E+03  0.29656923601E+03 -0.15007911589E+04  0.15738401814E+04  0.25500000920E-02 0. -1.
       -2    1    3    3    0  502  0.36965592422E+03 -0.29656923601E+03  0.10591119335E+03  0.48560889092E+03  0.25500000920E-02 0.  1.
</event>
<event>
 5   0  0.2785059E-04  0.1703391E+04  0.7818609E-02  0.8759433E-01
       -1   -1    0    0    0  501  0.00000000000E+00  0.00000000000E+00  0.50640101322E+03  0.50640101325E+03  0.50400001928E-02 0.  1.
        1   -1    0    0  501    0  0.00000000000E+00  0.00000000000E+00 -0.14324325249E+04  0.14324325249E+04  0.50400001928E-02 0. -1.
    10030    2    1    2    0    0  0.00000000000E+00  0.00000000000E+00 -0.92603151171E+03  0.19388335382E+04  0.17033910673E+04 0.  0.
        5    1    3    3  502    0  0.31133983287E+03 -0.64226194151E+03 -0.99192718438E+03  0.12220370380E+04  0.46999998093E+01 0. -1.
       -5    1    3    3    0  502 -0.31133983287E+03  0.64226194151E+03  0.65895672672E+02  0.71679650022E+03  0.46999998093E+01 0.  1.
</event>
<event>
 5   0  0.2583422E-04  0.1698393E+04  0.7818609E-02  0.8762282E-01
       -1   -1    0    0    0  501  0.00000000000E+00  0.00000000000E+00  0.47325285034E+03  0.47325285036E+03  0.50400001928E-02 0. -1.
        1   -1    0    0  501    0  0.00000000000E+00  0.00000000000E+00 -0.15237827010E+04  0.15237827010E+04  0.50400001928E-02 0.  1.
    10030    2    1    2    0    0  0.00000000000E+00  0.00000000000E+00 -0.10505298506E+04  0.19970355513E+04  0.16983927774E+04 0.  0.
        3    1    3    3  502    0  0.40230296198E+03 -0.73515067128E+03 -0.36386931211E+03  0.91361647818E+03  0.10100000352E+00 0. -1.
       -3    1    3    3    0  502 -0.40230296198E+03  0.73515067128E+03 -0.68666053852E+03  0.10834190732E+04  0.10100000352E+00 0.  1.
</event>
<event>
 5   0  0.5299877E-04  0.1384846E+04  0.7818609E-02  0.8964861E-01
       -2   -1    0    0    0  501  0.00000000000E+00  0.00000000000E+00  0.22388578093E+03  0.22388578095E+03  0.25500000920E-02 0. -1.
        2   -1    0    0  501    0  0.00000000000E+00  0.00000000000E+00 -0.21414928097E+04  0.21414928097E+04  0.25500000920E-02 0.  1.
    10030    2    1    2    0    0  0.00000000000E+00  0.00000000000E+00 -0.19176070288E+04  0.23653785907E+04  0.13848462587E+04 0.  0.
        3    1    3    3  502    0  0.28570768249E+03  0.36877058214E+03 -0.18327968156E+04  0.18912336713E+04  0.10100000352E+00 0.  1.
       -3    1    3    3    0  502 -0.28570768249E+03 -0.36877058214E+03 -0.84810213202E+02  0.47414491935E+03  0.10100000352E+00 0. -1.
</event>
<event>
 5   0  0.5342255E-04  0.1703327E+04  0.7818609E-02  0.8759469E-01
        2   -1    0    0  501    0  0.00000000000E+00  0.00000000000E+00  0.20761383443E+04  0.20761383443E+04  0.25500000920E-02 0.  1.
       -2   -1    0    0    0  501  0.00000000000E+00  0.00000000000E+00 -0.34936538732E+03  0.34936538732E+03  0.25500000920E-02 0. -1.
    10030    2    1    2    0    0  0.00000000000E+00  0.00000000000E+00  0.17267729570E+04  0.24255037316E+04  0.17033271874E+04 0.  0.
        5    1    3    3  502    0  0.63295751760E+03  0.47151917865E+03  0.13189337318E+04  0.15370666328E+04  0.46999998093E+01 0.  1.
       -5    1    3    3    0  502 -0.63295751760E+03 -0.47151917865E+03  0.40783922522E+03  0.88843709881E+03  0.46999998093E+01 0. -1.
</event>
<event>
 5   0  0.2785059E-04  0.1684767E+04  0.7818609E-02  0.8770100E-01
        1   -1    0    0  501    0  0.00000000000E+00  0.00000000000E+00  0.66236172538E+03  0.66236172540E+03  0.50400001928E-02 0.  1.
       -1   -1    0    0    0  501  0.00000000000E+00  0.00000000000E+00 -0.10713327300E+04  0.10713327300E+04  0.50400001928E-02 0. -1.
    10030    2    1    2    0    0  0.00000000000E+00  0.00000000000E+00 -0.40897100459E+03  0.17336944554E+04  0.16847668035E+04 0.  0.
        5    1    3    3  502    0  0.11978047323E+02 -0.31610054806E+02 -0.10706210128E+04  0.10711648390E+04  0.46999998093E+01 0. -1.
       -5    1    3    3    0  502 -0.11978047323E+02  0.31610054806E+02  0.66165000824E+03  0.66252961639E+03  0.46999998093E+01 0.  1.
</event>
<event>
 5   0  0.5310003E-04  0.1651097E+04  0.7818609E-02  0.8789758E-01
        2   -1    0    0  501    0  0.00000000000E+00  0.00000000000E+00  0.24727755190E+04  0.24727755190E+04  0.25500000920E-02 0.  1.
       -2   -1    0    0    0  501  0.00000000000E+00  0.00000000000E+00 -0.27561359157E+03  0.27561359158E+03  0.25500000920E-02 0. -1.
    10030    2    1    2    0    0  0.00000000000E+00  0.00000000000E+00  0.21971619274E+04  0.27483891106E+04  0.16510972618E+04 0.  0.
        1    1    3    3  502    0 -0.20529965117E+03  0.69516358831E+03  0.44084893127E+03  0.84837971540E+03  0.50400001928E-02 0. -1.
       -1    1    3    3    0  502  0.20529965117E+03 -0.69516358831E+03  0.17563129961E+04  0.19000093952E+04  0.50400001928E-02 0.  1.
</event>
<event>
 5   0  0.2630135E-04  0.1690183E+04  0.7818609E-02  0.8766983E-01
       -1   -1    0    0    0  501  0.00000000000E+00  0.00000000000E+00  0.42433428182E+03  0.42433428185E+03  0.50400001928E-02 0.  1.
        1   -1    0    0  501    0  0.00000000000E+00  0.00000000000E+00 -0.16830595768E+04  0.16830595768E+04  0.50400001928E-02 0. -1.
    10030    2    1    2    0    0  0.00000000000E+00  0.00000000000E+00 -0.12587252950E+04  0.21073938587E+04  0.16901832763E+04 0.  0.
        1    1    3    3  502    0 -0.43263290692E+03  0.15323433429E+03 -0.15141189652E+04  0.15821530376E+04  0.50400001928E-02 0. -1.
       -1    1    3    3    0  502  0.43263290692E+03 -0.15323433429E+03  0.25539367023E+03  0.52524082112E+03  0.50400001928E-02 0.  1.
</event>
<event>
 5   0  0.5299877E-04  0.1700759E+04  0.7818609E-02  0.8760932E-01
       -2   -1    0    0    0  501  0.00000000000E+00  0.00000000000E+00  0.54381126209E+03  0.54381126209E+03  0.25500000920E-02 0.  1.
        2   -1    0    0  501    0  0.00000000000E+00  0.00000000000E+00 -0.13297724027E+04  0.13297724027E+04  0.25500000920E-02 0. -1.
    10030    2    1    2    0    0  0.00000000000E+00  0.00000000000E+00 -0.78596114065E+03  0.18735836648E+04  0.17007588996E+04 0.  0.
        3    1    3    3  502    0 -0.49543467021E+03  0.37873648317E+03 -0.10298713815E+04  0.12039650779E+04  0.10100000352E+00 0. -1.
       -3    1    3    3    0  502  0.49543467021E+03 -0.37873648317E+03  0.24391024088E+03  0.66961858692E+03  0.10100000352E+00 0.  1.
</event>
<event>
 5   0  0.5198430E-04  0.1688086E+04  0.7818609E-02  0.8768189E-01
       -2   -1    0    0    0  501  0.00000000000E+00  0.00000000000E+00  0.69008831380E+03  0.69008831381E+03  0.25500000920E-02 0. -1.
        2   -1    0    0  501    0  0.00000000000E+00  0.00000000000E+00 -0.10323443951E+04  0.10323443951E+04  0.25500000920E-02 0.  1.
    10030    2    1    2    0    0  0.00000000000E+00  0.00000000000E+00 -0.34225608128E+03  0.17224327089E+04  0.16880862571E+04 0.  0.
        4    1    3    3  502    0  0.62035799515E+03  0.55320961126E+03 -0.32081766766E+03  0.89096043959E+03  0.12699999809E+01 0.  1.
       -4    1    3    3    0  502 -0.62035799515E+03 -0.55320961126E+03 -0.21438413620E+02  0.83147226930E+03  0.12699999809E+01 0. -1.
</event>
<event>
 5   0  0.5021349E-04  0.1688766E+04  0.7818609E-02  0.8767797E-01
        2   -1    0    0  501    0  0.00000000000E+00  0.00000000000E+00  0.18812867596E+04  0.18812867596E+04  0.25500000920E-02 0. -1.
       -2   -1    0    0    0  501  0.00000000000E+00  0.00000000000E+00 -0.37898678763E+03  0.37898678764E+03  0.25500000920E-02 0.  1.
    10030    2    1    2    0    0  0.00000000000E+00  0.00000000000E+00  0.15022999720E+04  0.22602735472E+04  0.16887662072E+04 0.  0.
        2    1    3    3  502    0  0.39259982063E+03 -0.17682642828E+03  0.17233058264E+04  0.17762840922E+04  0.25500000920E-02 0. -1.
       -2    1    3    3    0  502 -0.39259982063E+03  0.17682642828E+03 -0.22100585442E+03  0.48398945504E+03  0.25500000920E-02 0.  1.
</event>
<event>
 5   0  0.5021349E-04  0.1706985E+04  0.7818609E-02  0.8757391E-01
        2   -1    0    0  501    0  0.00000000000E+00  0.00000000000E+00  0.54109501578E+03  0.54109501579E+03  0.25500000920E-02 0. -1.
       -2   -1    0    0    0  501  0.00000000000E+00  0.00000000000E+00 -0.13462505591E+04  0.13462505591E+04  0.25500000920E-02 0.  1.
    10030    2    1    2    0    0  0.00000000000E+00  0.00000000000E+00 -0.80515554333E+03  0.18873455749E+04  0.17069850234E+04 0.  0.
        2    1    3    3  502    0  0.33363640277E+03  0.77889846942E+03 -0.51562250855E+03  0.99189850603E+03  0.25500000920E-02 0. -1.
       -2    1    3    3    0  502 -0.33363640277E+03 -0.77889846942E+03 -0.28953303478E+03  0.89544706887E+03  0.25500000920E-02 0.  1.
</event>
<event>
 5   0  0.5310003E-04  0.1727143E+04  0.7818609E-02  0.8746034E-01
        2   -1    0    0  501    0  0.00000000000E+00  0.00000000000E+00  0.78241774035E+03  0.78241774036E+03  0.25500000920E-02 0. -1.
       -2   -1    0    0    0  501  0.00000000000E+00  0.00000000000E+00 -0.95314214270E+03  0.95314214270E+03  0.25500000920E-02 0.  1.
    10030    2    1    2    0    0  0.00000000000E+00  0.00000000000E+00 -0.17072440235E+03  0.17355598831E+04  0.17271425205E+04 0.  0.
        1    1    3    3  502    0  0.49483996460E+03 -0.57804305448E+03 -0.49570876835E+03  0.90814511309E+03  0.50400001928E-02 0.  1.
       -1    1    3    3    0  502 -0.49483996460E+03  0.57804305448E+03  0.32498436600E+03  0.82741476997E+03  0.50400001928E-02 0. -1.
</event>
<event>
 5   0  0.2785059E-04  0.1704800E+04  0.7818609E-02  0.8758631E-01
        1   -1    0    0  501    0  0.00000000000E+00  0.00000000000E+00  0.25368839549E+04  0.25368839549E+04  0.50400001928E-02 0.  1.
       -1   -1    0    0    0  501  0.00000000000E+00  0.00000000000E+00 -0.28640883683E+03  0.28640883687E+03  0.50400001928E-02 0. -1.
    10030    2    1    2    0    0  0.00000000000E+00  0.00000000000E+00  0.22504751180E+04  0.28232927917E+04  0.17048002613E+04 0.  0.
        5    1    3    3  502    0  0.60443326967E+03  0.24224349547E+03  0.21432740568E+03  0.68555073875E+03  0.46999998093E+01 0. -1.
       -5    1    3    3    0  502 -0.60443326967E+03 -0.24224349547E+03  0.20361477124E+04  0.21377420530E+04  0.46999998093E+01 0.  1.
</event>
<event>
 5   0  0.2630135E-04  0.1697360E+04  0.7818609E-02  0.8762871E-01
       -1   -1    0    0    0  501  0.00000000000E+00  0.00000000000E+00  0.36436816525E+03  0.36436816529E+03  0.50400001928E-02 0.  1.
        1   -1    0    0  501    0  0.00000000000E+00  0.00000000000E+00 -0.19767318587E+04  0.19767318587E+04  0.50400001928E-02 0. -1.
    10030    2    1    2    0    0  0.00000000000E+00  0.00000000000E+00 -0.16123636934E+04  0.23411000240E+04  0.16973604927E+04 0.  0.
        1    1    3    3  502    0  0.43456740281E+02  0.61408942714E+03 -0.16119146062E+04  0.17254747203E+04  0.50400001928E-02 0. -1.
       -1    1    3    3    0  502 -0.43456740281E+02 -0.61408942714E+03 -0.44908725812E+00  0.61562530366E+03  0.50400001928E-02 0.  1.
</event>
<event>
 5   0  0.5310003E-04  0.1685620E+04  0.7818609E-02  0.8769609E-01
       -2   -1    0    0    0  501  0.00000000000E+00  0.00000000000E+00  0.99660001418E+03  0.99660001419E+03  0.25500000920E-02 0.  1.
        2   -1    0    0  501    0  0.00000000000E+00  0.00000000000E+00 -0.71275187605E+03  0.71275187605E+03  0.25500000920E-02 0. -1.
    10030    2    1    2    0    0  0.00000000000E+00  0.00000000000E+00  0.28384813813E+03  0.17093518902E+04  0.16856198027E+04 0.  0.
        1    1    3    3  502    0 -0.68079156457E+03  0.18509614514E+03  0.60949131167E+03  0.93231829134E+03  0.50400001928E-02 0.  1.
       -1    1    3    3    0  502  0.68079156457E+03 -0.18509614514E+03 -0.32564317354E+03  0.77703359891E+03  0.50400001928E-02 0. -1.
</event>
<event>
 5   0  0.2595644E-04  0.1697940E+04  0.7818609E-02  0.8762540E-01
        1   -1    0    0  501    0  0.00000000000E+00  0.00000000000E+00  0.12987982458E+04  0.12987982458E+04  0.50400001928E-02 0. -1.
       -1   -1    0    0    0  501  0.00000000000E+00  0.00000000000E+00 -0.55493618008E+03  0.55493618011E+03  0.50400001928E-02 0.  1.
    10030    2    1    2    0    0  0.00000000000E+00  0.00000000000E+00  0.74386206571E+03  0.18537344259E+04  0.16979400899E+04 0.  0.
        2    1    3    3  502    0  0.81131331800E+03 -0.23157502733E+03  0.47489135824E+03  0.96818288324E+03  0.25500000920E-02 0.  1.
       -2    1    3    3    0  502 -0.81131331800E+03  0.23157502733E+03  0.26897070747E+03  0.88555154268E+03  0.25500000920E-02 0. -1.
</event>
<event>
 5   0  0.2583422E-04  0.1559045E+04  0.7818609E-02  0.8846111E-01
       -1   -1    0    0    0  501  0.00000000000E+00  0.00000000000E+00  0.78279573710E+03  0.78279573712E+03  0.50400001928E-02 0. -1.
        1   -1    0    0  501    0  0.00000000000E+00  0.00000000000E+00 -0.77626260358E+03  0.77626260360E+03  0.50400001928E-02 0.  1.
    10030    2    1    2    0    0  0.00000000000E+00  0.00000000000E+00  0.65331335218E+01  0.15590583407E+04  0.15590446523E+04 0.  0.
        3    1    3    3  502    0  0.17537659557E+03  0.73883129560E+03 -0.17287814073E+03  0.77879104731E+03  0.10100000352E+00 0. -1.
       -3    1    3    3    0  502 -0.17537659557E+03 -0.73883129560E+03  0.17941127425E+03  0.78026729340E+03  0.10100000352E+00 0.  1.
</event>
<event>
 5   0  0.2561518E-04  0.1692190E+04  0.7818609E-02  0.8765831E-01
       -1   -1    0    0    0  501  0.00000000000E+00  0.00000000000E+00  0.90202581568E+03  0.90202581569E+03  0.50400001928E-02 0.  1.
        1   -1    0    0  501    0  0.00000000000E+00  0.00000000000E+00 -0.79363207590E+03  0.79363207591E+03  0.50400001928E-02 0. -1.
    10030    2    1    2    0    0  0.00000000000E+00  0.00000000000E+00  0.10839373978E+03  0.16956578916E+04  0.16921898483E+04 0.  0.
        4    1    3    3  502    0 -0.15420959441E+03 -0.37007725296E+03 -0.69240544014E+03  0.80010291751E+03  0.12699999809E+01 0. -1.
       -4    1    3    3    0  502  0.15420959441E+03  0.37007725296E+03  0.80079917992E+03  0.89555497410E+03  0.12699999809E+01 0.  1.
</event>
<event>
 5   0  0.5310003E-04  0.1700820E+04  0.7818609E-02  0.8760897E-01
       -2   -1    0    0    0  501  0.00000000000E+00  0.00000000000E+00  0.30205203845E+03  0.30205203846E+03  0.25500000920E-02 0. -1.
        2   -1    0    0  501    0  0.00000000000E+00  0.00000000000E+00 -0.23942787284E+04  0.23942787284E+04  0.25500000920E-02 0.  1.
    10030    2    1    2    0    0  0.00000000000E+00  0.00000000000E+00 -0.20922266900E+04  0.26963307669E+04  0.17008195325E+04 0.  0.
        1    1    3    3  502    0  0.68655622651E+03  0.48035185518E+03 -0.81583657712E+03  0.11694813712E+04  0.50400001928E-02 0.  1.
       -1    1    3    3    0  502 -0.68655622651E+03 -0.48035185518E+03 -0.12763901129E+04  0.15268493957E+04  0.50400001928E-02 0. -1.
</event>
<event>
 5   0  0.2595644E-04  0.1658398E+04  0.7818609E-02  0.8785454E-01
        1   -1    0    0  501    0  0.00000000000E+00  0.00000000000E+00  0.50053928042E+03  0.50053928045E+03  0.50400001928E-02 0. -1.
       -1   -1    0    0    0  501  0.00000000000E+00  0.00000000000E+00 -0.13736600115E+04  0.13736600115E+04  0.50400001928E-02 0.  1.
    10030    2    1    2    0    0  0.00000000000E+00  0.00000000000E+00 -0.87312073111E+03  0.18741992920E+04  0.16583977735E+04 0.  0.
        2    1    3    3  502    0  0.37476680281E+03 -0.30248124023E+03  0.32627564696E+03  0.58172231776E+03  0.25500000920E-02 0. -1.
       -2    1    3    3    0  502 -0.37476680281E+03  0.30248124023E+03 -0.11993963781E+04  0.12924769742E+04  0.25500000920E-02 0.  1.
</event>
<event>
 5   0  0.2583422E-04  0.1681233E+04  0.7818609E-02  0.8772141E-01
        1   -1    0    0  501    0  0.00000000000E+00  0.00000000000E+00  0.11684079348E+04  0.11684079348E+04  0.50400001928E-02 0. -1.
       -1   -1    0    0    0  501  0.00000000000E+00  0.00000000000E+00 -0.60478541032E+03  0.60478541034E+03  0.50400001928E-02 0.  1.
    10030    2    1    2    0    0  0.00000000000E+00  0.00000000000E+00  0.56362252452E+03  0.17731933452E+04  0.16812329670E+04 0.  0.
        3    1    3    3  502    0  0.65091687392E+03 -0.38098713944E+03  0.67331898306E+03  0.10110402763E+04  0.10100000352E+00 0. -1.
       -3    1    3    3    0  502 -0.65091687392E+03  0.38098713944E+03 -0.10969645854E+03  0.76215306887E+03  0.10100000352E+00 0.  1.
</event>
<event>
 5   0  0.2785059E-04  0.1703935E+04  0.7818609E-02  0.8759123E-01
       -1   -1    0    0    0  501  0.00000000000E+00  0.00000000000E+00  0.40480433708E+03  0.40480433711E+03  0.50400001928E-02 0. -1.
        1   -1    0    0  501    0  0.00000000000E+00  0.00000000000E+00 -0.17930856712E+04  0.17930856712E+04  0.50400001928E-02 0.  1.
    10030    2    1    2    0    0  0.00000000000E+00  0.00000000000E+00 -0.13882813342E+04  0.21978900083E+04  0.17039352764E+04 0.  0.
        5    1    3    3  502    0  0.61296249528E+03  0.58990782362E+03 -0.75342661759E+03  0.11363925462E+04  0.46999998093E+01 0.  1.
       -5    1    3    3    0  502 -0.61296249528E+03 -0.58990782362E+03 -0.63485471657E+03  0.10614974621E+04  0.46999998093E+01 0. -1.
</event>
<event>
 5   0  0.5310003E-04  0.1661025E+04  0.7818609E-02  0.8783911E-01
        2   -1    0    0  501    0  0.00000000000E+00  0.00000000000E+00  0.82967271008E+03  0.82967271008E+03  0.25500000920E-02 0.  1.
       -2   -1    0    0    0  501  0.00000000000E+00  0.00000000000E+00 -0.83135302998E+03  0.83135302998E+03  0.25500000920E-02 0. -1.
    10030    2    1    2    0    0  0.00000000000E+00  0.00000000000E+00 -0.16803199025E+01  0.16610257401E+04  0.16610248901E+04 0.  0.
        1    1    3    3  502    0 -0.25330920200E+03  0.47400178813E+03  0.63233286908E+03  0.82987234218E+03  0.50400001928E-02 0.  1.
       -1    1    3    3    0  502  0.25330920200E+03 -0.47400178813E+03 -0.63401318899E+03  0.83115339788E+03  0.50400001928E-02 0. -1.
</event>
<event>
 5   0  0.1910750E-04  0.1683568E+04  0.7818609E-02  0.8770792E-01
        3   -1    0    0  501    0  0.00000000000E+00  0.00000000000E+00  0.47419709032E+03  0.47419710108E+03  0.10100000352E+00 0.  1.
       -3   -1    0    0    0  501  0.00000000000E+00  0.00000000000E+00 -0.14943152198E+04  0.14943152232E+04  0.10100000352E+00 0. -1.
    10030    2    1    2    0    0  0.00000000000E+00  0.00000000000E+00 -0.10201181295E+04  0.19685123243E+04  0.16835675730E+04 0.  0.
        3    1    3    3  502    0 -0.94559548557E+02  0.83340293332E+03 -0.42657444787E+03  0.94099294752E+03  0.10100000352E+00 0.  1.
       -3    1    3    3    0  502  0.94559548557E+02 -0.83340293332E+03 -0.59354368161E+03  0.10275193768E+04  0.10100000352E+00 0. -1.
</event>
<event>
 5   0  0.2785059E-04  0.1697300E+04  0.7818609E-02  0.8762906E-01
        1   -1    0    0  501    0  0.00000000000E+00  0.00000000000E+00  0.24412915246E+04  0.24412915246E+04  0.50400001928E-02 0. -1.
       -1   -1    0    0    0  501  0.00000000000E+00  0.00000000000E+00 -0.29501044978E+03  0.29501044982E+03  0.50400001928E-02 0.  1.
    10030    2    1    2    0    0  0.00000000000E+00  0.00000000000E+00  0.21462810748E+04  0.27363019744E+04  0.16972996327E+04 0.  0.
        5    1    3    3  502    0  0.50605753904E+03 -0.47971547867E+03  0.29334754691E+03  0.75650250930E+03  0.46999998093E+01 0.  1.
       -5    1    3    3    0  502 -0.50605753904E+03  0.47971547867E+03  0.18529335279E+04  0.19797994651E+04  0.46999998093E+01 0. -1.
</event>
<event>
 5   0  0.5021349E-04  0.1712687E+04  0.7818609E-02  0.8754161E-01
        2   -1    0    0  501    0  0.00000000000E+00  0.00000000000E+00  0.85179751434E+03  0.85179751434E+03  0.25500000920E-02 0. -1.
       -2   -1    0    0    0  501  0.00000000000E+00  0.00000000000E+00 -0.86091384402E+03  0.86091384403E+03  0.25500000920E-02 0.  1.
    10030    2    1    2    0    0  0.00000000000E+00  0.00000000000E+00 -0.91163296848E+01  0.17127113584E+04  0.17126870962E+04 0.  0.
        2    1    3    3  502    0  0.69612750080E+03 -0.26603154924E+02 -0.50258434315E+03  0.85900654666E+03  0.25500000920E-02 0.  1.
       -2    1    3    3    0  502 -0.69612750080E+03  0.26603154924E+02  0.49346801346E+03  0.85370481171E+03  0.25500000920E-02 0. -1.
</event>
<event>
 5   0  0.2595644E-04  0.1708128E+04  0.7818609E-02  0.8756742E-01
       -1   -1    0    0    0  501  0.00000000000E+00  0.00000000000E+00  0.37113113794E+03  0.37113113797E+03  0.50400001928E-02 0. -1.
        1   -1    0    0  501    0  0.00000000000E+00  0.00000000000E+00 -0.19654119071E+04  0.19654119071E+04  0.50400001928E-02 0.  1.
    10030    2    1    2    0    0  0.00000000000E+00  0.00000000000E+00 -0.15942807691E+04  0.23365430450E+04  0.17081282828E+04 0.  0.
        2    1    3    3  502    0  0.20046108597E+03 -0.44566639980E+03  0.16099521322E+03  0.51451204610E+03  0.25500000920E-02 0. -1.
       -2    1    3    3    0  502 -0.20046108597E+03  0.44566639980E+03 -0.17552759824E+04  0.18220309989E+04  0.25500000920E-02 0.  1.
</event>
<event>
 5   0  0.5342255E-04  0.1700925E+04  0.7818609E-02  0.8760837E-01
        2   -1    0    0  501    0  0.00000000000E+00  0.00000000000E+00  0.12007545524E+04  0.12007545524E+04  0.25500000920E-02 0.  1.
       -2   -1    0    0    0  501  0.00000000000E+00  0.00000000000E+00 -0.60236008010E+03  0.60236008011E+03  0.25500000920E-02 0. -1.
    10030    2    1    2    0    0  0.00000000000E+00  0.00000000000E+00  0.59839447232E+03  0.18031146325E+04  0.17009251699E+04 0.  0.
        5    1    3    3  502    0  0.77730335988E+03 -0.21736877793E+03  0.58328018447E+03  0.99583510808E+03  0.46999998093E+01 0.  1.
       -5    1    3    3    0  502 -0.77730335988E+03  0.21736877793E+03  0.15114287850E+02  0.80727952445E+03  0.46999998093E+01 0. -1.
</event>
<event>
 5   0  0.5198430E-04  0.1682448E+04  0.7818609E-02  0.8771439E-01
        2   -1    0    0  501    0  0.00000000000E+00  0.00000000000E+00  0.10308426769E+04  0.10308426769E+04  0.25500000920E-02 0. -1.
       -2   -1    0    0    0  501  0.00000000000E+00  0.00000000000E+00 -0.68648469208E+03  0.68648469209E+03  0.25500000920E-02 0.  1.
    10030    2    1    2    0    0  0.00000000000E+00  0.00000000000E+00  0.34435798484E+03  0.17173273690E+04  0.16824478805E+04 0.  0.
        4    1    3    3  502    0  0.71760308405E+03 -0.41905716801E+03  0.30562965237E+03  0.88542317205E+03  0.12699999809E+01 0. -1.
       -4    1    3    3    0  502 -0.71760308405E+03  0.41905716801E+03  0.38728332470E+02  0.83190419697E+03  0.12699999809E+01 0.  1.
</event>
<event>
 5   0  0.5198430E-04  0.1672431E+04  0.7818609E-02  0.8777246E-01
        2   -1    0    0  501    0  0.00000000000E+00  0.00000000000E+00  0.83668226678E+03  0.83668226679E+03  0.25500000920E-02 0. -1.
       -2   -1    0    0    0  501  0.00000000000E+00  0.00000000000E+00 -0.83574945183E+03  0.83574945183E+03  0.25500000920E-02 0.  1.
    10030    2    1    2    0    0  0.00000000000E+00  0.00000000000E+00  0.93281495174E+00  0.16724317186E+04  0.16724314585E+04 0.  0.
        4    1    3    3  502    0  0.74882758024E+03  0.17058879945E+03 -0.33030826437E+03  0.83603136654E+03  0.12699999809E+01 0.  1.
       -4    1    3    3    0  502 -0.74882758024E+03 -0.17058879945E+03  0.33124107933E+03  0.83640035208E+03  0.12699999809E+01 0. -1.
</event>
<event>
 5   0  0.2785059E-04  0.1718033E+04  0.7818609E-02  0.8751146E-01
       -1   -1    0    0    0  501  0.00000000000E+00  0.00000000000E+00  0.32083404141E+03  0.32083404145E+03  0.50400001928E-02 0. -1.
        1   -1    0    0  501    0  0.00000000000E+00  0.00000000000E+00 -0.22999727674E+04  0.22999727674E+04  0.50400001928E-02 0.  1.
    10030    2    1    2    0    0  0.00000000000E+00  0.00000000000E+00 -0.19791387260E+04  0.26208068089E+04  0.17180332455E+04 0.  0.
        5    1    3    3  502    0 -0.17239062388E+03  0.39842873919E+02  0.29271566602E+03  0.34206802385E+03  0.46999998093E+01 0. -1.
       -5    1    3    3    0  502  0.17239062388E+03 -0.39842873919E+02 -0.22718543920E+04  0.22787387850E+04  0.46999998093E+01 0.  1.
</event>
<event>
 5   0  0.2785059E-04  0.1694524E+04  0.7818609E-02  0.8764494E-01
       -1   -1    0    0    0  501  0.00000000000E+00  0.00000000000E+00  0.11814953576E+04  0.11814953577E+04  0.50400001928E-02 0.  1.
        1   -1    0    0  501    0  0.00000000000E+00  0.00000000000E+00 -0.60757985895E+03  0.60757985897E+03  0.50400001928E-02 0. -1.
    10030    2    1    2    0    0  0.00000000000E+00  0.00000000000E+00  0.57391549869E+03  0.17890752166E+04  0.16945238656E+04 0.  0.
        5    1    3    3  502    0 -0.11739028530E+03 -0.81502538778E+03  0.76369463106E+02  0.82698322033E+03  0.46999998093E+01 0.  1.
       -5    1    3    3    0  502  0.11739028530E+03  0.81502538778E+03  0.49754603559E+03  0.96209199630E+03  0.46999998093E+01 0. -1.
</event>
<event>
 5   0  0.2785059E-04  0.1708214E+04  0.7818609E-02  0.8756694E-01
       -1   -1    0    0    0  501  0.00000000000E+00  0.00000000000E+00  0.17734258173E+04  0.17734258173E+04  0.50400001928E-02 0.  1.
        1   -1    0    0  501    0  0.00000000000E+00  0.00000000000E+00 -0.41134983884E+03  0.41134983887E+03  0.50400001928E-02 0. -1.
    10030    2    1    2    0    0  0.00000000000E+00  0.00000000000E+00  0.13620759785E+04  0.21847756562E+04  0.17082135981E+04 0.  0.
        5    1    3    3  502    0 -0.34593278890E+03  0.36621113988E+03  0.15631617758E+04  0.16423388569E+04  0.46999998093E+01 0.  1.
       -5    1    3    3    0  502  0.34593278890E+03 -0.36621113988E+03 -0.20108579731E+03  0.54243679935E+03  0.46999998093E+01 0. -1.
</event>
<event>
 5   0  0.5198430E-04  0.1721882E+04  0.7818609E-02  0.8748981E-01
       -2   -1    0    0    0  501  0.00000000000E+00  0.00000000000E+00  0.11725260837E+04  0.11725260837E+04  0.25500000920E-02 0.  1.
        2   -1    0    0  501    0  0.00000000000E+00  0.00000000000E+00 -0.63215636580E+03  0.63215636581E+03  0.25500000920E-02 0. -1.
    10030    2    1    2    0    0  0.00000000000E+00  0.00000000000E+00  0.54036971791E+03  0.18046824495E+04  0.17218824906E+04 0.  0.
        4    1    3    3  502    0  0.76506626527E+02 -0.71928059372E+03  0.75954197601E+03  0.10488677050E+04  0.12699999809E+01 0.  1.
       -4    1    3    3    0  502 -0.76506626527E+02  0.71928059372E+03 -0.21917225810E+03  0.75581474451E+03  0.12699999809E+01 0. -1.
</event>
<event>
 5   0  0.5342255E-04  0.1699670E+04  0.7818609E-02  0.8761553E-01
       -2   -1    0    0    0  501  0.00000000000E+00  0.00000000000E+00  0.40503924283E+03  0.40503924284E+03  0.25500000920E-02 0.  1.
        2   -1    0    0  501    0  0.00000000000E+00  0.00000000000E+00 -0.17830850261E+04  0.17830850261E+04  0.25500000920E-02 0. -1.
    10030    2    1    2    0    0  0.00000000000E+00  0.00000000000E+00 -0.13780457833E+04  0.21881242689E+04  0.16996698607E+04 0.  0.
        5    1    3    3  502    0  0.51333696554E+03 -0.14560101123E+03 -0.15405292851E+04  0.16303272870E+04  0.46999998093E+01 0. -1.
       -5    1    3    3    0  502 -0.51333696554E+03  0.14560101123E+03  0.16248350180E+03  0.55779698190E+03  0.46999998093E+01 0.  1.
</event>
<event>
 5   0  0.2583422E-04  0.1695764E+04  0.7818609E-02  0.8763784E-01
        1   -1    0    0  501    0  0.00000000000E+00  0.00000000000E+00  0.14306770475E+04  0.14306770475E+04  0.50400001928E-02 0. -1.
       -1   -1    0    0    0  501  0.00000000000E+00  0.00000000000E+00 -0.50249184505E+03  0.50249184508E+03  0.50400001928E-02 0.  1.
    10030    2    1    2    0    0  0.00000000000E+00  0.00000000000E+00  0.92818520241E+03  0.19331688925E+04  0.16957636030E+04 0.  0.
        3    1    3    3  502    0  0.49780771250E+03 -0.67965797699E+03  0.35500919775E+03  0.91420950826E+03  0.10100000352E+00 0.  1.
       -3    1    3    3    0  502 -0.49780771250E+03  0.67965797699E+03  0.57317600466E+03  0.10189593843E+04  0.10100000352E+00 0. -1.
</event>
<event>
 5   0  0.5198430E-04  0.1700075E+04  0.7818609E-02  0.8761322E-01
        2   -1    0    0  501    0  0.00000000000E+00  0.00000000000E+00  0.21975859819E+04  0.21975859819E+04  0.25500000920E-02 0.  1.
       -2   -1    0    0    0  501  0.00000000000E+00  0.00000000000E+00 -0.32879871775E+03  0.32879871776E+03  0.25500000920E-02 0. -1.
    10030    2    1    2    0    0  0.00000000000E+00  0.00000000000E+00  0.18687872641E+04  0.25263846997E+04  0.17000746490E+04 0.  0.
        4    1    3    3  502    0 -0.50608334707E+03  0.35365152973E+02 -0.79160727394E+02  0.51345796506E+03  0.12699999809E+01 0. -1.
       -4    1    3    3    0  502  0.50608334707E+03 -0.35365152973E+02  0.19479479915E+04  0.20129267346E+04  0.12699999809E+01 0.  1.
</event>
<event>
 5   0  0.5310003E-04  0.1690888E+04  0.7818609E-02  0.8766578E-01
        2   -1    0    0  501    0  0.00000000000E+00  0.00000000000E+00  0.58598392599E+03  0.58598392599E+03  0.25500000920E-02 0. -1.
       -2   -1    0    0    0  501  0.00000000000E+00  0.00000000000E+00 -0.12197870874E+04  0.12197870874E+04  0.25500000920E-02 0.  1.
    10030    2    1    2    0    0  0.00000000000E+00  0.00000000000E+00 -0.63380316142E+03  0.18057710134E+04  0.16908880819E+04 0.  0.
        1    1    3    3  502    0  0.25673375039E+03  0.81664343195E+02  0.53891570101E+03  0.60250428742E+03  0.50400001928E-02 0. -1.
       -1    1    3    3    0  502 -0.25673375039E+03 -0.81664343195E+02 -0.11727188624E+04  0.12032667260E+04  0.50400001928E-02 0.  1.
</event>
<event>
 5   0  0.2630135E-04  0.1731881E+04  0.7818609E-02  0.8743387E-01
       -1   -1    0    0    0  501  0.00000000000E+00  0.00000000000E+00  0.63770800555E+03  0.63770800557E+03  0.50400001928E-02 0. -1.
        1   -1    0    0  501    0  0.00000000000E+00  0.00000000000E+00 -0.11758565712E+04  0.11758565712E+04  0.50400001928E-02 0.  1.
    10030    2    1    2    0    0  0.00000000000E+00  0.00000000000E+00 -0.53814856566E+03  0.18135645768E+04  0.17318812302E+04 0.  0.
        1    1    3    3  502    0  0.33933509660E+03 -0.25363851060E+03  0.52177577338E+03  0.67210918723E+03  0.50400001928E-02 0. -1.
       -1    1    3    3    0  502 -0.33933509660E+03  0.25363851060E+03 -0.10599243390E+04  0.11414553896E+04  0.50400001928E-02 0.  1.
</event>
<event>
 5   0  0.5299877E-04  0.1677778E+04  0.7818609E-02  0.8774141E-01
       -2   -1    0    0    0  501  0.00000000000E+00  0.00000000000E+00  0.66435816206E+03  0.66435816206E+03  0.25500000920E-02 0. -1.
        2   -1    0    0  501    0  0.00000000000E+00  0.00000000000E+00 -0.10592707413E+04  0.10592707413E+04  0.25500000920E-02 0.  1.
    10030    2    1    2    0    0  0.00000000000E+00  0.00000000000E+00 -0.39491257923E+03  0.17236289033E+04  0.16777784869E+04 0.  0.
        3    1    3    3  502    0  0.22197504728E+02  0.79908277363E+03  0.63875339043E+02  0.80193894871E+03  0.10100000352E+00 0.  1.
       -3    1    3    3    0  502 -0.22197504728E+02 -0.79908277363E+03 -0.45878791827E+03  0.92168995463E+03  0.10100000352E+00 0. -1.
</event>
<event>
 5   0  0.2583422E-04  0.1678430E+04  0.7818609E-02  0.8773763E-01
       -1   -1    0    0    0  501  0.00000000000E+00  0.00000000000E+00  0.64042421756E+03  0.64042421758E+03  0.50400001928E-02 0. -1.
        1   -1    0    0  501    0  0.00000000000E+00  0.00000000000E+00 -0.10997110754E+04  0.10997110754E+04  0.50400001928E-02 0.  1.
    10030    2    1    2    0    0  0.00000000000E+00  0.00000000000E+00 -0.45928685784E+03  0.17401352930E+04  0.16784297483E+04 0.  0.
        3    1    3    3  502    0 -0.74305784732E+03 -0.21793153586E+03  0.10575003975E+03  0.78154475233E+03  0.10100000352E+00 0. -1.
       -3    1    3    3    0  502  0.74305784732E+03  0.21793153586E+03 -0.56503689758E+03  0.95859054065E+03  0.10100000352E+00 0.  1.
</event>
<event>
 5   0  0.2785059E-04  0.1708311E+04  0.7818609E-02  0.8756638E-01
       -1   -1    0    0    0  501  0.00000000000E+00  0.00000000000E+00  0.51362449894E+03  0.51362449896E+03  0.50400001928E-02 0.  1.
        1   -1    0    0  501    0  0.00000000000E+00  0.00000000000E+00 -0.14204572839E+04  0.14204572839E+04  0.50400001928E-02 0. -1.
    10030    2    1    2    0    0  0.00000000000E+00  0.00000000000E+00 -0.90683278493E+03  0.19340817828E+04  0.17083110498E+04 0.  0.
        5    1    3    3  502    0 -0.89865396197E+02  0.20896622397E+03  0.47868698206E+03  0.53000564996E+03  0.46999998093E+01 0.  1.
       -5    1    3    3    0  502  0.89865396197E+02 -0.20896622397E+03 -0.13855197670E+04  0.14040761329E+04  0.46999998093E+01 0. -1.
</event>
<event>
 5   0  0.2630135E-04  0.1767640E+04  0.7818609E-02  0.8723700E-01
        1   -1    0    0  501    0  0.00000000000E+00  0.00000000000E+00  0.70212808884E+03  0.70212808886E+03  0.50400001928E-02 0.  1.
       -1   -1    0    0    0  501  0.00000000000E+00  0.00000000000E+00 -0.11125294495E+04  0.11125294495E+04  0.50400001928E-02 0. -1.
    10030    2    1    2    0    0  0.00000000000E+00  0.00000000000E+00 -0.41040136068E+03  0.18146575384E+04  0.17676404342E+04 0.  0.
        1    1    3    3  502    0 -0.17941083670E+03  0.13678831862E+03  0.67206921672E+03  0.70892617707E+03  0.50400001928E-02 0.  1.
       -1    1    3    3    0  502  0.17941083670E+03 -0.13678831862E+03 -0.10824705774E+04  0.11057313613E+04  0.50400001928E-02 0. -1.
</event>
<event>
 5   0  0.2630135E-04  0.1694079E+04  0.7818609E-02  0.8764749E-01
        1   -1    0    0  501    0  0.00000000000E+00  0.00000000000E+00  0.93709274809E+03  0.93709274810E+03  0.50400001928E-02 0.  1.
       -1   -1    0    0    0  501  0.00000000000E+00  0.00000000000E+00 -0.76563984631E+03  0.76563984633E+03  0.50400001928E-02 0. -1.
    10030    2    1    2    0    0  0.00000000000E+00  0.00000000000E+00  0.17145290178E+03  0.17027325944E+04  0.16940785668E+04 0.  0.
        1    1    3    3  502    0 -0.22891201014E+03  0.81459727090E+03  0.46719367260E+02  0.84743856499E+03  0.50400001928E-02 0. -1.
       -1    1    3    3    0  502  0.22891201014E+03 -0.81459727090E+03  0.12473353452E+03  0.85529402944E+03  0.50400001928E-02 0.  1.
</event>
<event>
 5   0  0.5299877E-04  0.1634274E+04  0.7818609E-02  0.8799764E-01
       -2   -1    0    0    0  501  0.00000000000E+00  0.00000000000E+00  0.34918678678E+03  0.34918678679E+03  0.25500000920E-02 0. -1.
        2   -1    0    0  501    0  0.00000000000E+00  0.00000000000E+00 -0.19121949691E+04  0.19121949691E+04  0.25500000920E-02 0.  1.
    10030    2    1    2    0    0  0.00000000000E+00  0.00000000000E+00 -0.15630081823E+04  0.22613817559E+04  0.16342744163E+04 0.  0.
        3    1    3    3  502    0 -0.34976877006E+02  0.35922278872E+03 -0.17959232804E+04  0.18318310057E+04  0.10100000352E+00 0.  1.
       -3    1    3    3    0  502  0.34976877006E+02 -0.35922278872E+03  0.23291509814E+03  0.42955075021E+03  0.10100000352E+00 0. -1.
</event>
<event>
 5   0  0.2630135E-04  0.1701982E+04  0.7818609E-02  0.8760235E-01
       -1   -1    0    0    0  501  0.00000000000E+00  0.00000000000E+00  0.11423338228E+04  0.11423338228E+04  0.50400001928E-02 0. -1.
        1   -1    0    0  501    0  0.00000000000E+00  0.00000000000E+00 -0.63395271352E+03  0.63395271354E+03  0.50400001928E-02 0.  1.
    10030    2    1    2    0    0  0.00000000000E+00  0.00000000000E+00  0.50838110930E+03  0.17762865364E+04  0.17019819350E+04 0.  0.
        1    1    3    3  502    0 -0.53349565782E+03 -0.66104851887E+03  0.20114988790E+03  0.87296279339E+03  0.50400001928E-02 0.  1.
       -1    1    3    3    0  502  0.53349565782E+03  0.66104851887E+03  0.30723122140E+03  0.90332374298E+03  0.50400001928E-02 0. -1.
</event>
<event>
 5   0  0.2595644E-04  0.1702829E+04  0.7818609E-02  0.8759752E-01
       -1   -1    0    0    0  501  0.00000000000E+00  0.00000000000E+00  0.59431652468E+03  0.59431652470E+03  0.50400001928E-02 0. -1.
        1   -1    0    0  501    0  0.00000000000E+00  0.00000000000E+00 -0.12197320325E+04  0.12197320325E+04  0.50400001928E-02 0.  1.
    10030    2    1    2    0    0  0.00000000000E+00  0.00000000000E+00 -0.62541550784E+03  0.18140485572E+04  0.17028292958E+04 0.  0.
        2    1    3    3  502    0 -0.56051120445E+03 -0.40421484980E+03  0.21711289146E+03  0.72436210748E+03  0.25500000920E-02 0. -1.
       -2    1    3    3    0  502  0.56051120445E+03  0.40421484980E+03 -0.84252839930E+03  0.10896864497E+04  0.25500000920E-02 0.  1.
</event>
<event>
 5   0  0.2785059E-04  0.1920483E+04  0.7818609E-02  0.8644727E-01
       -1   -1    0    0    0  501  0.00000000000E+00  0.00000000000E+00  0.42864542734E+03  0.42864542737E+03  0.50400001928E-02 0. -1.
        1   -1    0    0  501    0  0.00000000000E+00  0.00000000000E+00 -0.21511103440E+04  0.21511103440E+04  0.50400001928E-02 0.  1.
    10030    2    1    2    0    0  0.00000000000E+00  0.00000000000E+00 -0.17224649167E+04  0.25797557714E+04  0.19204828692E+04 0.  0.
        5    1    3    3  502    0 -0.80951289533E+03  0.29140757559E+03 -0.28846352901E+03  0.90744851115E+03  0.46999998093E+01 0. -1.
       -5    1    3    3    0  502  0.80951289533E+03 -0.29140757559E+03 -0.14340013877E+04  0.16723072602E+04  0.46999998093E+01 0.  1.
</event>
<event>
 5   0  0.5198430E-04  0.1691134E+04  0.7818609E-02  0.8766437E-01
       -2   -1    0    0    0  501  0.00000000000E+00  0.00000000000E+00  0.96281538872E+03  0.96281538872E+03  0.25500000920E-02 0.  1.
        2   -1    0    0  501    0  0.00000000000E+00  0.00000000000E+00 -0.74259639638E+03  0.74259639639E+03  0.25500000920E-02 0. -1.
    10030    2    1    2    0    0  0.00000000000E+00  0.00000000000E+00  0.22021899233E+03  0.17054117851E+04  0.16911336293E+04 0.  0.
        4    1    3    3  502    0 -0.44109360680E+03 -0.37234974211E+03  0.73320461844E+03  0.93316586190E+03  0.12699999809E+01 0.  1.
       -4    1    3    3    0  502  0.44109360680E+03  0.37234974211E+03 -0.51298562611E+03  0.77224592320E+03  0.12699999809E+01 0. -1.
</event>
<event>
 5   0  0.5299877E-04  0.1714129E+04  0.7818609E-02  0.8753347E-01
        2   -1    0    0  501    0  0.00000000000E+00  0.00000000000E+00  0.14041537073E+04  0.14041537073E+04  0.25500000920E-02 0.  1.
       -2   -1    0    0    0  501  0.00000000000E+00  0.00000000000E+00 -0.52313353089E+03  0.52313353090E+03  0.25500000920E-02 0. -1.
    10030    2    1    2    0    0  0.00000000000E+00  0.00000000000E+00  0.88102017637E+03  0.19272872382E+04  0.17141293846E+04 0.  0.
        3    1    3    3  502    0  0.32683403485E+03 -0.77244229734E+03  0.24231656436E+03  0.87304347923E+03  0.10100000352E+00 0. -1.
       -3    1    3    3    0  502 -0.32683403485E+03  0.77244229734E+03  0.63870361201E+03  0.10542437589E+04  0.10100000352E+00 0.  1.
</event>
<event>
 5   0  0.2561518E-04  0.1714274E+04  0.7818609E-02  0.8753265E-01
        1   -1    0    0  501    0  0.00000000000E+00  0.00000000000E+00  0.15626460839E+04  0.15626460839E+04  0.50400001928E-02 0. -1.
       -1   -1    0    0    0  501  0.00000000000E+00  0.00000000000E+00 -0.47015364042E+03  0.47015364044E+03  0.50400001928E-02 0.  1.
    10030    2    1    2    0    0  0.00000000000E+00  0.00000000000E+00  0.10924924435E+04  0.20327997243E+04  0.17142738930E+04 0.  0.
        4    1    3    3  502    0 -0.24555951019E+03  0.58719757703E+03 -0.13451671541E+03  0.65053580005E+03  0.12699999809E+01 0.  1.
       -4    1    3    3    0  502  0.24555951019E+03 -0.58719757703E+03  0.12270091589E+04  0.13822639243E+04  0.12699999809E+01 0. -1.
</event>
<event>
 5   0  0.2595644E-04  0.1699935E+04  0.7818609E-02  0.8761402E-01
        1   -1    0    0  501    0  0.00000000000E+00  0.00000000000E+00  0.19198230558E+04  0.19198230559E+04  0.50400001928E-02 0. -1.
       -1   -1    0    0    0  501  0.00000000000E+00  0.00000000000E+00 -0.37630783405E+03  0.37630783409E+03  0.50400001928E-02 0.  1.
    10030    2    1    2    0    0  0.00000000000E+00  0.00000000000E+00  0.15435152218E+04  0.22961308899E+04  0.16999346528E+04 0.  0.
        2    1    3    3  502    0 -0.91726116342E+01 -0.73548623303E+03  0.19644038359E+03  0.76132316403E+03  0.25500000920E-02 0.  1.
       -2    1    3    3    0  502  0.91726116342E+01  0.73548623303E+03  0.13470748382E+04  0.15348077259E+04  0.25500000920E-02 0. -1.
</event>
<event>
 5   0  0.2561518E-04  0.1736573E+04  0.7818609E-02  0.8740776E-01
       -1   -1    0    0    0  501  0.00000000000E+00  0.00000000000E+00  0.45045389752E+03  0.45045389754E+03  0.50400001928E-02 0. -1.
        1   -1    0    0  501    0  0.00000000000E+00  0.00000000000E+00 -0.16736921162E+04  0.16736921162E+04  0.50400001928E-02 0.  1.
    10030    2    1    2    0    0  0.00000000000E+00  0.00000000000E+00 -0.12232382187E+04  0.21241460138E+04  0.17365726441E+04 0.  0.
        4    1    3    3  502    0  0.39649989382E+03 -0.55533944441E+03 -0.12683959723E+04  0.14402930326E+04  0.12699999809E+01 0.  1.
       -4    1    3    3    0  502 -0.39649989382E+03  0.55533944441E+03  0.45157753542E+02  0.68385298122E+03  0.12699999809E+01 0. -1.
</event>
<event>
 5   0  0.2630135E-04  0.1787348E+04  0.7818609E-02  0.8713057E-01
       -1   -1    0    0    0  501  0.00000000000E+00  0.00000000000E+00  0.52372047521E+03  0.52372047523E+03  0.50400001928E-02 0. -1.
        1   -1    0    0  501    0  0.00000000000E+00  0.00000000000E+00 -0.15249610128E+04  0.15249610128E+04  0.50400001928E-02 0.  1.
    10030    2    1    2    0    0  0.00000000000E+00  0.00000000000E+00 -0.10012405376E+04  0.20486814880E+04  0.17873480985E+04 0.  0.
        1    1    3    3  502    0  0.59894065595E+03 -0.10155946241E+02  0.25953605519E+03  0.65283383534E+03  0.50400001928E-02 0. -1.
       -1    1    3    3    0  502 -0.59894065595E+03  0.10155946241E+02 -0.12607765928E+04  0.13958476527E+04  0.50400001928E-02 0.  1.
</event>
<event>
 5   0  0.1910750E-04  0.1686636E+04  0.7818609E-02  0.8769023E-01
       -3   -1    0    0    0  501  0.00000000000E+00  0.00000000000E+00  0.55179248395E+03  0.55179249319E+03  0.10100000352E+00 0. -1.
        3   -1    0    0  501    0  0.00000000000E+00  0.00000000000E+00 -0.12888642873E+04  0.12888642913E+04  0.10100000352E+00 0.  1.
    10030    2    1    2    0    0  0.00000000000E+00  0.00000000000E+00 -0.73707180340E+03  0.18406567845E+04  0.16866364620E+04 0.  0.
        4    1    3    3  502    0  0.78072957731E+03  0.25526112068E+03 -0.16007669376E+03  0.83685307755E+03  0.12699999809E+01 0.  1.
       -4    1    3    3    0  502 -0.78072957731E+03 -0.25526112068E+03 -0.57699510964E+03  0.10038037069E+04  0.12699999809E+01 0. -1.
</event>
<event>
 5   0  0.2561518E-04  0.1684954E+04  0.7818609E-02  0.8769992E-01
        1   -1    0    0  501    0  0.00000000000E+00  0.00000000000E+00  0.71147947430E+03  0.71147947431E+03  0.50400001928E-02 0. -1.
       -1   -1    0    0    0  501  0.00000000000E+00  0.00000000000E+00 -0.99759393711E+03  0.99759393712E+03  0.50400001928E-02 0.  1.
    10030    2    1    2    0    0  0.00000000000E+00  0.00000000000E+00 -0.28611446281E+03  0.17090734114E+04  0.16849541358E+04 0.  0.
        4    1    3    3  502    0 -0.92480357408E+02  0.21381046171E+03 -0.96427525799E+03  0.99201608662E+03  0.12699999809E+01 0.  1.
       -4    1    3    3    0  502  0.92480357408E+02 -0.21381046171E+03  0.67816079518E+03  0.71705732481E+03  0.12699999809E+01 0. -1.
</event>
<event>
 5   0  0.5198430E-04  0.1699384E+04  0.7818609E-02  0.8761716E-01
       -2   -1    0    0    0  501  0.00000000000E+00  0.00000000000E+00  0.54204818087E+03  0.54204818088E+03  0.25500000920E-02 0.  1.
        2   -1    0    0  501    0  0.00000000000E+00  0.00000000000E+00 -0.13319412855E+04  0.13319412855E+04  0.25500000920E-02 0. -1.
    10030    2    1    2    0    0  0.00000000000E+00  0.00000000000E+00 -0.78989310462E+03  0.18739894664E+04  0.16993838305E+04 0.  0.
        4    1    3    3  502    0  0.80452514426E+03 -0.22274029427E+03 -0.22023590539E+03  0.86335358537E+03  0.12699999809E+01 0.  1.
       -4    1    3    3    0  502 -0.80452514426E+03  0.22274029427E+03 -0.56965719923E+03  0.10106358810E+04  0.12699999809E+01 0. -1.
</event>
<event>
 5   0  0.5198430E-04  0.1760613E+04  0.7818609E-02  0.8727530E-01
       -2   -1    0    0    0  501  0.00000000000E+00  0.00000000000E+00  0.43656239574E+03  0.43656239575E+03  0.25500000920E-02 0.  1.
        2   -1    0    0  501    0  0.00000000000E+00  0.00000000000E+00 -0.17750951952E+04  0.17750951952E+04  0.25500000920E-02 0. -1.
    10030    2    1    2    0    0  0.00000000000E+00  0.00000000000E+00 -0.13385327994E+04  0.22116575909E+04  0.17606133148E+04 0.  0.
        4    1    3    3  502    0 -0.17657040665E+03 -0.36759430540E+03  0.31074821931E+03  0.51270727571E+03  0.12699999809E+01 0.  1.
       -4    1    3    3    0  502  0.17657040665E+03  0.36759430540E+03 -0.16492810187E+04  0.16989503152E+04  0.12699999809E+01 0. -1.
</event>
<event>
 5   0  0.2630135E-04  0.1787956E+04  0.7818609E-02  0.8712731E-01
       -1   -1    0    0    0  501  0.00000000000E+00  0.00000000000E+00  0.38673768499E+03  0.38673768502E+03  0.50400001928E-02 0. -1.
        1   -1    0    0  501    0  0.00000000000E+00  0.00000000000E+00 -0.20665078457E+04  0.20665078458E+04  0.50400001928E-02 0.  1.
    10030    2    1    2    0    0  0.00000000000E+00  0.00000000000E+00 -0.16797701608E+04  0.24532455308E+04  0.17879557716E+04 0.  0.
        1    1    3    3  502    0 -0.15964859850E+03 -0.11303127203E+03 -0.20367837203E+04  0.20461553379E+04  0.50400001928E-02 0.  1.
       -1    1    3    3    0  502  0.15964859850E+03  0.11303127203E+03  0.35701355952E+03  0.40709019291E+03  0.50400001928E-02 0. -1.
</event>
<event>
 5   0  0.2561518E-04  0.1667848E+04  0.7818609E-02  0.8779918E-01
       -1   -1    0    0    0  501  0.00000000000E+00  0.00000000000E+00  0.63286660256E+03  0.63286660258E+03  0.50400001928E-02 0. -1.
        1   -1    0    0  501    0  0.00000000000E+00  0.00000000000E+00 -0.10988553721E+04  0.10988553721E+04  0.50400001928E-02 0.  1.
    10030    2    1    2    0    0  0.00000000000E+00  0.00000000000E+00 -0.46598876953E+03  0.17317219747E+04  0.16678475543E+04 0.  0.
        4    1    3    3  502    0  0.30644778799E+02  0.52808297101E+03 -0.90236742967E+03  0.10459824653E+04  0.12699999809E+01 0.  1.
       -4    1    3    3    0  502 -0.30644778799E+02 -0.52808297101E+03  0.43637866015E+03  0.68573950934E+03  0.12699999809E+01 0. -1.
</event>
<event>
 5   0  0.5198430E-04  0.1770738E+04  0.7818609E-02  0.8722017E-01
        2   -1    0    0  501    0  0.00000000000E+00  0.00000000000E+00  0.80743914638E+03  0.80743914638E+03  0.25500000920E-02 0.  1.
       -2   -1    0    0    0  501  0.00000000000E+00  0.00000000000E+00 -0.97082030470E+03  0.97082030471E+03  0.25500000920E-02 0. -1.
    10030    2    1    2    0    0  0.00000000000E+00  0.00000000000E+00 -0.16338115833E+03  0.17782594511E+04  0.17707380587E+04 0.  0.
        4    1    3    3  502    0  0.68739144123E+03  0.56627768126E+02 -0.63917284418E+03  0.94034952823E+03  0.12699999809E+01 0. -1.
       -4    1    3    3    0  502 -0.68739144123E+03 -0.56627768126E+02  0.47579168586E+03  0.83790992286E+03  0.12699999809E+01 0.  1.
</event>
<event>
 5   0  0.5198430E-04  0.1691898E+04  0.7818609E-02  0.8765999E-01
        2   -1    0    0  501    0  0.00000000000E+00  0.00000000000E+00  0.12905100998E+04  0.12905100998E+04  0.25500000920E-02 0. -1.
       -2   -1    0    0    0  501  0.00000000000E+00  0.00000000000E+00 -0.55453230640E+03  0.55453230641E+03  0.25500000920E-02 0.  1.
    10030    2    1    2    0    0  0.00000000000E+00  0.00000000000E+00  0.73597779343E+03  0.18450424062E+04  0.16918978008E+04 0.  0.
        4    1    3    3  502    0 -0.26324785044E+02  0.29955126836E+03 -0.49428073489E+03  0.57856634405E+03  0.12699999809E+01 0.  1.
       -4    1    3    3    0  502  0.26324785044E+02 -0.29955126836E+03  0.12302585283E+04  0.12664760622E+04  0.12699999809E+01 0. -1.
</event>
<event>
 5   0  0.5342255E-04  0.1722855E+04  0.7818609E-02  0.8748435E-01
       -2   -1    0    0    0  501  0.00000000000E+00  0.00000000000E+00  0.47037486820E+03  0.47037486821E+03  0.25500000920E-02 0.  1.
        2   -1    0    0  501    0  0.00000000000E+00  0.00000000000E+00 -0.15775875435E+04  0.15775875435E+04  0.25500000920E-02 0. -1.
    10030    2    1    2    0    0  0.00000000000E+00  0.00000000000E+00 -0.11072126753E+04  0.20479624118E+04  0.17228552265E+04 0.  0.
        5    1    3    3  502    0  0.81215672151E+03 -0.10882369831E+03 -0.86943971976E+03  0.11947337167E+04  0.46999998093E+01 0. -1.
       -5    1    3    3    0  502 -0.81215672151E+03  0.10882369831E+03 -0.23777295558E+03  0.85322869502E+03  0.46999998093E+01 0.  1.
</event>
<event>
 5   0  0.5310003E-04  0.1731421E+04  0.7818609E-02  0.8743644E-01
       -2   -1    0    0    0  501  0.00000000000E+00  0.00000000000E+00  0.75175154091E+03  0.75175154091E+03  0.25500000920E-02 0. -1.
        2   -1    0    0  501    0  0.00000000000E+00  0.00000000000E+00 -0.99694428106E+03  0.99694428106E+03  0.25500000920E-02 0.  1.
    10030    2    1    2    0    0  0.00000000000E+00  0.00000000000E+00 -0.24519274015E+03  0.17486958220E+04  0.17314206878E+04 0.  0.
        1    1    3    3  502    0 -0.25110906034E+03  0.53912900826E+03 -0.75795048952E+03  0.96343385467E+03  0.50400001928E-02 0.  1.
       -1    1    3    3    0  502  0.25110906034E+03 -0.53912900826E+03  0.51275774937E+03  0.78526196731E+03  0.50400001928E-02 0. -1.
</event>
<event>
 5   0  0.2785059E-04  0.1708491E+04  0.7818609E-02  0.8756536E-01
        1   -1    0    0  501    0  0.00000000000E+00  0.00000000000E+00  0.93795791282E+03  0.93795791284E+03  0.50400001928E-02 0.  1.
       -1   -1    0    0    0  501  0.00000000000E+00  0.00000000000E+00 -0.77800431108E+03  0.77800431110E+03  0.50400001928E-02 0. -1.
    10030    2    1    2    0    0  0.00000000000E+00  0.00000000000E+00  0.15995360174E+03  0.17159622239E+04  0.17084909128E+04 0.  0.
        5    1    3    3  502    0 -0.64148681272E+03 -0.55842638153E+03 -0.17100617892E+00  0.85051012559E+03  0.46999998093E+01 0.  1.
       -5    1    3    3    0  502  0.64148681272E+03  0.55842638153E+03  0.16012460792E+03  0.86545209835E+03  0.46999998093E+01 0. -1.
</event>
<event>
 5   0  0.5342255E-04  0.1691623E+04  0.7818609E-02  0.8766157E-01
       -2   -1    0    0    0  501  0.00000000000E+00  0.00000000000E+00  0.43166918530E+03  0.43166918531E+03  0.25500000920E-02 0. -1.
        2   -1    0    0  501    0  0.00000000000E+00  0.00000000000E+00 -0.16572804114E+04  0.16572804114E+04  0.25500000920E-02 0.  1.
    10030    2    1    2    0    0  0.00000000000E+00  0.00000000000E+00 -0.12256112261E+04  0.20889495967E+04  0.16916227535E+04 0.  0.
        5    1    3    3  502    0 -0.46044848410E+01  0.93536477609E+02 -0.16508421714E+04  0.16535030205E+04  0.46999998093E+01 0.  1.
       -5    1    3    3    0  502  0.46044848410E+01 -0.93536477609E+02  0.42523094528E+03  0.43544657623E+03  0.46999998093E+01 0. -1.
</event>
<event>
 5   0  0.2595644E-04  0.1697206E+04  0.7818609E-02  0.8762960E-01
       -1   -1    0    0    0  501  0.00000000000E+00  0.00000000000E+00  0.90663860426E+03  0.90663860428E+03  0.50400001928E-02 0.  1.
        1   -1    0    0  501    0  0.00000000000E+00  0.00000000000E+00 -0.79428231781E+03  0.79428231783E+03  0.50400001928E-02 0. -1.
    10030    2    1    2    0    0  0.00000000000E+00  0.00000000000E+00  0.11235628645E+03  0.17009209221E+04  0.16972059534E+04 0.  0.
        2    1    3    3  502    0 -0.44287008752E+03 -0.56068166069E+03  0.51503311021E+03  0.88077065328E+03  0.25500000920E-02 0.  1.
       -2    1    3    3    0  502  0.44287008752E+03  0.56068166069E+03 -0.40267682376E+03  0.82015026882E+03  0.25500000920E-02 0. -1.
</event>
<event>
 5   0  0.5342255E-04  0.1706621E+04  0.7818609E-02  0.8757597E-01
        2   -1    0    0  501    0  0.00000000000E+00  0.00000000000E+00  0.14205120441E+04  0.14205120441E+04  0.25500000920E-02 0. -1.
       -2   -1    0    0    0  501  0.00000000000E+00  0.00000000000E+00 -0.51258899592E+03  0.51258899593E+03  0.25500000920E-02 0.  1.
    10030    2    1    2    0    0  0.00000000000E+00  0.00000000000E+00  0.90792304820E+03  0.19331010401E+04  0.17066210387E+04 0.  0.
        5    1    3    3  502    0 -0.80103205904E+02  0.78592259495E+03  0.88629109172E+02  0.79496418652E+03  0.46999998093E+01 0.  1.
       -5    1    3    3    0  502  0.80103205904E+02 -0.78592259495E+03  0.81929393903E+03  0.11381368535E+04  0.46999998093E+01 0. -1.
</event>
<event>
 5   0  0.2583422E-04  0.1712281E+04  0.7818609E-02  0.8754391E-01
       -1   -1    0    0    0  501  0.00000000000E+00  0.00000000000E+00  0.76294162678E+03  0.76294162680E+03  0.50400001928E-02 0. -1.
        1   -1    0    0  501    0  0.00000000000E+00  0.00000000000E+00 -0.96072377162E+03  0.96072377163E+03  0.50400001928E-02 0.  1.
    10030    2    1    2    0    0  0.00000000000E+00  0.00000000000E+00 -0.19778214484E+03  0.17236653984E+04  0.17122805345E+04 0.  0.
        3    1    3    3  502    0  0.35884495963E+03  0.19003266664E+02  0.68335050468E+03  0.77207431743E+03  0.10100000352E+00 0. -1.
       -3    1    3    3    0  502 -0.35884495963E+03 -0.19003266664E+02 -0.88113264951E+03  0.95159108100E+03  0.10100000352E+00 0.  1.
</event>
<event>
 5   0  0.2561518E-04  0.1681511E+04  0.7818609E-02  0.8771980E-01
        1   -1    0    0  501    0  0.00000000000E+00  0.00000000000E+00  0.10688938610E+04  0.10688938610E+04  0.50400001928E-02 0.  1.
       -1   -1    0    0    0  501  0.00000000000E+00  0.00000000000E+00 -0.66130979666E+03  0.66130979668E+03  0.50400001928E-02 0. -1.
    10030    2    1    2    0    0  0.00000000000E+00  0.00000000000E+00  0.40758406430E+03  0.17302036576E+04  0.16815112035E+04 0.  0.
        4    1    3    3  502    0  0.47345723979E+03  0.16640330838E+03  0.89787447228E+03  0.10286068247E+04  0.12699999809E+01 0.  1.
       -4    1    3    3    0  502 -0.47345723979E+03 -0.16640330838E+03 -0.49029040798E+03  0.70159683295E+03  0.12699999809E+01 0. -1.
</event>
<event>
 5   0  0.2583422E-04  0.1690691E+04  0.7818609E-02  0.8766691E-01
       -1   -1    0    0    0  501  0.00000000000E+00  0.00000000000E+00  0.50285556900E+03  0.50285556902E+03  0.50400001928E-02 0. -1.
        1   -1    0    0  501    0  0.00000000000E+00  0.00000000000E+00 -0.14211022247E+04  0.14211022247E+04  0.50400001928E-02 0.  1.
    10030    2    1    2    0    0  0.00000000000E+00  0.00000000000E+00 -0.91824665574E+03  0.19239577938E+04  0.16906911816E+04 0.  0.
        3    1    3    3  502    0 -0.44887149862E+03  0.71616468499E+03 -0.44180224963E+03  0.95371207200E+03  0.10100000352E+00 0.  1.
       -3    1    3    3    0  502  0.44887149862E+03 -0.71616468499E+03 -0.47644440611E+03  0.97024572177E+03  0.10100000352E+00 0. -1.
</event>
<event>
 5   0  0.2583422E-04  0.1701944E+04  0.7818609E-02  0.8760257E-01
        1   -1    0    0  501    0  0.00000000000E+00  0.00000000000E+00  0.14256034199E+04  0.14256034199E+04  0.50400001928E-02 0.  1.
       -1   -1    0    0    0  501  0.00000000000E+00  0.00000000000E+00 -0.50796244838E+03  0.50796244841E+03  0.50400001928E-02 0. -1.
    10030    2    1    2    0    0  0.00000000000E+00  0.00000000000E+00  0.91764097156E+03  0.19335658684E+04  0.17019435991E+04 0.  0.
        3    1    3    3  502    0 -0.40481317312E+03  0.33760921398E+03 -0.30015354037E+03  0.60658539752E+03  0.10100000352E+00 0. -1.
       -3    1    3    3    0  502  0.40481317312E+03 -0.33760921398E+03  0.12177945119E+04  0.13269804708E+04  0.10100000352E+00 0.  1.
</event>
<event>
 5   0  0.5021349E-04  0.1630476E+04  0.7818609E-02  0.8802041E-01
       -2   -1    0    0    0  501  0.00000000000E+00  0.00000000000E+00  0.48784661700E+03  0.48784661700E+03  0.25500000920E-02 0. -1.
        2   -1    0    0  501    0  0.00000000000E+00  0.00000000000E+00 -0.13623396747E+04  0.13623396747E+04  0.25500000920E-02 0.  1.
    10030    2    1    2    0    0  0.00000000000E+00  0.00000000000E+00 -0.87449305773E+03  0.18501862917E+04  0.16304757607E+04 0.  0.
        2    1    3    3  502    0 -0.61931192509E+03  0.18985352088E+03 -0.99894459289E+03  0.11905804969E+04  0.25500000920E-02 0.  1.
       -2    1    3    3    0  502  0.61931192509E+03 -0.18985352088E+03  0.12445153516E+03  0.65960579482E+03  0.25500000920E-02 0. -1.
</event>
<event>
 5   0  0.2785059E-04  0.1740674E+04  0.7818609E-02  0.8738501E-01
        1   -1    0    0  501    0  0.00000000000E+00  0.00000000000E+00  0.77314722852E+03  0.77314722853E+03  0.50400001928E-02 0.  1.
       -1   -1    0    0    0  501  0.00000000000E+00  0.00000000000E+00 -0.97974379695E+03  0.97974379696E+03  0.50400001928E-02 0. -1.
    10030    2    1    2    0    0  0.00000000000E+00  0.00000000000E+00 -0.20659656843E+03  0.17528910255E+04  0.17406736642E+04 0.  0.
        5    1    3    3  502    0 -0.49517892056E+03 -0.61120689986E+03 -0.47832060459E+03  0.92064582146E+03  0.46999998093E+01 0. -1.
       -5    1    3    3    0  502  0.49517892056E+03  0.61120689986E+03  0.27172403616E+03  0.83224520403E+03  0.46999998093E+01 0.  1.
</event>
<event>
 5   0  0.2595644E-04  0.1793686E+04  0.7818609E-02  0.8709664E-01
        1   -1    0    0  501    0  0.00000000000E+00  0.00000000000E+00  0.29453738713E+04  0.29453738713E+04  0.50400001928E-02 0. -1.
       -1   -1    0    0    0  501  0.00000000000E+00  0.00000000000E+00 -0.27308169293E+03  0.27308169298E+03  0.50400001928E-02 0.  1.
    10030    2    1    2    0    0  0.00000000000E+00  0.00000000000E+00  0.26722921783E+04  0.32184555642E+04  0.17936863529E+04 0.  0.
        2    1    3    3  502    0  0.33407034073E+03  0.39646328806E+03  0.23046698265E+02  0.51895788042E+03  0.25500000920E-02 0.  1.
       -2    1    3    3    0  502 -0.33407034073E+03 -0.39646328806E+03  0.26492454801E+04  0.26994976838E+04  0.25500000920E-02 0. -1.
</event>
<event>
 5   0  0.2583422E-04  0.1694136E+04  0.7818609E-02  0.8764716E-01
        1   -1    0    0  501    0  0.00000000000E+00  0.00000000000E+00  0.99802625617E+03  0.99802625618E+03  0.50400001928E-02 0. -1.
       -1   -1    0    0    0  501  0.00000000000E+00  0.00000000000E+00 -0.71894302689E+03  0.71894302691E+03  0.50400001928E-02 0.  1.
    10030    2    1    2    0    0  0.00000000000E+00  0.00000000000E+00  0.27908322928E+03  0.17169692831E+04  0.16941357886E+04 0.  0.
        3    1    3    3  502    0  0.35107664141E+03  0.38681495426E+03 -0.53626156230E+03  0.74863682141E+03  0.10100000352E+00 0.  1.
       -3    1    3    3    0  502 -0.35107664141E+03 -0.38681495426E+03  0.81534479158E+03  0.96833246167E+03  0.10100000352E+00 0. -1.
</event>
<event>
 5   0  0.5310003E-04  0.1728861E+04  0.7818609E-02  0.8745073E-01
       -2   -1    0    0    0  501  0.00000000000E+00  0.00000000000E+00  0.30186953059E+03  0.30186953060E+03  0.25500000920E-02 0. -1.
        2   -1    0    0  501    0  0.00000000000E+00  0.00000000000E+00 -0.24753734164E+04  0.24753734164E+04  0.25500000920E-02 0.  1.
    10030    2    1    2    0    0  0.00000000000E+00  0.00000000000E+00 -0.21735038859E+04  0.27772429470E+04  0.17288606783E+04 0.  0.
        1    1    3    3  502    0 -0.38779005313E+03 -0.14535007535E+03  0.13213682744E+03  0.43470439485E+03  0.50400001928E-02 0. -1.
       -1    1    3    3    0  502  0.38779005313E+03  0.14535007535E+03 -0.23056407133E+04  0.23425385522E+04  0.50400001928E-02 0.  1.
</event>
<event>
 5   0  0.5021349E-04  0.1757793E+04  0.7818609E-02  0.8729072E-01
        2   -1    0    0  501    0  0.00000000000E+00  0.00000000000E+00  0.11706361090E+04  0.11706361090E+04  0.25500000920E-02 0. -1.
       -2   -1    0    0    0  501  0.00000000000E+00  0.00000000000E+00 -0.65986287562E+03  0.65986287563E+03  0.25500000920E-02 0.  1.
    10030    2    1    2    0    0  0.00000000000E+00  0.00000000000E+00  0.51077323340E+03  0.18304989847E+04  0.17577932862E+04 0.  0.
        2    1    3    3  502    0  0.10042298924E+03  0.86392387805E+03  0.38715106366E+03  0.95201638113E+03  0.25500000920E-02 0. -1.
       -2    1    3    3    0  502 -0.10042298924E+03 -0.86392387805E+03  0.12362216974E+03  0.87848260352E+03  0.25500000920E-02 0.  1.
</event>
<event>
 5   0  0.2583422E-04  0.1693640E+04  0.7818609E-02  0.8765000E-01
        1   -1    0    0  501    0  0.00000000000E+00  0.00000000000E+00  0.15850955121E+04  0.15850955121E+04  0.50400001928E-02 0.  1.
       -1   -1    0    0    0  501  0.00000000000E+00  0.00000000000E+00 -0.45240449937E+03  0.45240449940E+03  0.50400001928E-02 0. -1.
    10030    2    1    2    0    0  0.00000000000E+00  0.00000000000E+00  0.11326910128E+04  0.20375000115E+04  0.16936402707E+04 0.  0.
        3    1    3    3  502    0 -0.76900873165E+03  0.92504775524E+01  0.13991536243E+03  0.78168812165E+03  0.10100000352E+00 0. -1.
       -3    1    3    3    0  502  0.76900873165E+03 -0.92504775524E+01  0.99277565033E+03  0.12558118899E+04  0.10100000352E+00 0.  1.
</event>
<event>
 5   0  0.5310003E-04  0.1696761E+04  0.7818609E-02  0.8763214E-01
       -2   -1    0    0    0  501  0.00000000000E+00  0.00000000000E+00  0.82307771913E+03  0.82307771913E+03  0.25500000920E-02 0. -1.
        2   -1    0    0  501    0  0.00000000000E+00  0.00000000000E+00 -0.87446109379E+03  0.87446109379E+03  0.25500000920E-02 0.  1.
    10030    2    1    2    0    0  0.00000000000E+00  0.00000000000E+00 -0.51383374657E+02  0.16975388129E+04  0.16967609644E+04 0.  0.
        1    1    3    3  502    0  0.56626297333E+03  0.57280427905E+03  0.24087171852E+03  0.84070070886E+03  0.50400001928E-02 0. -1.
       -1    1    3    3    0  502 -0.56626297333E+03 -0.57280427905E+03 -0.29225509318E+03  0.85683810407E+03  0.50400001928E-02 0.  1.
</event>
<event>
 5   0  0.2630135E-04  0.1727737E+04  0.7818609E-02  0.8745701E-01
        1   -1    0    0  501    0  0.00000000000E+00  0.00000000000E+00  0.95388033326E+03  0.95388033327E+03  0.50400001928E-02 0. -1.
       -1   -1    0    0    0  501  0.00000000000E+00  0.00000000000E+00 -0.78235083429E+03  0.78235083430E+03  0.50400001928E-02 0.  1.
    10030    2    1    2    0    0  0.00000000000E+00  0.00000000000E+00  0.17152949897E+03  0.17362311676E+04  0.17277373348E+04 0.  0.
        1    1    3    3  502    0 -0.38959914670E+03  0.46528859459E+03 -0.53206511254E+03  0.80707760183E+03  0.50400001928E-02 0.  1.
       -1    1    3    3    0  502  0.38959914670E+03 -0.46528859459E+03  0.70359461151E+03  0.92915356574E+03  0.50400001928E-02 0. -1.
</event>
<event>
 5   0  0.2583422E-04  0.1697181E+04  0.7818609E-02  0.8762974E-01
       -1   -1    0    0    0  501  0.00000000000E+00  0.00000000000E+00  0.42703730880E+03  0.42703730883E+03  0.50400001928E-02 0.  1.
        1   -1    0    0  501    0  0.00000000000E+00  0.00000000000E+00 -0.16862828902E+04  0.16862828902E+04  0.50400001928E-02 0. -1.
    10030    2    1    2    0    0  0.00000000000E+00  0.00000000000E+00 -0.12592455814E+04  0.21133201991E+04  0.16971808476E+04 0.  0.
        3    1    3    3  502    0  0.28864420481E+02 -0.14449628510E+03  0.41098538705E+03  0.43660202673E+03  0.10100000352E+00 0.  1.
       -3    1    3    3    0  502 -0.28864420481E+02  0.14449628510E+03 -0.16702309685E+04  0.16767181723E+04  0.10100000352E+00 0. -1.
</event>
<event>
 5   0  0.5198430E-04  0.1705665E+04  0.7818609E-02  0.8758140E-01
        2   -1    0    0  501    0  0.00000000000E+00  0.00000000000E+00  0.80210399761E+03  0.80210399761E+03  0.25500000920E-02 0.  1.
       -2   -1    0    0    0  501  0.00000000000E+00  0.00000000000E+00 -0.90676943559E+03  0.90676943560E+03  0.25500000920E-02 0. -1.
    10030    2    1    2    0    0  0.00000000000E+00  0.00000000000E+00 -0.10466543798E+03  0.17088734332E+04  0.17056651362E+04 0.  0.
        4    1    3    3  502    0  0.11835923350E+03 -0.98268447566E+02  0.78808728060E+03  0.80296249643E+03  0.12699999809E+01 0.  1.
       -4    1    3    3    0  502 -0.11835923350E+03  0.98268447566E+02 -0.89275271858E+03  0.90591093678E+03  0.12699999809E+01 0. -1.
</event>
<event>
 5   0  0.1910750E-04  0.1723889E+04  0.7818609E-02  0.8747856E-01
        4   -1    0    0  501    0  0.00000000000E+00  0.00000000000E+00  0.10290748714E+04  0.10290756550E+04  0.12699999809E+01 0.  1.
       -4   -1    0    0    0  501  0.00000000000E+00  0.00000000000E+00 -0.72195595753E+03  0.72195707456E+03  0.12699999809E+01 0. -1.
    10030    2    1    2    0    0  0.00000000000E+00  0.00000000000E+00  0.30711891382E+03  0.17510327296E+04  0.17238890895E+04 0.  0.
        2    1    3    3  502    0  0.98505289192E+02 -0.51262359513E+02 -0.71466079448E+03  0.72323659522E+03  0.25500000920E-02 0. -1.
       -2    1    3    3    0  502 -0.98505289192E+02  0.51262359513E+02  0.10217797083E+04  0.10277961344E+04  0.25500000920E-02 0.  1.
</event>
<event>
 5   0  0.1910750E-04  0.1693011E+04  0.7818609E-02  0.8765361E-01
       -3   -1    0    0    0  501  0.00000000000E+00  0.00000000000E+00  0.12364622884E+04  0.12364622925E+04  0.10100000352E+00 0.  1.
        3   -1    0    0  501    0  0.00000000000E+00  0.00000000000E+00 -0.57953355999E+03  0.57953356879E+03  0.10100000352E+00 0. -1.
    10030    2    1    2    0    0  0.00000000000E+00  0.00000000000E+00  0.65692872838E+03  0.18159958613E+04  0.16930108133E+04 0.  0.
        3    1    3    3  502    0  0.45848578842E+03 -0.60077460801E+02  0.10890224771E+04  0.11831265720E+04  0.10100000352E+00 0.  1.
       -3    1    3    3    0  502 -0.45848578842E+03  0.60077460801E+02 -0.43209374871E+03  0.63286928932E+03  0.10100000352E+00 0. -1.
</event>
<event>
 5   0  0.5310003E-04  0.1705329E+04  0.7818609E-02  0.8758331E-01
        2   -1    0    0  501    0  0.00000000000E+00  0.00000000000E+00  0.12735418967E+04  0.12735418967E+04  0.25500000920E-02 0. -1.
       -2   -1    0    0    0  501  0.00000000000E+00  0.00000000000E+00 -0.57087785826E+03  0.57087785826E+03  0.25500000920E-02 0.  1.
    10030    2    1    2    0    0  0.00000000000E+00  0.00000000000E+00  0.70266403846E+03  0.18444197550E+04  0.17053291417E+04 0.  0.
        1    1    3    3  502    0  0.18278450520E+03  0.54963486169E+02  0.12501394082E+04  0.12646263085E+04  0.50400001928E-02 0. -1.
       -1    1    3    3    0  502 -0.18278450520E+03 -0.54963486169E+02 -0.54747536972E+03  0.57979344652E+03  0.50400001928E-02 0.  1.
</event>
<event>
 5   0  0.5342255E-04  0.1694860E+04  0.7818609E-02  0.8764301E-01
       -2   -1    0    0    0  501  0.00000000000E+00  0.00000000000E+00  0.44685827611E+03  0.44685827612E+03  0.25500000920E-02 0. -1.
        2   -1    0    0  501    0  0.00000000000E+00  0.00000000000E+00 -0.16070818725E+04  0.16070818725E+04  0.25500000920E-02 0.  1.
    10030    2    1    2    0    0  0.00000000000E+00  0.00000000000E+00 -0.11602235964E+04  0.20539401486E+04  0.16948602717E+04 0.  0.
        5    1    3    3  502    0  0.75096784274E+03  0.28803972365E+03 -0.25675486634E+03  0.84431317330E+03  0.46999998093E+01 0. -1.
       -5    1    3    3    0  502 -0.75096784274E+03 -0.28803972365E+03 -0.90346873005E+03  0.12096269753E+04  0.46999998093E+01 0.  1.
</event>
<event>
 5   0  0.5198430E-04  0.1684600E+04  0.7818609E-02  0.8770197E-01
       -2   -1    0    0    0  501  0.00000000000E+00  0.00000000000E+00  0.10146540065E+04  0.10146540065E+04  0.25500000920E-02 0. -1.
        2   -1    0    0  501    0  0.00000000000E+00  0.00000000000E+00 -0.69922261064E+03  0.69922261064E+03  0.25500000920E-02 0.  1.
    10030    2    1    2    0    0  0.00000000000E+00  0.00000000000E+00  0.31543139590E+03  0.17138766172E+04  0.16845996834E+04 0.  0.
        4    1    3    3  502    0 -0.53116862909E+03  0.16670387568E+03  0.80079036857E+03  0.97529335176E+03  0.12699999809E+01 0. -1.
       -4    1    3    3    0  502  0.53116862909E+03 -0.16670387568E+03 -0.48535897268E+03  0.73858326541E+03  0.12699999809E+01 0.  1.
</event>
<event>
 5   0  0.2583422E-04  0.1761348E+04  0.7818609E-02  0.8727128E-01
        1   -1    0    0  501    0  0.00000000000E+00  0.00000000000E+00  0.53899369398E+03  0.53899369401E+03  0.50400001928E-02 0.  1.
       -1   -1    0    0    0  501  0.00000000000E+00  0.00000000000E+00 -0.14389535766E+04  0.14389535766E+04  0.50400001928E-02 0. -1.
    10030    2    1    2    0    0  0.00000000000E+00  0.00000000000E+00 -0.89995988261E+03  0.19779472706E+04  0.17613482379E+04 0.  0.
        3    1    3    3  502    0 -0.54517252683E+02  0.46314404079E+03  0.38895889795E+03  0.60725906156E+03  0.10100000352E+00 0.  1.
       -3    1    3    3    0  502  0.54517252683E+02 -0.46314404079E+03 -0.12889187806E+04  0.13706882091E+04  0.10100000352E+00 0. -1.
</event>
<event>
 5   0  0.2583422E-04  0.1714110E+04  0.7818609E-02  0.8753358E-01
       -1   -1    0    0    0  501  0.00000000000E+00  0.00000000000E+00  0.25955355643E+03  0.25955355648E+03  0.50400001928E-02 0.  1.
        1   -1    0    0  501    0  0.00000000000E+00  0.00000000000E+00 -0.28300243928E+04  0.28300243928E+04  0.50400001928E-02 0. -1.
    10030    2    1    2    0    0  0.00000000000E+00  0.00000000000E+00 -0.25704708364E+04  0.30895779493E+04  0.17141095601E+04 0.  0.
        3    1    3    3  502    0  0.21345529534E+02 -0.16126595665E+03 -0.28019431854E+04  0.28066613556E+04  0.10100000352E+00 0. -1.
       -3    1    3    3    0  502 -0.21345529534E+02  0.16126595665E+03  0.23147234906E+03  0.28291659369E+03  0.10100000352E+00 0.  1.
</event>
<event>
 5   0  0.5299877E-04  0.1697594E+04  0.7818609E-02  0.8762738E-01
       -2   -1    0    0    0  501  0.00000000000E+00  0.00000000000E+00  0.65317690148E+03  0.65317690149E+03  0.25500000920E-02 0.  1.
        2   -1    0    0  501    0  0.00000000000E+00  0.00000000000E+00 -0.11030037277E+04  0.11030037277E+04  0.25500000920E-02 0. -1.
    10030    2    1    2    0    0  0.00000000000E+00  0.00000000000E+00 -0.44982682617E+03  0.17561806291E+04  0.16975942474E+04 0.  0.
        3    1    3    3  502    0  0.32037157032E+03  0.30759411352E+03  0.52337842555E+03  0.68642338850E+03  0.10100000352E+00 0.  1.
       -3    1    3    3    0  502 -0.32037157032E+03 -0.30759411352E+03 -0.97320525172E+03  0.10697572406E+04  0.10100000352E+00 0. -1.
</event>
<event>
 5   0  0.5198430E-04  0.1695770E+04  0.7818609E-02  0.8763781E-01
        2   -1    0    0  501    0  0.00000000000E+00  0.00000000000E+00  0.13838423736E+04  0.13838423736E+04  0.25500000920E-02 0. -1.
       -2   -1    0    0    0  501  0.00000000000E+00  0.00000000000E+00 -0.51950202993E+03  0.51950202993E+03  0.25500000920E-02 0.  1.
    10030    2    1    2    0    0  0.00000000000E+00  0.00000000000E+00  0.86434034369E+03  0.19033444035E+04  0.16957699398E+04 0.  0.
        4    1    3    3  502    0 -0.68738998859E+03  0.29966311275E+03 -0.12003009040E+02  0.74996577434E+03  0.12699999809E+01 0.  1.
       -4    1    3    3    0  502  0.68738998859E+03 -0.29966311275E+03  0.87634335273E+03  0.11533786292E+04  0.12699999809E+01 0. -1.
</event>
<event>
 5   0  0.2595644E-04  0.1680536E+04  0.7818609E-02  0.8772544E-01
        1   -1    0    0  501    0  0.00000000000E+00  0.00000000000E+00  0.62156761855E+03  0.62156761857E+03  0.50400001928E-02 0. -1.
       -1   -1    0    0    0  501  0.00000000000E+00  0.00000000000E+00 -0.11359182767E+04  0.11359182767E+04  0.50400001928E-02 0.  1.
    10030    2    1    2    0    0  0.00000000000E+00  0.00000000000E+00 -0.51435065819E+03  0.17574858953E+04  0.16805356505E+04 0.  0.
        2    1    3    3  502    0 -0.40679914948E+03  0.47229444688E+03  0.33209916283E+03  0.70628425335E+03  0.25500000920E-02 0. -1.
       -2    1    3    3    0  502  0.40679914948E+03 -0.47229444688E+03 -0.84644982102E+03  0.10512016420E+04  0.25500000920E-02 0.  1.
</event>
<event>
 5   0  0.2630135E-04  0.1708917E+04  0.7818609E-02  0.8756295E-01
        1   -1    0    0  501    0  0.00000000000E+00  0.00000000000E+00  0.11918914273E+04  0.11918914273E+04  0.50400001928E-02 0. -1.
       -1   -1    0    0    0  501  0.00000000000E+00  0.00000000000E+00 -0.61255499930E+03  0.61255499932E+03  0.50400001928E-02 0.  1.
    10030    2    1    2    0    0  0.00000000000E+00  0.00000000000E+00  0.57933642799E+03  0.18044464266E+04  0.17089166772E+04 0.  0.
        1    1    3    3  502    0  0.27239340207E+03 -0.69424276943E+03  0.73002803468E+03  0.10436053468E+04  0.50400001928E-02 0.  1.
       -1    1    3    3    0  502 -0.27239340207E+03  0.69424276943E+03 -0.15069160669E+03  0.76084107983E+03  0.50400001928E-02 0. -1.
</event>
<event>
 5   0  0.2595644E-04  0.1716226E+04  0.7818609E-02  0.8752164E-01
       -1   -1    0    0    0  501  0.00000000000E+00  0.00000000000E+00  0.69172862763E+03  0.69172862765E+03  0.50400001928E-02 0.  1.
        1   -1    0    0  501    0  0.00000000000E+00  0.00000000000E+00 -0.10645188650E+04  0.10645188650E+04  0.50400001928E-02 0. -1.
    10030    2    1    2    0    0  0.00000000000E+00  0.00000000000E+00 -0.37279023738E+03  0.17562474927E+04  0.17162262946E+04 0.  0.
        2    1    3    3  502    0 -0.37099353128E+01  0.24678235687E+03  0.65462324569E+03  0.69960480922E+03  0.25500000920E-02 0.  1.
       -2    1    3    3    0  502  0.37099353128E+01 -0.24678235687E+03 -0.10274134831E+04  0.10566426834E+04  0.25500000920E-02 0. -1.
</event>
<event>
 5   0  0.5198430E-04  0.1755171E+04  0.7818609E-02  0.8730509E-01
        2   -1    0    0  501    0  0.00000000000E+00  0.00000000000E+00  0.68214569764E+03  0.68214569765E+03  0.25500000920E-02 0. -1.
       -2   -1    0    0    0  501  0.00000000000E+00  0.00000000000E+00 -0.11290206362E+04  0.11290206362E+04  0.25500000920E-02 0.  1.
    10030    2    1    2    0    0  0.00000000000E+00  0.00000000000E+00 -0.44687493851E+03  0.18111663338E+04  0.17551712959E+04 0.  0.
        4    1    3    3  502    0 -0.53608336639E+03 -0.12989547898E+03 -0.92777960087E+03  0.10793677834E+04  0.12699999809E+01 0.  1.
       -4    1    3    3    0  502  0.53608336639E+03  0.12989547898E+03  0.48090466236E+03  0.73179855039E+03  0.12699999809E+01 0. -1.
</event>
<event>
 5   0  0.5198430E-04  0.1710698E+04  0.7818609E-02  0.8755286E-01
        2   -1    0    0  501    0  0.00000000000E+00  0.00000000000E+00  0.17046391301E+04  0.17046391301E+04  0.25500000920E-02 0.  1.
       -2   -1    0    0    0  501  0.00000000000E+00  0.00000000000E+00 -0.42919463735E+03  0.42919463735E+03  0.25500000920E-02 0. -1.
    10030    2    1    2    0    0  0.00000000000E+00  0.00000000000E+00  0.12754444927E+04  0.21338337674E+04  0.17106980718E+04 0.  0.
        4    1    3    3  502    0  0.68909471945E+03  0.43967968265E+03  0.32352302819E+03  0.87911234685E+03  0.12699999809E+01 0. -1.
       -4    1    3    3    0  502 -0.68909471945E+03 -0.43967968265E+03  0.95192146451E+03  0.12547214206E+04  0.12699999809E+01 0.  1.
</event>
<event>
 5   0  0.5342255E-04  0.1719817E+04  0.7818609E-02  0.8750142E-01
        2   -1    0    0  501    0  0.00000000000E+00  0.00000000000E+00  0.21838108873E+04  0.21838108873E+04  0.25500000920E-02 0. -1.
       -2   -1    0    0    0  501  0.00000000000E+00  0.00000000000E+00 -0.33860180151E+03  0.33860180152E+03  0.25500000920E-02 0.  1.
    10030    2    1    2    0    0  0.00000000000E+00  0.00000000000E+00  0.18452090858E+04  0.25224126888E+04  0.17198166188E+04 0.  0.
        5    1    3    3  502    0 -0.19562941021E+03  0.55701507905E+03  0.56291194274E+01  0.59041548202E+03  0.46999998093E+01 0.  1.
       -5    1    3    3    0  502  0.19562941021E+03 -0.55701507905E+03  0.18395799664E+04  0.19319972068E+04  0.46999998093E+01 0. -1.
</event>
<event>
 5   0  0.2583422E-04  0.1717664E+04  0.7818609E-02  0.8751353E-01
        1   -1    0    0  501    0  0.00000000000E+00  0.00000000000E+00  0.94129906261E+03  0.94129906263E+03  0.50400001928E-02 0. -1.
       -1   -1    0    0    0  501  0.00000000000E+00  0.00000000000E+00 -0.78359006679E+03  0.78359006681E+03  0.50400001928E-02 0.  1.
    10030    2    1    2    0    0  0.00000000000E+00  0.00000000000E+00  0.15770899582E+03  0.17248891294E+04  0.17176642226E+04 0.  0.
        3    1    3    3  502    0  0.31035074475E+03  0.29947828639E+03  0.82466797030E+03  0.93063532075E+03  0.10100000352E+00 0. -1.
       -3    1    3    3    0  502 -0.31035074475E+03 -0.29947828639E+03 -0.66695897447E+03  0.79425380869E+03  0.10100000352E+00 0.  1.
</event>
<event>
 5   0  0.2595644E-04  0.1276440E+04  0.7818609E-02  0.9048460E-01
        1   -1    0    0  501    0  0.00000000000E+00  0.00000000000E+00  0.87138226001E+03  0.87138226002E+03  0.50400001928E-02 0. -1.
       -1   -1    0    0    0  501  0.00000000000E+00  0.00000000000E+00 -0.46744699960E+03  0.46744699963E+03  0.50400001928E-02 0.  1.
    10030    2    1    2    0    0  0.00000000000E+00  0.00000000000E+00  0.40393526041E+03  0.13388292596E+04  0.12764403989E+04 0.  0.
        2    1    3    3  502    0 -0.19237286086E+03  0.60342752571E+03  0.11942608023E+03  0.64451119853E+03  0.25500000920E-02 0.  1.
       -2    1    3    3    0  502  0.19237286086E+03 -0.60342752571E+03  0.28450918017E+03  0.69431806112E+03  0.25500000920E-02 0. -1.
</event>
<event>
 5   0  0.5310003E-04  0.1694703E+04  0.7818609E-02  0.8764391E-01
        2   -1    0    0  501    0  0.00000000000E+00  0.00000000000E+00  0.15544934591E+04  0.15544934591E+04  0.25500000920E-02 0.  1.
       -2   -1    0    0    0  501  0.00000000000E+00  0.00000000000E+00 -0.46188957929E+03  0.46188957930E+03  0.25500000920E-02 0. -1.
    10030    2    1    2    0    0  0.00000000000E+00  0.00000000000E+00  0.10926038798E+04  0.20163830384E+04  0.16947027230E+04 0.  0.
        1    1    3    3  502    0  0.57459711027E+02  0.33114075182E+03 -0.37919419115E+03  0.50669917163E+03  0.50400001928E-02 0. -1.
       -1    1    3    3    0  502 -0.57459711027E+02 -0.33114075182E+03  0.14717980710E+04  0.15096838668E+04  0.50400001928E-02 0.  1.
</event>
<event>
 5   0  0.2561518E-04  0.1734289E+04  0.7818609E-02  0.8742046E-01
       -1   -1    0    0    0  501  0.00000000000E+00  0.00000000000E+00  0.70018044284E+03  0.70018044286E+03  0.50400001928E-02 0.  1.
        1   -1    0    0  501    0  0.00000000000E+00  0.00000000000E+00 -0.10739220776E+04  0.10739220776E+04  0.50400001928E-02 0. -1.
    10030    2    1    2    0    0  0.00000000000E+00  0.00000000000E+00 -0.37374163472E+03  0.17741025204E+04  0.17342885987E+04 0.  0.
        4    1    3    3  502    0  0.76879084525E+03 -0.34663177673E+02  0.22192396735E+03  0.80093243149E+03  0.12699999809E+01 0.  1.
       -4    1    3    3    0  502 -0.76879084525E+03  0.34663177673E+02 -0.59566560207E+03  0.97317008894E+03  0.12699999809E+01 0. -1.
</event>
<event>
 5   0  0.5198430E-04  0.1712854E+04  0.7818609E-02  0.8754067E-01
        2   -1    0    0  501    0  0.00000000000E+00  0.00000000000E+00  0.14677113297E+04  0.14677113297E+04  0.25500000920E-02 0.  1.
       -2   -1    0    0    0  501  0.00000000000E+00  0.00000000000E+00 -0.49973508626E+03  0.49973508626E+03  0.25500000920E-02 0. -1.
    10030    2    1    2    0    0  0.00000000000E+00  0.00000000000E+00  0.96797624341E+03  0.19674464159E+04  0.17128535815E+04 0.  0.
        4    1    3    3  502    0 -0.77593889777E+03  0.27245784605E+03  0.20939239811E+03  0.84862314383E+03  0.12699999809E+01 0. -1.
       -4    1    3    3    0  502  0.77593889777E+03 -0.27245784605E+03  0.75858384530E+03  0.11188232721E+04  0.12699999809E+01 0.  1.
</event>
<event>
 5   0  0.1910750E-04  0.1663975E+04  0.7818609E-02  0.8782181E-01
        3   -1    0    0  501    0  0.00000000000E+00  0.00000000000E+00  0.94707881726E+03  0.94707882265E+03  0.10100000352E+00 0.  1.
       -3   -1    0    0    0  501  0.00000000000E+00  0.00000000000E+00 -0.73088264236E+03  0.73088264934E+03  0.10100000352E+00 0. -1.
    10030    2    1    2    0    0  0.00000000000E+00  0.00000000000E+00  0.21619617490E+03  0.16779614720E+04  0.16639753350E+04 0.  0.
        1    1    3    3  502    0  0.51867480308E+03 -0.64538095625E+03  0.25782634201E+02  0.82837483924E+03  0.50400001928E-02 0.  1.
       -1    1    3    3    0  502 -0.51867480308E+03  0.64538095625E+03  0.19041354070E+03  0.84958663275E+03  0.50400001928E-02 0. -1.
</event>
<event>
 5   0  0.5021349E-04  0.1705997E+04  0.7818609E-02  0.8757952E-01
        2   -1    0    0  501    0  0.00000000000E+00  0.00000000000E+00  0.97518806588E+03  0.97518806588E+03  0.25500000920E-02 0. -1.
       -2   -1    0    0    0  501  0.00000000000E+00  0.00000000000E+00 -0.74611893239E+03  0.74611893239E+03  0.25500000920E-02 0.  1.
    10030    2    1    2    0    0  0.00000000000E+00  0.00000000000E+00  0.22906913349E+03  0.17213069983E+04  0.17059968096E+04 0.  0.
        2    1    3    3  502    0 -0.40538221594E+03 -0.38409252003E+03  0.76510356262E+03  0.94723031333E+03  0.25500000920E-02 0. -1.
       -2    1    3    3    0  502  0.40538221594E+03  0.38409252003E+03 -0.53603442913E+03  0.77407668494E+03  0.25500000920E-02 0.  1.
</event>
<event>
 5   0  0.2561518E-04  0.1711030E+04  0.7818609E-02  0.8755098E-01
        1   -1    0    0  501    0  0.00000000000E+00  0.00000000000E+00  0.11365684814E+04  0.11365684814E+04  0.50400001928E-02 0. -1.
       -1   -1    0    0    0  501  0.00000000000E+00  0.00000000000E+00 -0.64396124948E+03  0.64396124950E+03  0.50400001928E-02 0.  1.
    10030    2    1    2    0    0  0.00000000000E+00  0.00000000000E+00  0.49260723189E+03  0.17805297309E+04  0.17110301685E+04 0.  0.
        4    1    3    3  502    0  0.55152204136E+03 -0.52611506814E+03  0.65058200626E+03  0.10021138592E+04  0.12699999809E+01 0. -1.
       -4    1    3    3    0  502 -0.55152204136E+03  0.52611506814E+03 -0.15797477437E+03  0.77841587167E+03  0.12699999809E+01 0.  1.
</event>
<event>
 5   0  0.5198430E-04  0.1700514E+04  0.7818609E-02  0.8761071E-01
       -2   -1    0    0    0  501  0.00000000000E+00  0.00000000000E+00  0.75062920683E+03  0.75062920684E+03  0.25500000920E-02 0.  1.
        2   -1    0    0  501    0  0.00000000000E+00  0.00000000000E+00 -0.96310825532E+03  0.96310825532E+03  0.25500000920E-02 0. -1.
    10030    2    1    2    0    0  0.00000000000E+00  0.00000000000E+00 -0.21247904848E+03  0.17137374622E+04  0.17005142584E+04 0.  0.
        4    1    3    3  502    0  0.30550061024E+03  0.44710422922E+03  0.55437494766E+03  0.77496194109E+03  0.12699999809E+01 0.  1.
       -4    1    3    3    0  502 -0.30550061024E+03 -0.44710422922E+03 -0.76685399615E+03  0.93877552106E+03  0.12699999809E+01 0. -1.
</event>
<event>
 5   0  0.2583422E-04  0.1668643E+04  0.7818609E-02  0.8779454E-01
       -1   -1    0    0    0  501  0.00000000000E+00  0.00000000000E+00  0.12559967607E+04  0.12559967607E+04  0.50400001928E-02 0. -1.
        1   -1    0    0  501    0  0.00000000000E+00  0.00000000000E+00 -0.55421478852E+03  0.55421478855E+03  0.50400001928E-02 0.  1.
    10030    2    1    2    0    0  0.00000000000E+00  0.00000000000E+00  0.70178197213E+03  0.18102115492E+04  0.16686425371E+04 0.  0.
        3    1    3    3  502    0  0.56657359959E+03 -0.34232375926E+03  0.90181580742E+03  0.11186880533E+04  0.10100000352E+00 0. -1.
       -3    1    3    3    0  502 -0.56657359959E+03  0.34232375926E+03 -0.20003383530E+03  0.69152349589E+03  0.10100000352E+00 0.  1.
</event>
<event>
 5   0  0.5342255E-04  0.1714234E+04  0.7818609E-02  0.8753287E-01
       -2   -1    0    0    0  501  0.00000000000E+00  0.00000000000E+00  0.93758891545E+03  0.93758891546E+03  0.25500000920E-02 0.  1.
        2   -1    0    0  501    0  0.00000000000E+00  0.00000000000E+00 -0.78355217902E+03  0.78355217903E+03  0.25500000920E-02 0. -1.
    10030    2    1    2    0    0  0.00000000000E+00  0.00000000000E+00  0.15403673643E+03  0.17211410945E+04  0.17142343337E+04 0.  0.
        5    1    3    3  502    0  0.82822905947E+03  0.97134842695E+02  0.27587999314E+03  0.87836803973E+03  0.46999998093E+01 0.  1.
       -5    1    3    3    0  502 -0.82822905947E+03 -0.97134842695E+02 -0.12184325671E+03  0.84277305475E+03  0.46999998093E+01 0. -1.
</event>
<event>
 5   0  0.5342255E-04  0.1683102E+04  0.7818609E-02  0.8771061E-01
       -2   -1    0    0    0  501  0.00000000000E+00  0.00000000000E+00  0.10097095707E+04  0.10097095707E+04  0.25500000920E-02 0. -1.
        2   -1    0    0  501    0  0.00000000000E+00  0.00000000000E+00 -0.70139810994E+03  0.70139810994E+03  0.25500000920E-02 0.  1.
    10030    2    1    2    0    0  0.00000000000E+00  0.00000000000E+00  0.30831146077E+03  0.17111076807E+04  0.16831023552E+04 0.  0.
        5    1    3    3  502    0 -0.13255384514E+03  0.24682248425E+03  0.96089229284E+03  0.10009135572E+04  0.46999998093E+01 0. -1.
       -5    1    3    3    0  502  0.13255384514E+03 -0.24682248425E+03 -0.65258083206E+03  0.71019412344E+03  0.46999998093E+01 0.  1.
</event>
<event>
 5   0  0.5310003E-04  0.1583041E+04  0.7818609E-02  0.8831035E-01
       -2   -1    0    0    0  501  0.00000000000E+00  0.00000000000E+00  0.98577372873E+03  0.98577372874E+03  0.25500000920E-02 0.  1.
        2   -1    0    0  501    0  0.00000000000E+00  0.00000000000E+00 -0.63554597256E+03  0.63554597257E+03  0.25500000920E-02 0. -1.
    10030    2    1    2    0    0  0.00000000000E+00  0.00000000000E+00  0.35022775617E+03  0.16213197013E+04  0.15830407742E+04 0.  0.
        1    1    3    3  502    0 -0.60583852815E+03 -0.92728629687E+02  0.68808996125E+03  0.92146986698E+03  0.50400001928E-02 0.  1.
       -1    1    3    3    0  502  0.60583852815E+03  0.92728629687E+02 -0.33786220507E+03  0.69984983432E+03  0.50400001928E-02 0. -1.
</event>
<event>
 5   0  0.2595644E-04  0.1763558E+04  0.7818609E-02  0.8725922E-01
       -1   -1    0    0    0  501  0.00000000000E+00  0.00000000000E+00  0.10264109578E+04  0.10264109579E+04  0.50400001928E-02 0.  1.
        1   -1    0    0  501    0  0.00000000000E+00  0.00000000000E+00 -0.75752753772E+03  0.75752753774E+03  0.50400001928E-02 0. -1.
    10030    2    1    2    0    0  0.00000000000E+00  0.00000000000E+00  0.26888342013E+03  0.17839384956E+04  0.17635584091E+04 0.  0.
        2    1    3    3  502    0  0.95171088456E+02  0.28232504932E+03  0.97395391272E+03  0.10185043906E+04  0.25500000920E-02 0.  1.
       -2    1    3    3    0  502 -0.95171088456E+02 -0.28232504932E+03 -0.70507049260E+03  0.76543410499E+03  0.25500000920E-02 0. -1.
</event>
<event>
 5   0  0.2583422E-04  0.1704413E+04  0.7818609E-02  0.8758852E-01
        1   -1    0    0  501    0  0.00000000000E+00  0.00000000000E+00  0.17810751115E+04  0.17810751115E+04  0.50400001928E-02 0. -1.
       -1   -1    0    0    0  501  0.00000000000E+00  0.00000000000E+00 -0.40776252587E+03  0.40776252590E+03  0.50400001928E-02 0.  1.
    10030    2    1    2    0    0  0.00000000000E+00  0.00000000000E+00  0.13733125856E+04  0.21888376374E+04  0.17044127273E+04 0.  0.
        3    1    3    3  502    0 -0.35334909384E+03  0.41810193033E+03  0.15254295154E+04  0.16206788772E+04  0.10100000352E+00 0. -1.
       -3    1    3    3    0  502  0.35334909384E+03 -0.41810193033E+03 -0.15211692980E+03  0.56815876021E+03  0.10100000352E+00 0.  1.
</event>
<event>
 5   0  0.2630135E-04  0.1704078E+04  0.7818609E-02  0.8759042E-01
        1   -1    0    0  501    0  0.00000000000E+00  0.00000000000E+00  0.90256723647E+03  0.90256723648E+03  0.50400001928E-02 0. -1.
       -1   -1    0    0    0  501  0.00000000000E+00  0.00000000000E+00 -0.80433947546E+03  0.80433947547E+03  0.50400001928E-02 0.  1.
    10030    2    1    2    0    0  0.00000000000E+00  0.00000000000E+00  0.98227761013E+02  0.17069067120E+04  0.17040780001E+04 0.  0.
        1    1    3    3  502    0 -0.17411594615E+03 -0.37601922010E+03  0.79483855225E+03  0.89636774862E+03  0.50400001928E-02 0. -1.
       -1    1    3    3    0  502  0.17411594615E+03  0.37601922010E+03 -0.69661079124E+03  0.81053896334E+03  0.50400001928E-02 0.  1.
</event>
<event>
 5   0  0.5198430E-04  0.1680305E+04  0.7818609E-02  0.8772677E-01
        2   -1    0    0  501    0  0.00000000000E+00  0.00000000000E+00  0.10615308059E+04  0.10615308059E+04  0.25500000920E-02 0.  1.
       -2   -1    0    0    0  501  0.00000000000E+00  0.00000000000E+00 -0.66494219882E+03  0.66494219883E+03  0.25500000920E-02 0. -1.
    10030    2    1    2    0    0  0.00000000000E+00  0.00000000000E+00  0.39658860707E+03  0.17264730047E+04  0.16803054820E+04 0.  0.
        4    1    3    3  502    0  0.55687221222E+03  0.85991616886E+02 -0.44200838490E+03  0.71615238891E+03  0.12699999809E+01 0. -1.
       -4    1    3    3    0  502 -0.55687221222E+03 -0.85991616886E+02  0.83859699197E+03  0.10103206158E+04  0.12699999809E+01 0.  1.
</event>
<event>
 5   0  0.2785059E-04  0.1718411E+04  0.7818609E-02  0.8750933E-01
       -1   -1    0    0    0  501  0.00000000000E+00  0.00000000000E+00  0.10657367516E+04  0.10657367516E+04  0.50400001928E-02 0. -1.
        1   -1    0    0  501    0  0.00000000000E+00  0.00000000000E+00 -0.69269839614E+03  0.69269839616E+03  0.50400001928E-02 0.  1.
    10030    2    1    2    0    0  0.00000000000E+00  0.00000000000E+00  0.37303835542E+03  0.17584351477E+04  0.17184110551E+04 0.  0.
        5    1    3    3  502    0  0.44189725359E+03  0.60202639282E+03  0.62127120530E+03  0.97144683895E+03  0.46999998093E+01 0. -1.
       -5    1    3    3    0  502 -0.44189725359E+03 -0.60202639282E+03 -0.24823284988E+03  0.78698830877E+03  0.46999998093E+01 0.  1.
</event>
<event>
 5   0  0.2561518E-04  0.1695915E+04  0.7818609E-02  0.8763698E-01
        1   -1    0    0  501    0  0.00000000000E+00  0.00000000000E+00  0.14882069107E+04  0.14882069107E+04  0.50400001928E-02 0. -1.
       -1   -1    0    0    0  501  0.00000000000E+00  0.00000000000E+00 -0.48315329039E+03  0.48315329042E+03  0.50400001928E-02 0.  1.
    10030    2    1    2    0    0  0.00000000000E+00  0.00000000000E+00  0.10050536203E+04  0.19713602011E+04  0.16959151697E+04 0.  0.
        4    1    3    3  502    0  0.58049080276E+03  0.40173613314E+03 -0.43523280836E+02  0.70728875407E+03  0.12699999809E+01 0.  1.
       -4    1    3    3    0  502 -0.58049080276E+03 -0.40173613314E+03  0.10485769012E+04  0.12640714471E+04  0.12699999809E+01 0. -1.
</event>
<event>
 5   0  0.2595644E-04  0.1676213E+04  0.7818609E-02  0.8775048E-01
       -1   -1    0    0    0  501  0.00000000000E+00  0.00000000000E+00  0.42360810384E+03  0.42360810387E+03  0.50400001928E-02 0.  1.
        1   -1    0    0  501    0  0.00000000000E+00  0.00000000000E+00 -0.16581903842E+04  0.16581903842E+04  0.50400001928E-02 0. -1.
    10030    2    1    2    0    0  0.00000000000E+00  0.00000000000E+00 -0.12345822804E+04  0.20817984881E+04  0.16762134524E+04 0.  0.
        2    1    3    3  502    0  0.52918010686E+03 -0.57808687509E+03 -0.24843199316E+03  0.82215234347E+03  0.25500000920E-02 0.  1.
       -2    1    3    3    0  502 -0.52918010686E+03  0.57808687509E+03 -0.98615028719E+03  0.12596461446E+04  0.25500000920E-02 0. -1.
</event>
<event>
 5   0  0.5299877E-04  0.1738756E+04  0.7818609E-02  0.8739564E-01
       -2   -1    0    0    0  501  0.00000000000E+00  0.00000000000E+00  0.15846446772E+04  0.15846446772E+04  0.25500000920E-02 0. -1.
        2   -1    0    0  501    0  0.00000000000E+00  0.00000000000E+00 -0.47696380964E+03  0.47696380965E+03  0.25500000920E-02 0.  1.
    10030    2    1    2    0    0  0.00000000000E+00  0.00000000000E+00  0.11076808675E+04  0.20616084868E+04  0.17387560636E+04 0.  0.
        3    1    3    3  502    0 -0.56793667501E+03 -0.62086407392E+03  0.81305160320E+03  0.11700757175E+04  0.10100000352E+00 0. -1.
       -3    1    3    3    0  502  0.56793667501E+03  0.62086407392E+03  0.29462926434E+03  0.89153276929E+03  0.10100000352E+00 0.  1.
</event>
<event>
 5   0  0.5198430E-04  0.1701732E+04  0.7818609E-02  0.8760377E-01
       -2   -1    0    0    0  501  0.00000000000E+00  0.00000000000E+00  0.93040842228E+03  0.93040842229E+03  0.25500000920E-02 0.  1.
        2   -1    0    0  501    0  0.00000000000E+00  0.00000000000E+00 -0.77812383169E+03  0.77812383170E+03  0.25500000920E-02 0. -1.
    10030    2    1    2    0    0  0.00000000000E+00  0.00000000000E+00  0.15228459059E+03  0.17085322540E+04  0.17017320196E+04 0.  0.
        4    1    3    3  502    0  0.30674518469E+03  0.19220290528E+03 -0.69695865973E+03  0.78535823126E+03  0.12699999809E+01 0. -1.
       -4    1    3    3    0  502 -0.30674518469E+03 -0.19220290528E+03  0.84924325032E+03  0.92317402273E+03  0.12699999809E+01 0.  1.
</event>
<event>
 5   0  0.5310003E-04  0.1660718E+04  0.7818609E-02  0.8784091E-01
        2   -1    0    0  501    0  0.00000000000E+00  0.00000000000E+00  0.10802097003E+04  0.10802097003E+04  0.25500000920E-02 0. -1.
       -2   -1    0    0    0  501  0.00000000000E+00  0.00000000000E+00 -0.63829853187E+03  0.63829853187E+03  0.25500000920E-02 0.  1.
    10030    2    1    2    0    0  0.00000000000E+00  0.00000000000E+00  0.44191116844E+03  0.17185082322E+04  0.16607182372E+04 0.  0.
        1    1    3    3  502    0 -0.11013058803E+02  0.47333758206E+03  0.92684157113E+03  0.10407713736E+04  0.50400001928E-02 0. -1.
       -1    1    3    3    0  502  0.11013058803E+02 -0.47333758206E+03 -0.48493040269E+03  0.67773685862E+03  0.50400001928E-02 0.  1.
</event>
<event>
 5   0  0.5299877E-04  0.1696448E+04  0.7818609E-02  0.8763393E-01
        2   -1    0    0  501    0  0.00000000000E+00  0.00000000000E+00  0.18748020439E+04  0.18748020439E+04  0.25500000920E-02 0.  1.
       -2   -1    0    0    0  501  0.00000000000E+00  0.00000000000E+00 -0.38376538904E+03  0.38376538905E+03  0.25500000920E-02 0. -1.
    10030    2    1    2    0    0  0.00000000000E+00  0.00000000000E+00  0.14910366548E+04  0.22585674329E+04  0.16964482141E+04 0.  0.
        3    1    3    3  502    0 -0.64928845656E+03 -0.29325798619E+03  0.13583857260E+04  0.15338798965E+04  0.10100000352E+00 0.  1.
       -3    1    3    3    0  502  0.64928845656E+03  0.29325798619E+03  0.13265092888E+03  0.72468753640E+03  0.10100000352E+00 0. -1.
</event>
<event>
 5   0  0.2785059E-04  0.1487513E+04  0.7818609E-02  0.8892800E-01
        1   -1    0    0  501    0  0.00000000000E+00  0.00000000000E+00  0.61530166478E+03  0.61530166480E+03  0.50400001928E-02 0. -1.
       -1   -1    0    0    0  501  0.00000000000E+00  0.00000000000E+00 -0.89902819017E+03  0.89902819018E+03  0.50400001928E-02 0.  1.
    10030    2    1    2    0    0  0.00000000000E+00  0.00000000000E+00 -0.28372652539E+03  0.15143298550E+04  0.14875127456E+04 0.  0.
        5    1    3    3  502    0 -0.41536711025E+03 -0.61689588949E+03 -0.14981935800E+03  0.75865559035E+03  0.46999998093E+01 0.  1.
       -5    1    3    3    0  502  0.41536711025E+03  0.61689588949E+03 -0.13390716739E+03  0.75567426463E+03  0.46999998093E+01 0. -1.
</event>
<event>
 5   0  0.2561518E-04  0.1715812E+04  0.7818609E-02  0.8752397E-01
        1   -1    0    0  501    0  0.00000000000E+00  0.00000000000E+00  0.84224351514E+03  0.84224351515E+03  0.50400001928E-02 0. -1.
       -1   -1    0    0    0  501  0.00000000000E+00  0.00000000000E+00 -0.87385990909E+03  0.87385990910E+03  0.50400001928E-02 0.  1.
    10030    2    1    2    0    0  0.00000000000E+00  0.00000000000E+00 -0.31616393953E+02  0.17161034243E+04  0.17158121594E+04 0.  0.
        4    1    3    3  502    0 -0.27271055901E+03 -0.80497783775E+03  0.10100572336E+03  0.85589960703E+03  0.12699999809E+01 0. -1.
       -4    1    3    3    0  502  0.27271055901E+03  0.80497783775E+03 -0.13262211731E+03  0.86020381722E+03  0.12699999809E+01 0.  1.
</event>
<event>
 5   0  0.2785059E-04  0.1694688E+04  0.7818609E-02  0.8764400E-01
       -1   -1    0    0    0  501  0.00000000000E+00  0.00000000000E+00  0.76496529195E+03  0.76496529197E+03  0.50400001928E-02 0.  1.
        1   -1    0    0  501    0  0.00000000000E+00  0.00000000000E+00 -0.93859433651E+03  0.93859433652E+03  0.50400001928E-02 0. -1.
    10030    2    1    2    0    0  0.00000000000E+00  0.00000000000E+00 -0.17362904456E+03  0.17035596285E+04  0.16946882789E+04 0.  0.
        5    1    3    3  502    0 -0.50188745115E+03 -0.67954707048E+03 -0.20936997939E+02  0.84506549007E+03  0.46999998093E+01 0.  1.
       -5    1    3    3    0  502  0.50188745115E+03  0.67954707048E+03 -0.15269204662E+03  0.85849413843E+03  0.46999998093E+01 0. -1.
</event>
<event>
 5   0  0.2630135E-04  0.1699206E+04  0.7818609E-02  0.8761818E-01
        1   -1    0    0  501    0  0.00000000000E+00  0.00000000000E+00  0.79764353366E+03  0.79764353368E+03  0.50400001928E-02 0. -1.
       -1   -1    0    0    0  501  0.00000000000E+00  0.00000000000E+00 -0.90494681003E+03  0.90494681004E+03  0.50400001928E-02 0.  1.
    10030    2    1    2    0    0  0.00000000000E+00  0.00000000000E+00 -0.10730327636E+03  0.17025903437E+04  0.16992056631E+04 0.  0.
        1    1    3    3  502    0  0.74423172464E+02  0.53039647525E+03 -0.71448467380E+03  0.89294321134E+03  0.50400001928E-02 0.  1.
       -1    1    3    3    0  502 -0.74423172464E+02 -0.53039647525E+03  0.60718139743E+03  0.80964713238E+03  0.50400001928E-02 0. -1.
</event>
<event>
 5   0  0.5198430E-04  0.1695827E+04  0.7818609E-02  0.8763748E-01
       -2   -1    0    0    0  501  0.00000000000E+00  0.00000000000E+00  0.35998109213E+03  0.35998109214E+03  0.25500000920E-02 0. -1.
        2   -1    0    0  501    0  0.00000000000E+00  0.00000000000E+00 -0.19972081920E+04  0.19972081920E+04  0.25500000920E-02 0.  1.
    10030    2    1    2    0    0  0.00000000000E+00  0.00000000000E+00 -0.16372270999E+04  0.23571892842E+04  0.16958268617E+04 0.  0.
        4    1    3    3  502    0  0.20541655777E+03 -0.79508845253E+03 -0.52508456944E+03  0.97471894796E+03  0.12699999809E+01 0. -1.
       -4    1    3    3    0  502 -0.20541655777E+03  0.79508845253E+03 -0.11121425305E+04  0.13824703362E+04  0.12699999809E+01 0.  1.
</event>
<event>
 5   0  0.5310003E-04  0.1713285E+04  0.7818609E-02  0.8753824E-01
        2   -1    0    0  501    0  0.00000000000E+00  0.00000000000E+00  0.50747254478E+03  0.50747254479E+03  0.25500000920E-02 0. -1.
       -2   -1    0    0    0  501  0.00000000000E+00  0.00000000000E+00 -0.14460605071E+04  0.14460605071E+04  0.25500000920E-02 0.  1.
    10030    2    1    2    0    0  0.00000000000E+00  0.00000000000E+00 -0.93858796232E+03  0.19535330519E+04  0.17132845712E+04 0.  0.
        1    1    3    3  502    0 -0.59700315177E+02 -0.58619322736E+03 -0.11782999927E+04  0.13174131851E+04  0.50400001928E-02 0.  1.
       -1    1    3    3    0  502  0.59700315177E+02  0.58619322736E+03  0.23971203036E+03  0.63611986682E+03  0.50400001928E-02 0. -1.
</event>
<event>
 5   0  0.5021349E-04  0.1667821E+04  0.7818609E-02  0.8779933E-01
       -2   -1    0    0    0  501  0.00000000000E+00  0.00000000000E+00  0.49986961325E+03  0.49986961326E+03  0.25500000920E-02 0. -1.
        2   -1    0    0  501    0  0.00000000000E+00  0.00000000000E+00 -0.13911754924E+04  0.13911754924E+04  0.25500000920E-02 0.  1.
    10030    2    1    2    0    0  0.00000000000E+00  0.00000000000E+00 -0.89130587911E+03  0.18910451056E+04  0.16678205603E+04 0.  0.
        2    1    3    3  502    0  0.75281767341E+02 -0.31560837830E+03  0.42536388595E+03  0.53498638153E+03  0.25500000920E-02 0. -1.
       -2    1    3    3    0  502 -0.75281767341E+02  0.31560837830E+03 -0.13166697651E+04  0.13560587241E+04  0.25500000920E-02 0.  1.
</event>
<event>
 5   0  0.2583422E-04  0.1688646E+04  0.7818609E-02  0.8767866E-01
       -1   -1    0    0    0  501  0.00000000000E+00  0.00000000000E+00  0.81258207737E+03  0.81258207739E+03  0.50400001928E-02 0. -1.
        1   -1    0    0  501    0  0.00000000000E+00  0.00000000000E+00 -0.87730423332E+03  0.87730423333E+03  0.50400001928E-02 0.  1.
    10030    2    1    2    0    0  0.00000000000E+00  0.00000000000E+00 -0.64722155945E+02  0.16898863107E+04  0.16886464360E+04 0.  0.
        3    1    3    3  502    0 -0.21617929545E+03 -0.50863118283E+03  0.60641983954E+03  0.82047803135E+03  0.10100000352E+00 0. -1.
       -3    1    3    3    0  502  0.21617929545E+03  0.50863118283E+03 -0.67114199549E+03  0.86940827937E+03  0.10100000352E+00 0.  1.
</event>
<event>
 5   0  0.5299877E-04  0.1702690E+04  0.7818609E-02  0.8759831E-01
       -2   -1    0    0    0  501  0.00000000000E+00  0.00000000000E+00  0.99284591482E+03  0.99284591483E+03  0.25500000920E-02 0.  1.
        2   -1    0    0  501    0  0.00000000000E+00  0.00000000000E+00 -0.73001113764E+03  0.73001113764E+03  0.25500000920E-02 0. -1.
    10030    2    1    2    0    0  0.00000000000E+00  0.00000000000E+00  0.26283477719E+03  0.17228570525E+04  0.17026903133E+04 0.  0.
        3    1    3    3  502    0 -0.62224471615E+03  0.91464562375E+02 -0.44916803105E+03  0.77285586190E+03  0.10100000352E+00 0. -1.
       -3    1    3    3    0  502  0.62224471615E+03 -0.91464562375E+02  0.71200280823E+03  0.95000119057E+03  0.10100000352E+00 0.  1.
</event>
<event>
 5   0  0.5342255E-04  0.1707635E+04  0.7818609E-02  0.8757022E-01
       -2   -1    0    0    0  501  0.00000000000E+00  0.00000000000E+00  0.52162973628E+03  0.52162973629E+03  0.25500000920E-02 0. -1.
        2   -1    0    0  501    0  0.00000000000E+00  0.00000000000E+00 -0.13975508386E+04  0.13975508386E+04  0.25500000920E-02 0.  1.
    10030    2    1    2    0    0  0.00000000000E+00  0.00000000000E+00 -0.87592110230E+03  0.19191805749E+04  0.17076347096E+04 0.  0.
        5    1    3    3  502    0 -0.51521432076E+02  0.26962444860E+02 -0.13953081851E+04  0.13965272833E+04  0.46999998093E+01 0.  1.
       -5    1    3    3    0  502  0.51521432076E+02 -0.26962444860E+02  0.51938708284E+03  0.52265329160E+03  0.46999998093E+01 0. -1.
</event>
<event>
 5   0  0.5310003E-04  0.1650238E+04  0.7818609E-02  0.8790265E-01
        2   -1    0    0  501    0  0.00000000000E+00  0.00000000000E+00  0.73126381406E+03  0.73126381406E+03  0.25500000920E-02 0.  1.
       -2   -1    0    0    0  501  0.00000000000E+00  0.00000000000E+00 -0.93102063908E+03  0.93102063909E+03  0.25500000920E-02 0. -1.
    10030    2    1    2    0    0  0.00000000000E+00  0.00000000000E+00 -0.19975682502E+03  0.16622844531E+04  0.16502384113E+04 0.  0.
        1    1    3    3  502    0  0.76769056172E+03  0.15977704114E+03 -0.35854894686E+03  0.86222668060E+03  0.50400001928E-02 0. -1.
       -1    1    3    3    0  502 -0.76769056172E+03 -0.15977704114E+03  0.15879212184E+03  0.80005777255E+03  0.50400001928E-02 0.  1.
</event>
<event>
 5   0  0.2583422E-04  0.1674221E+04  0.7818609E-02  0.8776205E-01
       -1   -1    0    0    0  501  0.00000000000E+00  0.00000000000E+00  0.71054102439E+03  0.71054102441E+03  0.50400001928E-02 0. -1.
        1   -1    0    0  501    0  0.00000000000E+00  0.00000000000E+00 -0.98622568015E+03  0.98622568016E+03  0.50400001928E-02 0.  1.
    10030    2    1    2    0    0  0.00000000000E+00  0.00000000000E+00 -0.27568465575E+03  0.16967667046E+04  0.16742207800E+04 0.  0.
        3    1    3    3  502    0  0.60031156127E+03  0.53651445413E+03 -0.37012758215E+03  0.88612423923E+03  0.10100000352E+00 0.  1.
       -3    1    3    3    0  502 -0.60031156127E+03 -0.53651445413E+03  0.94442926397E+02  0.81064246535E+03  0.10100000352E+00 0. -1.
</event>
<event>
 5   0  0.2561518E-04  0.1741093E+04  0.7818609E-02  0.8738268E-01
       -1   -1    0    0    0  501  0.00000000000E+00  0.00000000000E+00  0.10052821483E+04  0.10052821483E+04  0.50400001928E-02 0. -1.
        1   -1    0    0  501    0  0.00000000000E+00  0.00000000000E+00 -0.75386952272E+03  0.75386952273E+03  0.50400001928E-02 0.  1.
    10030    2    1    2    0    0  0.00000000000E+00  0.00000000000E+00  0.25141262558E+03  0.17591516710E+04  0.17410934189E+04 0.  0.
        4    1    3    3  502    0 -0.25508924268E+03 -0.79142515464E+03  0.38611121829E+03  0.91679211544E+03  0.12699999809E+01 0. -1.
       -4    1    3    3    0  502  0.25508924268E+03  0.79142515464E+03 -0.13469859271E+03  0.84235955560E+03  0.12699999809E+01 0.  1.
</event>
<event>
 5   0  0.2583422E-04  0.1694354E+04  0.7818609E-02  0.8764591E-01
        1   -1    0    0  501    0  0.00000000000E+00  0.00000000000E+00  0.60990571052E+03  0.60990571054E+03  0.50400001928E-02 0.  1.
       -1   -1    0    0    0  501  0.00000000000E+00  0.00000000000E+00 -0.11767542928E+04  0.11767542928E+04  0.50400001928E-02 0. -1.
    10030    2    1    2    0    0  0.00000000000E+00  0.00000000000E+00 -0.56684858228E+03  0.17866600034E+04  0.16943543468E+04 0.  0.
        3    1    3    3  502    0  0.56523669970E+03 -0.25529386486E+02 -0.94830185603E+03  0.11042738323E+04  0.10100000352E+00 0. -1.
       -3    1    3    3    0  502 -0.56523669970E+03  0.25529386486E+02  0.38145327374E+03  0.68238617110E+03  0.10100000352E+00 0.  1.
</event>
<event>
 5   0  0.5198430E-04  0.1723569E+04  0.7818609E-02  0.8748035E-01
       -2   -1    0    0    0  501  0.00000000000E+00  0.00000000000E+00  0.59159404359E+03  0.59159404360E+03  0.25500000920E-02 0. -1.
        2   -1    0    0  501    0  0.00000000000E+00  0.00000000000E+00 -0.12553755627E+04  0.12553755627E+04  0.25500000920E-02 0.  1.
    10030    2    1    2    0    0  0.00000000000E+00  0.00000000000E+00 -0.66378151910E+03  0.18469696063E+04  0.17235692099E+04 0.  0.
        4    1    3    3  502    0  0.29690983379E+03  0.46367618728E+03 -0.10423192351E+04  0.11788053515E+04  0.12699999809E+01 0.  1.
       -4    1    3    3    0  502 -0.29690983379E+03 -0.46367618728E+03  0.37853771597E+03  0.66816425478E+03  0.12699999809E+01 0. -1.
</event>
<event>
 5   0  0.5342255E-04  0.1713982E+04  0.7818609E-02  0.8753430E-01
       -2   -1    0    0    0  501  0.00000000000E+00  0.00000000000E+00  0.47016949130E+03  0.47016949131E+03  0.25500000920E-02 0. -1.
        2   -1    0    0  501    0  0.00000000000E+00  0.00000000000E+00 -0.15620609259E+04  0.15620609259E+04  0.25500000920E-02 0.  1.
    10030    2    1    2    0    0  0.00000000000E+00  0.00000000000E+00 -0.10918914346E+04  0.20322304172E+04  0.17139817863E+04 0.  0.
        5    1    3    3  502    0  0.23167856555E+03 -0.43651233851E+03  0.28419256069E+03  0.57009251965E+03  0.46999998093E+01 0. -1.
       -5    1    3    3    0  502 -0.23167856555E+03  0.43651233851E+03 -0.13760839953E+04  0.14621378976E+04  0.46999998093E+01 0.  1.
</event>
<event>
 5   0  0.5021349E-04  0.1692330E+04  0.7818609E-02  0.8765751E-01
       -2   -1    0    0    0  501  0.00000000000E+00  0.00000000000E+00  0.87820577464E+03  0.87820577464E+03  0.25500000920E-02 0.  1.
        2   -1    0    0  501    0  0.00000000000E+00  0.00000000000E+00 -0.81529317802E+03  0.81529317802E+03  0.25500000920E-02 0. -1.
    10030    2    1    2    0    0  0.00000000000E+00  0.00000000000E+00  0.62912596620E+02  0.16934989527E+04  0.16923299642E+04 0.  0.
        2    1    3    3  502    0  0.52922815019E+02  0.55812123320E+03 -0.60277566280E+03  0.82318809209E+03  0.25500000920E-02 0. -1.
       -2    1    3    3    0  502 -0.52922815019E+02 -0.55812123320E+03  0.66568825942E+03  0.87031086057E+03  0.25500000920E-02 0.  1.
</event>
<event>
 5   0  0.5299877E-04  0.1664797E+04  0.7818609E-02  0.8781701E-01
        2   -1    0    0  501    0  0.00000000000E+00  0.00000000000E+00  0.70222261825E+03  0.70222261826E+03  0.25500000920E-02 0.  1.
       -2   -1    0    0    0  501  0.00000000000E+00  0.00000000000E+00 -0.98670547665E+03  0.98670547666E+03  0.25500000920E-02 0. -1.
    10030    2    1    2    0    0  0.00000000000E+00  0.00000000000E+00 -0.28448285840E+03  0.16889280949E+04  0.16647965681E+04 0.  0.
        3    1    3    3  502    0 -0.55202224232E+03  0.38363312501E+02  0.48861356531E+03  0.73820290311E+03  0.10100000352E+00 0.  1.
       -3    1    3    3    0  502  0.55202224232E+03 -0.38363312501E+02 -0.77309642372E+03  0.95072519180E+03  0.10100000352E+00 0. -1.
</event>
<event>
 5   0  0.5021349E-04  0.1691375E+04  0.7818609E-02  0.8766299E-01
       -2   -1    0    0    0  501  0.00000000000E+00  0.00000000000E+00  0.49161486533E+03  0.49161486533E+03  0.25500000920E-02 0. -1.
        2   -1    0    0  501    0  0.00000000000E+00  0.00000000000E+00 -0.14547711111E+04  0.14547711111E+04  0.25500000920E-02 0.  1.
    10030    2    1    2    0    0  0.00000000000E+00  0.00000000000E+00 -0.96315624579E+03  0.19463859764E+04  0.16913747117E+04 0.  0.
        2    1    3    3  502    0  0.73286647554E+03 -0.16994253524E+03 -0.37056388772E+02  0.75322434388E+03  0.25500000920E-02 0. -1.
       -2    1    3    3    0  502 -0.73286647554E+03  0.16994253524E+03 -0.92609985701E+03  0.11931616326E+04  0.25500000920E-02 0.  1.
</event>
<event>
 5   0  0.5299877E-04  0.1700420E+04  0.7818609E-02  0.8761125E-01
        2   -1    0    0  501    0  0.00000000000E+00  0.00000000000E+00  0.19166052036E+04  0.19166052036E+04  0.25500000920E-02 0. -1.
       -2   -1    0    0    0  501  0.00000000000E+00  0.00000000000E+00 -0.37715468709E+03  0.37715468710E+03  0.25500000920E-02 0.  1.
    10030    2    1    2    0    0  0.00000000000E+00  0.00000000000E+00  0.15394505165E+04  0.22937598907E+04  0.17004195198E+04 0.  0.
        3    1    3    3  502    0 -0.63274133707E+03  0.37894759564E+03  0.13402696638E+04  0.15297992227E+04  0.10100000352E+00 0. -1.
       -3    1    3    3    0  502  0.63274133707E+03 -0.37894759564E+03  0.19918085263E+03  0.76396066792E+03  0.10100000352E+00 0.  1.
</event>
<event>
 5   0  0.5299877E-04  0.1723897E+04  0.7818609E-02  0.8747851E-01
        2   -1    0    0  501    0  0.00000000000E+00  0.00000000000E+00  0.80691541840E+03  0.80691541841E+03  0.25500000920E-02 0. -1.
       -2   -1    0    0    0  501  0.00000000000E+00  0.00000000000E+00 -0.92073451525E+03  0.92073451526E+03  0.25500000920E-02 0.  1.
    10030    2    1    2    0    0  0.00000000000E+00  0.00000000000E+00 -0.11381909685E+03  0.17276499337E+04  0.17238966055E+04 0.  0.
        3    1    3    3  502    0  0.68547854529E+03  0.15404128296E+02 -0.58038456788E+03  0.89831196144E+03  0.10100000352E+00 0.  1.
       -3    1    3    3    0  502 -0.68547854529E+03 -0.15404128296E+02  0.46656547103E+03  0.82933797223E+03  0.10100000352E+00 0. -1.
</event>
<event>
 5   0  0.5021349E-04  0.1713520E+04  0.7818609E-02  0.8753691E-01
       -2   -1    0    0    0  501  0.00000000000E+00  0.00000000000E+00  0.36457596575E+03  0.36457596576E+03  0.25500000920E-02 0. -1.
        2   -1    0    0  501    0  0.00000000000E+00  0.00000000000E+00 -0.20134018901E+04  0.20134018901E+04  0.25500000920E-02 0.  1.
    10030    2    1    2    0    0  0.00000000000E+00  0.00000000000E+00 -0.16488259244E+04  0.23779778559E+04  0.17135202812E+04 0.  0.
        2    1    3    3  502    0  0.47415677803E+03 -0.34482177927E+03 -0.16914229088E+04  0.17901503194E+04  0.25500000920E-02 0.  1.
       -2    1    3    3    0  502 -0.47415677803E+03  0.34482177927E+03  0.42596984395E+02  0.58782753653E+03  0.25500000920E-02 0. -1.
</event>
<event>
 5   0  0.2583422E-04  0.1769190E+04  0.7818609E-02  0.8722858E-01
        1   -1    0    0  501    0  0.00000000000E+00  0.00000000000E+00  0.23577437405E+04  0.23577437405E+04  0.50400001928E-02 0.  1.
       -1   -1    0    0    0  501  0.00000000000E+00  0.00000000000E+00 -0.33188859170E+03  0.33188859174E+03  0.50400001928E-02 0. -1.
    10030    2    1    2    0    0  0.00000000000E+00  0.00000000000E+00  0.20258551488E+04  0.26896323322E+04  0.17691899273E+04 0.  0.
        3    1    3    3  502    0 -0.19901374084E+03  0.85382262722E+03  0.83376424379E+03  0.12098687417E+04  0.10100000352E+00 0. -1.
       -3    1    3    3    0  502  0.19901374084E+03 -0.85382262722E+03  0.11920909050E+04  0.14797635905E+04  0.10100000352E+00 0.  1.
</event>
<event>
 5   0  0.2595644E-04  0.1692462E+04  0.7818609E-02  0.8765675E-01
       -1   -1    0    0    0  501  0.00000000000E+00  0.00000000000E+00  0.21840411809E+04  0.21840411809E+04  0.50400001928E-02 0. -1.
        1   -1    0    0  501    0  0.00000000000E+00  0.00000000000E+00 -0.32788173003E+03  0.32788173007E+03  0.50400001928E-02 0.  1.
    10030    2    1    2    0    0  0.00000000000E+00  0.00000000000E+00  0.18561594509E+04  0.25119229110E+04  0.16924623492E+04 0.  0.
        2    1    3    3  502    0 -0.63524901758E+03 -0.48576800142E+03  0.13388400156E+04  0.15594885228E+04  0.25500000920E-02 0. -1.
       -2    1    3    3    0  502  0.63524901758E+03  0.48576800142E+03  0.51731943527E+03  0.95243438811E+03  0.25500000920E-02 0.  1.
</event>
<event>
 5   0  0.2595644E-04  0.1704098E+04  0.7818609E-02  0.8759030E-01
       -1   -1    0    0    0  501  0.00000000000E+00  0.00000000000E+00  0.81926199497E+03  0.81926199499E+03  0.50400001928E-02 0. -1.
        1   -1    0    0  501    0  0.00000000000E+00  0.00000000000E+00 -0.88614841475E+03  0.88614841476E+03  0.50400001928E-02 0.  1.
    10030    2    1    2    0    0  0.00000000000E+00  0.00000000000E+00 -0.66886419777E+02  0.17054104098E+04  0.17040982579E+04 0.  0.
        2    1    3    3  502    0 -0.20114400790E+03  0.21395548995E+03  0.76701756295E+03  0.82131102846E+03  0.25500000920E-02 0. -1.
       -2    1    3    3    0  502  0.20114400790E+03 -0.21395548995E+03 -0.83390398273E+03  0.88409938129E+03  0.25500000920E-02 0.  1.
</event>
<event>
 5   0  0.2583422E-04  0.1726586E+04  0.7818609E-02  0.8746345E-01
       -1   -1    0    0    0  501  0.00000000000E+00  0.00000000000E+00  0.57329005520E+03  0.57329005522E+03  0.50400001928E-02 0. -1.
        1   -1    0    0  501    0  0.00000000000E+00  0.00000000000E+00 -0.12999953416E+04  0.12999953416E+04  0.50400001928E-02 0.  1.
    10030    2    1    2    0    0  0.00000000000E+00  0.00000000000E+00 -0.72670528638E+03  0.18732853968E+04  0.17265855336E+04 0.  0.
        3    1    3    3  502    0  0.10557995645E+03 -0.47058158971E+03 -0.11402061590E+04  0.12380081805E+04  0.10100000352E+00 0.  1.
       -3    1    3    3    0  502 -0.10557995645E+03  0.47058158971E+03  0.41350087258E+03  0.63527721634E+03  0.10100000352E+00 0. -1.
</event>
<event>
 5   0  0.5310003E-04  0.1633338E+04  0.7818609E-02  0.8800325E-01
       -2   -1    0    0    0  501  0.00000000000E+00  0.00000000000E+00  0.65090403987E+03  0.65090403987E+03  0.25500000920E-02 0. -1.
        2   -1    0    0  501    0  0.00000000000E+00  0.00000000000E+00 -0.10246495679E+04  0.10246495679E+04  0.25500000920E-02 0.  1.
    10030    2    1    2    0    0  0.00000000000E+00  0.00000000000E+00 -0.37374552803E+03  0.16755536078E+04  0.16333383522E+04 0.  0.
        1    1    3    3  502    0  0.79534131445E+03 -0.52524930600E+02 -0.44513025730E+01  0.79708624937E+03  0.50400001928E-02 0. -1.
       -1    1    3    3    0  502 -0.79534131445E+03  0.52524930600E+02 -0.36929422546E+03  0.87846735841E+03  0.50400001928E-02 0.  1.
</event>
<event>
 5   0  0.2583422E-04  0.1740344E+04  0.7818609E-02  0.8738683E-01
       -1   -1    0    0    0  501  0.00000000000E+00  0.00000000000E+00  0.64748330305E+03  0.64748330307E+03  0.50400001928E-02 0.  1.
        1   -1    0    0  501    0  0.00000000000E+00  0.00000000000E+00 -0.11694500750E+04  0.11694500750E+04  0.50400001928E-02 0. -1.
    10030    2    1    2    0    0  0.00000000000E+00  0.00000000000E+00 -0.52196677195E+03  0.18169333781E+04  0.17403441008E+04 0.  0.
        3    1    3    3  502    0  0.60538561842E+03 -0.46684793129E+03 -0.69491999553E+03  0.10331275567E+04  0.10100000352E+00 0. -1.
       -3    1    3    3    0  502 -0.60538561842E+03  0.46684793129E+03  0.17295322358E+03  0.78380582142E+03  0.10100000352E+00 0.  1.
</event>
<event>
 5   0  0.5299877E-04  0.1688389E+04  0.7818609E-02  0.8768014E-01
       -2   -1    0    0    0  501  0.00000000000E+00  0.00000000000E+00  0.10599206902E+04  0.10599206902E+04  0.25500000920E-02 0.  1.
        2   -1    0    0  501    0  0.00000000000E+00  0.00000000000E+00 -0.67237501637E+03  0.67237501637E+03  0.25500000920E-02 0. -1.
    10030    2    1    2    0    0  0.00000000000E+00  0.00000000000E+00  0.38754567378E+03  0.17322957065E+04  0.16883888076E+04 0.  0.
        3    1    3    3  502    0 -0.25793301661E+03  0.77757305042E+03  0.40282348463E+03  0.91291623919E+03  0.10100000352E+00 0.  1.
       -3    1    3    3    0  502  0.25793301661E+03 -0.77757305042E+03 -0.15277810851E+02  0.81937946734E+03  0.10100000352E+00 0. -1.
</event>
<event>
 5   0  0.2630135E-04  0.1721875E+04  0.7818609E-02  0.8748986E-01
        1   -1    0    0  501    0  0.00000000000E+00  0.00000000000E+00  0.75745145661E+03  0.75745145663E+03  0.50400001928E-02 0.  1.
       -1   -1    0    0    0  501  0.00000000000E+00  0.00000000000E+00 -0.97856191467E+03  0.97856191469E+03  0.50400001928E-02 0. -1.
    10030    2    1    2    0    0  0.00000000000E+00  0.00000000000E+00 -0.22111045806E+03  0.17360133713E+04  0.17218747314E+04 0.  0.
        1    1    3    3  502    0  0.17270653416E+03 -0.42616412852E+03 -0.84438459256E+03  0.96147217929E+03  0.50400001928E-02 0. -1.
       -1    1    3    3    0  502 -0.17270653416E+03  0.42616412852E+03  0.62327413450E+03  0.77454119202E+03  0.50400001928E-02 0.  1.
</event>
<event>
 5   0  0.5198430E-04  0.1684615E+04  0.7818609E-02  0.8770188E-01
       -2   -1    0    0    0  501  0.00000000000E+00  0.00000000000E+00  0.80798471143E+03  0.80798471143E+03  0.25500000920E-02 0. -1.
        2   -1    0    0  501    0  0.00000000000E+00  0.00000000000E+00 -0.87808827396E+03  0.87808827396E+03  0.25500000920E-02 0.  1.
    10030    2    1    2    0    0  0.00000000000E+00  0.00000000000E+00 -0.70103562526E+02  0.16860729854E+04  0.16846149716E+04 0.  0.
        4    1    3    3  502    0 -0.24488355142E+03  0.61320903688E+03  0.48836069023E+03  0.82127404277E+03  0.12699999809E+01 0. -1.
       -4    1    3    3    0  502  0.24488355142E+03 -0.61320903688E+03 -0.55846425275E+03  0.86479894263E+03  0.12699999809E+01 0.  1.
</event>
<event>
 5   0  0.5198430E-04  0.1735089E+04  0.7818609E-02  0.8741601E-01
       -2   -1    0    0    0  501  0.00000000000E+00  0.00000000000E+00  0.63997162276E+03  0.63997162276E+03  0.25500000920E-02 0.  1.
        2   -1    0    0  501    0  0.00000000000E+00  0.00000000000E+00 -0.11760413888E+04  0.11760413888E+04  0.25500000920E-02 0. -1.
    10030    2    1    2    0    0  0.00000000000E+00  0.00000000000E+00 -0.53606976601E+03  0.18160130115E+04  0.17350886041E+04 0.  0.
        4    1    3    3  502    0  0.27248552963E+03 -0.12046799744E+03 -0.11208188305E+04  0.11597402149E+04  0.12699999809E+01 0. -1.
       -4    1    3    3    0  502 -0.27248552963E+03  0.12046799744E+03  0.58474906451E+03  0.65627279664E+03  0.12699999809E+01 0.  1.
</event>
<event>
 5   0  0.2785059E-04  0.1674856E+04  0.7818609E-02  0.8775836E-01
        1   -1    0    0  501    0  0.00000000000E+00  0.00000000000E+00  0.15862243090E+04  0.15862243090E+04  0.50400001928E-02 0.  1.
       -1   -1    0    0    0  501  0.00000000000E+00  0.00000000000E+00 -0.44211016637E+03  0.44211016640E+03  0.50400001928E-02 0. -1.
    10030    2    1    2    0    0  0.00000000000E+00  0.00000000000E+00  0.11441141426E+04  0.20283344754E+04  0.16748562842E+04 0.  0.
        5    1    3    3  502    0 -0.19692809273E+03 -0.29826555352E+03 -0.34508498265E+03  0.49683875591E+03  0.46999998093E+01 0. -1.
       -5    1    3    3    0  502  0.19692809273E+03  0.29826555352E+03  0.14891991253E+04  0.15314957195E+04  0.46999998093E+01 0.  1.
</event>
<event>
 5   0  0.2583422E-04  0.1707562E+04  0.7818609E-02  0.8757063E-01
       -1   -1    0    0    0  501  0.00000000000E+00  0.00000000000E+00  0.59517669253E+03  0.59517669255E+03  0.50400001928E-02 0.  1.
        1   -1    0    0  501    0  0.00000000000E+00  0.00000000000E+00 -0.12247495366E+04  0.12247495366E+04  0.50400001928E-02 0. -1.
    10030    2    1    2    0    0  0.00000000000E+00  0.00000000000E+00 -0.62957284405E+03  0.18199262291E+04  0.17075624479E+04 0.  0.
        3    1    3    3  502    0 -0.38413125409E+03 -0.34796752645E+03  0.40831569532E+03  0.65981810909E+03  0.10100000352E+00 0.  1.
       -3    1    3    3    0  502  0.38413125409E+03  0.34796752645E+03 -0.10378885394E+04  0.11601081200E+04  0.10100000352E+00 0. -1.
</event>
<event>
 5   0  0.2595644E-04  0.1675267E+04  0.7818609E-02  0.8775598E-01
        1   -1    0    0  501    0  0.00000000000E+00  0.00000000000E+00  0.16426477989E+04  0.16426477989E+04  0.50400001928E-02 0.  1.
       -1   -1    0    0    0  501  0.00000000000E+00  0.00000000000E+00 -0.42713339599E+03  0.42713339602E+03  0.50400001928E-02 0. -1.
    10030    2    1    2    0    0  0.00000000000E+00  0.00000000000E+00  0.12155144029E+04  0.20697811949E+04  0.16752668239E+04 0.  0.
        2    1    3    3  502    0  0.36484478410E+03  0.68120471512E+03  0.20840765941E+03  0.80036574945E+03  0.25500000920E-02 0. -1.
       -2    1    3    3    0  502 -0.36484478410E+03 -0.68120471512E+03  0.10071067435E+04  0.12694154455E+04  0.25500000920E-02 0.  1.
</event>
<event>
 5   0  0.5198430E-04  0.1545868E+04  0.7818609E-02  0.8854512E-01
       -2   -1    0    0    0  501  0.00000000000E+00  0.00000000000E+00  0.58217316232E+03  0.58217316232E+03  0.25500000920E-02 0. -1.
        2   -1    0    0  501    0  0.00000000000E+00  0.00000000000E+00 -0.10262010464E+04  0.10262010464E+04  0.25500000920E-02 0.  1.
    10030    2    1    2    0    0  0.00000000000E+00  0.00000000000E+00 -0.44402788410E+03  0.16083742087E+04  0.15458676636E+04 0.  0.
        4    1    3    3  502    0  0.73778581728E+02 -0.76712731265E+03 -0.28354491844E+03  0.82117411467E+03  0.12699999809E+01 0. -1.
       -4    1    3    3    0  502 -0.73778581728E+02  0.76712731265E+03 -0.16048296566E+03  0.78720009407E+03  0.12699999809E+01 0.  1.
</event>
<event>
 5   0  0.2583422E-04  0.1690989E+04  0.7818609E-02  0.8766520E-01
       -1   -1    0    0    0  501  0.00000000000E+00  0.00000000000E+00  0.10910073497E+04  0.10910073497E+04  0.50400001928E-02 0. -1.
        1   -1    0    0  501    0  0.00000000000E+00  0.00000000000E+00 -0.65523013254E+03  0.65523013256E+03  0.50400001928E-02 0.  1.
    10030    2    1    2    0    0  0.00000000000E+00  0.00000000000E+00  0.43577721711E+03  0.17462374822E+04  0.16909889300E+04 0.  0.
        3    1    3    3  502    0  0.37020255622E+03 -0.28934964958E+03 -0.50799096414E+03  0.69197397508E+03  0.10100000352E+00 0.  1.
       -3    1    3    3    0  502 -0.37020255622E+03  0.28934964958E+03  0.94376818125E+03  0.10542635071E+04  0.10100000352E+00 0. -1.
</event>
<event>
 5   0  0.5021349E-04  0.1704874E+04  0.7818609E-02  0.8758589E-01
        2   -1    0    0  501    0  0.00000000000E+00  0.00000000000E+00  0.12391563285E+04  0.12391563285E+04  0.25500000920E-02 0.  1.
       -2   -1    0    0    0  501  0.00000000000E+00  0.00000000000E+00 -0.58640632853E+03  0.58640632854E+03  0.25500000920E-02 0. -1.
    10030    2    1    2    0    0  0.00000000000E+00  0.00000000000E+00  0.65274999997E+03  0.18255626571E+04  0.17048743216E+04 0.  0.
        2    1    3    3  502    0  0.25421361704E+03 -0.79031903436E+03  0.53351235927E+03  0.98684556880E+03  0.25500000920E-02 0.  1.
       -2    1    3    3    0  502 -0.25421361704E+03  0.79031903436E+03  0.11923764071E+03  0.83871708825E+03  0.25500000920E-02 0. -1.
</event>
<event>
 5   0  0.5198430E-04  0.1726558E+04  0.7818609E-02  0.8746360E-01
       -2   -1    0    0    0  501  0.00000000000E+00  0.00000000000E+00  0.12997719810E+04  0.12997719810E+04  0.25500000920E-02 0. -1.
        2   -1    0    0  501    0  0.00000000000E+00  0.00000000000E+00 -0.57337058324E+03  0.57337058325E+03  0.25500000920E-02 0.  1.
    10030    2    1    2    0    0  0.00000000000E+00  0.00000000000E+00  0.72640139776E+03  0.18731425643E+04  0.17265584483E+04 0.  0.
        4    1    3    3  502    0  0.10132045628E+03 -0.49893852838E+03 -0.39315712451E+03  0.64325704615E+03  0.12699999809E+01 0.  1.
       -4    1    3    3    0  502 -0.10132045628E+03  0.49893852838E+03  0.11195585223E+04  0.12298855181E+04  0.12699999809E+01 0. -1.
</event>
<event>
 5   0  0.2785059E-04  0.1699840E+04  0.7818609E-02  0.8761455E-01
        1   -1    0    0  501    0  0.00000000000E+00  0.00000000000E+00  0.12890064605E+04  0.12890064606E+04  0.50400001928E-02 0.  1.
       -1   -1    0    0    0  501  0.00000000000E+00  0.00000000000E+00 -0.56040394465E+03  0.56040394467E+03  0.50400001928E-02 0. -1.
    10030    2    1    2    0    0  0.00000000000E+00  0.00000000000E+00  0.72860251590E+03  0.18494104052E+04  0.16998403516E+04 0.  0.
        5    1    3    3  502    0 -0.19181269247E+03 -0.19958549199E+03  0.12385718051E+04  0.12691369839E+04  0.46999998093E+01 0.  1.
       -5    1    3    3    0  502  0.19181269247E+03  0.19958549199E+03 -0.50996928917E+03  0.58027342133E+03  0.46999998093E+01 0. -1.
</event>
<event>
 5   0  0.2595644E-04  0.1277486E+04  0.7818609E-02  0.9047612E-01
        1   -1    0    0  501    0  0.00000000000E+00  0.00000000000E+00  0.11103226099E+04  0.11103226099E+04  0.50400001928E-02 0.  1.
       -1   -1    0    0    0  501  0.00000000000E+00  0.00000000000E+00 -0.36745401977E+03  0.36745401980E+03  0.50400001928E-02 0. -1.
    10030    2    1    2    0    0  0.00000000000E+00  0.00000000000E+00  0.74286859012E+03  0.14777766297E+04  0.12774858219E+04 0.  0.
        2    1    3    3  502    0 -0.12879384920E+03 -0.55067990497E+03  0.71489682530E+03  0.91154466932E+03  0.25500000920E-02 0.  1.
       -2    1    3    3    0  502  0.12879384920E+03  0.55067990497E+03  0.27971764818E+02  0.56623196039E+03  0.25500000920E-02 0. -1.
</event>
<event>
 5   0  0.5021349E-04  0.1621217E+04  0.7818609E-02  0.8807618E-01
        2   -1    0    0  501    0  0.00000000000E+00  0.00000000000E+00  0.15296175721E+04  0.15296175721E+04  0.25500000920E-02 0.  1.
       -2   -1    0    0    0  501  0.00000000000E+00  0.00000000000E+00 -0.42957556459E+03  0.42957556460E+03  0.25500000920E-02 0. -1.
    10030    2    1    2    0    0  0.00000000000E+00  0.00000000000E+00  0.11000420075E+04  0.19591931367E+04  0.16212172367E+04 0.  0.
        2    1    3    3  502    0 -0.39468940474E+03 -0.41720677582E+03 -0.14128865139E+03  0.59144205382E+03  0.25500000920E-02 0. -1.
       -2    1    3    3    0  502  0.39468940474E+03  0.41720677582E+03  0.12413306589E+04  0.13677510829E+04  0.25500000920E-02 0.  1.
</event>
<event>
 5   0  0.5299877E-04  0.1687482E+04  0.7818609E-02  0.8768536E-01
        2   -1    0    0  501    0  0.00000000000E+00  0.00000000000E+00  0.20914068862E+04  0.20914068862E+04  0.25500000920E-02 0.  1.
       -2   -1    0    0    0  501  0.00000000000E+00  0.00000000000E+00 -0.34039242745E+03  0.34039242746E+03  0.25500000920E-02 0. -1.
    10030    2    1    2    0    0  0.00000000000E+00  0.00000000000E+00  0.17510144588E+04  0.24317993137E+04  0.16874822272E+04 0.  0.
        3    1    3    3  502    0  0.82309997875E+03  0.18405237602E+03  0.90868981451E+03  0.12397927413E+04  0.10100000352E+00 0. -1.
       -3    1    3    3    0  502 -0.82309997875E+03 -0.18405237602E+03  0.84232464427E+03  0.11920065724E+04  0.10100000352E+00 0.  1.
</event>
<event>
 5   0  0.5342255E-04  0.1708729E+04  0.7818609E-02  0.8756402E-01
        2   -1    0    0  501    0  0.00000000000E+00  0.00000000000E+00  0.12483383437E+04  0.12483383437E+04  0.25500000920E-02 0. -1.
       -2   -1    0    0    0  501  0.00000000000E+00  0.00000000000E+00 -0.58472818503E+03  0.58472818503E+03  0.25500000920E-02 0.  1.
    10030    2    1    2    0    0  0.00000000000E+00  0.00000000000E+00  0.66361015870E+03  0.18330665288E+04  0.17087289007E+04 0.  0.
        5    1    3    3  502    0  0.19313957058E+03 -0.63250285776E+03  0.91204540530E+03  0.11265929478E+04  0.46999998093E+01 0. -1.
       -5    1    3    3    0  502 -0.19313957058E+03  0.63250285776E+03 -0.24843524659E+03  0.70647358092E+03  0.46999998093E+01 0.  1.
</event>
<event>
 5   0  0.2595644E-04  0.1714774E+04  0.7818609E-02  0.8752983E-01
        1   -1    0    0  501    0  0.00000000000E+00  0.00000000000E+00  0.79484377100E+03  0.79484377102E+03  0.50400001928E-02 0.  1.
       -1   -1    0    0    0  501  0.00000000000E+00  0.00000000000E+00 -0.92485143174E+03  0.92485143176E+03  0.50400001928E-02 0. -1.
    10030    2    1    2    0    0  0.00000000000E+00  0.00000000000E+00 -0.13000766074E+03  0.17196952028E+04  0.17147739205E+04 0.  0.
        2    1    3    3  502    0  0.22553632805E+03 -0.71051187181E+03  0.35979019066E+03  0.82773349368E+03  0.25500000920E-02 0.  1.
       -2    1    3    3    0  502 -0.22553632805E+03  0.71051187181E+03 -0.48979785140E+03  0.89196170910E+03  0.25500000920E-02 0. -1.
</event>
<event>
 5   0  0.5021349E-04  0.1690686E+04  0.7818609E-02  0.8766695E-01
       -2   -1    0    0    0  501  0.00000000000E+00  0.00000000000E+00  0.32812013770E+03  0.32812013771E+03  0.25500000920E-02 0. -1.
        2   -1    0    0  501    0  0.00000000000E+00  0.00000000000E+00 -0.21778745488E+04  0.21778745488E+04  0.25500000920E-02 0.  1.
    10030    2    1    2    0    0  0.00000000000E+00  0.00000000000E+00 -0.18497544111E+04  0.25059946865E+04  0.16906856560E+04 0.  0.
        2    1    3    3  502    0 -0.56924839278E+02  0.82070318976E+03 -0.12130961569E+04  0.14657409215E+04  0.25500000920E-02 0.  1.
       -2    1    3    3    0  502  0.56924839278E+02 -0.82070318976E+03 -0.63665825419E+03  0.10402537650E+04  0.25500000920E-02 0. -1.
</event>
<event>
 5   0  0.2595644E-04  0.1599275E+04  0.7818609E-02  0.8820993E-01
       -1   -1    0    0    0  501  0.00000000000E+00  0.00000000000E+00  0.41591374974E+03  0.41591374977E+03  0.50400001928E-02 0. -1.
        1   -1    0    0  501    0  0.00000000000E+00  0.00000000000E+00 -0.15373872402E+04  0.15373872402E+04  0.50400001928E-02 0.  1.
    10030    2    1    2    0    0  0.00000000000E+00  0.00000000000E+00 -0.11214734905E+04  0.19533009900E+04  0.15992754509E+04 0.  0.
        2    1    3    3  502    0 -0.78073608764E+03 -0.41352255616E+02 -0.35577401190E+03  0.85897263934E+03  0.25500000920E-02 0. -1.
       -2    1    3    3    0  502  0.78073608764E+03  0.41352255616E+02 -0.76569947860E+03  0.10943283507E+04  0.25500000920E-02 0.  1.
</event>
<event>
 5   0  0.5342255E-04  0.1702378E+04  0.7818609E-02  0.8760009E-01
        2   -1    0    0  501    0  0.00000000000E+00  0.00000000000E+00  0.72013706051E+03  0.72013706051E+03  0.25500000920E-02 0. -1.
       -2   -1    0    0    0  501  0.00000000000E+00  0.00000000000E+00 -0.10060904676E+04  0.10060904676E+04  0.25500000920E-02 0.  1.
    10030    2    1    2    0    0  0.00000000000E+00  0.00000000000E+00 -0.28595340708E+03  0.17262275281E+04  0.17023783738E+04 0.  0.
        5    1    3    3  502    0 -0.14328198307E+02 -0.15963810559E+03  0.70468372643E+03  0.72269693947E+03  0.46999998093E+01 0. -1.
       -5    1    3    3    0  502  0.14328198307E+02  0.15963810559E+03 -0.99063713351E+03  0.10035305886E+04  0.46999998093E+01 0.  1.
</event>
<event>
 5   0  0.2561518E-04  0.1545045E+04  0.7818609E-02  0.8855039E-01
        1   -1    0    0  501    0  0.00000000000E+00  0.00000000000E+00  0.72905582630E+03  0.72905582631E+03  0.50400001928E-02 0. -1.
       -1   -1    0    0    0  501  0.00000000000E+00  0.00000000000E+00 -0.81858063102E+03  0.81858063103E+03  0.50400001928E-02 0.  1.
    10030    2    1    2    0    0  0.00000000000E+00  0.00000000000E+00 -0.89524804722E+02  0.15476364573E+04  0.15450449552E+04 0.  0.
        4    1    3    3  502    0 -0.30213193332E+03 -0.64717236045E+03 -0.33966000340E+03  0.79087691841E+03  0.12699999809E+01 0.  1.
       -4    1    3    3    0  502  0.30213193332E+03  0.64717236045E+03  0.25013519868E+03  0.75675953894E+03  0.12699999809E+01 0. -1.
</event>
<event>
 5   0  0.2595644E-04  0.1712979E+04  0.7818609E-02  0.8753997E-01
        1   -1    0    0  501    0  0.00000000000E+00  0.00000000000E+00  0.17148394716E+04  0.17148394716E+04  0.50400001928E-02 0.  1.
       -1   -1    0    0    0  501  0.00000000000E+00  0.00000000000E+00 -0.42777988847E+03  0.42777988850E+03  0.50400001928E-02 0. -1.
    10030    2    1    2    0    0  0.00000000000E+00  0.00000000000E+00  0.12870595831E+04  0.21426193601E+04  0.17129785030E+04 0.  0.
        2    1    3    3  502    0  0.21741226580E+03 -0.24141070767E+03 -0.34771778003E+03  0.47587275363E+03  0.25500000920E-02 0. -1.
       -2    1    3    3    0  502 -0.21741226580E+03  0.24141070767E+03  0.16347773631E+04  0.16667466065E+04  0.25500000920E-02 0.  1.
</event>
<event>
 5   0  0.2630135E-04  0.1691573E+04  0.7818609E-02  0.8766185E-01
        1   -1    0    0  501    0  0.00000000000E+00  0.00000000000E+00  0.13450633228E+04  0.13450633229E+04  0.50400001928E-02 0. -1.
       -1   -1    0    0    0  501  0.00000000000E+00  0.00000000000E+00 -0.53183730415E+03  0.53183730417E+03  0.50400001928E-02 0.  1.
    10030    2    1    2    0    0  0.00000000000E+00  0.00000000000E+00  0.81322601870E+03  0.18769006270E+04  0.16915730567E+04 0.  0.
        1    1    3    3  502    0  0.45676467913E+02 -0.83445320995E+03  0.26213001458E+03  0.87584852793E+03  0.50400001928E-02 0.  1.
       -1    1    3    3    0  502 -0.45676467913E+02  0.83445320995E+03  0.55109600412E+03  0.10010520991E+04  0.50400001928E-02 0. -1.
</event>
<event>
 5   0  0.5342255E-04  0.1710156E+04  0.7818609E-02  0.8755593E-01
       -2   -1    0    0    0  501  0.00000000000E+00  0.00000000000E+00  0.12831723237E+04  0.12831723237E+04  0.25500000920E-02 0.  1.
        2   -1    0    0  501    0  0.00000000000E+00  0.00000000000E+00 -0.56980554305E+03  0.56980554305E+03  0.25500000920E-02 0. -1.
    10030    2    1    2    0    0  0.00000000000E+00  0.00000000000E+00  0.71336678066E+03  0.18529778668E+04  0.17101563703E+04 0.  0.
        5    1    3    3  502    0  0.21020570785E+02  0.59655246296E+03 -0.30667119247E+03  0.67110805072E+03  0.46999998093E+01 0. -1.
       -5    1    3    3    0  502 -0.21020570785E+02 -0.59655246296E+03  0.10200379731E+04  0.11818698160E+04  0.46999998093E+01 0.  1.
</event>
<event>
 5   0  0.2785059E-04  0.1714168E+04  0.7818609E-02  0.8753325E-01
        1   -1    0    0  501    0  0.00000000000E+00  0.00000000000E+00  0.12135047859E+04  0.12135047859E+04  0.50400001928E-02 0.  1.
       -1   -1    0    0    0  501  0.00000000000E+00  0.00000000000E+00 -0.60534817510E+03  0.60534817512E+03  0.50400001928E-02 0. -1.
    10030    2    1    2    0    0  0.00000000000E+00  0.00000000000E+00  0.60815661080E+03  0.18188529610E+04  0.17141679120E+04 0.  0.
        5    1    3    3  502    0  0.12776671108E+03 -0.19110625525E+03 -0.57201185712E+03  0.61649459685E+03  0.46999998093E+01 0. -1.
       -5    1    3    3    0  502 -0.12776671108E+03  0.19110625525E+03  0.11801684679E+04  0.12023583642E+04  0.46999998093E+01 0.  1.
</event>
<event>
 5   0  0.2583422E-04  0.1687850E+04  0.7818609E-02  0.8768324E-01
       -1   -1    0    0    0  501  0.00000000000E+00  0.00000000000E+00  0.82163142552E+03  0.82163142553E+03  0.50400001928E-02 0.  1.
        1   -1    0    0  501    0  0.00000000000E+00  0.00000000000E+00 -0.86682362528E+03  0.86682362529E+03  0.50400001928E-02 0. -1.
    10030    2    1    2    0    0  0.00000000000E+00  0.00000000000E+00 -0.45192199761E+02  0.16884550508E+04  0.16878501485E+04 0.  0.
        3    1    3    3  502    0 -0.38179031794E+03 -0.28159969885E+03 -0.72080560988E+03  0.86291539255E+03  0.10100000352E+00 0. -1.
       -3    1    3    3    0  502  0.38179031794E+03  0.28159969885E+03  0.67561341011E+03  0.82553965828E+03  0.10100000352E+00 0.  1.
</event>
<event>
 5   0  0.5310003E-04  0.1659777E+04  0.7818609E-02  0.8784644E-01
        2   -1    0    0  501    0  0.00000000000E+00  0.00000000000E+00  0.14855290421E+04  0.14855290421E+04  0.25500000920E-02 0. -1.
       -2   -1    0    0    0  501  0.00000000000E+00  0.00000000000E+00 -0.46361566816E+03  0.46361566817E+03  0.25500000920E-02 0.  1.
    10030    2    1    2    0    0  0.00000000000E+00  0.00000000000E+00  0.10219133740E+04  0.19491447103E+04  0.16597765385E+04 0.  0.
        1    1    3    3  502    0 -0.65676862331E+02 -0.42597433459E+03 -0.32187176576E+03  0.53793030924E+03  0.50400001928E-02 0.  1.
       -1    1    3    3    0  502  0.65676862331E+02  0.42597433459E+03  0.13437851397E+04  0.14112144011E+04  0.50400001928E-02 0. -1.
</event>
<event>
 5   0  0.2630135E-04  0.1673558E+04  0.7818609E-02  0.8776591E-01
        1   -1    0    0  501    0  0.00000000000E+00  0.00000000000E+00  0.12968209195E+04  0.12968209195E+04  0.50400001928E-02 0. -1.
       -1   -1    0    0    0  501  0.00000000000E+00  0.00000000000E+00 -0.53993501398E+03  0.53993501400E+03  0.50400001928E-02 0.  1.
    10030    2    1    2    0    0  0.00000000000E+00  0.00000000000E+00  0.75688590549E+03  0.18367559335E+04  0.16735579121E+04 0.  0.
        1    1    3    3  502    0 -0.82247768472E+03  0.14033916519E+03  0.30873215013E+03  0.88965170921E+03  0.50400001928E-02 0.  1.
       -1    1    3    3    0  502  0.82247768472E+03 -0.14033916519E+03  0.44815375536E+03  0.94710422427E+03  0.50400001928E-02 0. -1.
</event>
<event>
 5   0  0.5299877E-04  0.1695911E+04  0.7818609E-02  0.8763700E-01
        2   -1    0    0  501    0  0.00000000000E+00  0.00000000000E+00  0.16010413912E+04  0.16010413912E+04  0.25500000920E-02 0.  1.
       -2   -1    0    0    0  501  0.00000000000E+00  0.00000000000E+00 -0.44910045527E+03  0.44910045528E+03  0.25500000920E-02 0. -1.
    10030    2    1    2    0    0  0.00000000000E+00  0.00000000000E+00  0.11519409359E+04  0.20501418464E+04  0.16959108676E+04 0.  0.
        3    1    3    3  502    0  0.84305676382E+03  0.71780738051E+02  0.64361584189E+03  0.10630797447E+04  0.10100000352E+00 0. -1.
       -3    1    3    3    0  502 -0.84305676382E+03 -0.71780738051E+02  0.50832509400E+03  0.98706210178E+03  0.10100000352E+00 0.  1.
</event>
<event>
 5   0  0.2630135E-04  0.1700841E+04  0.7818609E-02  0.8760885E-01
       -1   -1    0    0    0  501  0.00000000000E+00  0.00000000000E+00  0.33901219492E+03  0.33901219496E+03  0.50400001928E-02 0. -1.
        1   -1    0    0  501    0  0.00000000000E+00  0.00000000000E+00 -0.21333017054E+04  0.21333017054E+04  0.50400001928E-02 0.  1.
    10030    2    1    2    0    0  0.00000000000E+00  0.00000000000E+00 -0.17942895105E+04  0.24723139004E+04  0.17008413137E+04 0.  0.
        1    1    3    3  502    0  0.11081773333E+03 -0.58156177782E+03 -0.97200286245E+01  0.59210569193E+03  0.50400001928E-02 0. -1.
       -1    1    3    3    0  502 -0.11081773333E+03  0.58156177782E+03 -0.17845694819E+04  0.18802082084E+04  0.50400001928E-02 0.  1.
</event>
<event>
 5   0  0.2561518E-04  0.1706373E+04  0.7818609E-02  0.8757738E-01
        1   -1    0    0  501    0  0.00000000000E+00  0.00000000000E+00  0.15802659010E+04  0.15802659010E+04  0.50400001928E-02 0.  1.
       -1   -1    0    0    0  501  0.00000000000E+00  0.00000000000E+00 -0.46063563911E+03  0.46063563914E+03  0.50400001928E-02 0. -1.
    10030    2    1    2    0    0  0.00000000000E+00  0.00000000000E+00  0.11196302619E+04  0.20409015402E+04  0.17063725189E+04 0.  0.
        4    1    3    3  502    0  0.76586599798E+03  0.37365386044E+03  0.50967741985E+03  0.99294542624E+03  0.12699999809E+01 0.  1.
       -4    1    3    3    0  502 -0.76586599798E+03 -0.37365386044E+03  0.60995284204E+03  0.10479561139E+04  0.12699999809E+01 0. -1.
</event>
<event>
 5   0  0.5310003E-04  0.1711280E+04  0.7818609E-02  0.8754957E-01
        2   -1    0    0  501    0  0.00000000000E+00  0.00000000000E+00  0.19105431610E+04  0.19105431610E+04  0.25500000920E-02 0.  1.
       -2   -1    0    0    0  501  0.00000000000E+00  0.00000000000E+00 -0.38319984136E+03  0.38319984137E+03  0.25500000920E-02 0. -1.
    10030    2    1    2    0    0  0.00000000000E+00  0.00000000000E+00  0.15273433196E+04  0.22937430023E+04  0.17112800311E+04 0.  0.
        1    1    3    3  502    0  0.91076542371E+02 -0.83256292895E+03  0.99838466232E+03  0.13031607350E+04  0.50400001928E-02 0.  1.
       -1    1    3    3    0  502 -0.91076542371E+02  0.83256292895E+03  0.52895865728E+03  0.99058226734E+03  0.50400001928E-02 0. -1.
</event>
<event>
 5   0  0.2630135E-04  0.1670910E+04  0.7818609E-02  0.8778132E-01
        1   -1    0    0  501    0  0.00000000000E+00  0.00000000000E+00  0.10063294811E+04  0.10063294812E+04  0.50400001928E-02 0.  1.
       -1   -1    0    0    0  501  0.00000000000E+00  0.00000000000E+00 -0.69359463021E+03  0.69359463023E+03  0.50400001928E-02 0. -1.
    10030    2    1    2    0    0  0.00000000000E+00  0.00000000000E+00  0.31273485094E+03  0.16999241114E+04  0.16709096018E+04 0.  0.
        1    1    3    3  502    0 -0.33871651682E+03 -0.28746925030E+03  0.87619668439E+03  0.98238896492E+03  0.50400001928E-02 0.  1.
       -1    1    3    3    0  502  0.33871651682E+03  0.28746925030E+03 -0.56346183345E+03  0.71753514647E+03  0.50400001928E-02 0. -1.
</event>
<event>
 5   0  0.2630135E-04  0.1689198E+04  0.7818609E-02  0.8767549E-01
       -1   -1    0    0    0  501  0.00000000000E+00  0.00000000000E+00  0.91931740416E+03  0.91931740418E+03  0.50400001928E-02 0.  1.
        1   -1    0    0  501    0  0.00000000000E+00  0.00000000000E+00 -0.77595301130E+03  0.77595301132E+03  0.50400001928E-02 0. -1.
    10030    2    1    2    0    0  0.00000000000E+00  0.00000000000E+00  0.14336439286E+03  0.16952704155E+04  0.16891975706E+04 0.  0.
        1    1    3    3  502    0 -0.45857009510E+03 -0.46184187029E+03  0.61191350163E+03  0.89332109501E+03  0.50400001928E-02 0.  1.
       -1    1    3    3    0  502  0.45857009510E+03  0.46184187029E+03 -0.46854910877E+03  0.80194932049E+03  0.50400001928E-02 0. -1.
</event>
<event>
 5   0  0.5299877E-04  0.1736194E+04  0.7818609E-02  0.8740987E-01
        2   -1    0    0  501    0  0.00000000000E+00  0.00000000000E+00  0.12504058548E+04  0.12504058548E+04  0.25500000920E-02 0. -1.
       -2   -1    0    0    0  501  0.00000000000E+00  0.00000000000E+00 -0.60267828055E+03  0.60267828056E+03  0.25500000920E-02 0.  1.
    10030    2    1    2    0    0  0.00000000000E+00  0.00000000000E+00  0.64772757427E+03  0.18530841354E+04  0.17361940567E+04 0.  0.
        3    1    3    3  502    0  0.47960972704E+03 -0.64535492529E+03 -0.25404460873E+02  0.80445874145E+03  0.10100000352E+00 0.  1.
       -3    1    3    3    0  502 -0.47960972704E+03  0.64535492529E+03  0.67313203515E+03  0.10486253939E+04  0.10100000352E+00 0. -1.
</event>
<event>
 5   0  0.5342255E-04  0.1647067E+04  0.7818609E-02  0.8792143E-01
       -2   -1    0    0    0  501  0.00000000000E+00  0.00000000000E+00  0.47393196702E+03  0.47393196703E+03  0.25500000920E-02 0.  1.
        2   -1    0    0  501    0  0.00000000000E+00  0.00000000000E+00 -0.14310229930E+04  0.14310229930E+04  0.25500000920E-02 0. -1.
    10030    2    1    2    0    0  0.00000000000E+00  0.00000000000E+00 -0.95709102601E+03  0.19049549601E+04  0.16470671413E+04 0.  0.
        5    1    3    3  502    0  0.19553493234E+03 -0.78223941146E+03 -0.67226058649E+03  0.10498041688E+04  0.46999998093E+01 0.  1.
       -5    1    3    3    0  502 -0.19553493234E+03  0.78223941146E+03 -0.28483043952E+03  0.85515079131E+03  0.46999998093E+01 0. -1.
</event>
<event>
 5   0  0.5021349E-04  0.1732782E+04  0.7818609E-02  0.8742885E-01
       -2   -1    0    0    0  501  0.00000000000E+00  0.00000000000E+00  0.43914655570E+03  0.43914655571E+03  0.25500000920E-02 0.  1.
        2   -1    0    0  501    0  0.00000000000E+00  0.00000000000E+00 -0.17093012405E+04  0.17093012405E+04  0.25500000920E-02 0. -1.
    10030    2    1    2    0    0  0.00000000000E+00  0.00000000000E+00 -0.12701546848E+04  0.21484477962E+04  0.17327824473E+04 0.  0.
        2    1    3    3  502    0  0.58488571165E+03 -0.38094917378E+03  0.12861984439E+01  0.69800803936E+03  0.25500000920E-02 0.  1.
       -2    1    3    3    0  502 -0.58488571165E+03  0.38094917378E+03 -0.12714408833E+04  0.14504397569E+04  0.25500000920E-02 0. -1.
</event>
<event>
 5   0  0.5021349E-04  0.1688048E+04  0.7818609E-02  0.8768211E-01
       -2   -1    0    0    0  501  0.00000000000E+00  0.00000000000E+00  0.70215994368E+03  0.70215994369E+03  0.25500000920E-02 0.  1.
        2   -1    0    0  501    0  0.00000000000E+00  0.00000000000E+00 -0.10145501599E+04  0.10145501599E+04  0.25500000920E-02 0. -1.
    10030    2    1    2    0    0  0.00000000000E+00  0.00000000000E+00 -0.31239021625E+03  0.17167101036E+04  0.16880479652E+04 0.  0.
        2    1    3    3  502    0 -0.77871536567E+03 -0.32426085591E+02  0.17322997168E+03  0.79840947818E+03  0.25500000920E-02 0.  1.
       -2    1    3    3    0  502  0.77871536567E+03  0.32426085591E+02 -0.48562018793E+03  0.91830062544E+03  0.25500000920E-02 0. -1.
</event>
<event>
 5   0  0.5299877E-04  0.1699096E+04  0.7818609E-02  0.8761880E-01
       -2   -1    0    0    0  501  0.00000000000E+00  0.00000000000E+00  0.10612513118E+04  0.10612513118E+04  0.25500000920E-02 0.  1.
        2   -1    0    0  501    0  0.00000000000E+00  0.00000000000E+00 -0.68007595850E+03  0.68007595850E+03  0.25500000920E-02 0. -1.
    10030    2    1    2    0    0  0.00000000000E+00  0.00000000000E+00  0.38117535328E+03  0.17413272703E+04  0.16990956454E+04 0.  0.
        3    1    3    3  502    0 -0.23308078950E+03 -0.37330624931E+03  0.93531790247E+03  0.10336845743E+04  0.10100000352E+00 0.  1.
       -3    1    3    3    0  502  0.23308078950E+03  0.37330624931E+03 -0.55414254919E+03  0.70764269602E+03  0.10100000352E+00 0. -1.
</event>
<event>
 5   0  0.2595644E-04  0.1707612E+04  0.7818609E-02  0.8757035E-01
        1   -1    0    0  501    0  0.00000000000E+00  0.00000000000E+00  0.80940383140E+03  0.80940383142E+03  0.50400001928E-02 0.  1.
       -1   -1    0    0    0  501  0.00000000000E+00  0.00000000000E+00 -0.90064436964E+03  0.90064436965E+03  0.50400001928E-02 0. -1.
    10030    2    1    2    0    0  0.00000000000E+00  0.00000000000E+00 -0.91240538238E+02  0.17100482011E+04  0.17076123723E+04 0.  0.
        2    1    3    3  502    0 -0.74399837264E+03 -0.55802952995E+02  0.37010736852E+03  0.83284272963E+03  0.25500000920E-02 0.  1.
       -2    1    3    3    0  502  0.74399837264E+03  0.55802952995E+02 -0.46134790676E+03  0.87720547144E+03  0.25500000920E-02 0. -1.
</event>
<event>
 5   0  0.5310003E-04  0.1677267E+04  0.7818609E-02  0.8774437E-01
       -2   -1    0    0    0  501  0.00000000000E+00  0.00000000000E+00  0.41319073927E+03  0.41319073928E+03  0.25500000920E-02 0.  1.
        2   -1    0    0  501    0  0.00000000000E+00  0.00000000000E+00 -0.17021340305E+04  0.17021340305E+04  0.25500000920E-02 0. -1.
    10030    2    1    2    0    0  0.00000000000E+00  0.00000000000E+00 -0.12889432912E+04  0.21153247697E+04  0.16772668463E+04 0.  0.
        1    1    3    3  502    0 -0.13878903422E+03 -0.51967240112E+01 -0.16875290689E+04  0.16932347033E+04  0.50400001928E-02 0. -1.
       -1    1    3    3    0  502  0.13878903422E+03  0.51967240112E+01  0.39858577773E+03  0.42209006645E+03  0.50400001928E-02 0.  1.
</event>
<event>
 5   0  0.2630135E-04  0.1714828E+04  0.7818609E-02  0.8752952E-01
       -1   -1    0    0    0  501  0.00000000000E+00  0.00000000000E+00  0.76665299816E+03  0.76665299818E+03  0.50400001928E-02 0. -1.
        1   -1    0    0  501    0  0.00000000000E+00  0.00000000000E+00 -0.95891976399E+03  0.95891976401E+03  0.50400001928E-02 0.  1.
    10030    2    1    2    0    0  0.00000000000E+00  0.00000000000E+00 -0.19226676583E+03  0.17255727622E+04  0.17148279355E+04 0.  0.
        1    1    3    3  502    0 -0.52287519028E+03 -0.36591336344E+03 -0.67231847354E+03  0.92698607543E+03  0.50400001928E-02 0.  1.
       -1    1    3    3    0  502  0.52287519028E+03  0.36591336344E+03  0.48005170771E+03  0.79858668675E+03  0.50400001928E-02 0. -1.
</event>
<event>
 5   0  0.2583422E-04  0.1693199E+04  0.7818609E-02  0.8765253E-01
        1   -1    0    0  501    0  0.00000000000E+00  0.00000000000E+00  0.17306904348E+04  0.17306904348E+04  0.50400001928E-02 0. -1.
       -1   -1    0    0    0  501  0.00000000000E+00  0.00000000000E+00 -0.41412971950E+03  0.41412971953E+03  0.50400001928E-02 0.  1.
    10030    2    1    2    0    0  0.00000000000E+00  0.00000000000E+00  0.13165607153E+04  0.21448201544E+04  0.16931985641E+04 0.  0.
        3    1    3    3  502    0  0.87945857827E+01 -0.58380308167E+03  0.14348438164E+04  0.15490901105E+04  0.10100000352E+00 0. -1.
       -3    1    3    3    0  502 -0.87945857827E+01  0.58380308167E+03 -0.11828310108E+03  0.59573004382E+03  0.10100000352E+00 0.  1.
</event>
<event>
 5   0  0.2561518E-04  0.1635951E+04  0.7818609E-02  0.8798761E-01
       -1   -1    0    0    0  501  0.00000000000E+00  0.00000000000E+00  0.50043094944E+03  0.50043094947E+03  0.50400001928E-02 0.  1.
        1   -1    0    0  501    0  0.00000000000E+00  0.00000000000E+00 -0.13370153749E+04  0.13370153749E+04  0.50400001928E-02 0. -1.
    10030    2    1    2    0    0  0.00000000000E+00  0.00000000000E+00 -0.83658442541E+03  0.18374463243E+04  0.16359509449E+04 0.  0.
        4    1    3    3  502    0 -0.25700888216E+03  0.66621747497E+03  0.29826095422E+02  0.71469608809E+03  0.12699999809E+01 0.  1.
       -4    1    3    3    0  502  0.25700888216E+03 -0.66621747497E+03 -0.86641052083E+03  0.11227502362E+04  0.12699999809E+01 0. -1.
</event>
<event>
 5   0  0.5198430E-04  0.1681896E+04  0.7818609E-02  0.8771758E-01
       -2   -1    0    0    0  501  0.00000000000E+00  0.00000000000E+00  0.42994678608E+03  0.42994678609E+03  0.25500000920E-02 0.  1.
        2   -1    0    0  501    0  0.00000000000E+00  0.00000000000E+00 -0.16448388272E+04  0.16448388272E+04  0.25500000920E-02 0. -1.
    10030    2    1    2    0    0  0.00000000000E+00  0.00000000000E+00 -0.12148920411E+04  0.20747856133E+04  0.16818955584E+04 0.  0.
        4    1    3    3  502    0  0.37433233281E+03 -0.39851485066E+03 -0.13956502770E+04  0.14989263125E+04  0.12699999809E+01 0. -1.
       -4    1    3    3    0  502 -0.37433233281E+03  0.39851485066E+03  0.18075823590E+03  0.57585930081E+03  0.12699999809E+01 0.  1.
</event>
<event>
 5   0  0.2583422E-04  0.1653214E+04  0.7818609E-02  0.8788507E-01
       -1   -1    0    0    0  501  0.00000000000E+00  0.00000000000E+00  0.51570465594E+03  0.51570465597E+03  0.50400001928E-02 0. -1.
        1   -1    0    0  501    0  0.00000000000E+00  0.00000000000E+00 -0.13249428591E+04  0.13249428591E+04  0.50400001928E-02 0.  1.
    10030    2    1    2    0    0  0.00000000000E+00  0.00000000000E+00 -0.80923820317E+03  0.18406475151E+04  0.16532140833E+04 0.  0.
        3    1    3    3  502    0  0.74616108212E+03  0.24153945682E+03 -0.11389912387E+03  0.79250911054E+03  0.10100000352E+00 0. -1.
       -3    1    3    3    0  502 -0.74616108212E+03 -0.24153945682E+03 -0.69533907929E+03  0.10481384045E+04  0.10100000352E+00 0.  1.
</event>
<event>
 5   0  0.5342255E-04  0.1681143E+04  0.7818609E-02  0.8772193E-01
       -2   -1    0    0    0  501  0.00000000000E+00  0.00000000000E+00  0.65879966208E+03  0.65879966209E+03  0.25500000920E-02 0.  1.
        2   -1    0    0  501    0  0.00000000000E+00  0.00000000000E+00 -0.10724965934E+04  0.10724965934E+04  0.25500000920E-02 0. -1.
    10030    2    1    2    0    0  0.00000000000E+00  0.00000000000E+00 -0.41369693131E+03  0.17312962555E+04  0.16811429366E+04 0.  0.
        5    1    3    3  502    0  0.28384221192E+03 -0.78801564389E+03 -0.27969228738E+03  0.88305431424E+03  0.46999998093E+01 0.  1.
       -5    1    3    3    0  502 -0.28384221192E+03  0.78801564389E+03 -0.13400464393E+03  0.84824194124E+03  0.46999998093E+01 0. -1.
</event>
<event>
 5   0  0.2583422E-04  0.1699158E+04  0.7818609E-02  0.8761845E-01
        1   -1    0    0  501    0  0.00000000000E+00  0.00000000000E+00  0.13379701303E+04  0.13379701303E+04  0.50400001928E-02 0.  1.
       -1   -1    0    0    0  501  0.00000000000E+00  0.00000000000E+00 -0.53946221477E+03  0.53946221479E+03  0.50400001928E-02 0. -1.
    10030    2    1    2    0    0  0.00000000000E+00  0.00000000000E+00  0.79850791551E+03  0.18774323451E+04  0.16991578265E+04 0.  0.
        3    1    3    3  502    0  0.29595107315E+03  0.34554236921E+03  0.11920270421E+04  0.12758977411E+04  0.10100000352E+00 0.  1.
       -3    1    3    3    0  502 -0.29595107315E+03 -0.34554236921E+03 -0.39351912654E+03  0.60153460397E+03  0.10100000352E+00 0. -1.
</event>
<event>
 5   0  0.5310003E-04  0.1696837E+04  0.7818609E-02  0.8763171E-01
       -2   -1    0    0    0  501  0.00000000000E+00  0.00000000000E+00  0.67918768769E+03  0.67918768769E+03  0.25500000920E-02 0.  1.
        2   -1    0    0  501    0  0.00000000000E+00  0.00000000000E+00 -0.10598154979E+04  0.10598154979E+04  0.25500000920E-02 0. -1.
    10030    2    1    2    0    0  0.00000000000E+00  0.00000000000E+00 -0.38062781022E+03  0.17390031856E+04  0.16968366302E+04 0.  0.
        1    1    3    3  502    0  0.70404762490E+03  0.42105607100E+03 -0.41212320472E+03  0.91805054814E+03  0.50400001928E-02 0.  1.
       -1    1    3    3    0  502 -0.70404762490E+03 -0.42105607100E+03  0.31495394502E+02  0.82095263746E+03  0.50400001928E-02 0. -1.
</event>
<event>
 5   0  0.2583422E-04  0.1698110E+04  0.7818609E-02  0.8762443E-01
        1   -1    0    0  501    0  0.00000000000E+00  0.00000000000E+00  0.29681106135E+04  0.29681106135E+04  0.50400001928E-02 0.  1.
       -1   -1    0    0    0  501  0.00000000000E+00  0.00000000000E+00 -0.24287980371E+03  0.24287980376E+03  0.50400001928E-02 0. -1.
    10030    2    1    2    0    0  0.00000000000E+00  0.00000000000E+00  0.27252308098E+04  0.32109904173E+04  0.16981096823E+04 0.  0.
        3    1    3    3  502    0 -0.99259094749E+01 -0.39617959859E+03  0.27824906202E+04  0.28105712692E+04  0.10100000352E+00 0.  1.
       -3    1    3    3    0  502  0.99259094749E+01  0.39617959859E+03 -0.57259810363E+02  0.40041914802E+03  0.10100000352E+00 0. -1.
</event>
<event>
 5   0  0.5342255E-04  0.1724371E+04  0.7818609E-02  0.8747585E-01
        2   -1    0    0  501    0  0.00000000000E+00  0.00000000000E+00  0.24981891291E+04  0.24981891291E+04  0.25500000920E-02 0.  1.
       -2   -1    0    0    0  501  0.00000000000E+00  0.00000000000E+00 -0.29756110518E+03  0.29756110519E+03  0.25500000920E-02 0. -1.
    10030    2    1    2    0    0  0.00000000000E+00  0.00000000000E+00  0.22006280239E+04  0.27957502343E+04  0.17243710949E+04 0.  0.
        5    1    3    3  502    0 -0.39671551982E+03 -0.53874183654E+03  0.21864628683E+03  0.70388511765E+03  0.46999998093E+01 0. -1.
       -5    1    3    3    0  502  0.39671551982E+03  0.53874183654E+03  0.19819817371E+04  0.20918651167E+04  0.46999998093E+01 0.  1.
</event>
<event>
 5   0  0.5299877E-04  0.1703789E+04  0.7818609E-02  0.8759206E-01
        2   -1    0    0  501    0  0.00000000000E+00  0.00000000000E+00  0.72623609894E+03  0.72623609895E+03  0.25500000920E-02 0.  1.
       -2   -1    0    0    0  501  0.00000000000E+00  0.00000000000E+00 -0.99929487304E+03  0.99929487304E+03  0.25500000920E-02 0. -1.
    10030    2    1    2    0    0  0.00000000000E+00  0.00000000000E+00 -0.27305877409E+03  0.17255309720E+04  0.17037887314E+04 0.  0.
        3    1    3    3  502    0 -0.51659643240E+02 -0.84814528314E+03 -0.19817368641E+03  0.87252046408E+03  0.10100000352E+00 0.  1.
       -3    1    3    3    0  502  0.51659643240E+02  0.84814528314E+03 -0.74885087682E+02  0.85301050791E+03  0.10100000352E+00 0. -1.
</event>
<event>
 5   0  0.5299877E-04  0.1705744E+04  0.7818609E-02  0.8758095E-01
       -2   -1    0    0    0  501  0.00000000000E+00  0.00000000000E+00  0.47583087682E+03  0.47583087682E+03  0.25500000920E-02 0. -1.
        2   -1    0    0  501    0  0.00000000000E+00  0.00000000000E+00 -0.15286748405E+04  0.15286748405E+04  0.25500000920E-02 0.  1.
    10030    2    1    2    0    0  0.00000000000E+00  0.00000000000E+00 -0.10528439637E+04  0.20045057173E+04  0.17057440485E+04 0.  0.
        3    1    3    3  502    0  0.43934038266E+03 -0.44297602993E+03 -0.12097726128E+04  0.13611750511E+04  0.10100000352E+00 0.  1.
       -3    1    3    3    0  502 -0.43934038266E+03  0.44297602993E+03  0.15692864913E+03  0.64333066618E+03  0.10100000352E+00 0. -1.
</event>
<event>
 5   0  0.2630135E-04  0.1760513E+04  0.7818609E-02  0.8727584E-01
        1   -1    0    0  501    0  0.00000000000E+00  0.00000000000E+00  0.80622325903E+03  0.80622325904E+03  0.50400001928E-02 0.  1.
       -1   -1    0    0    0  501  0.00000000000E+00  0.00000000000E+00 -0.96108842727E+03  0.96108842728E+03  0.50400001928E-02 0. -1.
    10030    2    1    2    0    0  0.00000000000E+00  0.00000000000E+00 -0.15486516824E+03  0.17673116863E+04  0.17605133843E+04 0.  0.
        1    1    3    3  502    0  0.55415454420E+03 -0.65699721981E+03  0.11335192546E+03  0.86693786670E+03  0.50400001928E-02 0.  1.
       -1    1    3    3    0  502 -0.55415454420E+03  0.65699721981E+03 -0.26821709370E+03  0.90037381963E+03  0.50400001928E-02 0. -1.
</event>
<event>
 5   0  0.2561518E-04  0.1674857E+04  0.7818609E-02  0.8775836E-01
        1   -1    0    0  501    0  0.00000000000E+00  0.00000000000E+00  0.95589093076E+03  0.95589093077E+03  0.50400001928E-02 0.  1.
       -1   -1    0    0    0  501  0.00000000000E+00  0.00000000000E+00 -0.73364671552E+03  0.73364671554E+03  0.50400001928E-02 0. -1.
    10030    2    1    2    0    0  0.00000000000E+00  0.00000000000E+00  0.22224421524E+03  0.16895376463E+04  0.16748567005E+04 0.  0.
        4    1    3    3  502    0  0.56467322413E+01  0.50031984105E+03  0.78852357210E+03  0.93387518737E+03  0.12699999809E+01 0.  1.
       -4    1    3    3    0  502 -0.56467322413E+01 -0.50031984105E+03 -0.56627935686E+03  0.75566245893E+03  0.12699999809E+01 0. -1.
</event>
<event>
 5   0  0.2630135E-04  0.1694708E+04  0.7818609E-02  0.8764388E-01
       -1   -1    0    0    0  501  0.00000000000E+00  0.00000000000E+00  0.58602158776E+03  0.58602158778E+03  0.50400001928E-02 0.  1.
        1   -1    0    0  501    0  0.00000000000E+00  0.00000000000E+00 -0.12252264146E+04  0.12252264146E+04  0.50400001928E-02 0. -1.
    10030    2    1    2    0    0  0.00000000000E+00  0.00000000000E+00 -0.63920482683E+03  0.18112480024E+04  0.16947083866E+04 0.  0.
        1    1    3    3  502    0 -0.32181691083E+03 -0.54848825717E+03  0.27891044593E+03  0.69440372207E+03  0.50400001928E-02 0. -1.
       -1    1    3    3    0  502  0.32181691083E+03  0.54848825717E+03 -0.91811527276E+03  0.11168442803E+04  0.50400001928E-02 0.  1.
</event>
<event>
 5   0  0.2785059E-04  0.1718207E+04  0.7818609E-02  0.8751048E-01
        1   -1    0    0  501    0  0.00000000000E+00  0.00000000000E+00  0.13785809321E+04  0.13785809321E+04  0.50400001928E-02 0.  1.
       -1   -1    0    0    0  501  0.00000000000E+00  0.00000000000E+00 -0.53537592349E+03  0.53537592351E+03  0.50400001928E-02 0. -1.
    10030    2    1    2    0    0  0.00000000000E+00  0.00000000000E+00  0.84320500862E+03  0.19139568556E+04  0.17182072514E+04 0.  0.
        5    1    3    3  502    0  0.50541132179E+03  0.88701468583E+02 -0.34589893858E+03  0.61885112946E+03  0.46999998093E+01 0. -1.
       -5    1    3    3    0  502 -0.50541132179E+03 -0.88701468583E+02  0.11891039472E+04  0.12951057262E+04  0.46999998093E+01 0.  1.
</event>
<event>
 5   0  0.2583422E-04  0.1689538E+04  0.7818609E-02  0.8767354E-01
        1   -1    0    0  501    0  0.00000000000E+00  0.00000000000E+00  0.52861142503E+03  0.52861142506E+03  0.50400001928E-02 0.  1.
       -1   -1    0    0    0  501  0.00000000000E+00  0.00000000000E+00 -0.13500167150E+04  0.13500167151E+04  0.50400001928E-02 0. -1.
    10030    2    1    2    0    0  0.00000000000E+00  0.00000000000E+00 -0.82140529002E+03  0.18786281401E+04  0.16895375220E+04 0.  0.
        3    1    3    3  502    0  0.21326716901E+03 -0.73797831737E+03 -0.80152164414E+03  0.11101945048E+04  0.10100000352E+00 0. -1.
       -3    1    3    3    0  502 -0.21326716901E+03  0.73797831737E+03 -0.19883645877E+02  0.76843363530E+03  0.10100000352E+00 0.  1.
</event>
<event>
 5   0  0.2561518E-04  0.1750544E+04  0.7818609E-02  0.8733051E-01
       -1   -1    0    0    0  501  0.00000000000E+00  0.00000000000E+00  0.46150790943E+03  0.46150790946E+03  0.50400001928E-02 0.  1.
        1   -1    0    0  501    0  0.00000000000E+00  0.00000000000E+00 -0.16599963912E+04  0.16599963912E+04  0.50400001928E-02 0. -1.
    10030    2    1    2    0    0  0.00000000000E+00  0.00000000000E+00 -0.11984884818E+04  0.21215043007E+04  0.17505444458E+04 0.  0.
        4    1    3    3  502    0  0.65196651886E+03  0.48940230441E+03 -0.21309334473E+03  0.84260628039E+03  0.12699999809E+01 0.  1.
       -4    1    3    3    0  502 -0.65196651886E+03 -0.48940230441E+03 -0.98539513708E+03  0.12788980203E+04  0.12699999809E+01 0. -1.
</event>
<event>
 5   0  0.2595644E-04  0.1723647E+04  0.7818609E-02  0.8747991E-01
        1   -1    0    0  501    0  0.00000000000E+00  0.00000000000E+00  0.14784124747E+04  0.14784124748E+04  0.50400001928E-02 0.  1.
       -1   -1    0    0    0  501  0.00000000000E+00  0.00000000000E+00 -0.50239022294E+03  0.50239022297E+03  0.50400001928E-02 0. -1.
    10030    2    1    2    0    0  0.00000000000E+00  0.00000000000E+00  0.97602225180E+03  0.19808026977E+04  0.17236472642E+04 0.  0.
        2    1    3    3  502    0 -0.21267965571E+03  0.83193919566E+02  0.14430075458E+04  0.14609670227E+04  0.25500000920E-02 0.  1.
       -2    1    3    3    0  502  0.21267965571E+03 -0.83193919566E+02 -0.46698529399E+03  0.51983567502E+03  0.25500000920E-02 0. -1.
</event>
<event>
 5   0  0.5021349E-04  0.1696403E+04  0.7818609E-02  0.8763419E-01
        2   -1    0    0  501    0  0.00000000000E+00  0.00000000000E+00  0.59023786258E+03  0.59023786259E+03  0.25500000920E-02 0.  1.
       -2   -1    0    0    0  501  0.00000000000E+00  0.00000000000E+00 -0.12189077972E+04  0.12189077972E+04  0.25500000920E-02 0. -1.
    10030    2    1    2    0    0  0.00000000000E+00  0.00000000000E+00 -0.62866993458E+03  0.18091456598E+04  0.16964027032E+04 0.  0.
        2    1    3    3  502    0  0.39914360046E+03 -0.15923326812E+03 -0.10942189471E+04  0.11755789857E+04  0.25500000920E-02 0. -1.
       -2    1    3    3    0  502 -0.39914360046E+03  0.15923326812E+03  0.46554901248E+03  0.63356667407E+03  0.25500000920E-02 0.  1.
</event>
<event>
 5   0  0.2785059E-04  0.1667884E+04  0.7818609E-02  0.8779896E-01
        1   -1    0    0  501    0  0.00000000000E+00  0.00000000000E+00  0.16418363437E+04  0.16418363437E+04  0.50400001928E-02 0.  1.
       -1   -1    0    0    0  501  0.00000000000E+00  0.00000000000E+00 -0.42358631205E+03  0.42358631208E+03  0.50400001928E-02 0. -1.
    10030    2    1    2    0    0  0.00000000000E+00  0.00000000000E+00  0.12182500317E+04  0.20654226558E+04  0.16678841709E+04 0.  0.
        5    1    3    3  502    0  0.36817542803E+02  0.53633343170E+02  0.16386729274E+04  0.16399704632E+04  0.46999998093E+01 0.  1.
       -5    1    3    3    0  502 -0.36817542803E+02 -0.53633343170E+02 -0.42042289575E+03  0.42545219265E+03  0.46999998093E+01 0. -1.
</event>
<event>
 5   0  0.2583422E-04  0.1728167E+04  0.7818609E-02  0.8745461E-01
       -1   -1    0    0    0  501  0.00000000000E+00  0.00000000000E+00  0.55457801703E+03  0.55457801706E+03  0.50400001928E-02 0.  1.
        1   -1    0    0  501    0  0.00000000000E+00  0.00000000000E+00 -0.13463210623E+04  0.13463210623E+04  0.50400001928E-02 0. -1.
    10030    2    1    2    0    0  0.00000000000E+00  0.00000000000E+00 -0.79174304523E+03  0.19008990793E+04  0.17281667339E+04 0.  0.
        3    1    3    3  502    0 -0.36077466379E+03 -0.73403436850E+03 -0.70243098705E+03  0.10781345528E+04  0.10100000352E+00 0. -1.
       -3    1    3    3    0  502  0.36077466379E+03  0.73403436850E+03 -0.89312058174E+02  0.82276452652E+03  0.10100000352E+00 0.  1.
</event>
<event>
 5   0  0.5021349E-04  0.1686667E+04  0.7818609E-02  0.8769006E-01
       -2   -1    0    0    0  501  0.00000000000E+00  0.00000000000E+00  0.41410079269E+03  0.41410079270E+03  0.25500000920E-02 0. -1.
        2   -1    0    0  501    0  0.00000000000E+00  0.00000000000E+00 -0.17174829934E+04  0.17174829934E+04  0.25500000920E-02 0.  1.
    10030    2    1    2    0    0  0.00000000000E+00  0.00000000000E+00 -0.13033822007E+04  0.21315837861E+04  0.16866666168E+04 0.  0.
        2    1    3    3  502    0  0.19253092963E+03 -0.22079216638E+03 -0.16511154358E+04  0.16769017628E+04  0.25500000920E-02 0.  1.
       -2    1    3    3    0  502 -0.19253092963E+03  0.22079216638E+03  0.34773323507E+03  0.45468202337E+03  0.25500000920E-02 0. -1.
</event>
<event>
 5   0  0.2595644E-04  0.1801183E+04  0.7818609E-02  0.8705671E-01
        1   -1    0    0  501    0  0.00000000000E+00  0.00000000000E+00  0.10271275691E+04  0.10271275692E+04  0.50400001928E-02 0. -1.
       -1   -1    0    0    0  501  0.00000000000E+00  0.00000000000E+00 -0.78964398926E+03  0.78964398928E+03  0.50400001928E-02 0.  1.
    10030    2    1    2    0    0  0.00000000000E+00  0.00000000000E+00  0.23748357989E+03  0.18167715584E+04  0.18011830681E+04 0.  0.
        2    1    3    3  502    0 -0.58205097997E+02  0.41028947283E+03  0.92524917029E+03  0.10138102939E+04  0.25500000920E-02 0. -1.
       -2    1    3    3    0  502  0.58205097997E+02 -0.41028947283E+03 -0.68776559040E+03  0.80296126451E+03  0.25500000920E-02 0.  1.
</event>
<event>
 5   0  0.2785059E-04  0.1683749E+04  0.7818609E-02  0.8770688E-01
        1   -1    0    0  501    0  0.00000000000E+00  0.00000000000E+00  0.17220320499E+04  0.17220320499E+04  0.50400001928E-02 0. -1.
       -1   -1    0    0    0  501  0.00000000000E+00  0.00000000000E+00 -0.41157923066E+03  0.41157923069E+03  0.50400001928E-02 0.  1.
    10030    2    1    2    0    0  0.00000000000E+00  0.00000000000E+00  0.13104528192E+04  0.21336112806E+04  0.16837489436E+04 0.  0.
        5    1    3    3  502    0  0.65434224609E+02 -0.14446917665E+03 -0.39246132582E+03  0.42332134722E+03  0.46999998093E+01 0.  1.
       -5    1    3    3    0  502 -0.65434224609E+02  0.14446917665E+03  0.17029141450E+04  0.17102899333E+04  0.46999998093E+01 0. -1.
</event>
<event>
 5   0  0.5310003E-04  0.1746502E+04  0.7818609E-02  0.8735278E-01
        2   -1    0    0  501    0  0.00000000000E+00  0.00000000000E+00  0.99549309905E+03  0.99549309905E+03  0.25500000920E-02 0.  1.
       -2   -1    0    0    0  501  0.00000000000E+00  0.00000000000E+00 -0.76601940287E+03  0.76601940287E+03  0.25500000920E-02 0. -1.
    10030    2    1    2    0    0  0.00000000000E+00  0.00000000000E+00  0.22947369618E+03  0.17615125019E+04  0.17465016797E+04 0.  0.
        1    1    3    3  502    0 -0.30378259154E+03  0.20616864787E+03  0.91387092227E+03  0.98486011031E+03  0.50400001928E-02 0.  1.
       -1    1    3    3    0  502  0.30378259154E+03 -0.20616864787E+03 -0.68439722609E+03  0.77665239161E+03  0.50400001928E-02 0. -1.
</event>
<event>
 5   0  0.5021349E-04  0.1701990E+04  0.7818609E-02  0.8760230E-01
        2   -1    0    0  501    0  0.00000000000E+00  0.00000000000E+00  0.99276563486E+03  0.99276563486E+03  0.25500000920E-02 0.  1.
       -2   -1    0    0    0  501  0.00000000000E+00  0.00000000000E+00 -0.72946984179E+03  0.72946984180E+03  0.25500000920E-02 0. -1.
    10030    2    1    2    0    0  0.00000000000E+00  0.00000000000E+00  0.26329579307E+03  0.17222354767E+04  0.17019901182E+04 0.  0.
        2    1    3    3  502    0  0.25508288481E+02 -0.17962809407E+03  0.97296773817E+03  0.98973892744E+03  0.25500000920E-02 0.  1.
       -2    1    3    3    0  502 -0.25508288481E+02  0.17962809407E+03 -0.70967194510E+03  0.73249654923E+03  0.25500000920E-02 0. -1.
</event>
<event>
 5   0  0.5198430E-04  0.1703447E+04  0.7818609E-02  0.8759401E-01
       -2   -1    0    0    0  501  0.00000000000E+00  0.00000000000E+00  0.37220874775E+03  0.37220874776E+03  0.25500000920E-02 0.  1.
        2   -1    0    0  501    0  0.00000000000E+00  0.00000000000E+00 -0.19489948657E+04  0.19489948657E+04  0.25500000920E-02 0. -1.
    10030    2    1    2    0    0  0.00000000000E+00  0.00000000000E+00 -0.15767861180E+04  0.23212036135E+04  0.17034470210E+04 0.  0.
        4    1    3    3  502    0 -0.59894030096E+03 -0.51190310705E+03 -0.12292207345E+04  0.14600546230E+04  0.12699999809E+01 0. -1.
       -4    1    3    3    0  502  0.59894030096E+03  0.51190310705E+03 -0.34756538344E+03  0.86114899047E+03  0.12699999809E+01 0.  1.
</event>
<event>
 5   0  0.5342255E-04  0.1690255E+04  0.7818609E-02  0.8766942E-01
        2   -1    0    0  501    0  0.00000000000E+00  0.00000000000E+00  0.10683040494E+04  0.10683040494E+04  0.25500000920E-02 0. -1.
       -2   -1    0    0    0  501  0.00000000000E+00  0.00000000000E+00 -0.66857389439E+03  0.66857389439E+03  0.25500000920E-02 0.  1.
    10030    2    1    2    0    0  0.00000000000E+00  0.00000000000E+00  0.39973015502E+03  0.17368779438E+04  0.16902546538E+04 0.  0.
        5    1    3    3  502    0 -0.27154777921E+03 -0.32595997557E+03 -0.55120645033E+03  0.69558518023E+03  0.46999998093E+01 0.  1.
       -5    1    3    3    0  502  0.27154777921E+03  0.32595997557E+03  0.95093660536E+03  0.10412927636E+04  0.46999998093E+01 0. -1.
</event>
<event>
 5   0  0.5198430E-04  0.1698379E+04  0.7818609E-02  0.8762289E-01
        2   -1    0    0  501    0  0.00000000000E+00  0.00000000000E+00  0.15468180378E+04  0.15468180379E+04  0.25500000920E-02 0. -1.
       -2   -1    0    0    0  501  0.00000000000E+00  0.00000000000E+00 -0.46619763747E+03  0.46619763748E+03  0.25500000920E-02 0.  1.
    10030    2    1    2    0    0  0.00000000000E+00  0.00000000000E+00  0.10806204004E+04  0.20130156753E+04  0.16983791271E+04 0.  0.
        4    1    3    3  502    0  0.63087775515E+03  0.12001367697E+03 -0.11823980932E+03  0.65298720509E+03  0.12699999809E+01 0.  1.
       -4    1    3    3    0  502 -0.63087775515E+03 -0.12001367697E+03  0.11988602097E+04  0.13600284702E+04  0.12699999809E+01 0. -1.
</event>
<event>
 5   0  0.5310003E-04  0.1735443E+04  0.7818609E-02  0.8741404E-01
        2   -1    0    0  501    0  0.00000000000E+00  0.00000000000E+00  0.17900606602E+04  0.17900606602E+04  0.25500000920E-02 0.  1.
       -2   -1    0    0    0  501  0.00000000000E+00  0.00000000000E+00 -0.42062294037E+03  0.42062294038E+03  0.25500000920E-02 0. -1.
    10030    2    1    2    0    0  0.00000000000E+00  0.00000000000E+00  0.13694377198E+04  0.22106836006E+04  0.17354429733E+04 0.  0.
        1    1    3    3  502    0 -0.39173475100E+03  0.62141653321E+03  0.12730720221E+04  0.14698050879E+04  0.50400001928E-02 0.  1.
       -1    1    3    3    0  502  0.39173475100E+03 -0.62141653321E+03  0.96365697757E+02  0.74087851273E+03  0.50400001928E-02 0. -1.
</event>
<event>
 5   0  0.2595644E-04  0.1524288E+04  0.7818609E-02  0.8868460E-01
        1   -1    0    0  501    0  0.00000000000E+00  0.00000000000E+00  0.69998007481E+03  0.69998007483E+03  0.50400001928E-02 0.  1.
       -1   -1    0    0    0  501  0.00000000000E+00  0.00000000000E+00 -0.82982849327E+03  0.82982849328E+03  0.50400001928E-02 0. -1.
    10030    2    1    2    0    0  0.00000000000E+00  0.00000000000E+00 -0.12984841845E+03  0.15298085681E+04  0.15242879135E+04 0.  0.
        2    1    3    3  502    0  0.13386774703E+03  0.45625108340E+03  0.53286530461E+03  0.71416458724E+03  0.25500000920E-02 0.  1.
       -2    1    3    3    0  502 -0.13386774703E+03 -0.45625108340E+03 -0.66271372306E+03  0.81564398088E+03  0.25500000920E-02 0. -1.
</event>
<event>
 5   0  0.5021349E-04  0.1339433E+04  0.7818609E-02  0.8998866E-01
        2   -1    0    0  501    0  0.00000000000E+00  0.00000000000E+00  0.54262535500E+03  0.54262535500E+03  0.25500000920E-02 0. -1.
       -2   -1    0    0    0  501  0.00000000000E+00  0.00000000000E+00 -0.82657433394E+03  0.82657433394E+03  0.25500000920E-02 0.  1.
    10030    2    1    2    0    0  0.00000000000E+00  0.00000000000E+00 -0.28394897894E+03  0.13691996889E+04  0.13394330015E+04 0.  0.
        2    1    3    3  502    0  0.18132941278E+03 -0.64343662336E+03 -0.10071479991E+03  0.67604327905E+03  0.25500000920E-02 0. -1.
       -2    1    3    3    0  502 -0.18132941278E+03  0.64343662336E+03 -0.18323417902E+03  0.69315640990E+03  0.25500000920E-02 0.  1.
</event>
<event>
 5   0  0.5299877E-04  0.1724957E+04  0.7818609E-02  0.8747257E-01
       -2   -1    0    0    0  501  0.00000000000E+00  0.00000000000E+00  0.70006605644E+03  0.70006605644E+03  0.25500000920E-02 0. -1.
        2   -1    0    0  501    0  0.00000000000E+00  0.00000000000E+00 -0.10625697494E+04  0.10625697494E+04  0.25500000920E-02 0.  1.
    10030    2    1    2    0    0  0.00000000000E+00  0.00000000000E+00 -0.36250369297E+03  0.17626358059E+04  0.17249568275E+04 0.  0.
        3    1    3    3  502    0  0.53816459661E+03 -0.44085006700E+03  0.33968699156E+03  0.77418161761E+03  0.10100000352E+00 0. -1.
       -3    1    3    3    0  502 -0.53816459661E+03  0.44085006700E+03 -0.70219068453E+03  0.98845418824E+03  0.10100000352E+00 0.  1.
</event>
<event>
 5   0  0.1910750E-04  0.1677401E+04  0.7818609E-02  0.8774359E-01
        4   -1    0    0  501    0  0.00000000000E+00  0.00000000000E+00  0.13189845623E+04  0.13189851737E+04  0.12699999809E+01 0. -1.
       -4   -1    0    0    0  501  0.00000000000E+00  0.00000000000E+00 -0.53330175533E+03  0.53330326751E+03  0.12699999809E+01 0.  1.
    10030    2    1    2    0    0  0.00000000000E+00  0.00000000000E+00  0.78568280696E+03  0.18522884412E+04  0.16774012628E+04 0.  0.
        2    1    3    3  502    0 -0.40589886441E+03  0.22301139132E+03 -0.37929733269E+03  0.59862712549E+03  0.25500000920E-02 0.  1.
       -2    1    3    3    0  502  0.40589886441E+03 -0.22301139132E+03  0.11649801396E+04  0.12536613157E+04  0.25500000920E-02 0. -1.
</event>
<event>
 5   0  0.5310003E-04  0.1653223E+04  0.7818609E-02  0.8788502E-01
       -2   -1    0    0    0  501  0.00000000000E+00  0.00000000000E+00  0.96162721554E+03  0.96162721554E+03  0.25500000920E-02 0. -1.
        2   -1    0    0  501    0  0.00000000000E+00  0.00000000000E+00 -0.71055240847E+03  0.71055240848E+03  0.25500000920E-02 0.  1.
    10030    2    1    2    0    0  0.00000000000E+00  0.00000000000E+00  0.25107480707E+03  0.16721796240E+04  0.16532229542E+04 0.  0.
        1    1    3    3  502    0 -0.61726249170E+03  0.53972834624E+03  0.19613810859E+02  0.82018557229E+03  0.50400001928E-02 0. -1.
       -1    1    3    3    0  502  0.61726249170E+03 -0.53972834624E+03  0.23146099621E+03  0.85199405173E+03  0.50400001928E-02 0.  1.
</event>
<event>
 5   0  0.2630135E-04  0.1744452E+04  0.7818609E-02  0.8736410E-01
       -1   -1    0    0    0  501  0.00000000000E+00  0.00000000000E+00  0.41385880929E+03  0.41385880933E+03  0.50400001928E-02 0. -1.
        1   -1    0    0  501    0  0.00000000000E+00  0.00000000000E+00 -0.18382558621E+04  0.18382558621E+04  0.50400001928E-02 0.  1.
    10030    2    1    2    0    0  0.00000000000E+00  0.00000000000E+00 -0.14243970528E+04  0.22521146714E+04  0.17444522146E+04 0.  0.
        1    1    3    3  502    0 -0.79673919285E+03 -0.18818985124E+03 -0.32367019142E+03  0.88032445972E+03  0.50400001928E-02 0. -1.
       -1    1    3    3    0  502  0.79673919285E+03  0.18818985124E+03 -0.11007268613E+04  0.13717902117E+04  0.50400001928E-02 0.  1.
</event>
<event>
 5   0  0.5021349E-04  0.1707436E+04  0.7818609E-02  0.8757135E-01
       -2   -1    0    0    0  501  0.00000000000E+00  0.00000000000E+00  0.93005872327E+03  0.93005872327E+03  0.25500000920E-02 0. -1.
        2   -1    0    0  501    0  0.00000000000E+00  0.00000000000E+00 -0.78364347994E+03  0.78364347995E+03  0.25500000920E-02 0.  1.
    10030    2    1    2    0    0  0.00000000000E+00  0.00000000000E+00  0.14641524332E+03  0.17137022032E+04  0.17074360362E+04 0.  0.
        2    1    3    3  502    0 -0.73736955973E+03 -0.28213261590E+03 -0.25282567368E+03  0.82899547758E+03  0.25500000920E-02 0.  1.
       -2    1    3    3    0  502  0.73736955973E+03  0.28213261590E+03  0.39924091700E+03  0.88470672564E+03  0.25500000920E-02 0. -1.
</event>
<event>
 5   0  0.2583422E-04  0.1723703E+04  0.7818609E-02  0.8747960E-01
       -1   -1    0    0    0  501  0.00000000000E+00  0.00000000000E+00  0.38469034448E+03  0.38469034451E+03  0.50400001928E-02 0. -1.
        1   -1    0    0  501    0  0.00000000000E+00  0.00000000000E+00 -0.19308718969E+04  0.19308718969E+04  0.50400001928E-02 0.  1.
    10030    2    1    2    0    0  0.00000000000E+00  0.00000000000E+00 -0.15461815525E+04  0.23155622414E+04  0.17237027298E+04 0.  0.
        3    1    3    3  502    0  0.49439735990E+03  0.43746974513E+03 -0.28789795331E+02  0.66078543409E+03  0.10100000352E+00 0. -1.
       -3    1    3    3    0  502 -0.49439735990E+03 -0.43746974513E+03 -0.15173917571E+04  0.16547768074E+04  0.10100000352E+00 0.  1.
</event>
<event>
 5   0  0.5342255E-04  0.1713726E+04  0.7818609E-02  0.8753574E-01
       -2   -1    0    0    0  501  0.00000000000E+00  0.00000000000E+00  0.58676179356E+03  0.58676179357E+03  0.25500000920E-02 0.  1.
        2   -1    0    0  501    0  0.00000000000E+00  0.00000000000E+00 -0.12512989688E+04  0.12512989689E+04  0.25500000920E-02 0. -1.
    10030    2    1    2    0    0  0.00000000000E+00  0.00000000000E+00 -0.66453717529E+03  0.18380607624E+04  0.17137262643E+04 0.  0.
        5    1    3    3  502    0  0.11772843749E+03 -0.58496740604E+03  0.32728163573E+03  0.68057491153E+03  0.46999998093E+01 0.  1.
       -5    1    3    3    0  502 -0.11772843749E+03  0.58496740604E+03 -0.99181881101E+03  0.11574858509E+04  0.46999998093E+01 0. -1.
</event>
<event>
 5   0  0.2561518E-04  0.1638607E+04  0.7818609E-02  0.8797175E-01
        1   -1    0    0  501    0  0.00000000000E+00  0.00000000000E+00  0.21624381132E+04  0.21624381132E+04  0.50400001928E-02 0.  1.
       -1   -1    0    0    0  501  0.00000000000E+00  0.00000000000E+00 -0.31041720765E+03  0.31041720769E+03  0.50400001928E-02 0. -1.
    10030    2    1    2    0    0  0.00000000000E+00  0.00000000000E+00  0.18520209055E+04  0.24728553209E+04  0.16386067263E+04 0.  0.
        4    1    3    3  502    0  0.16653821813E+03  0.35231048468E+03 -0.16160261556E+03  0.42187044690E+03  0.12699999809E+01 0. -1.
       -4    1    3    3    0  502 -0.16653821813E+03 -0.35231048468E+03  0.20136235211E+04  0.20509848740E+04  0.12699999809E+01 0.  1.
</event>
<event>
 5   0  0.5198430E-04  0.1701419E+04  0.7818609E-02  0.8760556E-01
        2   -1    0    0  501    0  0.00000000000E+00  0.00000000000E+00  0.52833071665E+03  0.52833071665E+03  0.25500000920E-02 0.  1.
       -2   -1    0    0    0  501  0.00000000000E+00  0.00000000000E+00 -0.13697982151E+04  0.13697982151E+04  0.25500000920E-02 0. -1.
    10030    2    1    2    0    0  0.00000000000E+00  0.00000000000E+00 -0.84146749850E+03  0.18981289318E+04  0.17014187876E+04 0.  0.
        4    1    3    3  502    0 -0.73664590640E+03  0.42548698623E+03 -0.42553127314E+03  0.95119127634E+03  0.12699999809E+01 0.  1.
       -4    1    3    3    0  502  0.73664590640E+03 -0.42548698623E+03 -0.41593622536E+03  0.94693765546E+03  0.12699999809E+01 0. -1.
</event>
<event>
 5   0  0.2630135E-04  0.1687143E+04  0.7818609E-02  0.8768731E-01
       -1   -1    0    0    0  501  0.00000000000E+00  0.00000000000E+00  0.92014837494E+03  0.92014837496E+03  0.50400001928E-02 0.  1.
        1   -1    0    0  501    0  0.00000000000E+00  0.00000000000E+00 -0.77336731642E+03  0.77336731644E+03  0.50400001928E-02 0. -1.
    10030    2    1    2    0    0  0.00000000000E+00  0.00000000000E+00  0.14678105852E+03  0.16935156914E+04  0.16871427675E+04 0.  0.
        1    1    3    3  502    0 -0.72953872007E+03  0.41232018660E+03 -0.23815338883E+02  0.83833278044E+03  0.50400001928E-02 0. -1.
       -1    1    3    3    0  502  0.72953872007E+03 -0.41232018660E+03  0.17059639740E+03  0.85518291096E+03  0.50400001928E-02 0.  1.
</event>
<event>
 5   0  0.5310003E-04  0.1724902E+04  0.7818609E-02  0.8747288E-01
       -2   -1    0    0    0  501  0.00000000000E+00  0.00000000000E+00  0.37367216375E+03  0.37367216376E+03  0.25500000920E-02 0.  1.
        2   -1    0    0  501    0  0.00000000000E+00  0.00000000000E+00 -0.19905723441E+04  0.19905723441E+04  0.25500000920E-02 0. -1.
    10030    2    1    2    0    0  0.00000000000E+00  0.00000000000E+00 -0.16169001804E+04  0.23642445079E+04  0.17249017073E+04 0.  0.
        1    1    3    3  502    0 -0.40393896200E+03 -0.14014608343E+03  0.21818199762E+03  0.48001145178E+03  0.50400001928E-02 0.  1.
       -1    1    3    3    0  502  0.40393896200E+03  0.14014608343E+03 -0.18350821780E+04  0.18842330561E+04  0.50400001928E-02 0. -1.
</event>
<event>
 5   0  0.2561518E-04  0.1406354E+04  0.7818609E-02  0.8949232E-01
        1   -1    0    0  501    0  0.00000000000E+00  0.00000000000E+00  0.94308650078E+03  0.94308650079E+03  0.50400001928E-02 0.  1.
       -1   -1    0    0    0  501  0.00000000000E+00  0.00000000000E+00 -0.52429781845E+03  0.52429781848E+03  0.50400001928E-02 0. -1.
    10030    2    1    2    0    0  0.00000000000E+00  0.00000000000E+00  0.41878868233E+03  0.14673843193E+04  0.14063544290E+04 0.  0.
        4    1    3    3  502    0  0.88335944814E+02 -0.45105385202E+03 -0.34586848642E+03  0.57522120907E+03  0.12699999809E+01 0. -1.
       -4    1    3    3    0  502 -0.88335944814E+02  0.45105385202E+03  0.76465716875E+03  0.89216311019E+03  0.12699999809E+01 0.  1.
</event>
<event>
 5   0  0.1910750E-04  0.1713642E+04  0.7818609E-02  0.8753622E-01
        3   -1    0    0  501    0  0.00000000000E+00  0.00000000000E+00  0.12776640071E+04  0.12776640111E+04  0.10100000352E+00 0.  1.
       -3   -1    0    0    0  501  0.00000000000E+00  0.00000000000E+00 -0.57459692530E+03  0.57459693418E+03  0.10100000352E+00 0. -1.
    10030    2    1    2    0    0  0.00000000000E+00  0.00000000000E+00  0.70306708183E+03  0.18522609453E+04  0.17136415284E+04 0.  0.
        5    1    3    3  502    0 -0.38283234993E+03  0.37868994330E+03 -0.36882467892E+03  0.65270239397E+03  0.46999998093E+01 0. -1.
       -5    1    3    3    0  502  0.38283234993E+03 -0.37868994330E+03  0.10718917607E+04  0.11995585513E+04  0.46999998093E+01 0.  1.
</event>
<event>
 5   0  0.5299877E-04  0.1684046E+04  0.7818609E-02  0.8770516E-01
        2   -1    0    0  501    0  0.00000000000E+00  0.00000000000E+00  0.10135392879E+04  0.10135392879E+04  0.25500000920E-02 0.  1.
       -2   -1    0    0    0  501  0.00000000000E+00  0.00000000000E+00 -0.69953158582E+03  0.69953158583E+03  0.25500000920E-02 0. -1.
    10030    2    1    2    0    0  0.00000000000E+00  0.00000000000E+00  0.31400770208E+03  0.17130708737E+04  0.16840460152E+04 0.  0.
        3    1    3    3  502    0  0.69312091585E+03 -0.11527256939E+02  0.64320955640E+03  0.94565745664E+03  0.10100000352E+00 0.  1.
       -3    1    3    3    0  502 -0.69312091585E+03  0.11527256939E+02 -0.32920185433E+03  0.76741341709E+03  0.10100000352E+00 0. -1.
</event>
<event>
 5   0  0.2583422E-04  0.1727950E+04  0.7818609E-02  0.8745582E-01
       -1   -1    0    0    0  501  0.00000000000E+00  0.00000000000E+00  0.77649672024E+03  0.77649672025E+03  0.50400001928E-02 0. -1.
        1   -1    0    0  501    0  0.00000000000E+00  0.00000000000E+00 -0.96130878913E+03  0.96130878914E+03  0.50400001928E-02 0.  1.
    10030    2    1    2    0    0  0.00000000000E+00  0.00000000000E+00 -0.18481206889E+03  0.17378055094E+04  0.17279503719E+04 0.  0.
        3    1    3    3  502    0  0.41014639990E+03 -0.74211204501E+03 -0.25919142447E+03  0.88664004050E+03  0.10100000352E+00 0. -1.
       -3    1    3    3    0  502 -0.41014639990E+03  0.74211204501E+03  0.74379355578E+02  0.85116546889E+03  0.10100000352E+00 0.  1.
</event>
<event>
 5   0  0.5310003E-04  0.1706055E+04  0.7818609E-02  0.8757918E-01
       -2   -1    0    0    0  501  0.00000000000E+00  0.00000000000E+00  0.57750032453E+03  0.57750032454E+03  0.25500000920E-02 0.  1.
        2   -1    0    0  501    0  0.00000000000E+00  0.00000000000E+00 -0.12600100337E+04  0.12600100337E+04  0.25500000920E-02 0. -1.
    10030    2    1    2    0    0  0.00000000000E+00  0.00000000000E+00 -0.68250970920E+03  0.18375103583E+04  0.17060553372E+04 0.  0.
        1    1    3    3  502    0 -0.39670369473E+03  0.17920623810E+03 -0.11313791540E+04  0.12122324395E+04  0.50400001928E-02 0. -1.
       -1    1    3    3    0  502  0.39670369473E+03 -0.17920623810E+03  0.44886944482E+03  0.62527791878E+03  0.50400001928E-02 0.  1.
</event>
<event>
 5   0  0.2561518E-04  0.1694715E+04  0.7818609E-02  0.8764384E-01
       -1   -1    0    0    0  501  0.00000000000E+00  0.00000000000E+00  0.11705073812E+04  0.11705073812E+04  0.50400001928E-02 0.  1.
        1   -1    0    0  501    0  0.00000000000E+00  0.00000000000E+00 -0.61342198126E+03  0.61342198128E+03  0.50400001928E-02 0. -1.
    10030    2    1    2    0    0  0.00000000000E+00  0.00000000000E+00  0.55708539993E+03  0.17839293625E+04  0.16947152644E+04 0.  0.
        4    1    3    3  502    0  0.68010803933E+03 -0.10592628516E+03 -0.24168642352E+03  0.72950754846E+03  0.12699999809E+01 0. -1.
       -4    1    3    3    0  502 -0.68010803933E+03  0.10592628516E+03  0.79877182345E+03  0.10544218140E+04  0.12699999809E+01 0.  1.
</event>
<event>
 5   0  0.5299877E-04  0.1689505E+04  0.7818609E-02  0.8767373E-01
        2   -1    0    0  501    0  0.00000000000E+00  0.00000000000E+00  0.80342691084E+03  0.80342691085E+03  0.25500000920E-02 0. -1.
       -2   -1    0    0    0  501  0.00000000000E+00  0.00000000000E+00 -0.88820419261E+03  0.88820419261E+03  0.25500000920E-02 0.  1.
    10030    2    1    2    0    0  0.00000000000E+00  0.00000000000E+00 -0.84777281767E+02  0.16916311035E+04  0.16895054314E+04 0.  0.
        3    1    3    3  502    0 -0.12762137069E+03  0.60807790988E+02 -0.87627641255E+03  0.88760642353E+03  0.10100000352E+00 0.  1.
       -3    1    3    3    0  502  0.12762137069E+03 -0.60807790988E+02  0.79149913078E+03  0.80402467993E+03  0.10100000352E+00 0. -1.
</event>
<event>
 5   0  0.2561518E-04  0.1324801E+04  0.7818609E-02  0.9010126E-01
       -1   -1    0    0    0  501  0.00000000000E+00  0.00000000000E+00  0.70994083962E+03  0.70994083964E+03  0.50400001928E-02 0.  1.
        1   -1    0    0  501    0  0.00000000000E+00  0.00000000000E+00 -0.61804386211E+03  0.61804386214E+03  0.50400001928E-02 0. -1.
    10030    2    1    2    0    0  0.00000000000E+00  0.00000000000E+00  0.91896977509E+02  0.13279847018E+04  0.13248012355E+04 0.  0.
        4    1    3    3  502    0  0.98704962833E+01  0.15302376197E+03 -0.60000613926E+03  0.61929207848E+03  0.12699999809E+01 0. -1.
       -4    1    3    3    0  502 -0.98704962833E+01 -0.15302376197E+03  0.69190311677E+03  0.70869262330E+03  0.12699999809E+01 0.  1.
</event>
<event>
 5   0  0.2785059E-04  0.1688635E+04  0.7818609E-02  0.8767873E-01
       -1   -1    0    0    0  501  0.00000000000E+00  0.00000000000E+00  0.83261008472E+03  0.83261008473E+03  0.50400001928E-02 0. -1.
        1   -1    0    0  501    0  0.00000000000E+00  0.00000000000E+00 -0.85618993807E+03  0.85618993809E+03  0.50400001928E-02 0.  1.
    10030    2    1    2    0    0  0.00000000000E+00  0.00000000000E+00 -0.23579853354E+02  0.16888000228E+04  0.16886353981E+04 0.  0.
        5    1    3    3  502    0  0.44552086874E+03 -0.13380302614E+03  0.69287665871E+03  0.83456111129E+03  0.46999998093E+01 0. -1.
       -5    1    3    3    0  502 -0.44552086874E+03  0.13380302614E+03 -0.71645651207E+03  0.85423891153E+03  0.46999998093E+01 0.  1.
</event>
<event>
 5   0  0.2561518E-04  0.1710966E+04  0.7818609E-02  0.8755135E-01
        1   -1    0    0  501    0  0.00000000000E+00  0.00000000000E+00  0.20436070899E+04  0.20436070900E+04  0.50400001928E-02 0.  1.
       -1   -1    0    0    0  501  0.00000000000E+00  0.00000000000E+00 -0.35811720507E+03  0.35811720510E+03  0.50400001928E-02 0. -1.
    10030    2    1    2    0    0  0.00000000000E+00  0.00000000000E+00  0.16854898849E+04  0.24017242951E+04  0.17109656447E+04 0.  0.
        4    1    3    3  502    0 -0.20150870172E+03  0.78830182697E+03  0.12136675900E+04  0.14611694492E+04  0.12699999809E+01 0.  1.
       -4    1    3    3    0  502  0.20150870172E+03 -0.78830182697E+03  0.47182229489E+03  0.94055484589E+03  0.12699999809E+01 0. -1.
</event>
<event>
 5   0  0.2583422E-04  0.1691418E+04  0.7818609E-02  0.8766274E-01
       -1   -1    0    0    0  501  0.00000000000E+00  0.00000000000E+00  0.15576912384E+04  0.15576912384E+04  0.50400001928E-02 0. -1.
        1   -1    0    0  501    0  0.00000000000E+00  0.00000000000E+00 -0.45915629434E+03  0.45915629437E+03  0.50400001928E-02 0.  1.
    10030    2    1    2    0    0  0.00000000000E+00  0.00000000000E+00  0.10985349441E+04  0.20168475328E+04  0.16914180285E+04 0.  0.
        3    1    3    3  502    0 -0.11616826424E+03  0.81432763026E+03  0.78353446591E+03  0.11360241302E+04  0.10100000352E+00 0. -1.
       -3    1    3    3    0  502  0.11616826424E+03 -0.81432763026E+03  0.31500047815E+03  0.88082340254E+03  0.10100000352E+00 0.  1.
</event>
<event>
 5   0  0.5021349E-04  0.1639299E+04  0.7818609E-02  0.8796762E-01
        2   -1    0    0  501    0  0.00000000000E+00  0.00000000000E+00  0.13892452936E+04  0.13892452936E+04  0.25500000920E-02 0. -1.
       -2   -1    0    0    0  501  0.00000000000E+00  0.00000000000E+00 -0.48359023261E+03  0.48359023261E+03  0.25500000920E-02 0.  1.
    10030    2    1    2    0    0  0.00000000000E+00  0.00000000000E+00  0.90565506097E+03  0.18728355262E+04  0.16392991852E+04 0.  0.
        2    1    3    3  502    0 -0.34145401859E+03  0.52644852045E+03 -0.14963690984E+03  0.64508146484E+03  0.25500000920E-02 0.  1.
       -2    1    3    3    0  502  0.34145401859E+03 -0.52644852045E+03  0.10552919708E+04  0.12277540613E+04  0.25500000920E-02 0. -1.
</event>
<event>
 5   0  0.5198430E-04  0.1699815E+04  0.7818609E-02  0.8761470E-01
        2   -1    0    0  501    0  0.00000000000E+00  0.00000000000E+00  0.61198578482E+03  0.61198578483E+03  0.25500000920E-02 0. -1.
       -2   -1    0    0    0  501  0.00000000000E+00  0.00000000000E+00 -0.11803255212E+04  0.11803255212E+04  0.25500000920E-02 0.  1.
    10030    2    1    2    0    0  0.00000000000E+00  0.00000000000E+00 -0.56833973640E+03  0.17923113061E+04  0.16998146257E+04 0.  0.
        4    1    3    3  502    0  0.67529450503E+01 -0.75323604398E+03  0.13086119838E+03  0.76454980633E+03  0.12699999809E+01 0. -1.
       -4    1    3    3    0  502 -0.67529450503E+01  0.75323604398E+03 -0.69920093478E+03  0.10277614997E+04  0.12699999809E+01 0.  1.
</event>
<event>
 5   0  0.5342255E-04  0.1691862E+04  0.7818609E-02  0.8766019E-01
        2   -1    0    0  501    0  0.00000000000E+00  0.00000000000E+00  0.10500576469E+04  0.10500576469E+04  0.25500000920E-02 0. -1.
       -2   -1    0    0    0  501  0.00000000000E+00  0.00000000000E+00 -0.68148605577E+03  0.68148605578E+03  0.25500000920E-02 0.  1.
    10030    2    1    2    0    0  0.00000000000E+00  0.00000000000E+00  0.36857159113E+03  0.17315437027E+04  0.16918624579E+04 0.  0.
        5    1    3    3  502    0  0.16585611956E+03  0.79217042743E+03 -0.67524109467E+02  0.81217229320E+03  0.46999998093E+01 0.  1.
       -5    1    3    3    0  502 -0.16585611956E+03 -0.79217042743E+03  0.43609570060E+03  0.91937140948E+03  0.46999998093E+01 0. -1.
</event>
<event>
 5   0  0.5342255E-04  0.1812770E+04  0.7818609E-02  0.8699538E-01
        2   -1    0    0  501    0  0.00000000000E+00  0.00000000000E+00  0.11310273906E+04  0.11310273906E+04  0.25500000920E-02 0. -1.
       -2   -1    0    0    0  501  0.00000000000E+00  0.00000000000E+00 -0.72636069277E+03  0.72636069277E+03  0.25500000920E-02 0.  1.
    10030    2    1    2    0    0  0.00000000000E+00  0.00000000000E+00  0.40466669787E+03  0.18573880834E+04  0.18127700781E+04 0.  0.
        5    1    3    3  502    0 -0.30639376621E+03 -0.84690895141E+03  0.30672245989E+03  0.95143715996E+03  0.46999998093E+01 0.  1.
       -5    1    3    3    0  502  0.30639376621E+03  0.84690895141E+03  0.97944237975E+02  0.90595092345E+03  0.46999998093E+01 0. -1.
</event>
<event>
 5   0  0.2561518E-04  0.1718638E+04  0.7818609E-02  0.8750805E-01
       -1   -1    0    0    0  501  0.00000000000E+00  0.00000000000E+00  0.10800799171E+04  0.10800799171E+04  0.50400001928E-02 0. -1.
        1   -1    0    0  501    0  0.00000000000E+00  0.00000000000E+00 -0.68368044845E+03  0.68368044847E+03  0.50400001928E-02 0.  1.
    10030    2    1    2    0    0  0.00000000000E+00  0.00000000000E+00  0.39639946869E+03  0.17637603656E+04  0.17186384403E+04 0.  0.
        4    1    3    3  502    0  0.47315869690E+03  0.55820945165E+03 -0.26412871442E+03  0.77797335112E+03  0.12699999809E+01 0.  1.
       -4    1    3    3    0  502 -0.47315869690E+03 -0.55820945165E+03  0.66052818311E+03  0.98578701450E+03  0.12699999809E+01 0. -1.
</event>
<event>
 5   0  0.2630135E-04  0.1720248E+04  0.7818609E-02  0.8749900E-01
        1   -1    0    0  501    0  0.00000000000E+00  0.00000000000E+00  0.16230198953E+04  0.16230198953E+04  0.50400001928E-02 0.  1.
       -1   -1    0    0    0  501  0.00000000000E+00  0.00000000000E+00 -0.45582527293E+03  0.45582527296E+03  0.50400001928E-02 0. -1.
    10030    2    1    2    0    0  0.00000000000E+00  0.00000000000E+00  0.11671946224E+04  0.20788451683E+04  0.17202482226E+04 0.  0.
        1    1    3    3  502    0 -0.62035502063E+03 -0.90468531476E+02  0.12952423406E+04  0.14389849297E+04  0.50400001928E-02 0.  1.
       -1    1    3    3    0  502  0.62035502063E+03  0.90468531476E+02 -0.12804771823E+03  0.63986023863E+03  0.50400001928E-02 0. -1.
</event>
<event>
 5   0  0.5299877E-04  0.1705591E+04  0.7818609E-02  0.8758182E-01
       -2   -1    0    0    0  501  0.00000000000E+00  0.00000000000E+00  0.10249656260E+04  0.10249656260E+04  0.25500000920E-02 0. -1.
        2   -1    0    0  501    0  0.00000000000E+00  0.00000000000E+00 -0.70954599367E+03  0.70954599367E+03  0.25500000920E-02 0.  1.
    10030    2    1    2    0    0  0.00000000000E+00  0.00000000000E+00  0.31541963233E+03  0.17345116197E+04  0.17055911041E+04 0.  0.
        3    1    3    3  502    0  0.10931414860E+03  0.74575409780E+03 -0.24800538865E+03  0.79347680525E+03  0.10100000352E+00 0.  1.
       -3    1    3    3    0  502 -0.10931414860E+03 -0.74575409780E+03  0.56342502098E+03  0.94103481442E+03  0.10100000352E+00 0. -1.
</event>
<event>
 5   0  0.5310003E-04  0.1711549E+04  0.7818609E-02  0.8754805E-01
        2   -1    0    0  501    0  0.00000000000E+00  0.00000000000E+00  0.34575146878E+03  0.34575146879E+03  0.25500000920E-02 0.  1.
       -2   -1    0    0    0  501  0.00000000000E+00  0.00000000000E+00 -0.21181389582E+04  0.21181389582E+04  0.25500000920E-02 0. -1.
    10030    2    1    2    0    0  0.00000000000E+00  0.00000000000E+00 -0.17723874894E+04  0.24638904270E+04  0.17115486039E+04 0.  0.
        1    1    3    3  502    0  0.92139756805E+02 -0.16675990306E+03  0.31483306475E+03  0.36799247103E+03  0.50400001928E-02 0.  1.
       -1    1    3    3    0  502 -0.92139756805E+02  0.16675990306E+03 -0.20872205542E+04  0.20958979560E+04  0.50400001928E-02 0. -1.
</event>
<event>
 5   0  0.1910750E-04  0.1659898E+04  0.7818609E-02  0.8784572E-01
       -3   -1    0    0    0  501  0.00000000000E+00  0.00000000000E+00  0.66785965347E+03  0.66785966110E+03  0.10100000352E+00 0. -1.
        3   -1    0    0  501    0  0.00000000000E+00  0.00000000000E+00 -0.10313772921E+04  0.10313772970E+04  0.10100000352E+00 0.  1.
    10030    2    1    2    0    0  0.00000000000E+00  0.00000000000E+00 -0.36351763861E+03  0.16992369581E+04  0.16598979385E+04 0.  0.
        3    1    3    3  502    0  0.64762119259E+02  0.26119737044E+03 -0.98547525055E+03  0.10215574766E+04  0.10100000352E+00 0.  1.
       -3    1    3    3    0  502 -0.64762119259E+02 -0.26119737044E+03  0.62195761193E+03  0.67767948150E+03  0.10100000352E+00 0. -1.
</event>
<event>
 5   0  0.5342255E-04  0.1701911E+04  0.7818609E-02  0.8760275E-01
       -2   -1    0    0    0  501  0.00000000000E+00  0.00000000000E+00  0.27368702247E+03  0.27368702249E+03  0.25500000920E-02 0. -1.
        2   -1    0    0  501    0  0.00000000000E+00  0.00000000000E+00 -0.26458166234E+04  0.26458166234E+04  0.25500000920E-02 0.  1.
    10030    2    1    2    0    0  0.00000000000E+00  0.00000000000E+00 -0.23721296009E+04  0.29195036459E+04  0.17019114826E+04 0.  0.
        5    1    3    3  502    0 -0.75252733516E+03 -0.26009670659E+03 -0.17011382006E+04  0.18782547630E+04  0.46999998093E+01 0.  1.
       -5    1    3    3    0  502  0.75252733516E+03  0.26009670659E+03 -0.67099140032E+03  0.10412488829E+04  0.46999998093E+01 0. -1.
</event>
<event>
 5   0  0.2583422E-04  0.1668118E+04  0.7818609E-02  0.8779759E-01
       -1   -1    0    0    0  501  0.00000000000E+00  0.00000000000E+00  0.61997067113E+03  0.61997067115E+03  0.50400001928E-02 0. -1.
        1   -1    0    0  501    0  0.00000000000E+00  0.00000000000E+00 -0.11220768379E+04  0.11220768379E+04  0.50400001928E-02 0.  1.
    10030    2    1    2    0    0  0.00000000000E+00  0.00000000000E+00 -0.50210616673E+03  0.17420475090E+04  0.16681183774E+04 0.  0.
        3    1    3    3  502    0  0.24146358925E+03  0.28076509193E+03 -0.10315171069E+04  0.10959750243E+04  0.10100000352E+00 0.  1.
       -3    1    3    3    0  502 -0.24146358925E+03 -0.28076509193E+03  0.52941094017E+03  0.64607248475E+03  0.10100000352E+00 0. -1.
</event>
<event>
 5   0  0.5021349E-04  0.1658829E+04  0.7818609E-02  0.8785200E-01
       -2   -1    0    0    0  501  0.00000000000E+00  0.00000000000E+00  0.52001409269E+03  0.52001409270E+03  0.25500000920E-02 0. -1.
        2   -1    0    0  501    0  0.00000000000E+00  0.00000000000E+00 -0.13229035313E+04  0.13229035313E+04  0.25500000920E-02 0.  1.
    10030    2    1    2    0    0  0.00000000000E+00  0.00000000000E+00 -0.80288943863E+03  0.18429176240E+04  0.16588290805E+04 0.  0.
        2    1    3    3  502    0 -0.60522259189E+03 -0.21236761983E+03 -0.98566767806E+03  0.11759826373E+04  0.25500000920E-02 0.  1.
       -2    1    3    3    0  502  0.60522259189E+03  0.21236761983E+03  0.18277823943E+03  0.66693498671E+03  0.25500000920E-02 0. -1.
</event>
<event>
 5   0  0.2630135E-04  0.1708811E+04  0.7818609E-02  0.8756355E-01
       -1   -1    0    0    0  501  0.00000000000E+00  0.00000000000E+00  0.65115649643E+03  0.65115649645E+03  0.50400001928E-02 0. -1.
        1   -1    0    0  501    0  0.00000000000E+00  0.00000000000E+00 -0.11210952152E+04  0.11210952152E+04  0.50400001928E-02 0.  1.
    10030    2    1    2    0    0  0.00000000000E+00  0.00000000000E+00 -0.46993871875E+03  0.17722517116E+04  0.17088106185E+04 0.  0.
        1    1    3    3  502    0  0.11060257902E+03  0.29923671817E+03  0.58706847144E+03  0.66815038290E+03  0.50400001928E-02 0. -1.
       -1    1    3    3    0  502 -0.11060257902E+03 -0.29923671817E+03 -0.10570071902E+04  0.11041013287E+04  0.50400001928E-02 0.  1.
</event>
<event>
 5   0  0.5299877E-04  0.1687162E+04  0.7818609E-02  0.8768720E-01
        2   -1    0    0  501    0  0.00000000000E+00  0.00000000000E+00  0.12617937319E+04  0.12617937319E+04  0.25500000920E-02 0.  1.
       -2   -1    0    0    0  501  0.00000000000E+00  0.00000000000E+00 -0.56398224061E+03  0.56398224062E+03  0.25500000920E-02 0. -1.
    10030    2    1    2    0    0  0.00000000000E+00  0.00000000000E+00  0.69781149132E+03  0.18257759726E+04  0.16871624180E+04 0.  0.
        3    1    3    3  502    0 -0.74051553093E+03  0.33472903224E+03  0.10398766336E+03  0.81928030668E+03  0.10100000352E+00 0. -1.
       -3    1    3    3    0  502  0.74051553093E+03 -0.33472903224E+03  0.59382382796E+03  0.10064956659E+04  0.10100000352E+00 0.  1.
</event>
<event>
 5   0  0.5021349E-04  0.1699725E+04  0.7818609E-02  0.8761521E-01
       -2   -1    0    0    0  501  0.00000000000E+00  0.00000000000E+00  0.10320423064E+04  0.10320423064E+04  0.25500000920E-02 0.  1.
        2   -1    0    0  501    0  0.00000000000E+00  0.00000000000E+00 -0.69984167658E+03  0.69984167659E+03  0.25500000920E-02 0. -1.
    10030    2    1    2    0    0  0.00000000000E+00  0.00000000000E+00  0.33220062983E+03  0.17318839830E+04  0.16997249401E+04 0.  0.
        2    1    3    3  502    0 -0.71672224068E+03 -0.18079266899E+03 -0.26122641055E+03  0.78397448748E+03  0.25500000920E-02 0.  1.
       -2    1    3    3    0  502  0.71672224068E+03  0.18079266899E+03  0.59342704038E+03  0.94790949552E+03  0.25500000920E-02 0. -1.
</event>
<event>
 5   0  0.2630135E-04  0.1618680E+04  0.7818609E-02  0.8809154E-01
        1   -1    0    0  501    0  0.00000000000E+00  0.00000000000E+00  0.62125013376E+03  0.62125013378E+03  0.50400001928E-02 0. -1.
       -1   -1    0    0    0  501  0.00000000000E+00  0.00000000000E+00 -0.10543757593E+04  0.10543757593E+04  0.50400001928E-02 0.  1.
    10030    2    1    2    0    0  0.00000000000E+00  0.00000000000E+00 -0.43312562551E+03  0.16756258931E+04  0.16186798096E+04 0.  0.
        1    1    3    3  502    0  0.38303378086E+03  0.54202890758E+02  0.51934664959E+03  0.64759074508E+03  0.50400001928E-02 0. -1.
       -1    1    3    3    0  502 -0.38303378086E+03 -0.54202890758E+02 -0.95247227510E+03  0.10280351480E+04  0.50400001928E-02 0.  1.
</event>
<event>
 5   0  0.5342255E-04  0.1714532E+04  0.7818609E-02  0.8753120E-01
        2   -1    0    0  501    0  0.00000000000E+00  0.00000000000E+00  0.22521443059E+04  0.22521443059E+04  0.25500000920E-02 0.  1.
       -2   -1    0    0    0  501  0.00000000000E+00  0.00000000000E+00 -0.32631333335E+03  0.32631333336E+03  0.25500000920E-02 0. -1.
    10030    2    1    2    0    0  0.00000000000E+00  0.00000000000E+00  0.19258309725E+04  0.25784576392E+04  0.17145316744E+04 0.  0.
        5    1    3    3  502    0 -0.23616129624E+02 -0.85325053860E+03  0.84365808462E+03  0.12001563469E+04  0.46999998093E+01 0. -1.
       -5    1    3    3    0  502  0.23616129624E+02  0.85325053860E+03  0.10821728879E+04  0.13783012924E+04  0.46999998093E+01 0.  1.
</event>
<event>
 5   0  0.5021349E-04  0.1706131E+04  0.7818609E-02  0.8757875E-01
       -2   -1    0    0    0  501  0.00000000000E+00  0.00000000000E+00  0.63034764067E+03  0.63034764067E+03  0.25500000920E-02 0.  1.
        2   -1    0    0  501    0  0.00000000000E+00  0.00000000000E+00 -0.11544749045E+04  0.11544749045E+04  0.25500000920E-02 0. -1.
    10030    2    1    2    0    0  0.00000000000E+00  0.00000000000E+00 -0.52412726378E+03  0.17848225451E+04  0.17061307479E+04 0.  0.
        2    1    3    3  502    0  0.36293909473E+03 -0.74905089530E+03 -0.45754732508E+03  0.94981660594E+03  0.25500000920E-02 0. -1.
       -2    1    3    3    0  502 -0.36293909473E+03  0.74905089530E+03 -0.66579938705E+02  0.83500593918E+03  0.25500000920E-02 0.  1.
</event>
<event>
 5   0  0.5342255E-04  0.1642829E+04  0.7818609E-02  0.8794660E-01
        2   -1    0    0  501    0  0.00000000000E+00  0.00000000000E+00  0.61594119526E+03  0.61594119527E+03  0.25500000920E-02 0. -1.
       -2   -1    0    0    0  501  0.00000000000E+00  0.00000000000E+00 -0.10954327364E+04  0.10954327364E+04  0.25500000920E-02 0.  1.
    10030    2    1    2    0    0  0.00000000000E+00  0.00000000000E+00 -0.47949154112E+03  0.17113739316E+04  0.16428294482E+04 0.  0.
        5    1    3    3  502    0 -0.63487123625E+03 -0.34683781179E+02  0.30198607982E+03  0.70390491807E+03  0.46999998093E+01 0. -1.
       -5    1    3    3    0  502  0.63487123625E+03  0.34683781179E+02 -0.78147762094E+03  0.10074690136E+04  0.46999998093E+01 0.  1.
</event>
<event>
 5   0  0.2630135E-04  0.1676642E+04  0.7818609E-02  0.8774799E-01
       -1   -1    0    0    0  501  0.00000000000E+00  0.00000000000E+00  0.52078715256E+03  0.52078715258E+03  0.50400001928E-02 0.  1.
        1   -1    0    0  501    0  0.00000000000E+00  0.00000000000E+00 -0.13494616526E+04  0.13494616526E+04  0.50400001928E-02 0. -1.
    10030    2    1    2    0    0  0.00000000000E+00  0.00000000000E+00 -0.82867450000E+03  0.18702488052E+04  0.16766422296E+04 0.  0.
        1    1    3    3  502    0  0.76195365390E+03 -0.24540731997E+03 -0.69205227328E+03  0.10581750670E+04  0.50400001928E-02 0. -1.
       -1    1    3    3    0  502 -0.76195365390E+03  0.24540731997E+03 -0.13662222673E+03  0.81207373819E+03  0.50400001928E-02 0.  1.
</event>
<event>
 5   0  0.5198430E-04  0.1697892E+04  0.7818609E-02  0.8762567E-01
        2   -1    0    0  501    0  0.00000000000E+00  0.00000000000E+00  0.30196745172E+04  0.30196745172E+04  0.25500000920E-02 0. -1.
       -2   -1    0    0    0  501  0.00000000000E+00  0.00000000000E+00 -0.23867124889E+03  0.23867124890E+03  0.25500000920E-02 0.  1.
    10030    2    1    2    0    0  0.00000000000E+00  0.00000000000E+00  0.27810032683E+04  0.32583457661E+04  0.16978922089E+04 0.  0.
        4    1    3    3  502    0  0.42089182448E+03 -0.42636130002E+03  0.23623611486E+03  0.64400543549E+03  0.12699999809E+01 0.  1.
       -4    1    3    3    0  502 -0.42089182448E+03  0.42636130002E+03  0.25447671534E+04  0.26143403306E+04  0.12699999809E+01 0. -1.
</event>
<event>
 5   0  0.5299877E-04  0.1688794E+04  0.7818609E-02  0.8767781E-01
       -2   -1    0    0    0  501  0.00000000000E+00  0.00000000000E+00  0.61360249346E+03  0.61360249347E+03  0.25500000920E-02 0. -1.
        2   -1    0    0  501    0  0.00000000000E+00  0.00000000000E+00 -0.11620005984E+04  0.11620005984E+04  0.25500000920E-02 0.  1.
    10030    2    1    2    0    0  0.00000000000E+00  0.00000000000E+00 -0.54839810495E+03  0.17756030919E+04  0.16887942025E+04 0.  0.
        3    1    3    3  502    0 -0.38162268191E+03  0.73731171955E+03 -0.11219423973E+03  0.83776607759E+03  0.10100000352E+00 0. -1.
       -3    1    3    3    0  502  0.38162268191E+03 -0.73731171955E+03 -0.43620386522E+03  0.93783701429E+03  0.10100000352E+00 0.  1.
</event>
<event>
 5   0  0.5342255E-04  0.1962135E+04  0.7818609E-02  0.8624531E-01
        2   -1    0    0  501    0  0.00000000000E+00  0.00000000000E+00  0.12993752720E+04  0.12993752720E+04  0.25500000920E-02 0.  1.
       -2   -1    0    0    0  501  0.00000000000E+00  0.00000000000E+00 -0.74073549856E+03  0.74073549857E+03  0.25500000920E-02 0. -1.
    10030    2    1    2    0    0  0.00000000000E+00  0.00000000000E+00  0.55863977342E+03  0.20401107706E+04  0.19621349494E+04 0.  0.
        5    1    3    3  502    0 -0.62858542405E+03  0.53119919237E+03 -0.27592390205E+03  0.86801400163E+03  0.46999998093E+01 0. -1.
       -5    1    3    3    0  502  0.62858542405E+03 -0.53119919237E+03  0.83456367548E+03  0.11720967689E+04  0.46999998093E+01 0.  1.
</event>
<event>
 5   0  0.5299877E-04  0.1677420E+04  0.7818609E-02  0.8774348E-01
        2   -1    0    0  501    0  0.00000000000E+00  0.00000000000E+00  0.83139376855E+03  0.83139376856E+03  0.25500000920E-02 0. -1.
       -2   -1    0    0    0  501  0.00000000000E+00  0.00000000000E+00 -0.84609087503E+03  0.84609087504E+03  0.25500000920E-02 0.  1.
    10030    2    1    2    0    0  0.00000000000E+00  0.00000000000E+00 -0.14697106479E+02  0.16774846436E+04  0.16774202588E+04 0.  0.
        3    1    3    3  502    0 -0.11286284253E+03  0.81163224634E+03  0.17140322753E+03  0.83717620674E+03  0.10100000352E+00 0. -1.
       -3    1    3    3    0  502  0.11286284253E+03 -0.81163224634E+03 -0.18610033400E+03  0.84030843685E+03  0.10100000352E+00 0.  1.
</event>
<event>
 5   0  0.2583422E-04  0.1688373E+04  0.7818609E-02  0.8768024E-01
        1   -1    0    0  501    0  0.00000000000E+00  0.00000000000E+00  0.67349406911E+03  0.67349406913E+03  0.50400001928E-02 0. -1.
       -1   -1    0    0    0  501  0.00000000000E+00  0.00000000000E+00 -0.10581394524E+04  0.10581394524E+04  0.50400001928E-02 0.  1.
    10030    2    1    2    0    0  0.00000000000E+00  0.00000000000E+00 -0.38464538326E+03  0.17316335215E+04  0.16883727616E+04 0.  0.
        3    1    3    3  502    0 -0.17115793966E+03 -0.98357595861E+02 -0.10341343165E+04  0.10528072244E+04  0.10100000352E+00 0.  1.
       -3    1    3    3    0  502  0.17115793966E+03  0.98357595861E+02  0.64948893327E+03  0.67882629709E+03  0.10100000352E+00 0. -1.
</event>
<event>
 5   0  0.2583422E-04  0.1713728E+04  0.7818609E-02  0.8753573E-01
       -1   -1    0    0    0  501  0.00000000000E+00  0.00000000000E+00  0.64698143958E+03  0.64698143960E+03  0.50400001928E-02 0.  1.
        1   -1    0    0  501    0  0.00000000000E+00  0.00000000000E+00 -0.11348332009E+04  0.11348332009E+04  0.50400001928E-02 0. -1.
    10030    2    1    2    0    0  0.00000000000E+00  0.00000000000E+00 -0.48785176132E+03  0.17818146405E+04  0.17137281208E+04 0.  0.
        3    1    3    3  502    0 -0.25694752618E+02 -0.68222341135E+02 -0.11316029919E+04  0.11339487862E+04  0.10100000352E+00 0. -1.
       -3    1    3    3    0  502  0.25694752618E+02  0.68222341135E+02  0.64375123059E+03  0.64786585435E+03  0.10100000352E+00 0.  1.
</event>
<event>
 5   0  0.5198430E-04  0.1770360E+04  0.7818609E-02  0.8722222E-01
       -2   -1    0    0    0  501  0.00000000000E+00  0.00000000000E+00  0.67133772471E+03  0.67133772472E+03  0.25500000920E-02 0. -1.
        2   -1    0    0  501    0  0.00000000000E+00  0.00000000000E+00 -0.11671382320E+04  0.11671382320E+04  0.25500000920E-02 0.  1.
    10030    2    1    2    0    0  0.00000000000E+00  0.00000000000E+00 -0.49580050733E+03  0.18384759568E+04  0.17703603307E+04 0.  0.
        4    1    3    3  502    0 -0.22208262319E+03 -0.73012704391E+03  0.21783736643E+03  0.79363777813E+03  0.12699999809E+01 0. -1.
       -4    1    3    3    0  502  0.22208262319E+03  0.73012704391E+03 -0.71363787376E+03  0.10448381786E+04  0.12699999809E+01 0.  1.
</event>
<event>
 5   0  0.2785059E-04  0.1682887E+04  0.7818609E-02  0.8771185E-01
       -1   -1    0    0    0  501  0.00000000000E+00  0.00000000000E+00  0.70949076819E+03  0.70949076821E+03  0.50400001928E-02 0. -1.
        1   -1    0    0  501    0  0.00000000000E+00  0.00000000000E+00 -0.99793680021E+03  0.99793680023E+03  0.50400001928E-02 0.  1.
    10030    2    1    2    0    0  0.00000000000E+00  0.00000000000E+00 -0.28844603202E+03  0.17074275684E+04  0.16828867425E+04 0.  0.
        5    1    3    3  502    0 -0.55571439567E+03  0.49847338713E+03 -0.53809888229E+03  0.92025360871E+03  0.46999998093E+01 0.  1.
       -5    1    3    3    0  502  0.55571439567E+03 -0.49847338713E+03  0.24965285026E+03  0.78717395973E+03  0.46999998093E+01 0. -1.
</event>
<event>
 5   0  0.1910750E-04  0.1699013E+04  0.7818609E-02  0.8761927E-01
        3   -1    0    0  501    0  0.00000000000E+00  0.00000000000E+00  0.44801256132E+03  0.44801257270E+03  0.10100000352E+00 0. -1.
       -3   -1    0    0    0  501  0.00000000000E+00  0.00000000000E+00 -0.16108062134E+04  0.16108062166E+04  0.10100000352E+00 0.  1.
    10030    2    1    2    0    0  0.00000000000E+00  0.00000000000E+00 -0.11627936521E+04  0.20588187893E+04  0.16990131635E+04 0.  0.
        1    1    3    3  502    0 -0.69102023000E+03  0.48920219623E+03 -0.66564501365E+03  0.10769916579E+04  0.50400001928E-02 0. -1.
       -1    1    3    3    0  502  0.69102023000E+03 -0.48920219623E+03 -0.49714863842E+03  0.98182713131E+03  0.50400001928E-02 0.  1.
</event>
<event>
 5   0  0.2583422E-04  0.1404775E+04  0.7818609E-02  0.8950370E-01
       -1   -1    0    0    0  501  0.00000000000E+00  0.00000000000E+00  0.23101385114E+03  0.23101385120E+03  0.50400001928E-02 0. -1.
        1   -1    0    0  501    0  0.00000000000E+00  0.00000000000E+00 -0.21355777997E+04  0.21355777997E+04  0.50400001928E-02 0.  1.
    10030    2    1    2    0    0  0.00000000000E+00  0.00000000000E+00 -0.19045639485E+04  0.23665916509E+04  0.14047747891E+04 0.  0.
        3    1    3    3  502    0 -0.84092385595E+02 -0.49709305024E+03 -0.12838193110E+03  0.52024509642E+03  0.10100000352E+00 0. -1.
       -3    1    3    3    0  502  0.84092385595E+02  0.49709305024E+03 -0.17761820174E+04  0.18463465545E+04  0.10100000352E+00 0.  1.
</event>
<event>
 5   0  0.1910750E-04  0.1712967E+04  0.7818609E-02  0.8754003E-01
       -3   -1    0    0    0  501  0.00000000000E+00  0.00000000000E+00  0.12055031490E+04  0.12055031533E+04  0.10100000352E+00 0. -1.
        3   -1    0    0  501    0  0.00000000000E+00  0.00000000000E+00 -0.60851238971E+03  0.60851239809E+03  0.10100000352E+00 0.  1.
    10030    2    1    2    0    0  0.00000000000E+00  0.00000000000E+00  0.59699075932E+03  0.18140155513E+04  0.17129665653E+04 0.  0.
        2    1    3    3  502    0 -0.56155508506E+03 -0.32381692039E+03 -0.29431439436E+03  0.71191465375E+03  0.25500000920E-02 0.  1.
       -2    1    3    3    0  502  0.56155508506E+03  0.32381692039E+03  0.89130515368E+03  0.11021008976E+04  0.25500000920E-02 0. -1.
</event>
<event>
 5   0  0.2583422E-04  0.1705906E+04  0.7818609E-02  0.8758003E-01
       -1   -1    0    0    0  501  0.00000000000E+00  0.00000000000E+00  0.77746343565E+03  0.77746343566E+03  0.50400001928E-02 0. -1.
        1   -1    0    0  501    0  0.00000000000E+00  0.00000000000E+00 -0.93577221361E+03  0.93577221363E+03  0.50400001928E-02 0.  1.
    10030    2    1    2    0    0  0.00000000000E+00  0.00000000000E+00 -0.15830877797E+03  0.17132356493E+04  0.17059058359E+04 0.  0.
        3    1    3    3  502    0  0.46139650703E+03  0.55317122659E+03  0.37958338831E+03  0.81422889994E+03  0.10100000352E+00 0. -1.
       -3    1    3    3    0  502 -0.46139650703E+03 -0.55317122659E+03 -0.53789216627E+03  0.89900674934E+03  0.10100000352E+00 0.  1.
</event>
<event>
 5   0  0.5310003E-04  0.1704628E+04  0.7818609E-02  0.8758729E-01
       -2   -1    0    0    0  501  0.00000000000E+00  0.00000000000E+00  0.55865148705E+03  0.55865148706E+03  0.25500000920E-02 0. -1.
        2   -1    0    0  501    0  0.00000000000E+00  0.00000000000E+00 -0.13003440824E+04  0.13003440824E+04  0.25500000920E-02 0.  1.
    10030    2    1    2    0    0  0.00000000000E+00  0.00000000000E+00 -0.74169259537E+03  0.18589955695E+04  0.17046280009E+04 0.  0.
        1    1    3    3  502    0 -0.68632137096E+03 -0.12798351950E+03 -0.90401910609E+03  0.11422203595E+04  0.50400001928E-02 0.  1.
       -1    1    3    3    0  502  0.68632137096E+03  0.12798351950E+03  0.16232651072E+03  0.71677520996E+03  0.50400001928E-02 0. -1.
</event>
<event>
 5   0  0.2595644E-04  0.1707903E+04  0.7818609E-02  0.8756870E-01
       -1   -1    0    0    0  501  0.00000000000E+00  0.00000000000E+00  0.12849501830E+04  0.12849501830E+04  0.50400001928E-02 0.  1.
        1   -1    0    0  501    0  0.00000000000E+00  0.00000000000E+00 -0.56751851729E+03  0.56751851731E+03  0.50400001928E-02 0. -1.
    10030    2    1    2    0    0  0.00000000000E+00  0.00000000000E+00  0.71743166571E+03  0.18524687003E+04  0.17079028341E+04 0.  0.
        2    1    3    3  502    0 -0.68778072851E+03  0.48087986194E+03  0.18740625114E+03  0.85988887369E+03  0.25500000920E-02 0. -1.
       -2    1    3    3    0  502  0.68778072851E+03 -0.48087986194E+03  0.53002541457E+03  0.99257982663E+03  0.25500000920E-02 0.  1.
</event>
<event>
 5   0  0.2583422E-04  0.1666454E+04  0.7818609E-02  0.8780732E-01
        1   -1    0    0  501    0  0.00000000000E+00  0.00000000000E+00  0.69454334996E+03  0.69454334998E+03  0.50400001928E-02 0. -1.
       -1   -1    0    0    0  501  0.00000000000E+00  0.00000000000E+00 -0.99960252717E+03  0.99960252718E+03  0.50400001928E-02 0.  1.
    10030    2    1    2    0    0  0.00000000000E+00  0.00000000000E+00 -0.30505917721E+03  0.16941458772E+04  0.16664540652E+04 0.  0.
        3    1    3    3  502    0  0.52867000656E+03 -0.24552146491E+03 -0.75781779806E+03  0.95606516035E+03  0.10100000352E+00 0.  1.
       -3    1    3    3    0  502 -0.52867000656E+03  0.24552146491E+03  0.45275862085E+03  0.73808071681E+03  0.10100000352E+00 0. -1.
</event>
<event>
 5   0  0.2595644E-04  0.1688734E+04  0.7818609E-02  0.8767816E-01
       -1   -1    0    0    0  501  0.00000000000E+00  0.00000000000E+00  0.11866080726E+04  0.11866080726E+04  0.50400001928E-02 0.  1.
        1   -1    0    0  501    0  0.00000000000E+00  0.00000000000E+00 -0.60083464365E+03  0.60083464368E+03  0.50400001928E-02 0. -1.
    10030    2    1    2    0    0  0.00000000000E+00  0.00000000000E+00  0.58577342892E+03  0.17874427163E+04  0.16887335355E+04 0.  0.
        2    1    3    3  502    0 -0.31275718608E+03  0.41638623404E+03 -0.41061398903E+03  0.66317297995E+03  0.25500000920E-02 0. -1.
       -2    1    3    3    0  502  0.31275718608E+03 -0.41638623404E+03  0.99638741795E+03  0.11242697363E+04  0.25500000920E-02 0.  1.
</event>
<event>
 5   0  0.2583422E-04  0.1674726E+04  0.7818609E-02  0.8775912E-01
       -1   -1    0    0    0  501  0.00000000000E+00  0.00000000000E+00  0.57658977797E+03  0.57658977799E+03  0.50400001928E-02 0.  1.
        1   -1    0    0  501    0  0.00000000000E+00  0.00000000000E+00 -0.12160763017E+04  0.12160763018E+04  0.50400001928E-02 0. -1.
    10030    2    1    2    0    0  0.00000000000E+00  0.00000000000E+00 -0.63948652377E+03  0.17926660797E+04  0.16747264432E+04 0.  0.
        3    1    3    3  502    0  0.71835441421E+03  0.42849201265E+03 -0.36173176864E+03  0.91131133646E+03  0.10100000352E+00 0.  1.
       -3    1    3    3    0  502 -0.71835441421E+03 -0.42849201265E+03 -0.27775475513E+03  0.88135474329E+03  0.10100000352E+00 0. -1.
</event>
<event>
 5   0  0.5342255E-04  0.1246199E+04  0.7818609E-02  0.9073352E-01
        2   -1    0    0  501    0  0.00000000000E+00  0.00000000000E+00  0.11993253708E+04  0.11993253708E+04  0.25500000920E-02 0.  1.
       -2   -1    0    0    0  501  0.00000000000E+00  0.00000000000E+00 -0.32372640405E+03  0.32372640406E+03  0.25500000920E-02 0. -1.
    10030    2    1    2    0    0  0.00000000000E+00  0.00000000000E+00  0.87559896678E+03  0.15230517749E+04  0.12461994858E+04 0.  0.
        5    1    3    3  502    0 -0.38315676501E+03 -0.92398304921E+02  0.10275896507E+04  0.11005948998E+04  0.46999998093E+01 0.  1.
       -5    1    3    3    0  502  0.38315676501E+03  0.92398304921E+02 -0.15199068389E+03  0.42245687509E+03  0.46999998093E+01 0. -1.
</event>
<event>
 5   0  0.5310003E-04  0.1463578E+04  0.7818609E-02  0.8909041E-01
        2   -1    0    0  501    0  0.00000000000E+00  0.00000000000E+00  0.12263902136E+04  0.12263902136E+04  0.25500000920E-02 0.  1.
       -2   -1    0    0    0  501  0.00000000000E+00  0.00000000000E+00 -0.43665984880E+03  0.43665984880E+03  0.25500000920E-02 0. -1.
    10030    2    1    2    0    0  0.00000000000E+00  0.00000000000E+00  0.78973036481E+03  0.16630500624E+04  0.14635783071E+04 0.  0.
        1    1    3    3  502    0 -0.38889375521E+03  0.57887928650E+03  0.64684456384E+03  0.95118214396E+03  0.50400001928E-02 0.  1.
       -1    1    3    3    0  502  0.38889375521E+03 -0.57887928650E+03  0.14288580096E+03  0.71186791845E+03  0.50400001928E-02 0. -1.
</event>
<event>
 5   0  0.2630135E-04  0.1675483E+04  0.7818609E-02  0.8775472E-01
       -1   -1    0    0    0  501  0.00000000000E+00  0.00000000000E+00  0.14293065330E+04  0.14293065330E+04  0.50400001928E-02 0.  1.
        1   -1    0    0  501    0  0.00000000000E+00  0.00000000000E+00 -0.49101478716E+03  0.49101478719E+03  0.50400001928E-02 0. -1.
    10030    2    1    2    0    0  0.00000000000E+00  0.00000000000E+00  0.93829174583E+03  0.19203213202E+04  0.16754827879E+04 0.  0.
        1    1    3    3  502    0  0.53494154374E+03  0.33382779246E+03 -0.16300198731E+03  0.65128572695E+03  0.50400001928E-02 0. -1.
       -1    1    3    3    0  502 -0.53494154374E+03 -0.33382779246E+03  0.11012937331E+04  0.12690355932E+04  0.50400001928E-02 0.  1.
</event>
<event>
 5   0  0.5021349E-04  0.1684521E+04  0.7818609E-02  0.8770242E-01
        2   -1    0    0  501    0  0.00000000000E+00  0.00000000000E+00  0.82945477267E+03  0.82945477268E+03  0.25500000920E-02 0. -1.
       -2   -1    0    0    0  501  0.00000000000E+00  0.00000000000E+00 -0.85526373322E+03  0.85526373322E+03  0.25500000920E-02 0.  1.
    10030    2    1    2    0    0  0.00000000000E+00  0.00000000000E+00 -0.25808960545E+02  0.16847185059E+04  0.16845208048E+04 0.  0.
        2    1    3    3  502    0  0.30798881808E+03  0.70370291524E+02  0.76795183928E+03  0.83039696378E+03  0.25500000920E-02 0. -1.
       -2    1    3    3    0  502 -0.30798881808E+03 -0.70370291524E+02 -0.79376079982E+03  0.85432154212E+03  0.25500000920E-02 0.  1.
</event>
<event>
 5   0  0.5342255E-04  0.1711294E+04  0.7818609E-02  0.8754949E-01
        2   -1    0    0  501    0  0.00000000000E+00  0.00000000000E+00  0.15474672626E+04  0.15474672626E+04  0.25500000920E-02 0.  1.
       -2   -1    0    0    0  501  0.00000000000E+00  0.00000000000E+00 -0.47311593896E+03  0.47311593897E+03  0.25500000920E-02 0. -1.
    10030    2    1    2    0    0  0.00000000000E+00  0.00000000000E+00  0.10743513236E+04  0.20205832016E+04  0.17112935773E+04 0.  0.
        5    1    3    3  502    0 -0.15337467760E+03  0.26035083069E+02  0.15306131441E+04  0.15385058674E+04  0.46999998093E+01 0.  1.
       -5    1    3    3    0  502  0.15337467760E+03 -0.26035083069E+02 -0.45626182046E+03  0.48207733413E+03  0.46999998093E+01 0. -1.
</event>
<event>
 5   0  0.2595644E-04  0.1439663E+04  0.7818609E-02  0.8925599E-01
        1   -1    0    0  501    0  0.00000000000E+00  0.00000000000E+00  0.37047112123E+03  0.37047112126E+03  0.50400001928E-02 0.  1.
       -1   -1    0    0    0  501  0.00000000000E+00  0.00000000000E+00 -0.13986437967E+04  0.13986437967E+04  0.50400001928E-02 0. -1.
    10030    2    1    2    0    0  0.00000000000E+00  0.00000000000E+00 -0.10281726755E+04  0.17691149180E+04  0.14396626488E+04 0.  0.
        2    1    3    3  502    0 -0.30470367130E+03 -0.53397580056E+03 -0.97417596734E+03  0.11519519514E+04  0.25500000920E-02 0. -1.
       -2    1    3    3    0  502  0.30470367130E+03  0.53397580056E+03 -0.53996708143E+02  0.61716296663E+03  0.25500000920E-02 0.  1.
</event>
<event>
 5   0  0.5021349E-04  0.1634310E+04  0.7818609E-02  0.8799743E-01
       -2   -1    0    0    0  501  0.00000000000E+00  0.00000000000E+00  0.37886365247E+03  0.37886365248E+03  0.25500000920E-02 0. -1.
        2   -1    0    0  501    0  0.00000000000E+00  0.00000000000E+00 -0.17624880986E+04  0.17624880986E+04  0.25500000920E-02 0.  1.
    10030    2    1    2    0    0  0.00000000000E+00  0.00000000000E+00 -0.13836244461E+04  0.21413517511E+04  0.16343104705E+04 0.  0.
        2    1    3    3  502    0 -0.60631143615E+03  0.15535890824E+03 -0.34733897421E+01  0.62590894898E+03  0.25500000920E-02 0.  1.
       -2    1    3    3    0  502  0.60631143615E+03 -0.15535890824E+03 -0.13801510564E+04  0.15154428021E+04  0.25500000920E-02 0. -1.
</event>
<event>
 5   0  0.5299877E-04  0.1734674E+04  0.7818609E-02  0.8741832E-01
        2   -1    0    0  501    0  0.00000000000E+00  0.00000000000E+00  0.85125119680E+03  0.85125119681E+03  0.25500000920E-02 0.  1.
       -2   -1    0    0    0  501  0.00000000000E+00  0.00000000000E+00 -0.88372703412E+03  0.88372703412E+03  0.25500000920E-02 0. -1.
    10030    2    1    2    0    0  0.00000000000E+00  0.00000000000E+00 -0.32475837316E+02  0.17349782309E+04  0.17346742581E+04 0.  0.
        3    1    3    3  502    0 -0.61200499234E+03 -0.61167419891E+03  0.43591030497E+02  0.86636921944E+03  0.10100000352E+00 0. -1.
       -3    1    3    3    0  502  0.61200499234E+03  0.61167419891E+03 -0.76066867813E+02  0.86860901149E+03  0.10100000352E+00 0.  1.
</event>
<event>
 5   0  0.2785059E-04  0.1577430E+04  0.7818609E-02  0.8834535E-01
        1   -1    0    0  501    0  0.00000000000E+00  0.00000000000E+00  0.80058040224E+03  0.80058040226E+03  0.50400001928E-02 0.  1.
       -1   -1    0    0    0  501  0.00000000000E+00  0.00000000000E+00 -0.77702535250E+03  0.77702535252E+03  0.50400001928E-02 0. -1.
    10030    2    1    2    0    0  0.00000000000E+00  0.00000000000E+00  0.23555049739E+02  0.15776057548E+04  0.15774298961E+04 0.  0.
        5    1    3    3  502    0 -0.97034254627E+02 -0.45783039218E+03 -0.62313564369E+03  0.77932306203E+03  0.46999998093E+01 0. -1.
       -5    1    3    3    0  502  0.97034254627E+02  0.45783039218E+03  0.64669069343E+03  0.79828269275E+03  0.46999998093E+01 0.  1.
</event>
<event>
 5   0  0.2785059E-04  0.1738625E+04  0.7818609E-02  0.8739637E-01
       -1   -1    0    0    0  501  0.00000000000E+00  0.00000000000E+00  0.58133913182E+03  0.58133913184E+03  0.50400001928E-02 0.  1.
        1   -1    0    0  501    0  0.00000000000E+00  0.00000000000E+00 -0.12999371453E+04  0.12999371453E+04  0.50400001928E-02 0. -1.
    10030    2    1    2    0    0  0.00000000000E+00  0.00000000000E+00 -0.71859801350E+03  0.18812762772E+04  0.17386251252E+04 0.  0.
        5    1    3    3  502    0  0.43507717404E+02 -0.51854618215E+02  0.57846946984E+03  0.58243526717E+03  0.46999998093E+01 0.  1.
       -5    1    3    3    0  502 -0.43507717404E+02  0.51854618215E+02 -0.12970674833E+04  0.12988410100E+04  0.46999998093E+01 0. -1.
</event>
<event>
 5   0  0.5310003E-04  0.1618517E+04  0.7818609E-02  0.8809252E-01
       -2   -1    0    0    0  501  0.00000000000E+00  0.00000000000E+00  0.66679038441E+03  0.66679038442E+03  0.25500000920E-02 0.  1.
        2   -1    0    0  501    0  0.00000000000E+00  0.00000000000E+00 -0.98216701835E+03  0.98216701836E+03  0.25500000920E-02 0. -1.
    10030    2    1    2    0    0  0.00000000000E+00  0.00000000000E+00 -0.31537663394E+03  0.16489574028E+04  0.16185172520E+04 0.  0.
        1    1    3    3  502    0  0.21981653441E+03 -0.41234134499E+03 -0.83083777835E+03  0.95322405946E+03  0.50400001928E-02 0. -1.
       -1    1    3    3    0  502 -0.21981653441E+03  0.41234134499E+03  0.51546114440E+03  0.69573334332E+03  0.50400001928E-02 0.  1.
</event>
<event>
 5   0  0.2561518E-04  0.1705536E+04  0.7818609E-02  0.8758213E-01
       -1   -1    0    0    0  501  0.00000000000E+00  0.00000000000E+00  0.56109836471E+03  0.56109836473E+03  0.50400001928E-02 0. -1.
        1   -1    0    0  501    0  0.00000000000E+00  0.00000000000E+00 -0.12960528122E+04  0.12960528122E+04  0.50400001928E-02 0.  1.
    10030    2    1    2    0    0  0.00000000000E+00  0.00000000000E+00 -0.73495444746E+03  0.18571511769E+04  0.17055358261E+04 0.  0.
        4    1    3    3  502    0 -0.55681845114E+03 -0.86512291016E+02  0.32948456953E+03  0.65275788657E+03  0.12699999809E+01 0. -1.
       -4    1    3    3    0  502  0.55681845114E+03  0.86512291016E+02 -0.10644390170E+04  0.12043932903E+04  0.12699999809E+01 0.  1.
</event>
<event>
 5   0  0.2595644E-04  0.1707959E+04  0.7818609E-02  0.8756838E-01
        1   -1    0    0  501    0  0.00000000000E+00  0.00000000000E+00  0.19856815244E+04  0.19856815244E+04  0.50400001928E-02 0. -1.
       -1   -1    0    0    0  501  0.00000000000E+00  0.00000000000E+00 -0.36726985206E+03  0.36726985209E+03  0.50400001928E-02 0.  1.
    10030    2    1    2    0    0  0.00000000000E+00  0.00000000000E+00  0.16184116724E+04  0.23529513765E+04  0.17079589688E+04 0.  0.
        2    1    3    3  502    0 -0.16651047853E+03  0.72806886275E+03  0.23873847957E+03  0.78409570207E+03  0.25500000920E-02 0.  1.
       -2    1    3    3    0  502  0.16651047853E+03 -0.72806886275E+03  0.13796731928E+04  0.15688556745E+04  0.25500000920E-02 0. -1.
</event>
<event>
 5   0  0.5198430E-04  0.1642352E+04  0.7818609E-02  0.8794944E-01
       -2   -1    0    0    0  501  0.00000000000E+00  0.00000000000E+00  0.87501984664E+03  0.87501984665E+03  0.25500000920E-02 0. -1.
        2   -1    0    0  501    0  0.00000000000E+00  0.00000000000E+00 -0.77064529201E+03  0.77064529201E+03  0.25500000920E-02 0.  1.
    10030    2    1    2    0    0  0.00000000000E+00  0.00000000000E+00  0.10437455464E+03  0.16456651387E+04  0.16423518810E+04 0.  0.
        4    1    3    3  502    0 -0.20947348516E+03 -0.11190112049E+03 -0.73548208304E+03  0.77287548100E+03  0.12699999809E+01 0.  1.
       -4    1    3    3    0  502  0.20947348516E+03  0.11190112049E+03  0.83985663768E+03  0.87278965766E+03  0.12699999809E+01 0. -1.
</event>
<event>
 5   0  0.5021349E-04  0.1692438E+04  0.7818609E-02  0.8765689E-01
       -2   -1    0    0    0  501  0.00000000000E+00  0.00000000000E+00  0.52045673315E+03  0.52045673316E+03  0.25500000920E-02 0. -1.
        2   -1    0    0  501    0  0.00000000000E+00  0.00000000000E+00 -0.13758817496E+04  0.13758817496E+04  0.25500000920E-02 0.  1.
    10030    2    1    2    0    0  0.00000000000E+00  0.00000000000E+00 -0.85542501642E+03  0.18963384827E+04  0.16924383836E+04 0.  0.
        2    1    3    3  502    0 -0.27727356286E+00  0.59358572867E+03 -0.11034845352E+04  0.12530052728E+04  0.25500000920E-02 0.  1.
       -2    1    3    3    0  502  0.27727356286E+00 -0.59358572867E+03  0.24805951879E+03  0.64333320995E+03  0.25500000920E-02 0. -1.
</event>
<event>
 5   0  0.5299877E-04  0.1663417E+04  0.7818609E-02  0.8782508E-01
       -2   -1    0    0    0  501  0.00000000000E+00  0.00000000000E+00  0.41559285926E+03  0.41559285926E+03  0.25500000920E-02 0.  1.
        2   -1    0    0  501    0  0.00000000000E+00  0.00000000000E+00 -0.16644633694E+04  0.16644633694E+04  0.25500000920E-02 0. -1.
    10030    2    1    2    0    0  0.00000000000E+00  0.00000000000E+00 -0.12488705102E+04  0.20800562287E+04  0.16634170744E+04 0.  0.
        3    1    3    3  502    0  0.53567225572E+03 -0.63622849931E+03 -0.62098527779E+03  0.10379567401E+04  0.10100000352E+00 0.  1.
       -3    1    3    3    0  502 -0.53567225572E+03  0.63622849931E+03 -0.62788523238E+03  0.10420994886E+04  0.10100000352E+00 0. -1.
</event>
<event>
 5   0  0.1910750E-04  0.1676943E+04  0.7818609E-02  0.8774625E-01
       -4   -1    0    0    0  501  0.00000000000E+00  0.00000000000E+00  0.10210313084E+04  0.10210320983E+04  0.12699999809E+01 0. -1.
        4   -1    0    0  501    0  0.00000000000E+00  0.00000000000E+00 -0.68855149490E+03  0.68855266613E+03  0.12699999809E+01 0.  1.
    10030    2    1    2    0    0  0.00000000000E+00  0.00000000000E+00  0.33247981354E+03  0.17095847644E+04  0.16769428256E+04 0.  0.
        5    1    3    3  502    0 -0.14496766364E+03 -0.57982505417E+03 -0.43325371303E+03  0.73820294418E+03  0.46999998093E+01 0.  1.
       -5    1    3    3    0  502  0.14496766364E+03  0.57982505417E+03  0.76573352657E+03  0.97138182022E+03  0.46999998093E+01 0. -1.
</event>
<event>
 5   0  0.5198430E-04  0.1678793E+04  0.7818609E-02  0.8773553E-01
       -2   -1    0    0    0  501  0.00000000000E+00  0.00000000000E+00  0.84601018407E+03  0.84601018407E+03  0.25500000920E-02 0.  1.
        2   -1    0    0  501    0  0.00000000000E+00  0.00000000000E+00 -0.83283432477E+03  0.83283432477E+03  0.25500000920E-02 0. -1.
    10030    2    1    2    0    0  0.00000000000E+00  0.00000000000E+00  0.13175859296E+02  0.16788445088E+04  0.16787928048E+04 0.  0.
        4    1    3    3  502    0  0.18800948559E+03 -0.31271696926E+03  0.76255118115E+03  0.84535518352E+03  0.12699999809E+01 0.  1.
       -4    1    3    3    0  502 -0.18800948559E+03  0.31271696926E+03 -0.74937532185E+03  0.83348932533E+03  0.12699999809E+01 0. -1.
</event>
<event>
 5   0  0.5299877E-04  0.1759983E+04  0.7818609E-02  0.8727874E-01
        2   -1    0    0  501    0  0.00000000000E+00  0.00000000000E+00  0.66179437286E+03  0.66179437286E+03  0.25500000920E-02 0.  1.
       -2   -1    0    0    0  501  0.00000000000E+00  0.00000000000E+00 -0.11701297149E+04  0.11701297149E+04  0.25500000920E-02 0. -1.
    10030    2    1    2    0    0  0.00000000000E+00  0.00000000000E+00 -0.50833534200E+03  0.18319240877E+04  0.17599832509E+04 0.  0.
        3    1    3    3  502    0  0.55672697596E+03  0.10244425242E+03 -0.95546275734E+03  0.11105623987E+04  0.10100000352E+00 0. -1.
       -3    1    3    3    0  502 -0.55672697596E+03 -0.10244425242E+03  0.44712741534E+03  0.72136168900E+03  0.10100000352E+00 0.  1.
</event>
<event>
 5   0  0.2583422E-04  0.1700212E+04  0.7818609E-02  0.8761244E-01
        1   -1    0    0  501    0  0.00000000000E+00  0.00000000000E+00  0.57479798594E+03  0.57479798596E+03  0.50400001928E-02 0. -1.
       -1   -1    0    0    0  501  0.00000000000E+00  0.00000000000E+00 -0.12572766505E+04  0.12572766506E+04  0.50400001928E-02 0.  1.
    10030    2    1    2    0    0  0.00000000000E+00  0.00000000000E+00 -0.68247866461E+03  0.18320746365E+04  0.17002118533E+04 0.  0.
        3    1    3    3  502    0  0.80463149979E+03 -0.26176729177E+02 -0.46999256942E+02  0.80642793352E+03  0.10100000352E+00 0.  1.
       -3    1    3    3    0  502 -0.80463149979E+03  0.26176729177E+02 -0.63547940767E+03  0.10256467030E+04  0.10100000352E+00 0. -1.
</event>
<event>
 5   0  0.5299877E-04  0.1711503E+04  0.7818609E-02  0.8754831E-01
        2   -1    0    0  501    0  0.00000000000E+00  0.00000000000E+00  0.15921807714E+04  0.15921807714E+04  0.25500000920E-02 0.  1.
       -2   -1    0    0    0  501  0.00000000000E+00  0.00000000000E+00 -0.45994202687E+03  0.45994202687E+03  0.25500000920E-02 0. -1.
    10030    2    1    2    0    0  0.00000000000E+00  0.00000000000E+00  0.11322387445E+04  0.20521227983E+04  0.17115032587E+04 0.  0.
        3    1    3    3  502    0  0.14816151371E+03  0.51950166574E+03 -0.22965004745E+03  0.58700338103E+03  0.10100000352E+00 0. -1.
       -3    1    3    3    0  502 -0.14816151371E+03 -0.51950166574E+03  0.13618887920E+04  0.14651194172E+04  0.10100000352E+00 0.  1.
</event>
<event>
 5   0  0.2595644E-04  0.1562480E+04  0.7818609E-02  0.8843935E-01
        1   -1    0    0  501    0  0.00000000000E+00  0.00000000000E+00  0.21370626758E+04  0.21370626758E+04  0.50400001928E-02 0. -1.
       -1   -1    0    0    0  501  0.00000000000E+00  0.00000000000E+00 -0.28559581555E+03  0.28559581559E+03  0.50400001928E-02 0.  1.
    10030    2    1    2    0    0  0.00000000000E+00  0.00000000000E+00  0.18514668602E+04  0.24226584914E+04  0.15624802819E+04 0.  0.
        2    1    3    3  502    0  0.51202001806E+03 -0.33084031996E+03  0.16817047740E+03  0.63237736019E+03  0.25500000920E-02 0.  1.
       -2    1    3    3    0  502 -0.51202001806E+03  0.33084031996E+03  0.16832963828E+04  0.17902811312E+04  0.25500000920E-02 0. -1.
</event>
<event>
 5   0  0.2630135E-04  0.1780367E+04  0.7818609E-02  0.8716810E-01
        1   -1    0    0  501    0  0.00000000000E+00  0.00000000000E+00  0.66306701688E+03  0.66306701690E+03  0.50400001928E-02 0. -1.
       -1   -1    0    0    0  501  0.00000000000E+00  0.00000000000E+00 -0.11950932155E+04  0.11950932155E+04  0.50400001928E-02 0.  1.
    10030    2    1    2    0    0  0.00000000000E+00  0.00000000000E+00 -0.53202619858E+03  0.18581602324E+04  0.17803672580E+04 0.  0.
        1    1    3    3  502    0  0.12614331645E+02 -0.77332437213E+03 -0.72599395079E+03  0.10607812793E+04  0.50400001928E-02 0.  1.
       -1    1    3    3    0  502 -0.12614331645E+02  0.77332437213E+03  0.19396775221E+03  0.79737895308E+03  0.50400001928E-02 0. -1.
</event>
<event>
 5   0  0.5198430E-04  0.1694250E+04  0.7818609E-02  0.8764650E-01
       -2   -1    0    0    0  501  0.00000000000E+00  0.00000000000E+00  0.84391303906E+03  0.84391303906E+03  0.25500000920E-02 0. -1.
        2   -1    0    0  501    0  0.00000000000E+00  0.00000000000E+00 -0.85034960174E+03  0.85034960174E+03  0.25500000920E-02 0.  1.
    10030    2    1    2    0    0  0.00000000000E+00  0.00000000000E+00 -0.64365626791E+01  0.16942626408E+04  0.16942504144E+04 0.  0.
        4    1    3    3  502    0 -0.35748846752E+03  0.75698342275E+03  0.12638819796E+03  0.84663894088E+03  0.12699999809E+01 0. -1.
       -4    1    3    3    0  502  0.35748846752E+03 -0.75698342275E+03 -0.13282476064E+03  0.84762369992E+03  0.12699999809E+01 0.  1.
</event>
<event>
 5   0  0.5198430E-04  0.1675899E+04  0.7818609E-02  0.8775231E-01
        2   -1    0    0  501    0  0.00000000000E+00  0.00000000000E+00  0.12170562946E+04  0.12170562946E+04  0.25500000920E-02 0.  1.
       -2   -1    0    0    0  501  0.00000000000E+00  0.00000000000E+00 -0.57693229428E+03  0.57693229428E+03  0.25500000920E-02 0. -1.
    10030    2    1    2    0    0  0.00000000000E+00  0.00000000000E+00  0.64012400029E+03  0.17939885889E+04  0.16758986608E+04 0.  0.
        4    1    3    3  502    0  0.68367700962E+03 -0.47818318366E+03  0.40355855402E+03  0.92678720861E+03  0.12699999809E+01 0.  1.
       -4    1    3    3    0  502 -0.68367700962E+03  0.47818318366E+03  0.23656544627E+03  0.86720138024E+03  0.12699999809E+01 0. -1.
</event>
<event>
 5   0  0.5198430E-04  0.1636708E+04  0.7818609E-02  0.8798309E-01
       -2   -1    0    0    0  501  0.00000000000E+00  0.00000000000E+00  0.57217883230E+03  0.57217883230E+03  0.25500000920E-02 0. -1.
        2   -1    0    0  501    0  0.00000000000E+00  0.00000000000E+00 -0.11704441015E+04  0.11704441015E+04  0.25500000920E-02 0.  1.
    10030    2    1    2    0    0  0.00000000000E+00  0.00000000000E+00 -0.59826526920E+03  0.17426229338E+04  0.16367080855E+04 0.  0.
        4    1    3    3  502    0  0.32104857340E+03  0.73033935123E+03 -0.10503362392E+03  0.80467473521E+03  0.12699999809E+01 0. -1.
       -4    1    3    3    0  502 -0.32104857340E+03 -0.73033935123E+03 -0.49323164527E+03  0.93794819859E+03  0.12699999809E+01 0.  1.
</event>
<event>
 5   0  0.1910750E-04  0.1610054E+04  0.7818609E-02  0.8814395E-01
        3   -1    0    0  501    0  0.00000000000E+00  0.00000000000E+00  0.35099949960E+03  0.35099951413E+03  0.10100000352E+00 0.  1.
       -3   -1    0    0    0  501  0.00000000000E+00  0.00000000000E+00 -0.18463514475E+04  0.18463514503E+04  0.10100000352E+00 0. -1.
    10030    2    1    2    0    0  0.00000000000E+00  0.00000000000E+00 -0.14953519479E+04  0.21973509644E+04  0.16100539782E+04 0.  0.
        3    1    3    3  502    0 -0.32413885929E+03  0.53447008399E+03 -0.14400107729E+04  0.15698265213E+04  0.10100000352E+00 0. -1.
       -3    1    3    3    0  502  0.32413885929E+03 -0.53447008399E+03 -0.55341174980E+02  0.62752444306E+03  0.10100000352E+00 0.  1.
</event>
<event>
 5   0  0.2630135E-04  0.1714339E+04  0.7818609E-02  0.8753228E-01
        1   -1    0    0  501    0  0.00000000000E+00  0.00000000000E+00  0.81885136007E+03  0.81885136009E+03  0.50400001928E-02 0. -1.
       -1   -1    0    0    0  501  0.00000000000E+00  0.00000000000E+00 -0.89728061833E+03  0.89728061834E+03  0.50400001928E-02 0.  1.
    10030    2    1    2    0    0  0.00000000000E+00  0.00000000000E+00 -0.78429258259E+02  0.17161319784E+04  0.17143388868E+04 0.  0.
        1    1    3    3  502    0 -0.19186387554E+03 -0.78421544823E+03 -0.32749819904E+03  0.87124088884E+03  0.50400001928E-02 0.  1.
       -1    1    3    3    0  502  0.19186387554E+03  0.78421544823E+03  0.24906894078E+03  0.84489108959E+03  0.50400001928E-02 0. -1.
</event>
<event>
 5   0  0.1910750E-04  0.1580767E+04  0.7818609E-02  0.8832452E-01
        3   -1    0    0  501    0  0.00000000000E+00  0.00000000000E+00  0.44250073170E+03  0.44250074323E+03  0.10100000352E+00 0.  1.
       -3   -1    0    0    0  501  0.00000000000E+00  0.00000000000E+00 -0.14117622062E+04  0.14117622098E+04  0.10100000352E+00 0. -1.
    10030    2    1    2    0    0  0.00000000000E+00  0.00000000000E+00 -0.96926147452E+03  0.18542629531E+04  0.15807666789E+04 0.  0.
        3    1    3    3  502    0  0.62096224322E+03  0.38355714812E+03 -0.84041531875E+03  0.11131074124E+04  0.10100000352E+00 0. -1.
       -3    1    3    3    0  502 -0.62096224322E+03 -0.38355714812E+03 -0.12884615576E+03  0.74115554065E+03  0.10100000352E+00 0.  1.
</event>
<event>
 5   0  0.5299877E-04  0.1844505E+04  0.7818609E-02  0.8682984E-01
        2   -1    0    0  501    0  0.00000000000E+00  0.00000000000E+00  0.72635773674E+03  0.72635773675E+03  0.25500000920E-02 0. -1.
       -2   -1    0    0    0  501  0.00000000000E+00  0.00000000000E+00 -0.11709788839E+04  0.11709788839E+04  0.25500000920E-02 0.  1.
    10030    2    1    2    0    0  0.00000000000E+00  0.00000000000E+00 -0.44462114718E+03  0.18973366207E+04  0.18445048896E+04 0.  0.
        3    1    3    3  502    0  0.80213661894E+03  0.45509502357E+03 -0.22628462160E+03  0.94959958725E+03  0.10100000352E+00 0.  1.
       -3    1    3    3    0  502 -0.80213661894E+03 -0.45509502357E+03 -0.21833652559E+03  0.94773703343E+03  0.10100000352E+00 0. -1.
</event>
<event>
 5   0  0.5310003E-04  0.1700133E+04  0.7818609E-02  0.8761289E-01
        2   -1    0    0  501    0  0.00000000000E+00  0.00000000000E+00  0.78741085009E+03  0.78741085010E+03  0.25500000920E-02 0.  1.
       -2   -1    0    0    0  501  0.00000000000E+00  0.00000000000E+00 -0.91770739910E+03  0.91770739911E+03  0.25500000920E-02 0. -1.
    10030    2    1    2    0    0  0.00000000000E+00  0.00000000000E+00 -0.13029654901E+03  0.17051182492E+04  0.17001326575E+04 0.  0.
        1    1    3    3  502    0 -0.47612797890E+03  0.63362060324E+03 -0.37336011503E+03  0.87611112119E+03  0.50400001928E-02 0. -1.
       -1    1    3    3    0  502  0.47612797890E+03 -0.63362060324E+03  0.24306356601E+03  0.82900712802E+03  0.50400001928E-02 0.  1.
</event>
<event>
 5   0  0.2595644E-04  0.1705779E+04  0.7818609E-02  0.8758075E-01
       -1   -1    0    0    0  501  0.00000000000E+00  0.00000000000E+00  0.75213093630E+03  0.75213093632E+03  0.50400001928E-02 0.  1.
        1   -1    0    0  501    0  0.00000000000E+00  0.00000000000E+00 -0.96714576270E+03  0.96714576271E+03  0.50400001928E-02 0. -1.
    10030    2    1    2    0    0  0.00000000000E+00  0.00000000000E+00 -0.21501482640E+03  0.17192766990E+04  0.17057787055E+04 0.  0.
        2    1    3    3  502    0 -0.85080141628E+03  0.55174896288E+02 -0.13033456291E+03  0.86249314051E+03  0.25500000920E-02 0. -1.
       -2    1    3    3    0  502  0.85080141628E+03 -0.55174896288E+02 -0.84680263491E+02  0.85678355852E+03  0.25500000920E-02 0.  1.
</event>
<event>
 5   0  0.2630135E-04  0.1622913E+04  0.7818609E-02  0.8806594E-01
        1   -1    0    0  501    0  0.00000000000E+00  0.00000000000E+00  0.68174075580E+03  0.68174075582E+03  0.50400001928E-02 0.  1.
       -1   -1    0    0    0  501  0.00000000000E+00  0.00000000000E+00 -0.96585318744E+03  0.96585318745E+03  0.50400001928E-02 0. -1.
    10030    2    1    2    0    0  0.00000000000E+00  0.00000000000E+00 -0.28411243164E+03  0.16475939433E+04  0.16229127913E+04 0.  0.
        1    1    3    3  502    0  0.57394960362E+03 -0.35558675308E+03  0.31490171561E+03  0.74499877650E+03  0.50400001928E-02 0.  1.
       -1    1    3    3    0  502 -0.57394960362E+03  0.35558675308E+03 -0.59901414725E+03  0.90259516678E+03  0.50400001928E-02 0. -1.
</event>
<event>
 5   0  0.2595644E-04  0.1715274E+04  0.7818609E-02  0.8752700E-01
       -1   -1    0    0    0  501  0.00000000000E+00  0.00000000000E+00  0.36383799716E+03  0.36383799720E+03  0.50400001928E-02 0.  1.
        1   -1    0    0  501    0  0.00000000000E+00  0.00000000000E+00 -0.20216181640E+04  0.20216181641E+04  0.50400001928E-02 0. -1.
    10030    2    1    2    0    0  0.00000000000E+00  0.00000000000E+00 -0.16577801669E+04  0.23854561612E+04  0.17152743266E+04 0.  0.
        2    1    3    3  502    0 -0.21053922825E+03  0.82303253623E+03 -0.66532778960E+03  0.10790599566E+04  0.25500000920E-02 0. -1.
       -2    1    3    3    0  502  0.21053922825E+03 -0.82303253623E+03 -0.99245237729E+03  0.13063962046E+04  0.25500000920E-02 0.  1.
</event>
<event>
 5   0  0.5299877E-04  0.1773573E+04  0.7818609E-02  0.8720481E-01
        2   -1    0    0  501    0  0.00000000000E+00  0.00000000000E+00  0.15160152638E+04  0.15160152638E+04  0.25500000920E-02 0. -1.
       -2   -1    0    0    0  501  0.00000000000E+00  0.00000000000E+00 -0.51872160011E+03  0.51872160012E+03  0.25500000920E-02 0.  1.
    10030    2    1    2    0    0  0.00000000000E+00  0.00000000000E+00  0.99729366367E+03  0.20347368639E+04  0.17735725115E+04 0.  0.
        3    1    3    3  502    0  0.39525798382E+03 -0.77298386828E+03  0.29132410718E+03  0.91575252117E+03  0.10100000352E+00 0.  1.
       -3    1    3    3    0  502 -0.39525798382E+03  0.77298386828E+03  0.70596955649E+03  0.11189843427E+04  0.10100000352E+00 0. -1.
</event>
<event>
 5   0  0.2595644E-04  0.1681880E+04  0.7818609E-02  0.8771767E-01
       -1   -1    0    0    0  501  0.00000000000E+00  0.00000000000E+00  0.39965593473E+03  0.39965593476E+03  0.50400001928E-02 0.  1.
        1   -1    0    0  501    0  0.00000000000E+00  0.00000000000E+00 -0.17694725397E+04  0.17694725397E+04  0.50400001928E-02 0. -1.
    10030    2    1    2    0    0  0.00000000000E+00  0.00000000000E+00 -0.13698166049E+04  0.21691284744E+04  0.16818801406E+04 0.  0.
        2    1    3    3  502    0  0.26338936257E+03  0.45566118879E+03  0.16098366244E+03  0.55037879216E+03  0.25500000920E-02 0.  1.
       -2    1    3    3    0  502 -0.26338936257E+03 -0.45566118879E+03 -0.15308002674E+04  0.16187496823E+04  0.25500000920E-02 0. -1.
</event>
<event>
 5   0  0.5021349E-04  0.1713959E+04  0.7818609E-02  0.8753443E-01
       -2   -1    0    0    0  501  0.00000000000E+00  0.00000000000E+00  0.93890333487E+03  0.93890333488E+03  0.25500000920E-02 0. -1.
        2   -1    0    0  501    0  0.00000000000E+00  0.00000000000E+00 -0.78220399120E+03  0.78220399120E+03  0.25500000920E-02 0.  1.
    10030    2    1    2    0    0  0.00000000000E+00  0.00000000000E+00  0.15669934368E+03  0.17211073261E+04  0.17139590846E+04 0.  0.
        2    1    3    3  502    0  0.69129466532E+03 -0.44594402153E+03  0.31947516671E+03  0.88250709163E+03  0.25500000920E-02 0. -1.
       -2    1    3    3    0  502 -0.69129466532E+03  0.44594402153E+03 -0.16277582303E+03  0.83860023444E+03  0.25500000920E-02 0.  1.
</event>
<event>
 5   0  0.2583422E-04  0.1688926E+04  0.7818609E-02  0.8767705E-01
       -1   -1    0    0    0  501  0.00000000000E+00  0.00000000000E+00  0.55659771098E+03  0.55659771101E+03  0.50400001928E-02 0.  1.
        1   -1    0    0  501    0  0.00000000000E+00  0.00000000000E+00 -0.12812089537E+04  0.12812089537E+04  0.50400001928E-02 0. -1.
    10030    2    1    2    0    0  0.00000000000E+00  0.00000000000E+00 -0.72461124275E+03  0.18378066647E+04  0.16889262518E+04 0.  0.
        3    1    3    3  502    0  0.19855464262E+03  0.36727530091E+03  0.43643189831E+03  0.60397674196E+03  0.10100000352E+00 0.  1.
       -3    1    3    3    0  502 -0.19855464262E+03 -0.36727530091E+03 -0.11610431411E+04  0.12338299228E+04  0.10100000352E+00 0. -1.
</event>
<event>
 5   0  0.2630135E-04  0.1696877E+04  0.7818609E-02  0.8763147E-01
        1   -1    0    0  501    0  0.00000000000E+00  0.00000000000E+00  0.12917936560E+04  0.12917936561E+04  0.50400001928E-02 0. -1.
       -1   -1    0    0    0  501  0.00000000000E+00  0.00000000000E+00 -0.55724686610E+03  0.55724686612E+03  0.50400001928E-02 0.  1.
    10030    2    1    2    0    0  0.00000000000E+00  0.00000000000E+00  0.73454678995E+03  0.18490405222E+04  0.16968770922E+04 0.  0.
        1    1    3    3  502    0  0.38856411018E+03 -0.18284396721E+03  0.11646234118E+04  0.12412742145E+04  0.50400001928E-02 0. -1.
       -1    1    3    3    0  502 -0.38856411018E+03  0.18284396721E+03 -0.43007662189E+03  0.60776630771E+03  0.50400001928E-02 0.  1.
</event>
<event>
 5   0  0.5198430E-04  0.1772999E+04  0.7818609E-02  0.8720792E-01
        2   -1    0    0  501    0  0.00000000000E+00  0.00000000000E+00  0.15489976149E+04  0.15489976149E+04  0.25500000920E-02 0.  1.
       -2   -1    0    0    0  501  0.00000000000E+00  0.00000000000E+00 -0.50734835603E+03  0.50734835603E+03  0.25500000920E-02 0. -1.
    10030    2    1    2    0    0  0.00000000000E+00  0.00000000000E+00  0.10416492589E+04  0.20563459710E+04  0.17729990338E+04 0.  0.
        4    1    3    3  502    0  0.53048305635E+03  0.38052136542E+02  0.13434083580E+04  0.14448556563E+04  0.12699999809E+01 0.  1.
       -4    1    3    3    0  502 -0.53048305635E+03 -0.38052136542E+02 -0.30175909912E+03  0.61149031470E+03  0.12699999809E+01 0. -1.
</event>
<event>
 5   0  0.5342255E-04  0.1825146E+04  0.7818609E-02  0.8693040E-01
       -2   -1    0    0    0  501  0.00000000000E+00  0.00000000000E+00  0.11055725401E+04  0.11055725401E+04  0.25500000920E-02 0. -1.
        2   -1    0    0  501    0  0.00000000000E+00  0.00000000000E+00 -0.75326512797E+03  0.75326512797E+03  0.25500000920E-02 0.  1.
    10030    2    1    2    0    0  0.00000000000E+00  0.00000000000E+00  0.35230741216E+03  0.18588376681E+04  0.18251457377E+04 0.  0.
        5    1    3    3  502    0  0.80081817242E+03 -0.59780348599E+02  0.61761078586E+03  0.10130886477E+04  0.46999998093E+01 0.  1.
       -5    1    3    3    0  502 -0.80081817242E+03  0.59780348599E+02 -0.26530337370E+03  0.84574902037E+03  0.46999998093E+01 0. -1.
</event>
<event>
 5   0  0.2595644E-04  0.1704924E+04  0.7818609E-02  0.8758561E-01
       -1   -1    0    0    0  501  0.00000000000E+00  0.00000000000E+00  0.16526337560E+04  0.16526337560E+04  0.50400001928E-02 0. -1.
        1   -1    0    0  501    0  0.00000000000E+00  0.00000000000E+00 -0.43971717803E+03  0.43971717806E+03  0.50400001928E-02 0.  1.
    10030    2    1    2    0    0  0.00000000000E+00  0.00000000000E+00  0.12129165780E+04  0.20923509341E+04  0.17049239884E+04 0.  0.
        2    1    3    3  502    0 -0.43655280416E+03  0.81530328764E+02 -0.28653563888E+03  0.52851510639E+03  0.25500000920E-02 0.  1.
       -2    1    3    3    0  502  0.43655280416E+03 -0.81530328764E+02  0.14994522169E+04  0.15638358277E+04  0.25500000920E-02 0. -1.
</event>
<event>
 5   0  0.2595644E-04  0.1707659E+04  0.7818609E-02  0.8757008E-01
       -1   -1    0    0    0  501  0.00000000000E+00  0.00000000000E+00  0.31226632757E+03  0.31226632761E+03  0.50400001928E-02 0.  1.
        1   -1    0    0  501    0  0.00000000000E+00  0.00000000000E+00 -0.23346238595E+04  0.23346238595E+04  0.50400001928E-02 0. -1.
    10030    2    1    2    0    0  0.00000000000E+00  0.00000000000E+00 -0.20223575320E+04  0.26468901872E+04  0.17076585361E+04 0.  0.
        2    1    3    3  502    0 -0.36793176043E+03 -0.23144728335E+03  0.12792965181E+03  0.45310884026E+03  0.25500000920E-02 0.  1.
       -2    1    3    3    0  502  0.36793176043E+03  0.23144728335E+03 -0.21502871838E+04  0.21937813469E+04  0.25500000920E-02 0. -1.
</event>
<event>
 5   0  0.2630135E-04  0.1710601E+04  0.7818609E-02  0.8755341E-01
        1   -1    0    0  501    0  0.00000000000E+00  0.00000000000E+00  0.71246077359E+03  0.71246077361E+03  0.50400001928E-02 0. -1.
       -1   -1    0    0    0  501  0.00000000000E+00  0.00000000000E+00 -0.10267779683E+04  0.10267779683E+04  0.50400001928E-02 0.  1.
    10030    2    1    2    0    0  0.00000000000E+00  0.00000000000E+00 -0.31431719474E+03  0.17392387420E+04  0.17106010939E+04 0.  0.
        1    1    3    3  502    0  0.20454025215E+03 -0.30359806848E+03  0.62878341239E+03  0.72758304107E+03  0.50400001928E-02 0. -1.
       -1    1    3    3    0  502 -0.20454025215E+03  0.30359806848E+03 -0.94310060713E+03  0.10116557009E+04  0.50400001928E-02 0.  1.
</event>
<event>
 5   0  0.2785059E-04  0.1693926E+04  0.7818609E-02  0.8764836E-01
       -1   -1    0    0    0  501  0.00000000000E+00  0.00000000000E+00  0.44179394602E+03  0.44179394605E+03  0.50400001928E-02 0. -1.
        1   -1    0    0  501    0  0.00000000000E+00  0.00000000000E+00 -0.16237132387E+04  0.16237132387E+04  0.50400001928E-02 0.  1.
    10030    2    1    2    0    0  0.00000000000E+00  0.00000000000E+00 -0.11819192927E+04  0.20655071848E+04  0.16939264199E+04 0.  0.
        5    1    3    3  502    0  0.62501957494E+03  0.50573337998E+03 -0.91565976349E+03  0.12185526715E+04  0.46999998093E+01 0.  1.
       -5    1    3    3    0  502 -0.62501957494E+03 -0.50573337998E+03 -0.26625952921E+03  0.84695451329E+03  0.46999998093E+01 0. -1.
</event>
<event>
 5   0  0.2583422E-04  0.1711430E+04  0.7818609E-02  0.8754872E-01
        1   -1    0    0  501    0  0.00000000000E+00  0.00000000000E+00  0.10316858484E+04  0.10316858484E+04  0.50400001928E-02 0.  1.
       -1   -1    0    0    0  501  0.00000000000E+00  0.00000000000E+00 -0.70975923595E+03  0.70975923596E+03  0.50400001928E-02 0. -1.
    10030    2    1    2    0    0  0.00000000000E+00  0.00000000000E+00  0.32192661244E+03  0.17414450844E+04  0.17114304654E+04 0.  0.
        3    1    3    3  502    0  0.70303149166E+03  0.45653857586E+03  0.33593187107E+03  0.90306753995E+03  0.10100000352E+00 0.  1.
       -3    1    3    3    0  502 -0.70303149166E+03 -0.45653857586E+03 -0.14005258631E+02  0.83837754441E+03  0.10100000352E+00 0. -1.
</event>
<event>
 5   0  0.5310003E-04  0.1759290E+04  0.7818609E-02  0.8728253E-01
       -2   -1    0    0    0  501  0.00000000000E+00  0.00000000000E+00  0.71163773992E+03  0.71163773992E+03  0.25500000920E-02 0. -1.
        2   -1    0    0  501    0  0.00000000000E+00  0.00000000000E+00 -0.10873157955E+04  0.10873157955E+04  0.25500000920E-02 0.  1.
    10030    2    1    2    0    0  0.00000000000E+00  0.00000000000E+00 -0.37567805561E+03  0.17989535354E+04  0.17592895786E+04 0.  0.
        1    1    3    3  502    0 -0.10918040257E+03 -0.45218692963E+03  0.57557286378E+03  0.74005236381E+03  0.50400001928E-02 0. -1.
       -1    1    3    3    0  502  0.10918040257E+03  0.45218692963E+03 -0.95125091939E+03  0.10589011716E+04  0.50400001928E-02 0.  1.
</event>
<event>
 5   0  0.2583422E-04  0.1699127E+04  0.7818609E-02  0.8761862E-01
        1   -1    0    0  501    0  0.00000000000E+00  0.00000000000E+00  0.17224192265E+04  0.17224192265E+04  0.50400001928E-02 0. -1.
       -1   -1    0    0    0  501  0.00000000000E+00  0.00000000000E+00 -0.41903743642E+03  0.41903743645E+03  0.50400001928E-02 0.  1.
    10030    2    1    2    0    0  0.00000000000E+00  0.00000000000E+00  0.13033817901E+04  0.21414566630E+04  0.16991269960E+04 0.  0.
        3    1    3    3  502    0 -0.15564027706E+02  0.10024267274E+03  0.17147585886E+04  0.17177566358E+04  0.10100000352E+00 0. -1.
       -3    1    3    3    0  502  0.15564027706E+02 -0.10024267274E+03 -0.41137679857E+03  0.42370002714E+03  0.10100000352E+00 0.  1.
</event>
<event>
 5   0  0.2630135E-04  0.1687762E+04  0.7818609E-02  0.8768375E-01
       -1   -1    0    0    0  501  0.00000000000E+00  0.00000000000E+00  0.14196863444E+04  0.14196863444E+04  0.50400001928E-02 0.  1.
        1   -1    0    0  501    0  0.00000000000E+00  0.00000000000E+00 -0.50161455881E+03  0.50161455884E+03  0.50400001928E-02 0. -1.
    10030    2    1    2    0    0  0.00000000000E+00  0.00000000000E+00  0.91807178555E+03  0.19213009032E+04  0.16877622336E+04 0.  0.
        1    1    3    3  502    0 -0.22820827851E+03 -0.38330109041E+03 -0.35642026450E+03  0.57099400107E+03  0.50400001928E-02 0. -1.
       -1    1    3    3    0  502  0.22820827851E+03  0.38330109041E+03  0.12744920500E+04  0.13503069021E+04  0.50400001928E-02 0.  1.
</event>
<event>
 5   0  0.2630135E-04  0.1739167E+04  0.7818609E-02  0.8739336E-01
        1   -1    0    0  501    0  0.00000000000E+00  0.00000000000E+00  0.10241956080E+04  0.10241956080E+04  0.50400001928E-02 0. -1.
       -1   -1    0    0    0  501  0.00000000000E+00  0.00000000000E+00 -0.73831128083E+03  0.73831128085E+03  0.50400001928E-02 0.  1.
    10030    2    1    2    0    0  0.00000000000E+00  0.00000000000E+00  0.28588432721E+03  0.17625068889E+04  0.17391666639E+04 0.  0.
        1    1    3    3  502    0  0.99797560783E+02  0.75045149063E+03 -0.29062907306E+03  0.81092678526E+03  0.50400001928E-02 0.  1.
       -1    1    3    3    0  502 -0.99797560783E+02 -0.75045149063E+03  0.57651340026E+03  0.95158010363E+03  0.50400001928E-02 0. -1.
</event>
<event>
 5   0  0.2561518E-04  0.1585708E+04  0.7818609E-02  0.8829377E-01
       -1   -1    0    0    0  501  0.00000000000E+00  0.00000000000E+00  0.11736116496E+04  0.11736116496E+04  0.50400001928E-02 0. -1.
        1   -1    0    0  501    0  0.00000000000E+00  0.00000000000E+00 -0.53562624288E+03  0.53562624290E+03  0.50400001928E-02 0.  1.
    10030    2    1    2    0    0  0.00000000000E+00  0.00000000000E+00  0.63798540675E+03  0.17092378925E+04  0.15857076635E+04 0.  0.
        4    1    3    3  502    0  0.48988136163E+03  0.94277630950E+02 -0.34524664522E+03  0.60668680479E+03  0.12699999809E+01 0.  1.
       -4    1    3    3    0  502 -0.48988136163E+03 -0.94277630950E+02  0.98323205197E+03  0.11025510877E+04  0.12699999809E+01 0. -1.
</event>
<event>
 5   0  0.2583422E-04  0.1678571E+04  0.7818609E-02  0.8773681E-01
        1   -1    0    0  501    0  0.00000000000E+00  0.00000000000E+00  0.11214565513E+04  0.11214565513E+04  0.50400001928E-02 0. -1.
       -1   -1    0    0    0  501  0.00000000000E+00  0.00000000000E+00 -0.62811206856E+03  0.62811206858E+03  0.50400001928E-02 0.  1.
    10030    2    1    2    0    0  0.00000000000E+00  0.00000000000E+00  0.49334448277E+03  0.17495686199E+04  0.16785712904E+04 0.  0.
        3    1    3    3  502    0  0.69877410194E+03 -0.30422612717E+03 -0.11970876825E+03  0.77147195762E+03  0.10100000352E+00 0. -1.
       -3    1    3    3    0  502 -0.69877410194E+03  0.30422612717E+03  0.61305325102E+03  0.97809666229E+03  0.10100000352E+00 0.  1.
</event>
<event>
 5   0  0.5310003E-04  0.1744189E+04  0.7818609E-02  0.8736556E-01
       -2   -1    0    0    0  501  0.00000000000E+00  0.00000000000E+00  0.10342962370E+04  0.10342962370E+04  0.25500000920E-02 0. -1.
        2   -1    0    0  501    0  0.00000000000E+00  0.00000000000E+00 -0.73532967279E+03  0.73532967280E+03  0.25500000920E-02 0.  1.
    10030    2    1    2    0    0  0.00000000000E+00  0.00000000000E+00  0.29896656416E+03  0.17696259097E+04  0.17441888814E+04 0.  0.
        1    1    3    3  502    0  0.79711802427E+03  0.35050560571E+03  0.10085317290E+03  0.87659722037E+03  0.50400001928E-02 0. -1.
       -1    1    3    3    0  502 -0.79711802427E+03 -0.35050560571E+03  0.19811339126E+03  0.89302868938E+03  0.50400001928E-02 0.  1.
</event>
<event>
 5   0  0.5299877E-04  0.1712453E+04  0.7818609E-02  0.8754294E-01
        2   -1    0    0  501    0  0.00000000000E+00  0.00000000000E+00  0.12823986251E+04  0.12823986251E+04  0.25500000920E-02 0. -1.
       -2   -1    0    0    0  501  0.00000000000E+00  0.00000000000E+00 -0.57168138453E+03  0.57168138453E+03  0.25500000920E-02 0.  1.
    10030    2    1    2    0    0  0.00000000000E+00  0.00000000000E+00  0.71071724055E+03  0.18540800096E+04  0.17124525354E+04 0.  0.
        3    1    3    3  502    0 -0.18020864745E+03  0.80201071457E+03  0.95899911851E+02  0.82758271260E+03  0.10100000352E+00 0.  1.
       -3    1    3    3    0  502  0.18020864745E+03 -0.80201071457E+03  0.61481732870E+03  0.10264972970E+04  0.10100000352E+00 0. -1.
</event>
<event>
 5   0  0.2583422E-04  0.1694770E+04  0.7818609E-02  0.8764353E-01
        1   -1    0    0  501    0  0.00000000000E+00  0.00000000000E+00  0.95853229142E+03  0.95853229144E+03  0.50400001928E-02 0.  1.
       -1   -1    0    0    0  501  0.00000000000E+00  0.00000000000E+00 -0.74912575592E+03  0.74912575594E+03  0.50400001928E-02 0. -1.
    10030    2    1    2    0    0  0.00000000000E+00  0.00000000000E+00  0.20940653550E+03  0.17076580474E+04  0.16947698692E+04 0.  0.
        3    1    3    3  502    0 -0.25045902781E+03 -0.66162282844E+03 -0.36530594756E+03  0.79619277644E+03  0.10100000352E+00 0.  1.
       -3    1    3    3    0  502  0.25045902781E+03  0.66162282844E+03  0.57471248306E+03  0.91146527093E+03  0.10100000352E+00 0. -1.
</event>
<event>
 5   0  0.1910750E-04  0.1683282E+04  0.7818609E-02  0.8770957E-01
       -4   -1    0    0    0  501  0.00000000000E+00  0.00000000000E+00  0.73853889805E+03  0.73853999000E+03  0.12699999809E+01 0.  1.
        4   -1    0    0  501    0  0.00000000000E+00  0.00000000000E+00 -0.95913430100E+03  0.95913514181E+03  0.12699999809E+01 0. -1.
    10030    2    1    2    0    0  0.00000000000E+00  0.00000000000E+00 -0.22059540295E+03  0.16976751318E+04  0.16832820683E+04 0.  0.
        4    1    3    3  502    0 -0.72551356623E+03 -0.17345136280E+03 -0.50337724881E+03  0.89991420567E+03  0.12699999809E+01 0. -1.
       -4    1    3    3    0  502  0.72551356623E+03  0.17345136280E+03  0.28278184587E+03  0.79776092615E+03  0.12699999809E+01 0.  1.
</event>
<event>
 5   0  0.2561518E-04  0.1690778E+04  0.7818609E-02  0.8766642E-01
        1   -1    0    0  501    0  0.00000000000E+00  0.00000000000E+00  0.65172949768E+03  0.65172949770E+03  0.50400001928E-02 0. -1.
       -1   -1    0    0    0  501  0.00000000000E+00  0.00000000000E+00 -0.10965936876E+04  0.10965936876E+04  0.50400001928E-02 0.  1.
    10030    2    1    2    0    0  0.00000000000E+00  0.00000000000E+00 -0.44486418995E+03  0.17483231853E+04  0.16907778721E+04 0.  0.
        4    1    3    3  502    0  0.33760250602E+03  0.61133162613E+03  0.27020604354E+03  0.74880887284E+03  0.12699999809E+01 0. -1.
       -4    1    3    3    0  502 -0.33760250602E+03 -0.61133162613E+03 -0.71507023348E+03  0.99951431250E+03  0.12699999809E+01 0.  1.
</event>
<event>
 5   0  0.2595644E-04  0.1565682E+04  0.7818609E-02  0.8841913E-01
        1   -1    0    0  501    0  0.00000000000E+00  0.00000000000E+00  0.71938377269E+03  0.71938377271E+03  0.50400001928E-02 0. -1.
       -1   -1    0    0    0  501  0.00000000000E+00  0.00000000000E+00 -0.85189581604E+03  0.85189581606E+03  0.50400001928E-02 0.  1.
    10030    2    1    2    0    0  0.00000000000E+00  0.00000000000E+00 -0.13251204335E+03  0.15712795888E+04  0.15656819934E+04 0.  0.
        2    1    3    3  502    0  0.23055232338E+03 -0.74249848243E+03 -0.15813471821E+03  0.79338827779E+03  0.25500000920E-02 0. -1.
       -2    1    3    3    0  502 -0.23055232338E+03  0.74249848243E+03  0.25622674860E+02  0.77789131098E+03  0.25500000920E-02 0.  1.
</event>
<event>
 5   0  0.2630135E-04  0.1721744E+04  0.7818609E-02  0.8749059E-01
       -1   -1    0    0    0  501  0.00000000000E+00  0.00000000000E+00  0.63199710713E+03  0.63199710715E+03  0.50400001928E-02 0. -1.
        1   -1    0    0  501    0  0.00000000000E+00  0.00000000000E+00 -0.11726331731E+04  0.11726331731E+04  0.50400001928E-02 0.  1.
    10030    2    1    2    0    0  0.00000000000E+00  0.00000000000E+00 -0.54063606600E+03  0.18046302803E+04  0.17217442007E+04 0.  0.
        1    1    3    3  502    0  0.25344242477E+03  0.79787459352E+03 -0.48063641207E+03  0.96532289431E+03  0.50400001928E-02 0.  1.
       -1    1    3    3    0  502 -0.25344242477E+03 -0.79787459352E+03 -0.59999653931E+02  0.83930738597E+03  0.50400001928E-02 0. -1.
</event>
<event>
 5   0  0.2785059E-04  0.1685195E+04  0.7818609E-02  0.8769854E-01
        1   -1    0    0  501    0  0.00000000000E+00  0.00000000000E+00  0.14753046482E+04  0.14753046482E+04  0.50400001928E-02 0.  1.
       -1   -1    0    0    0  501  0.00000000000E+00  0.00000000000E+00 -0.48123643239E+03  0.48123643241E+03  0.50400001928E-02 0. -1.
    10030    2    1    2    0    0  0.00000000000E+00  0.00000000000E+00  0.99406821582E+03  0.19565410806E+04  0.16851947610E+04 0.  0.
        5    1    3    3  502    0 -0.55507280073E+03  0.63043208535E+03  0.42003991784E+03  0.93915177204E+03  0.46999998093E+01 0. -1.
       -5    1    3    3    0  502  0.55507280073E+03 -0.63043208535E+03  0.57402829798E+03  0.10173893086E+04  0.46999998093E+01 0.  1.
</event>
<event>
 5   0  0.5342255E-04  0.1707123E+04  0.7818609E-02  0.8757312E-01
       -2   -1    0    0    0  501  0.00000000000E+00  0.00000000000E+00  0.35067457288E+03  0.35067457289E+03  0.25500000920E-02 0. -1.
        2   -1    0    0  501    0  0.00000000000E+00  0.00000000000E+00 -0.20776171554E+04  0.20776171554E+04  0.25500000920E-02 0.  1.
    10030    2    1    2    0    0  0.00000000000E+00  0.00000000000E+00 -0.17269425825E+04  0.24282917283E+04  0.17071233214E+04 0.  0.
        5    1    3    3  502    0 -0.70723124752E+03 -0.17805723140E+03 -0.14942826533E+04  0.16627637093E+04  0.46999998093E+01 0. -1.
       -5    1    3    3    0  502  0.70723124752E+03  0.17805723140E+03 -0.23265992920E+03  0.76552801893E+03  0.46999998093E+01 0.  1.
</event>
<event>
 5   0  0.5198430E-04  0.1676610E+04  0.7818609E-02  0.8774818E-01
       -2   -1    0    0    0  501  0.00000000000E+00  0.00000000000E+00  0.61506351058E+03  0.61506351059E+03  0.25500000920E-02 0. -1.
        2   -1    0    0  501    0  0.00000000000E+00  0.00000000000E+00 -0.11425740946E+04  0.11425740946E+04  0.25500000920E-02 0.  1.
    10030    2    1    2    0    0  0.00000000000E+00  0.00000000000E+00 -0.52751058404E+03  0.17576376052E+04  0.16766104303E+04 0.  0.
        4    1    3    3  502    0 -0.48824924134E+03 -0.47191234476E+03  0.25159727568E+03  0.72414873116E+03  0.12699999809E+01 0. -1.
       -4    1    3    3    0  502  0.48824924134E+03  0.47191234476E+03 -0.77910785972E+03  0.10334888740E+04  0.12699999809E+01 0.  1.
</event>
<event>
 5   0  0.2785059E-04  0.1631085E+04  0.7818609E-02  0.8801676E-01
        1   -1    0    0  501    0  0.00000000000E+00  0.00000000000E+00  0.98642593435E+03  0.98642593437E+03  0.50400001928E-02 0.  1.
       -1   -1    0    0    0  501  0.00000000000E+00  0.00000000000E+00 -0.67426178784E+03  0.67426178786E+03  0.50400001928E-02 0. -1.
    10030    2    1    2    0    0  0.00000000000E+00  0.00000000000E+00  0.31216414651E+03  0.16606877222E+04  0.16310846871E+04 0.  0.
        5    1    3    3  502    0  0.79437004111E+03 -0.14885062573E+01 -0.31824395574E+02  0.79502255315E+03  0.46999998093E+01 0.  1.
       -5    1    3    3    0  502 -0.79437004111E+03  0.14885062573E+01  0.34398854209E+03  0.86566516908E+03  0.46999998093E+01 0. -1.
</event>
<event>
 5   0  0.1910750E-04  0.1702136E+04  0.7818609E-02  0.8760147E-01
        3   -1    0    0  501    0  0.00000000000E+00  0.00000000000E+00  0.77602923014E+03  0.77602923671E+03  0.10100000352E+00 0. -1.
       -3   -1    0    0    0  501  0.00000000000E+00  0.00000000000E+00 -0.93336236505E+03  0.93336237052E+03  0.10100000352E+00 0.  1.
    10030    2    1    2    0    0  0.00000000000E+00  0.00000000000E+00 -0.15733313491E+03  0.17093916072E+04  0.17021357030E+04 0.  0.
        2    1    3    3  502    0  0.32158688142E+03  0.76314210551E+03  0.11841599426E+03  0.83655624031E+03  0.25500000920E-02 0.  1.
       -2    1    3    3    0  502 -0.32158688142E+03 -0.76314210551E+03 -0.27574912918E+03  0.87283536692E+03  0.25500000920E-02 0. -1.
</event>
<event>
 5   0  0.5310003E-04  0.1681644E+04  0.7818609E-02  0.8771903E-01
        2   -1    0    0  501    0  0.00000000000E+00  0.00000000000E+00  0.77408961256E+03  0.77408961256E+03  0.25500000920E-02 0. -1.
       -2   -1    0    0    0  501  0.00000000000E+00  0.00000000000E+00 -0.91330701691E+03  0.91330701692E+03  0.25500000920E-02 0.  1.
    10030    2    1    2    0    0  0.00000000000E+00  0.00000000000E+00 -0.13921740436E+03  0.16873966295E+04  0.16816438087E+04 0.  0.
        1    1    3    3  502    0  0.31910531739E+03 -0.77567618255E+03 -0.10417657426E+02  0.83881480160E+03  0.50400001928E-02 0. -1.
       -1    1    3    3    0  502 -0.31910531739E+03  0.77567618255E+03 -0.12879974693E+03  0.84858182788E+03  0.50400001928E-02 0.  1.
</event>
<event>
 5   0  0.5198430E-04  0.1695673E+04  0.7818609E-02  0.8763836E-01
       -2   -1    0    0    0  501  0.00000000000E+00  0.00000000000E+00  0.82060528903E+03  0.82060528903E+03  0.25500000920E-02 0.  1.
        2   -1    0    0  501    0  0.00000000000E+00  0.00000000000E+00 -0.87597157870E+03  0.87597157871E+03  0.25500000920E-02 0. -1.
    10030    2    1    2    0    0  0.00000000000E+00  0.00000000000E+00 -0.55366289674E+02  0.16965768677E+04  0.16956732121E+04 0.  0.
        4    1    3    3  502    0  0.27105472172E+03  0.79590664716E+03 -0.13676988883E+03  0.85184838355E+03  0.12699999809E+01 0.  1.
       -4    1    3    3    0  502 -0.27105472172E+03 -0.79590664716E+03  0.81403599152E+02  0.84472848420E+03  0.12699999809E+01 0. -1.
</event>
<event>
 5   0  0.5198430E-04  0.1711093E+04  0.7818609E-02  0.8755063E-01
       -2   -1    0    0    0  501  0.00000000000E+00  0.00000000000E+00  0.34773295952E+03  0.34773295953E+03  0.25500000920E-02 0. -1.
        2   -1    0    0  501    0  0.00000000000E+00  0.00000000000E+00 -0.21049482015E+04  0.21049482015E+04  0.25500000920E-02 0.  1.
    10030    2    1    2    0    0  0.00000000000E+00  0.00000000000E+00 -0.17572152420E+04  0.24526811610E+04  0.17110930632E+04 0.  0.
        4    1    3    3  502    0 -0.31725792614E+03 -0.79453973429E+03 -0.87358584957E+03  0.12227427491E+04  0.12699999809E+01 0. -1.
       -4    1    3    3    0  502  0.31725792614E+03  0.79453973429E+03 -0.88362939240E+03  0.12299384119E+04  0.12699999809E+01 0.  1.
</event>
<event>
 5   0  0.2561518E-04  0.1696126E+04  0.7818609E-02  0.8763577E-01
       -1   -1    0    0    0  501  0.00000000000E+00  0.00000000000E+00  0.52970284383E+03  0.52970284386E+03  0.50400001928E-02 0. -1.
        1   -1    0    0  501    0  0.00000000000E+00  0.00000000000E+00 -0.13577625522E+04  0.13577625522E+04  0.50400001928E-02 0.  1.
    10030    2    1    2    0    0  0.00000000000E+00  0.00000000000E+00 -0.82805970835E+03  0.18874653960E+04  0.16961258033E+04 0.  0.
        4    1    3    3  502    0  0.78534731410E+03 -0.31465168383E+03 -0.34882844581E+03  0.91512785085E+03  0.12699999809E+01 0. -1.
       -4    1    3    3    0  502 -0.78534731410E+03  0.31465168383E+03 -0.47923126254E+03  0.97233754519E+03  0.12699999809E+01 0.  1.
</event>
<event>
 5   0  0.2583422E-04  0.1702228E+04  0.7818609E-02  0.8760095E-01
        1   -1    0    0  501    0  0.00000000000E+00  0.00000000000E+00  0.11963248484E+04  0.11963248484E+04  0.50400001928E-02 0. -1.
       -1   -1    0    0    0  501  0.00000000000E+00  0.00000000000E+00 -0.60551717675E+03  0.60551717677E+03  0.50400001928E-02 0.  1.
    10030    2    1    2    0    0  0.00000000000E+00  0.00000000000E+00  0.59080767161E+03  0.18018420251E+04  0.17022282393E+04 0.  0.
        3    1    3    3  502    0  0.37578915957E+03  0.52415129441E+03 -0.29247319858E+03  0.70816146038E+03  0.10100000352E+00 0.  1.
       -3    1    3    3    0  502 -0.37578915957E+03 -0.52415129441E+03  0.88328087019E+03  0.10936805648E+04  0.10100000352E+00 0. -1.
</event>
<event>
 5   0  0.2583422E-04  0.1711197E+04  0.7818609E-02  0.8755004E-01
        1   -1    0    0  501    0  0.00000000000E+00  0.00000000000E+00  0.59320645853E+03  0.59320645855E+03  0.50400001928E-02 0.  1.
       -1   -1    0    0    0  501  0.00000000000E+00  0.00000000000E+00 -0.12340534077E+04  0.12340534077E+04  0.50400001928E-02 0. -1.
    10030    2    1    2    0    0  0.00000000000E+00  0.00000000000E+00 -0.64084694913E+03  0.18272598662E+04  0.17111966008E+04 0.  0.
        3    1    3    3  502    0 -0.14517109328E+03 -0.27403716681E+03  0.53108134522E+03  0.61499465084E+03  0.10100000352E+00 0.  1.
       -3    1    3    3    0  502  0.14517109328E+03  0.27403716681E+03 -0.11719282944E+04  0.12122652154E+04  0.10100000352E+00 0. -1.
</event>
<event>
 5   0  0.5198430E-04  0.1714339E+04  0.7818609E-02  0.8753228E-01
        2   -1    0    0  501    0  0.00000000000E+00  0.00000000000E+00  0.58018678747E+03  0.58018678747E+03  0.25500000920E-02 0.  1.
       -2   -1    0    0    0  501  0.00000000000E+00  0.00000000000E+00 -0.12663844928E+04  0.12663844928E+04  0.25500000920E-02 0. -1.
    10030    2    1    2    0    0  0.00000000000E+00  0.00000000000E+00 -0.68619770530E+03  0.18465712802E+04  0.17143389986E+04 0.  0.
        4    1    3    3  502    0 -0.20941936291E+03  0.18825630789E+03  0.52894070163E+03  0.59923016093E+03  0.12699999809E+01 0.  1.
       -4    1    3    3    0  502  0.20941936291E+03 -0.18825630789E+03 -0.12151384069E+04  0.12473411193E+04  0.12699999809E+01 0. -1.
</event>
<event>
 5   0  0.2561518E-04  0.1747672E+04  0.7818609E-02  0.8734633E-01
       -1   -1    0    0    0  501  0.00000000000E+00  0.00000000000E+00  0.97103866819E+03  0.97103866821E+03  0.50400001928E-02 0.  1.
        1   -1    0    0  501    0  0.00000000000E+00  0.00000000000E+00 -0.78636350433E+03  0.78636350434E+03  0.50400001928E-02 0. -1.
    10030    2    1    2    0    0  0.00000000000E+00  0.00000000000E+00  0.18467516387E+03  0.17574021726E+04  0.17476720173E+04 0.  0.
        4    1    3    3  502    0 -0.19244769288E+03 -0.55225390254E+02  0.94766232178E+03  0.96858218404E+03  0.12699999809E+01 0.  1.
       -4    1    3    3    0  502  0.19244769288E+03  0.55225390254E+02 -0.76298715792E+03  0.78881998851E+03  0.12699999809E+01 0. -1.
</event>
<event>
 5   0  0.5310003E-04  0.1719242E+04  0.7818609E-02  0.8750465E-01
       -2   -1    0    0    0  501  0.00000000000E+00  0.00000000000E+00  0.36016634086E+03  0.36016634087E+03  0.25500000920E-02 0. -1.
        2   -1    0    0  501    0  0.00000000000E+00  0.00000000000E+00 -0.20516868449E+04  0.20516868449E+04  0.25500000920E-02 0.  1.
    10030    2    1    2    0    0  0.00000000000E+00  0.00000000000E+00 -0.16915205040E+04  0.24118531857E+04  0.17192423256E+04 0.  0.
        1    1    3    3  502    0  0.83641498253E+03 -0.93931470274E+02 -0.60061946509E+03  0.10340004284E+04  0.50400001928E-02 0. -1.
       -1    1    3    3    0  502 -0.83641498253E+03  0.93931470274E+02 -0.10909010389E+04  0.13778527573E+04  0.50400001928E-02 0.  1.
</event>
<event>
 5   0  0.2785059E-04  0.1673470E+04  0.7818609E-02  0.8776642E-01
        1   -1    0    0  501    0  0.00000000000E+00  0.00000000000E+00  0.14301391834E+04  0.14301391834E+04  0.50400001928E-02 0.  1.
       -1   -1    0    0    0  501  0.00000000000E+00  0.00000000000E+00 -0.48955048337E+03  0.48955048340E+03  0.50400001928E-02 0. -1.
    10030    2    1    2    0    0  0.00000000000E+00  0.00000000000E+00  0.94058869999E+03  0.19196896668E+04  0.16734698426E+04 0.  0.
        5    1    3    3  502    0 -0.81706924711E+03  0.17435090534E+03  0.52289811719E+03  0.98561905609E+03  0.46999998093E+01 0. -1.
       -5    1    3    3    0  502  0.81706924711E+03 -0.17435090534E+03  0.41769058280E+03  0.93407061067E+03  0.46999998093E+01 0.  1.
</event>
<event>
 5   0  0.5299877E-04  0.1708982E+04  0.7818609E-02  0.8756258E-01
        2   -1    0    0  501    0  0.00000000000E+00  0.00000000000E+00  0.18763047687E+04  0.18763047687E+04  0.25500000920E-02 0. -1.
       -2   -1    0    0    0  501  0.00000000000E+00  0.00000000000E+00 -0.38914507029E+03  0.38914507029E+03  0.25500000920E-02 0.  1.
    10030    2    1    2    0    0  0.00000000000E+00  0.00000000000E+00  0.14871596984E+04  0.22654498390E+04  0.17089818619E+04 0.  0.
        3    1    3    3  502    0 -0.26738595358E+03 -0.56893175431E+03 -0.23647263249E+02  0.62907693686E+03  0.10100000352E+00 0.  1.
       -3    1    3    3    0  502  0.26738595358E+03  0.56893175431E+03  0.15108069617E+04  0.16363729022E+04  0.10100000352E+00 0. -1.
</event>
<event>
 5   0  0.5310003E-04  0.1699376E+04  0.7818609E-02  0.8761721E-01
        2   -1    0    0  501    0  0.00000000000E+00  0.00000000000E+00  0.12326803796E+04  0.12326803796E+04  0.25500000920E-02 0. -1.
       -2   -1    0    0    0  501  0.00000000000E+00  0.00000000000E+00 -0.58569058598E+03  0.58569058598E+03  0.25500000920E-02 0.  1.
    10030    2    1    2    0    0  0.00000000000E+00  0.00000000000E+00  0.64698979359E+03  0.18183709656E+04  0.16993755251E+04 0.  0.
        1    1    3    3  502    0  0.50181794823E+03 -0.50322140089E+03 -0.17486052262E+03  0.73186695094E+03  0.50400001928E-02 0.  1.
       -1    1    3    3    0  502 -0.50181794823E+03  0.50322140089E+03  0.82185031621E+03  0.10865040146E+04  0.50400001928E-02 0. -1.
</event>
<event>
 5   0  0.2785059E-04  0.1728150E+04  0.7818609E-02  0.8745470E-01
       -1   -1    0    0    0  501  0.00000000000E+00  0.00000000000E+00  0.11460652514E+04  0.11460652515E+04  0.50400001928E-02 0.  1.
        1   -1    0    0  501    0  0.00000000000E+00  0.00000000000E+00 -0.65146862282E+03  0.65146862284E+03  0.50400001928E-02 0. -1.
    10030    2    1    2    0    0  0.00000000000E+00  0.00000000000E+00  0.49459662863E+03  0.17975338743E+04  0.17281499368E+04 0.  0.
        5    1    3    3  502    0  0.93836526321E+02 -0.43709176525E+03 -0.52181378729E+03  0.68714352469E+03  0.46999998093E+01 0. -1.
       -5    1    3    3    0  502 -0.93836526321E+02  0.43709176525E+03  0.10164104159E+04  0.11103903496E+04  0.46999998093E+01 0.  1.
</event>
<event>
 5   0  0.2595644E-04  0.1724395E+04  0.7818609E-02  0.8747572E-01
        1   -1    0    0  501    0  0.00000000000E+00  0.00000000000E+00  0.14021059469E+04  0.14021059469E+04  0.50400001928E-02 0.  1.
       -1   -1    0    0    0  501  0.00000000000E+00  0.00000000000E+00 -0.53019117423E+03  0.53019117425E+03  0.50400001928E-02 0. -1.
    10030    2    1    2    0    0  0.00000000000E+00  0.00000000000E+00  0.87191477270E+03  0.19322971212E+04  0.17243946166E+04 0.  0.
        2    1    3    3  502    0 -0.41303667924E+02 -0.73825127350E+03  0.93289156528E+03  0.11903812870E+04  0.25500000920E-02 0.  1.
       -2    1    3    3    0  502  0.41303667924E+02  0.73825127350E+03 -0.60976792582E+02  0.74191583421E+03  0.25500000920E-02 0. -1.
</event>
<event>
 5   0  0.5021349E-04  0.1721482E+04  0.7818609E-02  0.8749207E-01
        2   -1    0    0  501    0  0.00000000000E+00  0.00000000000E+00  0.12341831537E+04  0.12341831537E+04  0.25500000920E-02 0. -1.
       -2   -1    0    0    0  501  0.00000000000E+00  0.00000000000E+00 -0.60029561815E+03  0.60029561816E+03  0.25500000920E-02 0.  1.
    10030    2    1    2    0    0  0.00000000000E+00  0.00000000000E+00  0.63388753558E+03  0.18344787719E+04  0.17214816167E+04 0.  0.
        2    1    3    3  502    0 -0.38286217673E+03  0.30674970825E+03 -0.43672474088E+03  0.65681605430E+03  0.25500000920E-02 0.  1.
       -2    1    3    3    0  502  0.38286217673E+03 -0.30674970825E+03  0.10706122765E+04  0.11776627176E+04  0.25500000920E-02 0. -1.
</event>
<event>
 5   0  0.5021349E-04  0.1698477E+04  0.7818609E-02  0.8762233E-01
        2   -1    0    0  501    0  0.00000000000E+00  0.00000000000E+00  0.74545051606E+03  0.74545051606E+03  0.25500000920E-02 0.  1.
       -2   -1    0    0    0  501  0.00000000000E+00  0.00000000000E+00 -0.96747693461E+03  0.96747693462E+03  0.25500000920E-02 0. -1.
    10030    2    1    2    0    0  0.00000000000E+00  0.00000000000E+00 -0.22202641856E+03  0.17129274507E+04  0.16984771770E+04 0.  0.
        2    1    3    3  502    0 -0.61361040130E+02  0.83511510259E+03 -0.25372247123E+03  0.87496143014E+03  0.25500000920E-02 0.  1.
       -2    1    3    3    0  502  0.61361040130E+02 -0.83511510259E+03  0.31696052676E+02  0.83796602054E+03  0.25500000920E-02 0. -1.
</event>
<event>
 5   0  0.2583422E-04  0.1694952E+04  0.7818609E-02  0.8764249E-01
        1   -1    0    0  501    0  0.00000000000E+00  0.00000000000E+00  0.12909767607E+04  0.12909767607E+04  0.50400001928E-02 0. -1.
       -1   -1    0    0    0  501  0.00000000000E+00  0.00000000000E+00 -0.55633500336E+03  0.55633500338E+03  0.50400001928E-02 0.  1.
    10030    2    1    2    0    0  0.00000000000E+00  0.00000000000E+00  0.73464175733E+03  0.18473117641E+04  0.16949519881E+04 0.  0.
        3    1    3    3  502    0  0.77802505143E+03 -0.22138787728E+03  0.64278508341E+03  0.10332029067E+04  0.10100000352E+00 0. -1.
       -3    1    3    3    0  502 -0.77802505143E+03  0.22138787728E+03  0.91856673921E+02  0.81410885734E+03  0.10100000352E+00 0.  1.
</event>
<event>
 5   0  0.2595644E-04  0.1718477E+04  0.7818609E-02  0.8750896E-01
        1   -1    0    0  501    0  0.00000000000E+00  0.00000000000E+00  0.19529024656E+04  0.19529024656E+04  0.50400001928E-02 0. -1.
       -1   -1    0    0    0  501  0.00000000000E+00  0.00000000000E+00 -0.37804813200E+03  0.37804813204E+03  0.50400001928E-02 0.  1.
    10030    2    1    2    0    0  0.00000000000E+00  0.00000000000E+00  0.15748543336E+04  0.23309505977E+04  0.17184773832E+04 0.  0.
        2    1    3    3  502    0  0.85849823469E+03 -0.34791381661E+02  0.79806175572E+03  0.11726603196E+04  0.25500000920E-02 0.  1.
       -2    1    3    3    0  502 -0.85849823469E+03  0.34791381661E+02  0.77679257791E+03  0.11582902781E+04  0.25500000920E-02 0. -1.
</event>
<event>
 5   0  0.5310003E-04  0.1741571E+04  0.7818609E-02  0.8738004E-01
       -2   -1    0    0    0  501  0.00000000000E+00  0.00000000000E+00  0.48579323646E+03  0.48579323647E+03  0.25500000920E-02 0.  1.
        2   -1    0    0  501    0  0.00000000000E+00  0.00000000000E+00 -0.15608844503E+04  0.15608844503E+04  0.25500000920E-02 0. -1.
    10030    2    1    2    0    0  0.00000000000E+00  0.00000000000E+00 -0.10750912138E+04  0.20466776867E+04  0.17415706806E+04 0.  0.
        1    1    3    3  502    0  0.47137386179E+03 -0.64672386805E+03 -0.13415888358E+03  0.81144542956E+03  0.50400001928E-02 0.  1.
       -1    1    3    3    0  502 -0.47137386179E+03  0.64672386805E+03 -0.94093233023E+03  0.12352322572E+04  0.50400001928E-02 0. -1.
</event>
<event>
 5   0  0.2561518E-04  0.1761933E+04  0.7818609E-02  0.8726809E-01
        1   -1    0    0  501    0  0.00000000000E+00  0.00000000000E+00  0.13737067036E+04  0.13737067036E+04  0.50400001928E-02 0.  1.
       -1   -1    0    0    0  501  0.00000000000E+00  0.00000000000E+00 -0.56496931345E+03  0.56496931347E+03  0.50400001928E-02 0. -1.
    10030    2    1    2    0    0  0.00000000000E+00  0.00000000000E+00  0.80873739015E+03  0.19386760171E+04  0.17619331806E+04 0.  0.
        4    1    3    3  502    0  0.70306886043E+03 -0.52487571626E+03  0.49170449316E+03  0.10057709787E+04  0.12699999809E+01 0.  1.
       -4    1    3    3    0  502 -0.70306886043E+03  0.52487571626E+03  0.31703289699E+03  0.93290503842E+03  0.12699999809E+01 0. -1.
</event>
<event>
 5   0  0.5310003E-04  0.1683704E+04  0.7818609E-02  0.8770714E-01
        2   -1    0    0  501    0  0.00000000000E+00  0.00000000000E+00  0.11235486057E+04  0.11235486057E+04  0.25500000920E-02 0. -1.
       -2   -1    0    0    0  501  0.00000000000E+00  0.00000000000E+00 -0.63078217945E+03  0.63078217946E+03  0.25500000920E-02 0.  1.
    10030    2    1    2    0    0  0.00000000000E+00  0.00000000000E+00  0.49276642625E+03  0.17543307852E+04  0.16837035823E+04 0.  0.
        1    1    3    3  502    0 -0.33641240360E+03  0.73683012048E+03  0.73646597013E+01  0.81002849948E+03  0.50400001928E-02 0. -1.
       -1    1    3    3    0  502  0.33641240360E+03 -0.73683012048E+03  0.48540176655E+03  0.94430228568E+03  0.50400001928E-02 0.  1.
</event>
<event>
 5   0  0.2630135E-04  0.1705302E+04  0.7818609E-02  0.8758346E-01
        1   -1    0    0  501    0  0.00000000000E+00  0.00000000000E+00  0.10913180121E+04  0.10913180121E+04  0.50400001928E-02 0. -1.
       -1   -1    0    0    0  501  0.00000000000E+00  0.00000000000E+00 -0.66617964299E+03  0.66617964301E+03  0.50400001928E-02 0.  1.
    10030    2    1    2    0    0  0.00000000000E+00  0.00000000000E+00  0.42513836910E+03  0.17574976551E+04  0.17053021359E+04 0.  0.
        1    1    3    3  502    0  0.19256238141E+03  0.69424833989E+03 -0.25740696690E+03  0.76506168040E+03  0.50400001928E-02 0.  1.
       -1    1    3    3    0  502 -0.19256238141E+03 -0.69424833989E+03  0.68254533600E+03  0.99243597471E+03  0.50400001928E-02 0. -1.
</event>
<event>
 5   0  0.5198430E-04  0.1695564E+04  0.7818609E-02  0.8763898E-01
        2   -1    0    0  501    0  0.00000000000E+00  0.00000000000E+00  0.12879752048E+04  0.12879752048E+04  0.25500000920E-02 0. -1.
       -2   -1    0    0    0  501  0.00000000000E+00  0.00000000000E+00 -0.55803420141E+03  0.55803420141E+03  0.25500000920E-02 0.  1.
    10030    2    1    2    0    0  0.00000000000E+00  0.00000000000E+00  0.72994100336E+03  0.18460094062E+04  0.16955638765E+04 0.  0.
        4    1    3    3  502    0  0.16691092156E+03  0.76656367805E+03  0.15128386798E+02  0.78467165695E+03  0.12699999809E+01 0.  1.
       -4    1    3    3    0  502 -0.16691092156E+03 -0.76656367805E+03  0.71481261656E+03  0.10613377492E+04  0.12699999809E+01 0. -1.
</event>
<event>
 5   0  0.2785059E-04  0.1666359E+04  0.7818609E-02  0.8780787E-01
        1   -1    0    0  501    0  0.00000000000E+00  0.00000000000E+00  0.83701061926E+03  0.83701061928E+03  0.50400001928E-02 0.  1.
       -1   -1    0    0    0  501  0.00000000000E+00  0.00000000000E+00 -0.82936589893E+03  0.82936589894E+03  0.50400001928E-02 0. -1.
    10030    2    1    2    0    0  0.00000000000E+00  0.00000000000E+00  0.76447203352E+01  0.16663765182E+04  0.16663589825E+04 0.  0.
        5    1    3    3  502    0 -0.35542070127E+03  0.41485663495E+02 -0.74859571148E+03  0.82973644275E+03  0.46999998093E+01 0. -1.
       -5    1    3    3    0  502  0.35542070127E+03 -0.41485663495E+02  0.75624043182E+03  0.83664007547E+03  0.46999998093E+01 0.  1.
</event>
<event>
 5   0  0.5299877E-04  0.1716685E+04  0.7818609E-02  0.8751905E-01
        2   -1    0    0  501    0  0.00000000000E+00  0.00000000000E+00  0.70206506939E+03  0.70206506939E+03  0.25500000920E-02 0. -1.
       -2   -1    0    0    0  501  0.00000000000E+00  0.00000000000E+00 -0.10494066383E+04  0.10494066383E+04  0.25500000920E-02 0.  1.
    10030    2    1    2    0    0  0.00000000000E+00  0.00000000000E+00 -0.34734156887E+03  0.17514717077E+04  0.17166848800E+04 0.  0.
        3    1    3    3  502    0 -0.62483674876E+03 -0.19629501078E+03 -0.73970954975E+03  0.98798933296E+03  0.10100000352E+00 0.  1.
       -3    1    3    3    0  502  0.62483674876E+03  0.19629501078E+03  0.39236798088E+03  0.76348237470E+03  0.10100000352E+00 0. -1.
</event>
<event>
 5   0  0.5021349E-04  0.1692367E+04  0.7818609E-02  0.8765729E-01
       -2   -1    0    0    0  501  0.00000000000E+00  0.00000000000E+00  0.28842826177E+03  0.28842826178E+03  0.25500000920E-02 0. -1.
        2   -1    0    0  501    0  0.00000000000E+00  0.00000000000E+00 -0.24825128807E+04  0.24825128807E+04  0.25500000920E-02 0.  1.
    10030    2    1    2    0    0  0.00000000000E+00  0.00000000000E+00 -0.21940846190E+04  0.27709411425E+04  0.16923674247E+04 0.  0.
        2    1    3    3  502    0 -0.42045178448E+03  0.72214838249E+03 -0.87891090834E+03  0.12127499224E+04  0.25500000920E-02 0. -1.
       -2    1    3    3    0  502  0.42045178448E+03 -0.72214838249E+03 -0.13151737106E+04  0.15581912201E+04  0.25500000920E-02 0.  1.
</event>
<event>
 5   0  0.5310003E-04  0.1750619E+04  0.7818609E-02  0.8733010E-01
       -2   -1    0    0    0  501  0.00000000000E+00  0.00000000000E+00  0.37892917077E+03  0.37892917078E+03  0.25500000920E-02 0.  1.
        2   -1    0    0  501    0  0.00000000000E+00  0.00000000000E+00 -0.20219257506E+04  0.20219257506E+04  0.25500000920E-02 0. -1.
    10030    2    1    2    0    0  0.00000000000E+00  0.00000000000E+00 -0.16429965799E+04  0.24008549214E+04  0.17506189169E+04 0.  0.
        1    1    3    3  502    0 -0.12121350401E+03 -0.82649273713E+03 -0.46286502826E+03  0.95500104318E+03  0.50400001928E-02 0.  1.
       -1    1    3    3    0  502  0.12121350401E+03  0.82649273713E+03 -0.11801315516E+04  0.14458538782E+04  0.50400001928E-02 0. -1.
</event>
<event>
 5   0  0.2595644E-04  0.1708485E+04  0.7818609E-02  0.8756540E-01
       -1   -1    0    0    0  501  0.00000000000E+00  0.00000000000E+00  0.58713835037E+03  0.58713835039E+03  0.50400001928E-02 0.  1.
        1   -1    0    0  501    0  0.00000000000E+00  0.00000000000E+00 -0.12428586763E+04  0.12428586763E+04  0.50400001928E-02 0. -1.
    10030    2    1    2    0    0  0.00000000000E+00  0.00000000000E+00 -0.65572032595E+03  0.18299970267E+04  0.17084847005E+04 0.  0.
        2    1    3    3  502    0  0.54030831740E+03  0.44801406467E+03 -0.84939945849E+03  0.11018752743E+04  0.25500000920E-02 0. -1.
       -2    1    3    3    0  502 -0.54030831740E+03 -0.44801406467E+03  0.19367913254E+03  0.72812175244E+03  0.25500000920E-02 0.  1.
</event>
<event>
 5   0  0.5021349E-04  0.1703715E+04  0.7818609E-02  0.8759248E-01
       -2   -1    0    0    0  501  0.00000000000E+00  0.00000000000E+00  0.39818480795E+03  0.39818480795E+03  0.25500000920E-02 0. -1.
        2   -1    0    0  501    0  0.00000000000E+00  0.00000000000E+00 -0.18224234019E+04  0.18224234019E+04  0.25500000920E-02 0.  1.
    10030    2    1    2    0    0  0.00000000000E+00  0.00000000000E+00 -0.14242385939E+04  0.22206082098E+04  0.17037151314E+04 0.  0.
        2    1    3    3  502    0  0.55251576410E+03  0.17488882499E+03 -0.15258800431E+04  0.16322284388E+04  0.25500000920E-02 0.  1.
       -2    1    3    3    0  502 -0.55251576410E+03 -0.17488882499E+03  0.10164144917E+03  0.58837977097E+03  0.25500000920E-02 0. -1.
</event>
<event>
 5   0  0.2583422E-04  0.1671202E+04  0.7818609E-02  0.8777961E-01
       -1   -1    0    0    0  501  0.00000000000E+00  0.00000000000E+00  0.23456905557E+03  0.23456905563E+03  0.50400001928E-02 0.  1.
        1   -1    0    0  501    0  0.00000000000E+00  0.00000000000E+00 -0.29766467492E+04  0.29766467492E+04  0.50400001928E-02 0. -1.
    10030    2    1    2    0    0  0.00000000000E+00  0.00000000000E+00 -0.27420776936E+04  0.32112158048E+04  0.16712022221E+04 0.  0.
        3    1    3    3  502    0 -0.68764080436E+03  0.31609156407E+03 -0.20516554972E+04  0.21867908089E+04  0.10100000352E+00 0. -1.
       -3    1    3    3    0  502  0.68764080436E+03 -0.31609156407E+03 -0.69042219646E+03  0.10244249959E+04  0.10100000352E+00 0.  1.
</event>
<event>
 5   0  0.2561518E-04  0.1696638E+04  0.7818609E-02  0.8763284E-01
       -1   -1    0    0    0  501  0.00000000000E+00  0.00000000000E+00  0.42513787011E+03  0.42513787014E+03  0.50400001928E-02 0.  1.
        1   -1    0    0  501    0  0.00000000000E+00  0.00000000000E+00 -0.16927328532E+04  0.16927328532E+04  0.50400001928E-02 0. -1.
    10030    2    1    2    0    0  0.00000000000E+00  0.00000000000E+00 -0.12675949831E+04  0.21178707233E+04  0.16966376630E+04 0.  0.
        4    1    3    3  502    0  0.73532627562E+01 -0.80757917919E+03 -0.95788066530E+03  0.12529066936E+04  0.12699999809E+01 0. -1.
       -4    1    3    3    0  502 -0.73532627562E+01  0.80757917919E+03 -0.30971431779E+03  0.86496402970E+03  0.12699999809E+01 0.  1.
</event>
<event>
 5   0  0.2595644E-04  0.1736247E+04  0.7818609E-02  0.8740957E-01
        1   -1    0    0  501    0  0.00000000000E+00  0.00000000000E+00  0.92459574640E+03  0.92459574642E+03  0.50400001928E-02 0.  1.
       -1   -1    0    0    0  501  0.00000000000E+00  0.00000000000E+00 -0.81510010033E+03  0.81510010035E+03  0.50400001928E-02 0. -1.
    10030    2    1    2    0    0  0.00000000000E+00  0.00000000000E+00  0.10949564607E+03  0.17396958468E+04  0.17362466250E+04 0.  0.
        2    1    3    3  502    0 -0.73945678153E+03 -0.38809336288E+03 -0.18284197363E+03  0.85489413227E+03  0.25500000920E-02 0. -1.
       -2    1    3    3    0  502  0.73945678153E+03  0.38809336288E+03  0.29233761970E+03  0.88480171449E+03  0.25500000920E-02 0.  1.
</event>
<event>
 5   0  0.2785059E-04  0.1711664E+04  0.7818609E-02  0.8754740E-01
        1   -1    0    0  501    0  0.00000000000E+00  0.00000000000E+00  0.13407398747E+04  0.13407398747E+04  0.50400001928E-02 0. -1.
       -1   -1    0    0    0  501  0.00000000000E+00  0.00000000000E+00 -0.54630148303E+03  0.54630148306E+03  0.50400001928E-02 0.  1.
    10030    2    1    2    0    0  0.00000000000E+00  0.00000000000E+00  0.79443839164E+03  0.18870413577E+04  0.17116637309E+04 0.  0.
        5    1    3    3  502    0 -0.37752952676E+03 -0.42004416035E+03  0.11061110038E+04  0.12419618685E+04  0.46999998093E+01 0. -1.
       -5    1    3    3    0  502  0.37752952676E+03  0.42004416035E+03 -0.31167261215E+03  0.64507948919E+03  0.46999998093E+01 0.  1.
</event>
<event>
 5   0  0.5310003E-04  0.1698006E+04  0.7818609E-02  0.8762502E-01
        2   -1    0    0  501    0  0.00000000000E+00  0.00000000000E+00  0.10301212646E+04  0.10301212646E+04  0.25500000920E-02 0.  1.
       -2   -1    0    0    0  501  0.00000000000E+00  0.00000000000E+00 -0.69972971180E+03  0.69972971181E+03  0.25500000920E-02 0. -1.
    10030    2    1    2    0    0  0.00000000000E+00  0.00000000000E+00  0.33039155276E+03  0.17298509764E+04  0.16980064259E+04 0.  0.
        1    1    3    3  502    0  0.44955150670E+03  0.30988159909E+02 -0.56784690333E+03  0.72491856707E+03  0.50400001928E-02 0. -1.
       -1    1    3    3    0  502 -0.44955150670E+03 -0.30988159909E+02  0.89823845609E+03  0.10049324093E+04  0.50400001928E-02 0.  1.
</event>
<event>
 5   0  0.5198430E-04  0.1702963E+04  0.7818609E-02  0.8759676E-01
       -2   -1    0    0    0  501  0.00000000000E+00  0.00000000000E+00  0.12970887484E+04  0.12970887484E+04  0.25500000920E-02 0.  1.
        2   -1    0    0  501    0  0.00000000000E+00  0.00000000000E+00 -0.55896024900E+03  0.55896024901E+03  0.25500000920E-02 0. -1.
    10030    2    1    2    0    0  0.00000000000E+00  0.00000000000E+00  0.73812849938E+03  0.18560489974E+04  0.17029633581E+04 0.  0.
        4    1    3    3  502    0  0.62217334096E+03  0.76750620662E+02  0.99708242955E+03  0.11777798216E+04  0.12699999809E+01 0.  1.
       -4    1    3    3    0  502 -0.62217334096E+03 -0.76750620662E+02 -0.25895393017E+03  0.67826917579E+03  0.12699999809E+01 0. -1.
</event>
<event>
 5   0  0.5299877E-04  0.1703913E+04  0.7818609E-02  0.8759136E-01
       -2   -1    0    0    0  501  0.00000000000E+00  0.00000000000E+00  0.58640590728E+03  0.58640590728E+03  0.25500000920E-02 0. -1.
        2   -1    0    0  501    0  0.00000000000E+00  0.00000000000E+00 -0.12377603086E+04  0.12377603086E+04  0.25500000920E-02 0.  1.
    10030    2    1    2    0    0  0.00000000000E+00  0.00000000000E+00 -0.65135440130E+03  0.18241662159E+04  0.17039130926E+04 0.  0.
        3    1    3    3  502    0 -0.68762996170E+03 -0.48504189934E+03 -0.46822589065E+03  0.96298291949E+03  0.10100000352E+00 0.  1.
       -3    1    3    3    0  502  0.68762996170E+03  0.48504189934E+03 -0.18312851065E+03  0.86118329638E+03  0.10100000352E+00 0. -1.
</event>
<event>
 5   0  0.2595644E-04  0.1654472E+04  0.7818609E-02  0.8787765E-01
        1   -1    0    0  501    0  0.00000000000E+00  0.00000000000E+00  0.10866188840E+04  0.10866188840E+04  0.50400001928E-02 0.  1.
       -1   -1    0    0    0  501  0.00000000000E+00  0.00000000000E+00 -0.62976949064E+03  0.62976949066E+03  0.50400001928E-02 0. -1.
    10030    2    1    2    0    0  0.00000000000E+00  0.00000000000E+00  0.45684939337E+03  0.17163883747E+04  0.16544720259E+04 0.  0.
        2    1    3    3  502    0 -0.46783734938E+03 -0.67964474466E+03  0.29006771299E+03  0.87460164792E+03  0.25500000920E-02 0.  1.
       -2    1    3    3    0  502  0.46783734938E+03  0.67964474466E+03  0.16678168038E+03  0.84178672676E+03  0.25500000920E-02 0. -1.
</event>
<event>
 5   0  0.1910750E-04  0.1777672E+04  0.7818609E-02  0.8718264E-01
       -4   -1    0    0    0  501  0.00000000000E+00  0.00000000000E+00  0.12376513445E+04  0.12376519961E+04  0.12699999809E+01 0. -1.
        4   -1    0    0  501    0  0.00000000000E+00  0.00000000000E+00 -0.63832844381E+03  0.63832970719E+03  0.12699999809E+01 0.  1.
    10030    2    1    2    0    0  0.00000000000E+00  0.00000000000E+00  0.59932290069E+03  0.18759817033E+04  0.17776724703E+04 0.  0.
        5    1    3    3  502    0  0.76330989496E+02  0.53170064755E+02  0.12324878989E+04  0.12360024218E+04  0.46999998093E+01 0. -1.
       -5    1    3    3    0  502 -0.76330989496E+02 -0.53170064755E+02 -0.63316499823E+03  0.63997928148E+03  0.46999998093E+01 0.  1.
</event>
<event>
 5   0  0.1910750E-04  0.1702177E+04  0.7818609E-02  0.8760124E-01
       -3   -1    0    0    0  501  0.00000000000E+00  0.00000000000E+00  0.19616198717E+04  0.19616198743E+04  0.10100000352E+00 0. -1.
        3   -1    0    0  501    0  0.00000000000E+00  0.00000000000E+00 -0.36926187071E+03  0.36926188452E+03  0.10100000352E+00 0.  1.
    10030    2    1    2    0    0  0.00000000000E+00  0.00000000000E+00  0.15923580010E+04  0.23308817588E+04  0.17021767741E+04 0.  0.
        4    1    3    3  502    0  0.65766456294E+03 -0.21431256300E+03  0.11714355783E+03  0.70155311848E+03  0.12699999809E+01 0.  1.
       -4    1    3    3    0  502 -0.65766456294E+03  0.21431256300E+03  0.14752144432E+04  0.16293286403E+04  0.12699999809E+01 0. -1.
</event>
<event>
 5   0  0.2785059E-04  0.1685476E+04  0.7818609E-02  0.8769691E-01
        1   -1    0    0  501    0  0.00000000000E+00  0.00000000000E+00  0.15089778304E+04  0.15089778304E+04  0.50400001928E-02 0. -1.
       -1   -1    0    0    0  501  0.00000000000E+00  0.00000000000E+00 -0.47065485226E+03  0.47065485229E+03  0.50400001928E-02 0.  1.
    10030    2    1    2    0    0  0.00000000000E+00  0.00000000000E+00  0.10383229781E+04  0.19796326827E+04  0.16854764761E+04 0.  0.
        5    1    3    3  502    0  0.11760559661E+03 -0.73690782426E+03  0.59261551808E+02  0.74859751491E+03  0.46999998093E+01 0.  1.
       -5    1    3    3    0  502 -0.11760559661E+03  0.73690782426E+03  0.97906142631E+03  0.12310351678E+04  0.46999998093E+01 0. -1.
</event>
<event>
 5   0  0.2561518E-04  0.1753218E+04  0.7818609E-02  0.8731581E-01
       -1   -1    0    0    0  501  0.00000000000E+00  0.00000000000E+00  0.15180197829E+04  0.15180197829E+04  0.50400001928E-02 0. -1.
        1   -1    0    0  501    0  0.00000000000E+00  0.00000000000E+00 -0.50621417989E+03  0.50621417992E+03  0.50400001928E-02 0.  1.
    10030    2    1    2    0    0  0.00000000000E+00  0.00000000000E+00  0.10118056030E+04  0.20242339628E+04  0.17532177725E+04 0.  0.
        4    1    3    3  502    0  0.72525663199E+03  0.98250502509E+02  0.10629706665E+04  0.12905652227E+04  0.12699999809E+01 0.  1.
       -4    1    3    3    0  502 -0.72525663199E+03 -0.98250502509E+02 -0.51165063497E+02  0.73366874004E+03  0.12699999809E+01 0. -1.
</event>
<event>
 5   0  0.2630135E-04  0.1672429E+04  0.7818609E-02  0.8777247E-01
       -1   -1    0    0    0  501  0.00000000000E+00  0.00000000000E+00  0.96962162238E+03  0.96962162239E+03  0.50400001928E-02 0. -1.
        1   -1    0    0  501    0  0.00000000000E+00  0.00000000000E+00 -0.72116203170E+03  0.72116203172E+03  0.50400001928E-02 0.  1.
    10030    2    1    2    0    0  0.00000000000E+00  0.00000000000E+00  0.24845959067E+03  0.16907836541E+04  0.16724285326E+04 0.  0.
        1    1    3    3  502    0 -0.81475849871E+03 -0.53245976310E+02 -0.58272229272E+02  0.81857326974E+03  0.50400001928E-02 0.  1.
       -1    1    3    3    0  502  0.81475849871E+03  0.53245976310E+02  0.30673181995E+03  0.87221038437E+03  0.50400001928E-02 0. -1.
</event>
<event>
 5   0  0.5198430E-04  0.1700539E+04  0.7818609E-02  0.8761057E-01
        2   -1    0    0  501    0  0.00000000000E+00  0.00000000000E+00  0.80466291298E+03  0.80466291299E+03  0.25500000920E-02 0.  1.
       -2   -1    0    0    0  501  0.00000000000E+00  0.00000000000E+00 -0.89846113600E+03  0.89846113600E+03  0.25500000920E-02 0. -1.
    10030    2    1    2    0    0  0.00000000000E+00  0.00000000000E+00 -0.93798223017E+02  0.17031240490E+04  0.17005391556E+04 0.  0.
        4    1    3    3  502    0 -0.37098443801E+03  0.24083000223E+03  0.68037837388E+03  0.81150778663E+03  0.12699999809E+01 0.  1.
       -4    1    3    3    0  502  0.37098443801E+03 -0.24083000223E+03 -0.77417659690E+03  0.89161626236E+03  0.12699999809E+01 0. -1.
</event>
<event>
 5   0  0.5342255E-04  0.1721062E+04  0.7818609E-02  0.8749442E-01
       -2   -1    0    0    0  501  0.00000000000E+00  0.00000000000E+00  0.10902346314E+04  0.10902346314E+04  0.25500000920E-02 0.  1.
        2   -1    0    0  501    0  0.00000000000E+00  0.00000000000E+00 -0.67922387421E+03  0.67922387421E+03  0.25500000920E-02 0. -1.
    10030    2    1    2    0    0  0.00000000000E+00  0.00000000000E+00  0.41101075719E+03  0.17694585056E+04  0.17210617538E+04 0.  0.
        5    1    3    3  502    0  0.12825123778E+02  0.13707507719E+03 -0.66781441687E+03  0.68187406899E+03  0.46999998093E+01 0. -1.
       -5    1    3    3    0  502 -0.12825123778E+02 -0.13707507719E+03  0.10788251741E+04  0.10875844366E+04  0.46999998093E+01 0.  1.
</event>
<event>
 5   0  0.2785059E-04  0.1708076E+04  0.7818609E-02  0.8756772E-01
       -1   -1    0    0    0  501  0.00000000000E+00  0.00000000000E+00  0.10277423112E+04  0.10277423112E+04  0.50400001928E-02 0. -1.
        1   -1    0    0  501    0  0.00000000000E+00  0.00000000000E+00 -0.70969255932E+03  0.70969255934E+03  0.50400001928E-02 0.  1.
    10030    2    1    2    0    0  0.00000000000E+00  0.00000000000E+00  0.31804975191E+03  0.17374348706E+04  0.17080761941E+04 0.  0.
        5    1    3    3  502    0  0.36025349661E+03  0.74923655956E+03  0.35788705189E+03  0.90512056429E+03  0.46999998093E+01 0. -1.
       -5    1    3    3    0  502 -0.36025349661E+03 -0.74923655956E+03 -0.39837299972E+02  0.83231430630E+03  0.46999998093E+01 0.  1.
</event>
<event>
 5   0  0.5310003E-04  0.1693604E+04  0.7818609E-02  0.8765021E-01
        2   -1    0    0  501    0  0.00000000000E+00  0.00000000000E+00  0.27776050186E+04  0.27776050186E+04  0.25500000920E-02 0. -1.
       -2   -1    0    0    0  501  0.00000000000E+00  0.00000000000E+00 -0.25816258302E+03  0.25816258304E+03  0.25500000920E-02 0.  1.
    10030    2    1    2    0    0  0.00000000000E+00  0.00000000000E+00  0.25194424356E+04  0.30357676016E+04  0.16936040697E+04 0.  0.
        1    1    3    3  502    0 -0.67944848122E+03 -0.49577255978E+03  0.14356503605E+04  0.16638908099E+04  0.50400001928E-02 0.  1.
       -1    1    3    3    0  502  0.67944848122E+03  0.49577255978E+03  0.10837920751E+04  0.13718767917E+04  0.50400001928E-02 0. -1.
</event>
<event>
 5   0  0.5021349E-04  0.1709716E+04  0.7818609E-02  0.8755842E-01
        2   -1    0    0  501    0  0.00000000000E+00  0.00000000000E+00  0.17520523572E+04  0.17520523572E+04  0.25500000920E-02 0. -1.
       -2   -1    0    0    0  501  0.00000000000E+00  0.00000000000E+00 -0.41710089442E+03  0.41710089443E+03  0.25500000920E-02 0.  1.
    10030    2    1    2    0    0  0.00000000000E+00  0.00000000000E+00  0.13349514628E+04  0.21691532516E+04  0.17097164739E+04 0.  0.
        2    1    3    3  502    0  0.67671636070E+03 -0.39933204090E+03  0.10946627765E+04  0.13474782767E+04  0.25500000920E-02 0. -1.
       -2    1    3    3    0  502 -0.67671636070E+03  0.39933204090E+03  0.24028868622E+03  0.82167497495E+03  0.25500000920E-02 0.  1.
</event>
<event>
 5   0  0.5021349E-04  0.1705515E+04  0.7818609E-02  0.8758225E-01
       -2   -1    0    0    0  501  0.00000000000E+00  0.00000000000E+00  0.43588284199E+03  0.43588284200E+03  0.25500000920E-02 0. -1.
        2   -1    0    0  501    0  0.00000000000E+00  0.00000000000E+00 -0.16683283726E+04  0.16683283726E+04  0.25500000920E-02 0.  1.
    10030    2    1    2    0    0  0.00000000000E+00  0.00000000000E+00 -0.12324455306E+04  0.21042112146E+04  0.17055154205E+04 0.  0.
        2    1    3    3  502    0  0.51748682537E+03 -0.65481812367E+03 -0.83210166471E+03  0.11785468043E+04  0.25500000920E-02 0.  1.
       -2    1    3    3    0  502 -0.51748682537E+03  0.65481812367E+03 -0.40034386591E+03  0.92566441030E+03  0.25500000920E-02 0. -1.
</event>
<event>
 5   0  0.2561518E-04  0.1747146E+04  0.7818609E-02  0.8734923E-01
       -1   -1    0    0    0  501  0.00000000000E+00  0.00000000000E+00  0.13926655954E+04  0.13926655954E+04  0.50400001928E-02 0. -1.
        1   -1    0    0  501    0  0.00000000000E+00  0.00000000000E+00 -0.54796369786E+03  0.54796369788E+03  0.50400001928E-02 0.  1.
    10030    2    1    2    0    0  0.00000000000E+00  0.00000000000E+00  0.84470189753E+03  0.19406292933E+04  0.17471464616E+04 0.  0.
        4    1    3    3  502    0  0.27359411778E+03  0.82803775393E+03  0.36540644034E+03  0.94552828766E+03  0.12699999809E+01 0. -1.
       -4    1    3    3    0  502 -0.27359411778E+03 -0.82803775393E+03  0.47929545719E+03  0.99510100563E+03  0.12699999809E+01 0.  1.
</event>
<event>
 5   0  0.2630135E-04  0.1705234E+04  0.7818609E-02  0.8758385E-01
        1   -1    0    0  501    0  0.00000000000E+00  0.00000000000E+00  0.18911205610E+04  0.18911205610E+04  0.50400001928E-02 0.  1.
       -1   -1    0    0    0  501  0.00000000000E+00  0.00000000000E+00 -0.38440479970E+03  0.38440479974E+03  0.50400001928E-02 0. -1.
    10030    2    1    2    0    0  0.00000000000E+00  0.00000000000E+00  0.15067157613E+04  0.22755253608E+04  0.17052340843E+04 0.  0.
        1    1    3    3  502    0 -0.52710915860E+03 -0.11353296217E+03  0.16347140900E+04  0.17213436480E+04  0.50400001928E-02 0.  1.
       -1    1    3    3    0  502  0.52710915860E+03  0.11353296217E+03 -0.12799832866E+03  0.55418171275E+03  0.50400001928E-02 0. -1.
</event>
<event>
 5   0  0.5342255E-04  0.1705904E+04  0.7818609E-02  0.8758004E-01
        2   -1    0    0  501    0  0.00000000000E+00  0.00000000000E+00  0.85651655478E+03  0.85651655479E+03  0.25500000920E-02 0. -1.
       -2   -1    0    0    0  501  0.00000000000E+00  0.00000000000E+00 -0.84940210278E+03  0.84940210278E+03  0.25500000920E-02 0.  1.
    10030    2    1    2    0    0  0.00000000000E+00  0.00000000000E+00  0.71144520046E+01  0.17059186576E+04  0.17059038223E+04 0.  0.
        5    1    3    3  502    0  0.22752300413E+03 -0.27604800977E+03  0.77786083526E+03  0.85618852488E+03  0.46999998093E+01 0. -1.
       -5    1    3    3    0  502 -0.22752300413E+03  0.27604800977E+03 -0.77074638325E+03  0.84973013269E+03  0.46999998093E+01 0.  1.
</event>
<event>
 5   0  0.2785059E-04  0.1781629E+04  0.7818609E-02  0.8716131E-01
        1   -1    0    0  501    0  0.00000000000E+00  0.00000000000E+00  0.13274394900E+04  0.13274394900E+04  0.50400001928E-02 0.  1.
       -1   -1    0    0    0  501  0.00000000000E+00  0.00000000000E+00 -0.59780525101E+03  0.59780525103E+03  0.50400001928E-02 0. -1.
    10030    2    1    2    0    0  0.00000000000E+00  0.00000000000E+00  0.72963423897E+03  0.19252447410E+04  0.17816288026E+04 0.  0.
        5    1    3    3  502    0 -0.55438309822E+03 -0.14923278632E+03  0.11008359758E+04  0.12415607032E+04  0.46999998093E+01 0.  1.
       -5    1    3    3    0  502  0.55438309822E+03  0.14923278632E+03 -0.37120173686E+03  0.68368403781E+03  0.46999998093E+01 0. -1.
</event>
<event>
 5   0  0.5021349E-04  0.1453297E+04  0.7818609E-02  0.8916118E-01
       -2   -1    0    0    0  501  0.00000000000E+00  0.00000000000E+00  0.89658623918E+03  0.89658623919E+03  0.25500000920E-02 0.  1.
        2   -1    0    0  501    0  0.00000000000E+00  0.00000000000E+00 -0.58892021142E+03  0.58892021142E+03  0.25500000920E-02 0. -1.
    10030    2    1    2    0    0  0.00000000000E+00  0.00000000000E+00  0.30766602777E+03  0.14855064506E+04  0.14532966078E+04 0.  0.
        2    1    3    3  502    0  0.22656676464E+03 -0.68009706632E+03  0.32228917855E+02  0.71756757285E+03  0.25500000920E-02 0. -1.
       -2    1    3    3    0  502 -0.22656676464E+03  0.68009706632E+03  0.27543710991E+03  0.76793887776E+03  0.25500000920E-02 0.  1.
</event>
<event>
 5   0  0.5198430E-04  0.1740102E+04  0.7818609E-02  0.8738818E-01
        2   -1    0    0  501    0  0.00000000000E+00  0.00000000000E+00  0.56912499984E+03  0.56912499984E+03  0.25500000920E-02 0. -1.
       -2   -1    0    0    0  501  0.00000000000E+00  0.00000000000E+00 -0.13300921819E+04  0.13300921819E+04  0.25500000920E-02 0.  1.
    10030    2    1    2    0    0  0.00000000000E+00  0.00000000000E+00 -0.76096718210E+03  0.18992171818E+04  0.17401019658E+04 0.  0.
        4    1    3    3  502    0 -0.77708155210E+02 -0.73983336258E+03 -0.87295796229E+03  0.11469303286E+04  0.12699999809E+01 0.  1.
       -4    1    3    3    0  502  0.77708155210E+02  0.73983336258E+03  0.11199078019E+03  0.75228685321E+03  0.12699999809E+01 0. -1.
</event>
<event>
 5   0  0.2561518E-04  0.1697513E+04  0.7818609E-02  0.8762784E-01
        1   -1    0    0  501    0  0.00000000000E+00  0.00000000000E+00  0.15992916437E+04  0.15992916437E+04  0.50400001928E-02 0.  1.
       -1   -1    0    0    0  501  0.00000000000E+00  0.00000000000E+00 -0.45044163323E+03  0.45044163326E+03  0.50400001928E-02 0. -1.
    10030    2    1    2    0    0  0.00000000000E+00  0.00000000000E+00  0.11488500105E+04  0.20497332770E+04  0.16975129337E+04 0.  0.
        4    1    3    3  502    0 -0.22107259141E+03 -0.41862500740E+02  0.15626230321E+04  0.15787393429E+04  0.12699999809E+01 0.  1.
       -4    1    3    3    0  502  0.22107259141E+03  0.41862500740E+02 -0.41377302158E+03  0.47099393407E+03  0.12699999809E+01 0. -1.
</event>
<event>
 5   0  0.5342255E-04  0.1684709E+04  0.7818609E-02  0.8770134E-01
        2   -1    0    0  501    0  0.00000000000E+00  0.00000000000E+00  0.82635423101E+03  0.82635423102E+03  0.25500000920E-02 0.  1.
       -2   -1    0    0    0  501  0.00000000000E+00  0.00000000000E+00 -0.85866444129E+03  0.85866444129E+03  0.25500000920E-02 0. -1.
    10030    2    1    2    0    0  0.00000000000E+00  0.00000000000E+00 -0.32310210271E+02  0.16850186723E+04  0.16847088699E+04 0.  0.
        5    1    3    3  502    0 -0.86741903685E+02  0.53390949328E+03 -0.66199468414E+03  0.85489330135E+03  0.46999998093E+01 0. -1.
       -5    1    3    3    0  502  0.86741903685E+02 -0.53390949328E+03  0.62968447387E+03  0.83012537095E+03  0.46999998093E+01 0.  1.
</event>
<event>
 5   0  0.5299877E-04  0.1686616E+04  0.7818609E-02  0.8769035E-01
       -2   -1    0    0    0  501  0.00000000000E+00  0.00000000000E+00  0.30510917822E+03  0.30510917823E+03  0.25500000920E-02 0. -1.
        2   -1    0    0  501    0  0.00000000000E+00  0.00000000000E+00 -0.23308643287E+04  0.23308643287E+04  0.25500000920E-02 0.  1.
    10030    2    1    2    0    0  0.00000000000E+00  0.00000000000E+00 -0.20257551505E+04  0.26359735070E+04  0.16866156645E+04 0.  0.
        3    1    3    3  502    0 -0.17773204549E+03 -0.18733397833E+03 -0.22675531686E+04  0.22822094738E+04  0.10100000352E+00 0.  1.
       -3    1    3    3    0  502  0.17773204549E+03  0.18733397833E+03  0.24179801810E+03  0.35376403320E+03  0.10100000352E+00 0. -1.
</event>
<event>
 5   0  0.5198430E-04  0.1618582E+04  0.7818609E-02  0.8809213E-01
       -2   -1    0    0    0  501  0.00000000000E+00  0.00000000000E+00  0.27617741990E+03  0.27617741992E+03  0.25500000920E-02 0.  1.
        2   -1    0    0  501    0  0.00000000000E+00  0.00000000000E+00 -0.23714889992E+04  0.23714889992E+04  0.25500000920E-02 0. -1.
    10030    2    1    2    0    0  0.00000000000E+00  0.00000000000E+00 -0.20953115793E+04  0.26476664192E+04  0.16185817411E+04 0.  0.
        4    1    3    3  502    0 -0.72712220572E+03 -0.22939252507E+03 -0.14915033277E+04  0.16750854970E+04  0.12699999809E+01 0. -1.
       -4    1    3    3    0  502  0.72712220572E+03  0.22939252507E+03 -0.60380825161E+03  0.97258092220E+03  0.12699999809E+01 0.  1.
</event>
<event>
 5   0  0.2595644E-04  0.1687092E+04  0.7818609E-02  0.8768761E-01
        1   -1    0    0  501    0  0.00000000000E+00  0.00000000000E+00  0.82647541627E+03  0.82647541629E+03  0.50400001928E-02 0.  1.
       -1   -1    0    0    0  501  0.00000000000E+00  0.00000000000E+00 -0.86096873390E+03  0.86096873392E+03  0.50400001928E-02 0. -1.
    10030    2    1    2    0    0  0.00000000000E+00  0.00000000000E+00 -0.34493317627E+02  0.16874441502E+04  0.16870915716E+04 0.  0.
        2    1    3    3  502    0  0.41410808878E+03  0.65721718528E+02  0.71486576243E+03  0.82875684720E+03  0.25500000920E-02 0.  1.
       -2    1    3    3    0  502 -0.41410808878E+03 -0.65721718528E+02 -0.74935908006E+03  0.85868730301E+03  0.25500000920E-02 0. -1.
</event>
<event>
 5   0  0.5299877E-04  0.1799218E+04  0.7818609E-02  0.8706715E-01
        2   -1    0    0  501    0  0.00000000000E+00  0.00000000000E+00  0.15964607702E+04  0.15964607702E+04  0.25500000920E-02 0.  1.
       -2   -1    0    0    0  501  0.00000000000E+00  0.00000000000E+00 -0.50693150522E+03  0.50693150523E+03  0.25500000920E-02 0. -1.
    10030    2    1    2    0    0  0.00000000000E+00  0.00000000000E+00  0.10895292650E+04  0.21033922754E+04  0.17992178982E+04 0.  0.
        3    1    3    3  502    0  0.30262691186E+02  0.58987418951E+03  0.13380286979E+04  0.14625963888E+04  0.10100000352E+00 0.  1.
       -3    1    3    3    0  502 -0.30262691186E+02 -0.58987418951E+03 -0.24849943294E+03  0.64079588661E+03  0.10100000352E+00 0. -1.
</event>
<event>
 5   0  0.2583422E-04  0.1543814E+04  0.7818609E-02  0.8855829E-01
        1   -1    0    0  501    0  0.00000000000E+00  0.00000000000E+00  0.10300953698E+04  0.10300953698E+04  0.50400001928E-02 0. -1.
       -1   -1    0    0    0  501  0.00000000000E+00  0.00000000000E+00 -0.57843203149E+03  0.57843203151E+03  0.50400001928E-02 0.  1.
    10030    2    1    2    0    0  0.00000000000E+00  0.00000000000E+00  0.45166333835E+03  0.16085274014E+04  0.15438136642E+04 0.  0.
        3    1    3    3  502    0 -0.55806745123E+03  0.42071377803E+03 -0.11562634400E+03  0.70838465876E+03  0.10100000352E+00 0. -1.
       -3    1    3    3    0  502  0.55806745123E+03 -0.42071377803E+03  0.56728968235E+03  0.90014274259E+03  0.10100000352E+00 0.  1.
</event>
<event>
 5   0  0.5198430E-04  0.1688381E+04  0.7818609E-02  0.8768019E-01
        2   -1    0    0  501    0  0.00000000000E+00  0.00000000000E+00  0.14454747539E+04  0.14454747539E+04  0.25500000920E-02 0. -1.
       -2   -1    0    0    0  501  0.00000000000E+00  0.00000000000E+00 -0.49302654275E+03  0.49302654276E+03  0.25500000920E-02 0.  1.
    10030    2    1    2    0    0  0.00000000000E+00  0.00000000000E+00  0.95244821119E+03  0.19385012967E+04  0.16883807871E+04 0.  0.
        4    1    3    3  502    0  0.43407676432E+03 -0.65771530344E+03  0.12865023497E+03  0.79847639512E+03  0.12699999809E+01 0.  1.
       -4    1    3    3    0  502 -0.43407676432E+03  0.65771530344E+03  0.82379797623E+03  0.11400249016E+04  0.12699999809E+01 0. -1.
</event>
<event>
 5   0  0.2630135E-04  0.1749453E+04  0.7818609E-02  0.8733651E-01
        1   -1    0    0  501    0  0.00000000000E+00  0.00000000000E+00  0.12884412279E+04  0.12884412279E+04  0.50400001928E-02 0. -1.
       -1   -1    0    0    0  501  0.00000000000E+00  0.00000000000E+00 -0.59385441172E+03  0.59385441174E+03  0.50400001928E-02 0.  1.
    10030    2    1    2    0    0  0.00000000000E+00  0.00000000000E+00  0.69458681614E+03  0.18822956396E+04  0.17494530659E+04 0.  0.
        1    1    3    3  502    0 -0.17067344412E+02  0.61737914550E+03 -0.31917631317E+03  0.69521350854E+03  0.50400001928E-02 0. -1.
       -1    1    3    3    0  502  0.17067344412E+02 -0.61737914550E+03  0.10137631293E+04  0.11870821311E+04  0.50400001928E-02 0.  1.
</event>
<event>
 5   0  0.5342255E-04  0.1700529E+04  0.7818609E-02  0.8761063E-01
        2   -1    0    0  501    0  0.00000000000E+00  0.00000000000E+00  0.20592319384E+04  0.20592319384E+04  0.25500000920E-02 0.  1.
       -2   -1    0    0    0  501  0.00000000000E+00  0.00000000000E+00 -0.35107723631E+03  0.35107723632E+03  0.25500000920E-02 0. -1.
    10030    2    1    2    0    0  0.00000000000E+00  0.00000000000E+00  0.17081547021E+04  0.24103091747E+04  0.17005286917E+04 0.  0.
        5    1    3    3  502    0 -0.17636790572E+03 -0.80824332240E+03  0.57573299110E+03  0.10078955667E+04  0.46999998093E+01 0.  1.
       -5    1    3    3    0  502  0.17636790572E+03  0.80824332240E+03  0.11324217110E+04  0.14024136080E+04  0.46999998093E+01 0. -1.
</event>
<event>
 5   0  0.2785059E-04  0.1700637E+04  0.7818609E-02  0.8761001E-01
       -1   -1    0    0    0  501  0.00000000000E+00  0.00000000000E+00  0.93335386330E+03  0.93335386331E+03  0.50400001928E-02 0.  1.
        1   -1    0    0  501    0  0.00000000000E+00  0.00000000000E+00 -0.77467052241E+03  0.77467052243E+03  0.50400001928E-02 0. -1.
    10030    2    1    2    0    0  0.00000000000E+00  0.00000000000E+00  0.15868334088E+03  0.17080243857E+04  0.17006372040E+04 0.  0.
        5    1    3    3  502    0 -0.10924206909E+03 -0.30082961786E+03 -0.71185390379E+03  0.78050647594E+03  0.46999998093E+01 0. -1.
       -5    1    3    3    0  502  0.10924206909E+03  0.30082961786E+03  0.87053724468E+03  0.92751790980E+03  0.46999998093E+01 0.  1.
</event>
<event>
 5   0  0.2785059E-04  0.1687718E+04  0.7818609E-02  0.8768400E-01
        1   -1    0    0  501    0  0.00000000000E+00  0.00000000000E+00  0.14780390320E+04  0.14780390320E+04  0.50400001928E-02 0. -1.
       -1   -1    0    0    0  501  0.00000000000E+00  0.00000000000E+00 -0.48178561734E+03  0.48178561736E+03  0.50400001928E-02 0.  1.
    10030    2    1    2    0    0  0.00000000000E+00  0.00000000000E+00  0.99625341463E+03  0.19598246493E+04  0.16877179237E+04 0.  0.
        5    1    3    3  502    0  0.81535337064E+03  0.18248176940E+03  0.63540297807E+03  0.10496950746E+04  0.46999998093E+01 0. -1.
       -5    1    3    3    0  502 -0.81535337064E+03 -0.18248176940E+03  0.36085043656E+03  0.91012957470E+03  0.46999998093E+01 0.  1.
</event>
<event>
 5   0  0.5342255E-04  0.1705300E+04  0.7818609E-02  0.8758347E-01
        2   -1    0    0  501    0  0.00000000000E+00  0.00000000000E+00  0.38505779449E+03  0.38505779450E+03  0.25500000920E-02 0. -1.
       -2   -1    0    0    0  501  0.00000000000E+00  0.00000000000E+00 -0.18880604666E+04  0.18880604666E+04  0.25500000920E-02 0.  1.
    10030    2    1    2    0    0  0.00000000000E+00  0.00000000000E+00 -0.15030026721E+04  0.22731182611E+04  0.17053004417E+04 0.  0.
        5    1    3    3  502    0  0.67300347193E+03 -0.17361324383E+03 -0.14098264905E+04  0.15718486107E+04  0.46999998093E+01 0. -1.
       -5    1    3    3    0  502 -0.67300347193E+03  0.17361324383E+03 -0.93176181534E+02  0.70126965033E+03  0.46999998093E+01 0.  1.
</event>
<event>
 5   0  0.2561518E-04  0.1517429E+04  0.7818609E-02  0.8872945E-01
       -1   -1    0    0    0  501  0.00000000000E+00  0.00000000000E+00  0.96762135727E+03  0.96762135729E+03  0.50400001928E-02 0.  1.
        1   -1    0    0  501    0  0.00000000000E+00  0.00000000000E+00 -0.59490995570E+03  0.59490995572E+03  0.50400001928E-02 0. -1.
    10030    2    1    2    0    0  0.00000000000E+00  0.00000000000E+00  0.37271140158E+03  0.15625313130E+04  0.15174288501E+04 0.  0.
        4    1    3    3  502    0  0.43923987067E+03  0.13279353939E+03  0.80853351261E+03  0.92967405149E+03  0.12699999809E+01 0.  1.
       -4    1    3    3    0  502 -0.43923987067E+03 -0.13279353939E+03 -0.43582211103E+03  0.63285726152E+03  0.12699999809E+01 0. -1.
</event>
<event>
 5   0  0.2561518E-04  0.1718326E+04  0.7818609E-02  0.8750981E-01
        1   -1    0    0  501    0  0.00000000000E+00  0.00000000000E+00  0.98750347790E+03  0.98750347791E+03  0.50400001928E-02 0.  1.
       -1   -1    0    0    0  501  0.00000000000E+00  0.00000000000E+00 -0.74750206070E+03  0.74750206071E+03  0.50400001928E-02 0. -1.
    10030    2    1    2    0    0  0.00000000000E+00  0.00000000000E+00  0.24000141720E+03  0.17350055386E+04  0.17183257953E+04 0.  0.
        4    1    3    3  502    0 -0.77371049596E+03 -0.21612988129E+03 -0.18761910208E+03  0.82495005759E+03  0.12699999809E+01 0. -1.
       -4    1    3    3    0  502  0.77371049596E+03  0.21612988129E+03  0.42762051929E+03  0.91005548104E+03  0.12699999809E+01 0.  1.
</event>
<event>
 5   0  0.2785059E-04  0.1698305E+04  0.7818609E-02  0.8762332E-01
       -1   -1    0    0    0  501  0.00000000000E+00  0.00000000000E+00  0.60610652610E+03  0.60610652612E+03  0.50400001928E-02 0.  1.
        1   -1    0    0  501    0  0.00000000000E+00  0.00000000000E+00 -0.11896582848E+04  0.11896582849E+04  0.50400001928E-02 0. -1.
    10030    2    1    2    0    0  0.00000000000E+00  0.00000000000E+00 -0.58355175874E+03  0.17957648110E+04  0.16983046256E+04 0.  0.
        5    1    3    3  502    0  0.10388499930E+03  0.75973196357E+03  0.93920792438E+02  0.77254640948E+03  0.46999998093E+01 0.  1.
       -5    1    3    3    0  502 -0.10388499930E+03 -0.75973196357E+03 -0.67747255118E+03  0.10232184015E+04  0.46999998093E+01 0. -1.
</event>
<event>
 5   0  0.2561518E-04  0.1709449E+04  0.7818609E-02  0.8755993E-01
        1   -1    0    0  501    0  0.00000000000E+00  0.00000000000E+00  0.95952257410E+03  0.95952257411E+03  0.50400001928E-02 0. -1.
       -1   -1    0    0    0  501  0.00000000000E+00  0.00000000000E+00 -0.76137269665E+03  0.76137269667E+03  0.50400001928E-02 0.  1.
    10030    2    1    2    0    0  0.00000000000E+00  0.00000000000E+00  0.19814987745E+03  0.17208952708E+04  0.17094493731E+04 0.  0.
        4    1    3    3  502    0  0.74237453578E+03  0.25019995489E+03  0.44317156888E+03  0.90006812029E+03  0.12699999809E+01 0. -1.
       -4    1    3    3    0  502 -0.74237453578E+03 -0.25019995489E+03 -0.24502169143E+03  0.82082715049E+03  0.12699999809E+01 0.  1.
</event>
<event>
 5   0  0.2561518E-04  0.1708171E+04  0.7818609E-02  0.8756718E-01
       -1   -1    0    0    0  501  0.00000000000E+00  0.00000000000E+00  0.10025260268E+04  0.10025260268E+04  0.50400001928E-02 0. -1.
        1   -1    0    0  501    0  0.00000000000E+00  0.00000000000E+00 -0.72762432835E+03  0.72762432837E+03  0.50400001928E-02 0.  1.
    10030    2    1    2    0    0  0.00000000000E+00  0.00000000000E+00  0.27490169848E+03  0.17301503552E+04  0.17081713345E+04 0.  0.
        4    1    3    3  502    0  0.84053426177E+02 -0.44390121409E+03 -0.59668381346E+03  0.74842932363E+03  0.12699999809E+01 0.  1.
       -4    1    3    3    0  502 -0.84053426177E+02  0.44390121409E+03  0.87158551195E+03  0.98172103159E+03  0.12699999809E+01 0. -1.
</event>
<event>
 5   0  0.2561518E-04  0.1715136E+04  0.7818609E-02  0.8752779E-01
        1   -1    0    0  501    0  0.00000000000E+00  0.00000000000E+00  0.25454224737E+04  0.25454224737E+04  0.50400001928E-02 0. -1.
       -1   -1    0    0    0  501  0.00000000000E+00  0.00000000000E+00 -0.28891970976E+03  0.28891970980E+03  0.50400001928E-02 0.  1.
    10030    2    1    2    0    0  0.00000000000E+00  0.00000000000E+00  0.22565027639E+04  0.28343421835E+04  0.17151358225E+04 0.  0.
        4    1    3    3  502    0  0.53142996162E+03 -0.61470981530E+03  0.15812275325E+04  0.17777986623E+04  0.12699999809E+01 0.  1.
       -4    1    3    3    0  502 -0.53142996162E+03  0.61470981530E+03  0.67527523141E+03  0.10565435212E+04  0.12699999809E+01 0. -1.
</event>
<event>
 5   0  0.2630135E-04  0.1667319E+04  0.7818609E-02  0.8780226E-01
        1   -1    0    0  501    0  0.00000000000E+00  0.00000000000E+00  0.99473710821E+03  0.99473710822E+03  0.50400001928E-02 0. -1.
       -1   -1    0    0    0  501  0.00000000000E+00  0.00000000000E+00 -0.69866535817E+03  0.69866535819E+03  0.50400001928E-02 0.  1.
    10030    2    1    2    0    0  0.00000000000E+00  0.00000000000E+00  0.29607175004E+03  0.16934024664E+04  0.16673192352E+04 0.  0.
        1    1    3    3  502    0 -0.11331646349E+03  0.40977945640E+03 -0.58027955898E+03  0.71936373996E+03  0.50400001928E-02 0.  1.
       -1    1    3    3    0  502  0.11331646349E+03 -0.40977945640E+03  0.87635130901E+03  0.97403872645E+03  0.50400001928E-02 0. -1.
</event>
<event>
 5   0  0.5021349E-04  0.1664705E+04  0.7818609E-02  0.8781754E-01
       -2   -1    0    0    0  501  0.00000000000E+00  0.00000000000E+00  0.64371654914E+03  0.64371654914E+03  0.25500000920E-02 0.  1.
        2   -1    0    0  501    0  0.00000000000E+00  0.00000000000E+00 -0.10762673153E+04  0.10762673153E+04  0.25500000920E-02 0. -1.
    10030    2    1    2    0    0  0.00000000000E+00  0.00000000000E+00 -0.43255076614E+03  0.17199838644E+04  0.16647054780E+04 0.  0.
        2    1    3    3  502    0 -0.32745800676E+03 -0.65147379330E+03  0.19850794922E+03  0.75567999541E+03  0.25500000920E-02 0.  1.
       -2    1    3    3    0  502  0.32745800676E+03  0.65147379330E+03 -0.63105871536E+03  0.96430386901E+03  0.25500000920E-02 0. -1.
</event>
<event>
 5   0  0.2630135E-04  0.1668616E+04  0.7818609E-02  0.8779469E-01
       -1   -1    0    0    0  501  0.00000000000E+00  0.00000000000E+00  0.68178500277E+03  0.68178500279E+03  0.50400001928E-02 0.  1.
        1   -1    0    0  501    0  0.00000000000E+00  0.00000000000E+00 -0.10209524168E+04  0.10209524168E+04  0.50400001928E-02 0. -1.
    10030    2    1    2    0    0  0.00000000000E+00  0.00000000000E+00 -0.33916741404E+03  0.17027374196E+04  0.16686162487E+04 0.  0.
        1    1    3    3  502    0 -0.33226604139E+02 -0.50486101238E+03 -0.84653546021E+03  0.98621039057E+03  0.50400001928E-02 0. -1.
       -1    1    3    3    0  502  0.33226604139E+02  0.50486101238E+03  0.50736804618E+03  0.71652702904E+03  0.50400001928E-02 0.  1.
</event>
<event>
 5   0  0.2561518E-04  0.1694346E+04  0.7818609E-02  0.8764596E-01
        1   -1    0    0  501    0  0.00000000000E+00  0.00000000000E+00  0.85512308378E+03  0.85512308380E+03  0.50400001928E-02 0. -1.
       -1   -1    0    0    0  501  0.00000000000E+00  0.00000000000E+00 -0.83929665172E+03  0.83929665174E+03  0.50400001928E-02 0.  1.
    10030    2    1    2    0    0  0.00000000000E+00  0.00000000000E+00  0.15826432062E+02  0.16944197355E+04  0.16943458219E+04 0.  0.
        4    1    3    3  502    0  0.57847728463E+03  0.99110344450E+02  0.61887480566E+03  0.85291644795E+03  0.12699999809E+01 0. -1.
       -4    1    3    3    0  502 -0.57847728463E+03 -0.99110344450E+02 -0.60304837360E+03  0.84150328758E+03  0.12699999809E+01 0.  1.
</event>
<event>
 5   0  0.5342255E-04  0.1687170E+04  0.7818609E-02  0.8768716E-01
       -2   -1    0    0    0  501  0.00000000000E+00  0.00000000000E+00  0.56919142542E+03  0.56919142543E+03  0.25500000920E-02 0.  1.
        2   -1    0    0  501    0  0.00000000000E+00  0.00000000000E+00 -0.12502570846E+04  0.12502570846E+04  0.25500000920E-02 0. -1.
    10030    2    1    2    0    0  0.00000000000E+00  0.00000000000E+00 -0.68106565921E+03  0.18194485101E+04  0.16871699525E+04 0.  0.
        5    1    3    3  502    0 -0.38047708350E+03 -0.14071444929E+03  0.45708436933E+03  0.61115593590E+03  0.46999998093E+01 0.  1.
       -5    1    3    3    0  502  0.38047708350E+03  0.14071444929E+03 -0.11381500285E+04  0.12082925742E+04  0.46999998093E+01 0. -1.
</event>
<event>
 5   0  0.1910750E-04  0.1703461E+04  0.7818609E-02  0.8759393E-01
       -4   -1    0    0    0  501  0.00000000000E+00  0.00000000000E+00  0.46830768074E+03  0.46830940279E+03  0.12699999809E+01 0.  1.
        4   -1    0    0  501    0  0.00000000000E+00  0.00000000000E+00 -0.15490719263E+04  0.15490724469E+04  0.12699999809E+01 0. -1.
    10030    2    1    2    0    0  0.00000000000E+00  0.00000000000E+00 -0.10807642456E+04  0.20173818497E+04  0.17034606462E+04 0.  0.
        4    1    3    3  502    0 -0.75185994713E+03  0.31405203145E+03 -0.24663931291E+03  0.85132521526E+03  0.12699999809E+01 0.  1.
       -4    1    3    3    0  502  0.75185994713E+03 -0.31405203145E+03 -0.83412493267E+03  0.11660566345E+04  0.12699999809E+01 0. -1.
</event>
<event>
 5   0  0.2583422E-04  0.1706277E+04  0.7818609E-02  0.8757793E-01
        1   -1    0    0  501    0  0.00000000000E+00  0.00000000000E+00  0.12978911892E+04  0.12978911892E+04  0.50400001928E-02 0.  1.
       -1   -1    0    0    0  501  0.00000000000E+00  0.00000000000E+00 -0.56079049408E+03  0.56079049410E+03  0.50400001928E-02 0. -1.
    10030    2    1    2    0    0  0.00000000000E+00  0.00000000000E+00  0.73710069511E+03  0.18586816833E+04  0.17062766965E+04 0.  0.
        3    1    3    3  502    0 -0.28176631436E+03 -0.77462930881E+03  0.12889443305E+03  0.83430007015E+03  0.10100000352E+00 0. -1.
       -3    1    3    3    0  502  0.28176631436E+03  0.77462930881E+03  0.60820626205E+03  0.10243816132E+04  0.10100000352E+00 0.  1.
</event>
<event>
 5   0  0.2561518E-04  0.1644741E+04  0.7818609E-02  0.8793524E-01
       -1   -1    0    0    0  501  0.00000000000E+00  0.00000000000E+00  0.56352306787E+03  0.56352306789E+03  0.50400001928E-02 0.  1.
        1   -1    0    0  501    0  0.00000000000E+00  0.00000000000E+00 -0.12001161642E+04  0.12001161642E+04  0.50400001928E-02 0. -1.
    10030    2    1    2    0    0  0.00000000000E+00  0.00000000000E+00 -0.63659309633E+03  0.17636392321E+04  0.16447408825E+04 0.  0.
        4    1    3    3  502    0 -0.45772203117E+02 -0.60018602334E+03 -0.91913612865E+03  0.10986952230E+04  0.12699999809E+01 0. -1.
       -4    1    3    3    0  502  0.45772203117E+02  0.60018602334E+03  0.28254303232E+03  0.66494400908E+03  0.12699999809E+01 0.  1.
</event>
<event>
 5   0  0.2561518E-04  0.1705407E+04  0.7818609E-02  0.8758287E-01
       -1   -1    0    0    0  501  0.00000000000E+00  0.00000000000E+00  0.90472466248E+03  0.90472466250E+03  0.50400001928E-02 0.  1.
        1   -1    0    0  501    0  0.00000000000E+00  0.00000000000E+00 -0.80367318618E+03  0.80367318620E+03  0.50400001928E-02 0. -1.
    10030    2    1    2    0    0  0.00000000000E+00  0.00000000000E+00  0.10105147630E+03  0.17083978487E+04  0.17054066402E+04 0.  0.
        4    1    3    3  502    0  0.23927166794E+01 -0.56376734595E+03 -0.59033220868E+03  0.81629227299E+03  0.12699999809E+01 0. -1.
       -4    1    3    3    0  502 -0.23927166794E+01  0.56376734595E+03  0.69138368497E+03  0.89210557570E+03  0.12699999809E+01 0.  1.
</event>
<event>
 5   0  0.5198430E-04  0.1698508E+04  0.7818609E-02  0.8762216E-01
        2   -1    0    0  501    0  0.00000000000E+00  0.00000000000E+00  0.14000005254E+04  0.14000005254E+04  0.25500000920E-02 0. -1.
       -2   -1    0    0    0  501  0.00000000000E+00  0.00000000000E+00 -0.51516574595E+03  0.51516574595E+03  0.25500000920E-02 0.  1.
    10030    2    1    2    0    0  0.00000000000E+00  0.00000000000E+00  0.88483477943E+03  0.19151662713E+04  0.16985079511E+04 0.  0.
        4    1    3    3  502    0 -0.16660992026E+03  0.83274591712E+03  0.44519632918E+03  0.95886704628E+03  0.12699999809E+01 0.  1.
       -4    1    3    3    0  502  0.16660992026E+03 -0.83274591712E+03  0.43963845025E+03  0.95629922506E+03  0.12699999809E+01 0. -1.
</event>
<event>
 5   0  0.1910750E-04  0.1730395E+04  0.7818609E-02  0.8744216E-01
        3   -1    0    0  501    0  0.00000000000E+00  0.00000000000E+00  0.90505752547E+03  0.90505753111E+03  0.10100000352E+00 0.  1.
       -3   -1    0    0    0  501  0.00000000000E+00  0.00000000000E+00 -0.82709334992E+03  0.82709335609E+03  0.10100000352E+00 0. -1.
    10030    2    1    2    0    0  0.00000000000E+00  0.00000000000E+00  0.77964175548E+02  0.17321508872E+04  0.17303954124E+04 0.  0.
        4    1    3    3  502    0  0.56307886787E+03  0.38115534330E+02  0.69543305379E+03  0.89562232588E+03  0.12699999809E+01 0.  1.
       -4    1    3    3    0  502 -0.56307886787E+03 -0.38115534330E+02 -0.61746887824E+03  0.83652856132E+03  0.12699999809E+01 0. -1.
</event>
<event>
 5   0  0.2583422E-04  0.1708908E+04  0.7818609E-02  0.8756300E-01
       -1   -1    0    0    0  501  0.00000000000E+00  0.00000000000E+00  0.76647744864E+03  0.76647744866E+03  0.50400001928E-02 0.  1.
        1   -1    0    0  501    0  0.00000000000E+00  0.00000000000E+00 -0.95252896910E+03  0.95252896911E+03  0.50400001928E-02 0. -1.
    10030    2    1    2    0    0  0.00000000000E+00  0.00000000000E+00 -0.18605152046E+03  0.17190064178E+04  0.17089083931E+04 0.  0.
        3    1    3    3  502    0 -0.65086386357E+03 -0.12323304780E+03 -0.63592020567E+03  0.91826176614E+03  0.10100000352E+00 0. -1.
       -3    1    3    3    0  502  0.65086386357E+03  0.12323304780E+03  0.44986868521E+03  0.80074465163E+03  0.10100000352E+00 0.  1.
</event>
<event>
 5   0  0.5021349E-04  0.1716902E+04  0.7818609E-02  0.8751783E-01
        2   -1    0    0  501    0  0.00000000000E+00  0.00000000000E+00  0.13929023875E+04  0.13929023875E+04  0.25500000920E-02 0.  1.
       -2   -1    0    0    0  501  0.00000000000E+00  0.00000000000E+00 -0.52906663547E+03  0.52906663548E+03  0.25500000920E-02 0. -1.
    10030    2    1    2    0    0  0.00000000000E+00  0.00000000000E+00  0.86383575200E+03  0.19219690230E+04  0.17169020702E+04 0.  0.
        2    1    3    3  502    0 -0.54125316553E+03 -0.39806071132E+03  0.10300916754E+04  0.12298358341E+04  0.25500000920E-02 0.  1.
       -2    1    3    3    0  502  0.54125316553E+03  0.39806071132E+03 -0.16625592338E+03  0.69213318888E+03  0.25500000920E-02 0. -1.
</event>
<event>
 5   0  0.5342255E-04  0.1686610E+04  0.7818609E-02  0.8769038E-01
        2   -1    0    0  501    0  0.00000000000E+00  0.00000000000E+00  0.89359343372E+03  0.89359343373E+03  0.25500000920E-02 0.  1.
       -2   -1    0    0    0  501  0.00000000000E+00  0.00000000000E+00 -0.79584643492E+03  0.79584643492E+03  0.25500000920E-02 0. -1.
    10030    2    1    2    0    0  0.00000000000E+00  0.00000000000E+00  0.97746998805E+02  0.16894398686E+04  0.16866097930E+04 0.  0.
        5    1    3    3  502    0 -0.24820546476E+03  0.61881455981E+03  0.56607665216E+03  0.87464408664E+03  0.46999998093E+01 0.  1.
       -5    1    3    3    0  502  0.24820546476E+03 -0.61881455981E+03 -0.46832965336E+03  0.81479578201E+03  0.46999998093E+01 0. -1.
</event>
<event>
 5   0  0.5299877E-04  0.1707596E+04  0.7818609E-02  0.8757044E-01
       -2   -1    0    0    0  501  0.00000000000E+00  0.00000000000E+00  0.49925218531E+03  0.49925218531E+03  0.25500000920E-02 0. -1.
        2   -1    0    0  501    0  0.00000000000E+00  0.00000000000E+00 -0.14601261761E+04  0.14601261761E+04  0.25500000920E-02 0.  1.
    10030    2    1    2    0    0  0.00000000000E+00  0.00000000000E+00 -0.96087399084E+03  0.19593783615E+04  0.17075961868E+04 0.  0.
        3    1    3    3  502    0 -0.10034311569E+02 -0.15020389555E+03 -0.14447778948E+04  0.14525994194E+04  0.10100000352E+00 0.  1.
       -3    1    3    3    0  502  0.10034311569E+02  0.15020389555E+03  0.48390390398E+03  0.50677894208E+03  0.10100000352E+00 0. -1.
</event>
<event>
 5   0  0.2595644E-04  0.1718973E+04  0.7818609E-02  0.8750617E-01
        1   -1    0    0  501    0  0.00000000000E+00  0.00000000000E+00  0.14924530813E+04  0.14924530813E+04  0.50400001928E-02 0.  1.
       -1   -1    0    0    0  501  0.00000000000E+00  0.00000000000E+00 -0.49496807177E+03  0.49496807179E+03  0.50400001928E-02 0. -1.
    10030    2    1    2    0    0  0.00000000000E+00  0.00000000000E+00  0.99748500951E+03  0.19874211531E+04  0.17189725116E+04 0.  0.
        2    1    3    3  502    0 -0.31097971866E+02 -0.71541673829E+03 -0.50806491311E+02  0.71789239642E+03  0.25500000920E-02 0. -1.
       -2    1    3    3    0  502  0.31097971866E+02  0.71541673829E+03  0.10482915008E+04  0.12695287567E+04  0.25500000920E-02 0.  1.
</event>
<event>
 5   0  0.5299877E-04  0.1715625E+04  0.7818609E-02  0.8752503E-01
       -2   -1    0    0    0  501  0.00000000000E+00  0.00000000000E+00  0.83757668645E+03  0.83757668645E+03  0.25500000920E-02 0.  1.
        2   -1    0    0  501    0  0.00000000000E+00  0.00000000000E+00 -0.87853687546E+03  0.87853687546E+03  0.25500000920E-02 0. -1.
    10030    2    1    2    0    0  0.00000000000E+00  0.00000000000E+00 -0.40960189010E+02  0.17161135619E+04  0.17156246735E+04 0.  0.
        3    1    3    3  502    0 -0.65036507010E+03  0.52317349762E+03 -0.21841715884E+03  0.86278114171E+03  0.10100000352E+00 0.  1.
       -3    1    3    3    0  502  0.65036507010E+03 -0.52317349762E+03  0.17745696983E+03  0.85333242020E+03  0.10100000352E+00 0. -1.
</event>
<event>
 5   0  0.2785059E-04  0.1658884E+04  0.7818609E-02  0.8785168E-01
       -1   -1    0    0    0  501  0.00000000000E+00  0.00000000000E+00  0.65022510582E+03  0.65022510583E+03  0.50400001928E-02 0.  1.
        1   -1    0    0  501    0  0.00000000000E+00  0.00000000000E+00 -0.10580553454E+04  0.10580553454E+04  0.50400001928E-02 0. -1.
    10030    2    1    2    0    0  0.00000000000E+00  0.00000000000E+00 -0.40783023962E+03  0.17082804513E+04  0.16588841418E+04 0.  0.
        5    1    3    3  502    0  0.61586263141E+03 -0.55181779163E+03 -0.27035291034E+03  0.87000140348E+03  0.46999998093E+01 0. -1.
       -5    1    3    3    0  502 -0.61586263141E+03  0.55181779163E+03 -0.13747732928E+03  0.83827904781E+03  0.46999998093E+01 0.  1.
</event>
<event>
 5   0  0.2583422E-04  0.1654138E+04  0.7818609E-02  0.8787962E-01
       -1   -1    0    0    0  501  0.00000000000E+00  0.00000000000E+00  0.43675591767E+03  0.43675591770E+03  0.50400001928E-02 0. -1.
        1   -1    0    0  501    0  0.00000000000E+00  0.00000000000E+00 -0.15661905925E+04  0.15661905925E+04  0.50400001928E-02 0.  1.
    10030    2    1    2    0    0  0.00000000000E+00  0.00000000000E+00 -0.11294346749E+04  0.20029465102E+04  0.16541378534E+04 0.  0.
        3    1    3    3  502    0 -0.63380416246E+03  0.11839843415E+03  0.62505440849E+02  0.64779074237E+03  0.10100000352E+00 0. -1.
       -3    1    3    3    0  502  0.63380416246E+03 -0.11839843415E+03 -0.11919401157E+04  0.13551557679E+04  0.10100000352E+00 0.  1.
</event>
<event>
 5   0  0.2561518E-04  0.1667843E+04  0.7818609E-02  0.8779920E-01
        1   -1    0    0  501    0  0.00000000000E+00  0.00000000000E+00  0.12321328604E+04  0.12321328605E+04  0.50400001928E-02 0. -1.
       -1   -1    0    0    0  501  0.00000000000E+00  0.00000000000E+00 -0.56440720681E+03  0.56440720683E+03  0.50400001928E-02 0.  1.
    10030    2    1    2    0    0  0.00000000000E+00  0.00000000000E+00  0.66772565364E+03  0.17965400673E+04  0.16678425180E+04 0.  0.
        4    1    3    3  502    0 -0.47561642181E+03 -0.12550386621E+03 -0.39149410613E+03  0.62867435860E+03  0.12699999809E+01 0.  1.
       -4    1    3    3    0  502  0.47561642181E+03  0.12550386621E+03  0.10592197598E+04  0.11678657087E+04  0.12699999809E+01 0. -1.
</event>
<event>
 5   0  0.5198430E-04  0.1694782E+04  0.7818609E-02  0.8764346E-01
       -2   -1    0    0    0  501  0.00000000000E+00  0.00000000000E+00  0.31143832313E+03  0.31143832314E+03  0.25500000920E-02 0. -1.
        2   -1    0    0  501    0  0.00000000000E+00  0.00000000000E+00 -0.23056607735E+04  0.23056607735E+04  0.25500000920E-02 0.  1.
    10030    2    1    2    0    0  0.00000000000E+00  0.00000000000E+00 -0.19942224504E+04  0.26170990966E+04  0.16947815494E+04 0.  0.
        4    1    3    3  502    0 -0.30902433277E+03  0.35748965506E+03 -0.20833120979E+04  0.21362316826E+04  0.12699999809E+01 0.  1.
       -4    1    3    3    0  502  0.30902433277E+03 -0.35748965506E+03  0.89089647479E+02  0.48086741406E+03  0.12699999809E+01 0. -1.
</event>
<event>
 5   0  0.2561518E-04  0.1687064E+04  0.7818609E-02  0.8768777E-01
       -1   -1    0    0    0  501  0.00000000000E+00  0.00000000000E+00  0.46809824159E+03  0.46809824161E+03  0.50400001928E-02 0.  1.
        1   -1    0    0  501    0  0.00000000000E+00  0.00000000000E+00 -0.15200794662E+04  0.15200794662E+04  0.50400001928E-02 0. -1.
    10030    2    1    2    0    0  0.00000000000E+00  0.00000000000E+00 -0.10519812246E+04  0.19881777078E+04  0.16870643440E+04 0.  0.
        4    1    3    3  502    0 -0.53331919631E+03  0.56546715020E+03 -0.13984619672E+03  0.78977277412E+03  0.12699999809E+01 0.  1.
       -4    1    3    3    0  502  0.53331919631E+03 -0.56546715020E+03 -0.91213502789E+03  0.11984049337E+04  0.12699999809E+01 0. -1.
</event>
<event>
 5   0  0.5342255E-04  0.1590584E+04  0.7818609E-02  0.8826354E-01
       -2   -1    0    0    0  501  0.00000000000E+00  0.00000000000E+00  0.65553873935E+03  0.65553873935E+03  0.25500000920E-02 0. -1.
        2   -1    0    0  501    0  0.00000000000E+00  0.00000000000E+00 -0.96483910731E+03  0.96483910731E+03  0.25500000920E-02 0.  1.
    10030    2    1    2    0    0  0.00000000000E+00  0.00000000000E+00 -0.30930036796E+03  0.16203778467E+04  0.15905840589E+04 0.  0.
        5    1    3    3  502    0  0.42599299159E+03  0.14582632629E+03 -0.82246877739E+03  0.93766322638E+03  0.46999998093E+01 0.  1.
       -5    1    3    3    0  502 -0.42599299159E+03 -0.14582632629E+03  0.51316840943E+03  0.68271462029E+03  0.46999998093E+01 0. -1.
</event>
<event>
 5   0  0.2583422E-04  0.1676293E+04  0.7818609E-02  0.8775002E-01
       -1   -1    0    0    0  501  0.00000000000E+00  0.00000000000E+00  0.57528424015E+03  0.57528424018E+03  0.50400001928E-02 0. -1.
        1   -1    0    0  501    0  0.00000000000E+00  0.00000000000E+00 -0.12211168558E+04  0.12211168558E+04  0.50400001928E-02 0.  1.
    10030    2    1    2    0    0  0.00000000000E+00  0.00000000000E+00 -0.64583261563E+03  0.17964010960E+04  0.16762926744E+04 0.  0.
        3    1    3    3  502    0 -0.24269281021E+03  0.49736135475E+03  0.35164634701E+03  0.65568535205E+03  0.10100000352E+00 0. -1.
       -3    1    3    3    0  502  0.24269281021E+03 -0.49736135475E+03 -0.99747896263E+03  0.11407157439E+04  0.10100000352E+00 0.  1.
</event>
<event>
 5   0  0.5021349E-04  0.1680878E+04  0.7818609E-02  0.8772346E-01
        2   -1    0    0  501    0  0.00000000000E+00  0.00000000000E+00  0.13456735090E+04  0.13456735090E+04  0.25500000920E-02 0.  1.
       -2   -1    0    0    0  501  0.00000000000E+00  0.00000000000E+00 -0.52489538522E+03  0.52489538522E+03  0.25500000920E-02 0. -1.
    10030    2    1    2    0    0  0.00000000000E+00  0.00000000000E+00  0.82077812382E+03  0.18705688943E+04  0.16808781216E+04 0.  0.
        2    1    3    3  502    0 -0.57882961336E+02 -0.76207651867E+02 -0.51881237472E+03  0.52756452078E+03  0.25500000920E-02 0. -1.
       -2    1    3    3    0  502  0.57882961336E+02  0.76207651867E+02  0.13395904985E+04  0.13430043735E+04  0.25500000920E-02 0.  1.
</event>
<event>
 5   0  0.5198430E-04  0.1923779E+04  0.7818609E-02  0.8643110E-01
        2   -1    0    0  501    0  0.00000000000E+00  0.00000000000E+00  0.17390347299E+04  0.17390347299E+04  0.25500000920E-02 0.  1.
       -2   -1    0    0    0  501  0.00000000000E+00  0.00000000000E+00 -0.53203744603E+03  0.53203744604E+03  0.25500000920E-02 0. -1.
    10030    2    1    2    0    0  0.00000000000E+00  0.00000000000E+00  0.12069972838E+04  0.22710721759E+04  0.19237791934E+04 0.  0.
        4    1    3    3  502    0  0.35301088565E+03  0.12429275452E+03 -0.44256009493E+03  0.57959160168E+03  0.12699999809E+01 0. -1.
       -4    1    3    3    0  502 -0.35301088565E+03 -0.12429275452E+03  0.16495573788E+04  0.16914805742E+04  0.12699999809E+01 0.  1.
</event>
<event>
 5   0  0.5021349E-04  0.1682961E+04  0.7818609E-02  0.8771142E-01
       -2   -1    0    0    0  501  0.00000000000E+00  0.00000000000E+00  0.76832731662E+03  0.76832731662E+03  0.25500000920E-02 0. -1.
        2   -1    0    0  501    0  0.00000000000E+00  0.00000000000E+00 -0.92159865806E+03  0.92159865806E+03  0.25500000920E-02 0.  1.
    10030    2    1    2    0    0  0.00000000000E+00  0.00000000000E+00 -0.15327134144E+03  0.16899259747E+04  0.16829609906E+04 0.  0.
        2    1    3    3  502    0  0.86216860401E+02  0.76082449055E+03  0.27381036147E+03  0.81317855757E+03  0.25500000920E-02 0. -1.
       -2    1    3    3    0  502 -0.86216860401E+02 -0.76082449055E+03 -0.42708170291E+03  0.87674741711E+03  0.25500000920E-02 0.  1.
</event>
<event>
 5   0  0.2561518E-04  0.1672385E+04  0.7818609E-02  0.8777273E-01
        1   -1    0    0  501    0  0.00000000000E+00  0.00000000000E+00  0.64951017893E+03  0.64951017894E+03  0.50400001928E-02 0. -1.
       -1   -1    0    0    0  501  0.00000000000E+00  0.00000000000E+00 -0.10765309188E+04  0.10765309188E+04  0.50400001928E-02 0.  1.
    10030    2    1    2    0    0  0.00000000000E+00  0.00000000000E+00 -0.42702073990E+03  0.17260410978E+04  0.16723848717E+04 0.  0.
        4    1    3    3  502    0 -0.38557967381E+03 -0.74120568832E+03 -0.24864095102E+03  0.87171181745E+03  0.12699999809E+01 0. -1.
       -4    1    3    3    0  502  0.38557967381E+03  0.74120568832E+03 -0.17837978889E+03  0.85432928034E+03  0.12699999809E+01 0.  1.
</event>
<event>
 5   0  0.5342255E-04  0.1685828E+04  0.7818609E-02  0.8769489E-01
       -2   -1    0    0    0  501  0.00000000000E+00  0.00000000000E+00  0.55277222108E+03  0.55277222108E+03  0.25500000920E-02 0. -1.
        2   -1    0    0  501    0  0.00000000000E+00  0.00000000000E+00 -0.12853468418E+04  0.12853468418E+04  0.25500000920E-02 0.  1.
    10030    2    1    2    0    0  0.00000000000E+00  0.00000000000E+00 -0.73257462076E+03  0.18381190629E+04  0.16858280204E+04 0.  0.
        5    1    3    3  502    0 -0.41082825050E+02 -0.82303064002E+03 -0.17303403257E+03  0.84203925048E+03  0.46999998093E+01 0. -1.
       -5    1    3    3    0  502  0.41082825050E+02  0.82303064002E+03 -0.55954058819E+03  0.99607981244E+03  0.46999998093E+01 0.  1.
</event>
<event>
 5   0  0.2595644E-04  0.1664644E+04  0.7818609E-02  0.8781790E-01
       -1   -1    0    0    0  501  0.00000000000E+00  0.00000000000E+00  0.92183804247E+03  0.92183804248E+03  0.50400001928E-02 0. -1.
        1   -1    0    0  501    0  0.00000000000E+00  0.00000000000E+00 -0.75149888300E+03  0.75149888302E+03  0.50400001928E-02 0.  1.
    10030    2    1    2    0    0  0.00000000000E+00  0.00000000000E+00  0.17033915946E+03  0.16733369255E+04  0.16646444176E+04 0.  0.
        2    1    3    3  502    0 -0.49678799552E+03  0.33505164239E+01  0.75645211937E+03  0.90500240185E+03  0.25500000920E-02 0. -1.
       -2    1    3    3    0  502  0.49678799552E+03 -0.33505164239E+01 -0.58611295991E+03  0.76833452365E+03  0.25500000920E-02 0.  1.
</event>
<event>
 5   0  0.2630135E-04  0.1381312E+04  0.7818609E-02  0.8967458E-01
       -1   -1    0    0    0  501  0.00000000000E+00  0.00000000000E+00  0.57730051170E+03  0.57730051172E+03  0.50400001928E-02 0. -1.
        1   -1    0    0  501    0  0.00000000000E+00  0.00000000000E+00 -0.82626967954E+03  0.82626967955E+03  0.50400001928E-02 0.  1.
    10030    2    1    2    0    0  0.00000000000E+00  0.00000000000E+00 -0.24896916783E+03  0.14035701913E+04  0.13813122874E+04 0.  0.
        1    1    3    3  502    0 -0.46905360660E+03 -0.48833524168E+03  0.13808866792E+02  0.67725422034E+03  0.50400001928E-02 0. -1.
       -1    1    3    3    0  502  0.46905360660E+03  0.48833524168E+03 -0.26277803463E+03  0.72631597094E+03  0.50400001928E-02 0.  1.
</event>
<event>
 5   0  0.2785059E-04  0.1681145E+04  0.7818609E-02  0.8772192E-01
        1   -1    0    0  501    0  0.00000000000E+00  0.00000000000E+00  0.16922913940E+04  0.16922913940E+04  0.50400001928E-02 0.  1.
       -1   -1    0    0    0  501  0.00000000000E+00  0.00000000000E+00 -0.41751810603E+03  0.41751810606E+03  0.50400001928E-02 0. -1.
    10030    2    1    2    0    0  0.00000000000E+00  0.00000000000E+00  0.12747732880E+04  0.21098095001E+04  0.16811452022E+04 0.  0.
        5    1    3    3  502    0  0.27902265624E+03 -0.21379163158E+03  0.15956055502E+04  0.16338725979E+04  0.46999998093E+01 0.  1.
       -5    1    3    3    0  502 -0.27902265624E+03  0.21379163158E+03 -0.32083226218E+03  0.47593690220E+03  0.46999998093E+01 0. -1.
</event>
<event>
 5   0  0.2561518E-04  0.1645138E+04  0.7818609E-02  0.8793288E-01
        1   -1    0    0  501    0  0.00000000000E+00  0.00000000000E+00  0.80601429814E+03  0.80601429815E+03  0.50400001928E-02 0.  1.
       -1   -1    0    0    0  501  0.00000000000E+00  0.00000000000E+00 -0.83946366140E+03  0.83946366142E+03  0.50400001928E-02 0. -1.
    10030    2    1    2    0    0  0.00000000000E+00  0.00000000000E+00 -0.33449363263E+02  0.16454779596E+04  0.16451379442E+04 0.  0.
        4    1    3    3  502    0  0.30202679745E+03  0.56810205665E+03  0.49588291760E+03  0.81231866531E+03  0.12699999809E+01 0.  1.
       -4    1    3    3    0  502 -0.30202679745E+03 -0.56810205665E+03 -0.52933228087E+03  0.83315929426E+03  0.12699999809E+01 0. -1.
</event>
<event>
 5   0  0.5310003E-04  0.1691841E+04  0.7818609E-02  0.8766032E-01
       -2   -1    0    0    0  501  0.00000000000E+00  0.00000000000E+00  0.70034090373E+03  0.70034090373E+03  0.25500000920E-02 0. -1.
        2   -1    0    0  501    0  0.00000000000E+00  0.00000000000E+00 -0.10217615036E+04  0.10217615036E+04  0.25500000920E-02 0.  1.
    10030    2    1    2    0    0  0.00000000000E+00  0.00000000000E+00 -0.32142059983E+03  0.17221024073E+04  0.16918408611E+04 0.  0.
        1    1    3    3  502    0  0.12949036560E+03 -0.82688787545E+03 -0.35754339966E+02  0.83772888586E+03  0.50400001928E-02 0. -1.
       -1    1    3    3    0  502 -0.12949036560E+03  0.82688787545E+03 -0.28566625986E+03  0.88437352143E+03  0.50400001928E-02 0.  1.
</event>
<event>
 5   0  0.2630135E-04  0.1705962E+04  0.7818609E-02  0.8757971E-01
        1   -1    0    0  501    0  0.00000000000E+00  0.00000000000E+00  0.68285982083E+03  0.68285982085E+03  0.50400001928E-02 0. -1.
       -1   -1    0    0    0  501  0.00000000000E+00  0.00000000000E+00 -0.10654849740E+04  0.10654849740E+04  0.50400001928E-02 0.  1.
    10030    2    1    2    0    0  0.00000000000E+00  0.00000000000E+00 -0.38262515320E+03  0.17483447949E+04  0.17059623425E+04 0.  0.
        1    1    3    3  502    0 -0.77826224351E+02 -0.54104662291E+03 -0.86240017595E+03  0.10210398782E+04  0.50400001928E-02 0.  1.
       -1    1    3    3    0  502  0.77826224351E+02  0.54104662291E+03  0.47977502276E+03  0.72730491669E+03  0.50400001928E-02 0. -1.
</event>
<event>
 5   0  0.5299877E-04  0.1835472E+04  0.7818609E-02  0.8687660E-01
        2   -1    0    0  501    0  0.00000000000E+00  0.00000000000E+00  0.63252001136E+03  0.63252001137E+03  0.25500000920E-02 0.  1.
       -2   -1    0    0    0  501  0.00000000000E+00  0.00000000000E+00 -0.13315610824E+04  0.13315610824E+04  0.25500000920E-02 0. -1.
    10030    2    1    2    0    0  0.00000000000E+00  0.00000000000E+00 -0.69904107102E+03  0.19640810938E+04  0.18354716353E+04 0.  0.
        3    1    3    3  502    0 -0.40030106624E+03 -0.41251012642E+03 -0.11150749759E+04  0.12545109645E+04  0.10100000352E+00 0. -1.
       -3    1    3    3    0  502  0.40030106624E+03  0.41251012642E+03  0.41603390491E+03  0.70957012921E+03  0.10100000352E+00 0.  1.
</event>
<event>
 5   0  0.5310003E-04  0.1712913E+04  0.7818609E-02  0.8754034E-01
       -2   -1    0    0    0  501  0.00000000000E+00  0.00000000000E+00  0.44755547091E+03  0.44755547092E+03  0.25500000920E-02 0.  1.
        2   -1    0    0  501    0  0.00000000000E+00  0.00000000000E+00 -0.16389428856E+04  0.16389428856E+04  0.25500000920E-02 0. -1.
    10030    2    1    2    0    0  0.00000000000E+00  0.00000000000E+00 -0.11913874147E+04  0.20864983565E+04  0.17129131384E+04 0.  0.
        1    1    3    3  502    0 -0.54632157338E+03 -0.64381565313E+03 -0.77032003974E+03  0.11429605507E+04  0.50400001928E-02 0. -1.
       -1    1    3    3    0  502  0.54632157338E+03  0.64381565313E+03 -0.42106737492E+03  0.94353780581E+03  0.50400001928E-02 0.  1.
</event>
<event>
 5   0  0.5310003E-04  0.1564359E+04  0.7818609E-02  0.8842748E-01
        2   -1    0    0  501    0  0.00000000000E+00  0.00000000000E+00  0.88870650190E+03  0.88870650190E+03  0.25500000920E-02 0.  1.
       -2   -1    0    0    0  501  0.00000000000E+00  0.00000000000E+00 -0.68842170480E+03  0.68842170481E+03  0.25500000920E-02 0. -1.
    10030    2    1    2    0    0  0.00000000000E+00  0.00000000000E+00  0.20028479709E+03  0.15771282067E+04  0.15643590957E+04 0.  0.
        1    1    3    3  502    0 -0.21680755745E+03 -0.14900464427E+03 -0.64248200946E+03  0.69425574070E+03  0.50400001928E-02 0. -1.
       -1    1    3    3    0  502  0.21680755745E+03  0.14900464427E+03  0.84276680656E+03  0.88287246601E+03  0.50400001928E-02 0.  1.
</event>
<event>
 5   0  0.5342255E-04  0.1698992E+04  0.7818609E-02  0.8761940E-01
       -2   -1    0    0    0  501  0.00000000000E+00  0.00000000000E+00  0.41356524499E+03  0.41356524500E+03  0.25500000920E-02 0. -1.
        2   -1    0    0  501    0  0.00000000000E+00  0.00000000000E+00 -0.17449323063E+04  0.17449323063E+04  0.25500000920E-02 0.  1.
    10030    2    1    2    0    0  0.00000000000E+00  0.00000000000E+00 -0.13313670613E+04  0.21584975513E+04  0.16989918855E+04 0.  0.
        5    1    3    3  502    0 -0.15823197879E+03 -0.41397911962E+03 -0.15863975642E+04  0.16471476535E+04  0.46999998093E+01 0.  1.
       -5    1    3    3    0  502  0.15823197879E+03  0.41397911962E+03  0.25503050291E+03  0.51134989782E+03  0.46999998093E+01 0. -1.
</event>
<event>
 5   0  0.2785059E-04  0.1640800E+04  0.7818609E-02  0.8795868E-01
       -1   -1    0    0    0  501  0.00000000000E+00  0.00000000000E+00  0.75166220139E+03  0.75166220140E+03  0.50400001928E-02 0.  1.
        1   -1    0    0  501    0  0.00000000000E+00  0.00000000000E+00 -0.89542405198E+03  0.89542405200E+03  0.50400001928E-02 0. -1.
    10030    2    1    2    0    0  0.00000000000E+00  0.00000000000E+00 -0.14376185059E+03  0.16470862534E+04  0.16408003097E+04 0.  0.
        5    1    3    3  502    0  0.33510608834E+03  0.26056283335E+03 -0.77659979109E+03  0.88505277022E+03  0.46999998093E+01 0. -1.
       -5    1    3    3    0  502 -0.33510608834E+03 -0.26056283335E+03  0.63283794049E+03  0.76203348318E+03  0.46999998093E+01 0.  1.
</event>
<event>
 5   0  0.5299877E-04  0.1704721E+04  0.7818609E-02  0.8758677E-01
       -2   -1    0    0    0  501  0.00000000000E+00  0.00000000000E+00  0.43738189747E+03  0.43738189747E+03  0.25500000920E-02 0. -1.
        2   -1    0    0  501    0  0.00000000000E+00  0.00000000000E+00 -0.16610609957E+04  0.16610609957E+04  0.25500000920E-02 0.  1.
    10030    2    1    2    0    0  0.00000000000E+00  0.00000000000E+00 -0.12236790982E+04  0.20984428932E+04  0.17047205168E+04 0.  0.
        3    1    3    3  502    0 -0.69049585157E+03 -0.22422232493E+03 -0.11615949561E+04  0.13698040094E+04  0.10100000352E+00 0.  1.
       -3    1    3    3    0  502  0.69049585157E+03  0.22422232493E+03 -0.62084142169E+02  0.72863888377E+03  0.10100000352E+00 0. -1.
</event>
<event>
 5   0  0.2595644E-04  0.2028315E+04  0.7818609E-02  0.8593496E-01
       -1   -1    0    0    0  501  0.00000000000E+00  0.00000000000E+00  0.87222455961E+03  0.87222455963E+03  0.50400001928E-02 0.  1.
        1   -1    0    0  501    0  0.00000000000E+00  0.00000000000E+00 -0.11791861238E+04  0.11791861238E+04  0.50400001928E-02 0. -1.
    10030    2    1    2    0    0  0.00000000000E+00  0.00000000000E+00 -0.30696156419E+03  0.20514106834E+04  0.20283146675E+04 0.  0.
        2    1    3    3  502    0 -0.91354645815E+03  0.17033204402E+03 -0.56422706596E+03  0.10871671069E+04  0.25500000920E-02 0. -1.
       -2    1    3    3    0  502  0.91354645815E+03 -0.17033204402E+03  0.25726550177E+03  0.96424357651E+03  0.25500000920E-02 0.  1.
</event>
<event>
 5   0  0.2630135E-04  0.1604280E+04  0.7818609E-02  0.8817923E-01
        1   -1    0    0  501    0  0.00000000000E+00  0.00000000000E+00  0.84406610915E+03  0.84406610916E+03  0.50400001928E-02 0. -1.
       -1   -1    0    0    0  501  0.00000000000E+00  0.00000000000E+00 -0.76229636932E+03  0.76229636934E+03  0.50400001928E-02 0.  1.
    10030    2    1    2    0    0  0.00000000000E+00  0.00000000000E+00  0.81769739825E+02  0.16063624785E+04  0.16042799388E+04 0.  0.
        1    1    3    3  502    0  0.27802418047E+02  0.71002180412E+03  0.41355693595E+03  0.82215161380E+03  0.50400001928E-02 0. -1.
       -1    1    3    3    0  502 -0.27802418047E+02 -0.71002180412E+03 -0.33178719613E+03  0.78421086470E+03  0.50400001928E-02 0.  1.
</event>
<event>
 5   0  0.2583422E-04  0.1696822E+04  0.7818609E-02  0.8763179E-01
        1   -1    0    0  501    0  0.00000000000E+00  0.00000000000E+00  0.18730904240E+04  0.18730904240E+04  0.50400001928E-02 0.  1.
       -1   -1    0    0    0  501  0.00000000000E+00  0.00000000000E+00 -0.38428542291E+03  0.38428542295E+03  0.50400001928E-02 0. -1.
    10030    2    1    2    0    0  0.00000000000E+00  0.00000000000E+00  0.14888050010E+04  0.22573758469E+04  0.16968221424E+04 0.  0.
        3    1    3    3  502    0 -0.40343245672E+03 -0.61059140330E+03  0.17340004566E+03  0.75209520339E+03  0.10100000352E+00 0. -1.
       -3    1    3    3    0  502  0.40343245672E+03  0.61059140330E+03  0.13154049554E+04  0.15052806435E+04  0.10100000352E+00 0.  1.
</event>
<event>
 5   0  0.2583422E-04  0.1683321E+04  0.7818609E-02  0.8770934E-01
       -1   -1    0    0    0  501  0.00000000000E+00  0.00000000000E+00  0.81317359870E+03  0.81317359872E+03  0.50400001928E-02 0. -1.
        1   -1    0    0  501    0  0.00000000000E+00  0.00000000000E+00 -0.87114571935E+03  0.87114571937E+03  0.50400001928E-02 0.  1.
    10030    2    1    2    0    0  0.00000000000E+00  0.00000000000E+00 -0.57972120650E+02  0.16843193181E+04  0.16833213593E+04 0.  0.
        3    1    3    3  502    0 -0.28729288700E+03  0.44084523264E+03  0.62829832446E+03  0.81953676964E+03  0.10100000352E+00 0. -1.
       -3    1    3    3    0  502  0.28729288700E+03 -0.44084523264E+03 -0.68627044511E+03  0.86478254845E+03  0.10100000352E+00 0.  1.
</event>
<event>
 5   0  0.5021349E-04  0.1691970E+04  0.7818609E-02  0.8765958E-01
        2   -1    0    0  501    0  0.00000000000E+00  0.00000000000E+00  0.14750180089E+04  0.14750180089E+04  0.25500000920E-02 0.  1.
       -2   -1    0    0    0  501  0.00000000000E+00  0.00000000000E+00 -0.48520786053E+03  0.48520786053E+03  0.25500000920E-02 0. -1.
    10030    2    1    2    0    0  0.00000000000E+00  0.00000000000E+00  0.98981014836E+03  0.19602258694E+04  0.16919696597E+04 0.  0.
        2    1    3    3  502    0 -0.31426427612E+03 -0.14781879030E+03  0.13886229756E+04  0.14313930970E+04  0.25500000920E-02 0.  1.
       -2    1    3    3    0  502  0.31426427612E+03  0.14781879030E+03 -0.39881282719E+03  0.52883277239E+03  0.25500000920E-02 0. -1.
</event>
<event>
 5   0  0.2785059E-04  0.1649007E+04  0.7818609E-02  0.8790994E-01
        1   -1    0    0  501    0  0.00000000000E+00  0.00000000000E+00  0.12919147709E+04  0.12919147709E+04  0.50400001928E-02 0. -1.
       -1   -1    0    0    0  501  0.00000000000E+00  0.00000000000E+00 -0.52620020301E+03  0.52620020303E+03  0.50400001928E-02 0.  1.
    10030    2    1    2    0    0  0.00000000000E+00  0.00000000000E+00  0.76571456785E+03  0.18181149739E+04  0.16490067492E+04 0.  0.
        5    1    3    3  502    0 -0.65016603344E+03 -0.19458219865E+02 -0.17574503628E+03  0.67379737394E+03  0.46999998093E+01 0. -1.
       -5    1    3    3    0  502  0.65016603344E+03  0.19458219865E+02  0.94145960413E+03  0.11443176000E+04  0.46999998093E+01 0.  1.
</event>
<event>
 5   0  0.5342255E-04  0.1739292E+04  0.7818609E-02  0.8739267E-01
        2   -1    0    0  501    0  0.00000000000E+00  0.00000000000E+00  0.12382112001E+04  0.12382112001E+04  0.25500000920E-02 0.  1.
       -2   -1    0    0    0  501  0.00000000000E+00  0.00000000000E+00 -0.61078739256E+03  0.61078739256E+03  0.25500000920E-02 0. -1.
    10030    2    1    2    0    0  0.00000000000E+00  0.00000000000E+00  0.62742380751E+03  0.18489985926E+04  0.17392915688E+04 0.  0.
        5    1    3    3  502    0 -0.23679714933E+03 -0.52672223010E+03 -0.37749375114E+03  0.68995131695E+03  0.46999998093E+01 0. -1.
       -5    1    3    3    0  502  0.23679714933E+03  0.52672223010E+03  0.10049175586E+04  0.11590472757E+04  0.46999998093E+01 0.  1.
</event>
<event>
 5   0  0.2595644E-04  0.1693234E+04  0.7818609E-02  0.8765233E-01
        1   -1    0    0  501    0  0.00000000000E+00  0.00000000000E+00  0.12448149777E+04  0.12448149777E+04  0.50400001928E-02 0.  1.
       -1   -1    0    0    0  501  0.00000000000E+00  0.00000000000E+00 -0.57579647822E+03  0.57579647824E+03  0.50400001928E-02 0. -1.
    10030    2    1    2    0    0  0.00000000000E+00  0.00000000000E+00  0.66901849952E+03  0.18206114560E+04  0.16932336876E+04 0.  0.
        2    1    3    3  502    0  0.12260907294E+02  0.20931340498E+03  0.12164564854E+04  0.12343941074E+04  0.25500000920E-02 0.  1.
       -2    1    3    3    0  502 -0.12260907294E+02 -0.20931340498E+03 -0.54743798593E+03  0.58621734860E+03  0.25500000920E-02 0. -1.
</event>
<event>
 5   0  0.1910750E-04  0.1735621E+04  0.7818609E-02  0.8741305E-01
        4   -1    0    0  501    0  0.00000000000E+00  0.00000000000E+00  0.67391387044E+03  0.67391506710E+03  0.12699999809E+01 0.  1.
       -4   -1    0    0    0  501  0.00000000000E+00  0.00000000000E+00 -0.11174914066E+04  0.11174921283E+04  0.12699999809E+01 0. -1.
    10030    2    1    2    0    0  0.00000000000E+00  0.00000000000E+00 -0.44357753618E+03  0.17914071954E+04  0.17356205545E+04 0.  0.
        3    1    3    3  502    0  0.64439731612E+03  0.34753339344E+03 -0.70266879382E+03  0.10147762337E+04  0.10100000352E+00 0. -1.
       -3    1    3    3    0  502 -0.64439731612E+03 -0.34753339344E+03  0.25909125764E+03  0.77663096163E+03  0.10100000352E+00 0.  1.
</event>
<event>
 5   0  0.2630135E-04  0.1701418E+04  0.7818609E-02  0.8760556E-01
        1   -1    0    0  501    0  0.00000000000E+00  0.00000000000E+00  0.97980575512E+03  0.97980575514E+03  0.50400001928E-02 0.  1.
       -1   -1    0    0    0  501  0.00000000000E+00  0.00000000000E+00 -0.73862183414E+03  0.73862183415E+03  0.50400001928E-02 0. -1.
    10030    2    1    2    0    0  0.00000000000E+00  0.00000000000E+00  0.24118392099E+03  0.17184275893E+04  0.17014181426E+04 0.  0.
        1    1    3    3  502    0  0.65910779840E+03  0.51809088440E+03 -0.25298176648E+02  0.83873789241E+03  0.50400001928E-02 0.  1.
       -1    1    3    3    0  502 -0.65910779840E+03 -0.51809088440E+03  0.26648209764E+03  0.87968969688E+03  0.50400001928E-02 0. -1.
</event>
<event>
 5   0  0.2595644E-04  0.1646292E+04  0.7818609E-02  0.8792603E-01
        1   -1    0    0  501    0  0.00000000000E+00  0.00000000000E+00  0.79109199203E+03  0.79109199204E+03  0.50400001928E-02 0. -1.
       -1   -1    0    0    0  501  0.00000000000E+00  0.00000000000E+00 -0.85649855903E+03  0.85649855904E+03  0.50400001928E-02 0.  1.
    10030    2    1    2    0    0  0.00000000000E+00  0.00000000000E+00 -0.65406567002E+02  0.16475905511E+04  0.16462917740E+04 0.  0.
        2    1    3    3  502    0 -0.74786698686E+03 -0.21953041722E+03 -0.29762047716E+03  0.83431204148E+03  0.25500000920E-02 0.  1.
       -2    1    3    3    0  502  0.74786698686E+03  0.21953041722E+03  0.23221391016E+03  0.81327850961E+03  0.25500000920E-02 0. -1.
</event>
<event>
 5   0  0.5310003E-04  0.1670076E+04  0.7818609E-02  0.8778618E-01
        2   -1    0    0  501    0  0.00000000000E+00  0.00000000000E+00  0.75509724422E+03  0.75509724422E+03  0.25500000920E-02 0.  1.
       -2   -1    0    0    0  501  0.00000000000E+00  0.00000000000E+00 -0.92344202454E+03  0.92344202455E+03  0.25500000920E-02 0. -1.
    10030    2    1    2    0    0  0.00000000000E+00  0.00000000000E+00 -0.16834478032E+03  0.16785392688E+04  0.16700760796E+04 0.  0.
        1    1    3    3  502    0  0.69864326708E+02 -0.21674775604E+03  0.72328408625E+03  0.75828786311E+03  0.50400001928E-02 0.  1.
       -1    1    3    3    0  502 -0.69864326708E+02  0.21674775604E+03 -0.89162886657E+03  0.92025140566E+03  0.50400001928E-02 0. -1.
</event>
<event>
 5   0  0.5310003E-04  0.1634147E+04  0.7818609E-02  0.8799841E-01
        2   -1    0    0  501    0  0.00000000000E+00  0.00000000000E+00  0.11642371120E+04  0.11642371120E+04  0.25500000920E-02 0. -1.
       -2   -1    0    0    0  501  0.00000000000E+00  0.00000000000E+00 -0.57343020808E+03  0.57343020808E+03  0.25500000920E-02 0.  1.
    10030    2    1    2    0    0  0.00000000000E+00  0.00000000000E+00  0.59080690392E+03  0.17376673201E+04  0.16341465410E+04 0.  0.
        1    1    3    3  502    0 -0.34864846632E+03  0.30377021038E+03  0.10117063363E+04  0.11123766469E+04  0.50400001928E-02 0. -1.
       -1    1    3    3    0  502  0.34864846632E+03 -0.30377021038E+03 -0.42089943233E+03  0.62529067316E+03  0.50400001928E-02 0.  1.
</event>
<event>
 5   0  0.1910750E-04  0.1717603E+04  0.7818609E-02  0.8751388E-01
       -3   -1    0    0    0  501  0.00000000000E+00  0.00000000000E+00  0.12458496545E+04  0.12458496586E+04  0.10100000352E+00 0. -1.
        3   -1    0    0  501    0  0.00000000000E+00  0.00000000000E+00 -0.59199740277E+03  0.59199741139E+03  0.10100000352E+00 0.  1.
    10030    2    1    2    0    0  0.00000000000E+00  0.00000000000E+00  0.65385225175E+03  0.18378470700E+04  0.17176027147E+04 0.  0.
        4    1    3    3  502    0  0.28876402518E+03  0.75198445783E+03  0.64555273263E+03  0.10322815655E+04  0.12699999809E+01 0. -1.
       -4    1    3    3    0  502 -0.28876402518E+03 -0.75198445783E+03  0.82995191216E+01  0.80556550446E+03  0.12699999809E+01 0.  1.
</event>
<event>
 5   0  0.2561518E-04  0.1708968E+04  0.7818609E-02  0.8756266E-01
       -1   -1    0    0    0  501  0.00000000000E+00  0.00000000000E+00  0.80650328523E+03  0.80650328525E+03  0.50400001928E-02 0.  1.
        1   -1    0    0  501    0  0.00000000000E+00  0.00000000000E+00 -0.90531948455E+03  0.90531948456E+03  0.50400001928E-02 0. -1.
    10030    2    1    2    0    0  0.00000000000E+00  0.00000000000E+00 -0.98816199314E+02  0.17118227698E+04  0.17089682718E+04 0.  0.
        4    1    3    3  502    0  0.59313119926E+03  0.26380488973E+03 -0.60598346779E+03  0.88804009792E+03  0.12699999809E+01 0. -1.
       -4    1    3    3    0  502 -0.59313119926E+03 -0.26380488973E+03  0.50716726848E+03  0.82378267188E+03  0.12699999809E+01 0.  1.
</event>
<event>
 5   0  0.5342255E-04  0.1709645E+04  0.7818609E-02  0.8755883E-01
       -2   -1    0    0    0  501  0.00000000000E+00  0.00000000000E+00  0.62457596185E+03  0.62457596185E+03  0.25500000920E-02 0. -1.
        2   -1    0    0  501    0  0.00000000000E+00  0.00000000000E+00 -0.11699476182E+04  0.11699476182E+04  0.25500000920E-02 0.  1.
    10030    2    1    2    0    0  0.00000000000E+00  0.00000000000E+00 -0.54537165633E+03  0.17945235800E+04  0.17096445934E+04 0.  0.
        5    1    3    3  502    0  0.16587519592E+03  0.82084294404E+03 -0.45266695423E+03  0.95195965296E+03  0.46999998093E+01 0.  1.
       -5    1    3    3    0  502 -0.16587519592E+03 -0.82084294404E+03 -0.92704702092E+02  0.84256392707E+03  0.46999998093E+01 0. -1.
</event>
<event>
 5   0  0.2785059E-04  0.1317961E+04  0.7818609E-02  0.9015442E-01
       -1   -1    0    0    0  501  0.00000000000E+00  0.00000000000E+00  0.67238164988E+03  0.67238164990E+03  0.50400001928E-02 0. -1.
        1   -1    0    0  501    0  0.00000000000E+00  0.00000000000E+00 -0.64584604025E+03  0.64584604027E+03  0.50400001928E-02 0.  1.
    10030    2    1    2    0    0  0.00000000000E+00  0.00000000000E+00  0.26535609631E+02  0.13182276902E+04  0.13179605854E+04 0.  0.
        5    1    3    3  502    0  0.50381997651E+02 -0.56620965915E+03 -0.32011823210E+03  0.65240286351E+03  0.46999998093E+01 0.  1.
       -5    1    3    3    0  502 -0.50381997651E+02  0.56620965915E+03  0.34665384173E+03  0.66582482665E+03  0.46999998093E+01 0. -1.
</event>
<event>
 5   0  0.2595644E-04  0.1654730E+04  0.7818609E-02  0.8787613E-01
       -1   -1    0    0    0  501  0.00000000000E+00  0.00000000000E+00  0.38817070933E+03  0.38817070937E+03  0.50400001928E-02 0.  1.
        1   -1    0    0  501    0  0.00000000000E+00  0.00000000000E+00 -0.17634847663E+04  0.17634847663E+04  0.50400001928E-02 0. -1.
    10030    2    1    2    0    0  0.00000000000E+00  0.00000000000E+00 -0.13753140569E+04  0.21516554756E+04  0.16547303498E+04 0.  0.
        2    1    3    3  502    0 -0.51534342585E+02  0.73895877055E+03 -0.20845018192E+03  0.76952409409E+03  0.25500000920E-02 0.  1.
       -2    1    3    3    0  502  0.51534342585E+02 -0.73895877055E+03 -0.11668638750E+04  0.13821313816E+04  0.25500000920E-02 0. -1.
</event>
<event>
 5   0  0.5342255E-04  0.1749147E+04  0.7818609E-02  0.8733820E-01
        2   -1    0    0  501    0  0.00000000000E+00  0.00000000000E+00  0.58611148409E+03  0.58611148409E+03  0.25500000920E-02 0.  1.
       -2   -1    0    0    0  501  0.00000000000E+00  0.00000000000E+00 -0.13050062290E+04  0.13050062290E+04  0.25500000920E-02 0. -1.
    10030    2    1    2    0    0  0.00000000000E+00  0.00000000000E+00 -0.71889474488E+03  0.18911177131E+04  0.17491473781E+04 0.  0.
        5    1    3    3  502    0  0.34698840969E+03 -0.66658899233E+03 -0.84309850007E+03  0.11294153408E+04  0.46999998093E+01 0.  1.
       -5    1    3    3    0  502 -0.34698840969E+03  0.66658899233E+03  0.12420375518E+03  0.76170237229E+03  0.46999998093E+01 0. -1.
</event>
<event>
 5   0  0.5310003E-04  0.1702342E+04  0.7818609E-02  0.8760030E-01
       -2   -1    0    0    0  501  0.00000000000E+00  0.00000000000E+00  0.59206667859E+03  0.59206667859E+03  0.25500000920E-02 0. -1.
        2   -1    0    0  501    0  0.00000000000E+00  0.00000000000E+00 -0.12236658133E+04  0.12236658133E+04  0.25500000920E-02 0.  1.
    10030    2    1    2    0    0  0.00000000000E+00  0.00000000000E+00 -0.63159913468E+03  0.18157324919E+04  0.17023416270E+04 0.  0.
        1    1    3    3  502    0  0.23971779586E+03 -0.57962748077E+03  0.29790297368E+03  0.69439097047E+03  0.50400001928E-02 0. -1.
       -1    1    3    3    0  502 -0.23971779586E+03  0.57962748077E+03 -0.92950210836E+03  0.11213415214E+04  0.50400001928E-02 0.  1.
</event>
<event>
 5   0  0.2595644E-04  0.1619937E+04  0.7818609E-02  0.8808392E-01
        1   -1    0    0  501    0  0.00000000000E+00  0.00000000000E+00  0.94063964261E+03  0.94063964262E+03  0.50400001928E-02 0. -1.
       -1   -1    0    0    0  501  0.00000000000E+00  0.00000000000E+00 -0.69745020468E+03  0.69745020470E+03  0.50400001928E-02 0.  1.
    10030    2    1    2    0    0  0.00000000000E+00  0.00000000000E+00  0.24318943793E+03  0.16380898473E+04  0.16199374201E+04 0.  0.
        2    1    3    3  502    0 -0.38426586766E+03  0.70058874366E+03  0.25561081501E+03  0.83894084031E+03  0.25500000920E-02 0. -1.
       -2    1    3    3    0  502  0.38426586766E+03 -0.70058874366E+03 -0.12421377080E+02  0.79914900701E+03  0.25500000920E-02 0.  1.
</event>
<event>
 5   0  0.2785059E-04  0.1687787E+04  0.7818609E-02  0.8768361E-01
       -1   -1    0    0    0  501  0.00000000000E+00  0.00000000000E+00  0.50473347194E+03  0.50473347197E+03  0.50400001928E-02 0. -1.
        1   -1    0    0  501    0  0.00000000000E+00  0.00000000000E+00 -0.14109548233E+04  0.14109548233E+04  0.50400001928E-02 0.  1.
    10030    2    1    2    0    0  0.00000000000E+00  0.00000000000E+00 -0.90622135134E+03  0.19156882953E+04  0.16877868666E+04 0.  0.
        5    1    3    3  502    0  0.76931795597E+02 -0.28331260799E+03  0.44489047186E+03  0.53304235945E+03  0.46999998093E+01 0. -1.
       -5    1    3    3    0  502 -0.76931795597E+02  0.28331260799E+03 -0.13511118232E+04  0.13826459358E+04  0.46999998093E+01 0.  1.
</event>
<event>
 5   0  0.2583422E-04  0.1645608E+04  0.7818609E-02  0.8793009E-01
       -1   -1    0    0    0  501  0.00000000000E+00  0.00000000000E+00  0.88719476796E+03  0.88719476797E+03  0.50400001928E-02 0. -1.
        1   -1    0    0  501    0  0.00000000000E+00  0.00000000000E+00 -0.76308661114E+03  0.76308661116E+03  0.50400001928E-02 0.  1.
    10030    2    1    2    0    0  0.00000000000E+00  0.00000000000E+00  0.12410815682E+03  0.16502813791E+04  0.16456080322E+04 0.  0.
        3    1    3    3  502    0  0.69188381143E+03 -0.23882232806E+03  0.43897665869E+03  0.85348686573E+03  0.10100000352E+00 0. -1.
       -3    1    3    3    0  502 -0.69188381143E+03  0.23882232806E+03 -0.31486850187E+03  0.79679451339E+03  0.10100000352E+00 0.  1.
</event>
<event>
 5   0  0.2583422E-04  0.1707504E+04  0.7818609E-02  0.8757096E-01
       -1   -1    0    0    0  501  0.00000000000E+00  0.00000000000E+00  0.34048254558E+03  0.34048254562E+03  0.50400001928E-02 0.  1.
        1   -1    0    0  501    0  0.00000000000E+00  0.00000000000E+00 -0.21407628334E+04  0.21407628334E+04  0.50400001928E-02 0. -1.
    10030    2    1    2    0    0  0.00000000000E+00  0.00000000000E+00 -0.18002802878E+04  0.24812453790E+04  0.17075038847E+04 0.  0.
        3    1    3    3  502    0  0.50234870451E+03 -0.36585312409E+03 -0.49475265759E+02  0.62341843208E+03  0.10100000352E+00 0.  1.
       -3    1    3    3    0  502 -0.50234870451E+03  0.36585312409E+03 -0.17508050220E+04  0.18578269469E+04  0.10100000352E+00 0. -1.
</event>
<event>
 5   0  0.2785059E-04  0.1705102E+04  0.7818609E-02  0.8758460E-01
        1   -1    0    0  501    0  0.00000000000E+00  0.00000000000E+00  0.85798781410E+03  0.85798781412E+03  0.50400001928E-02 0. -1.
       -1   -1    0    0    0  501  0.00000000000E+00  0.00000000000E+00 -0.84714871921E+03  0.84714871922E+03  0.50400001928E-02 0.  1.
    10030    2    1    2    0    0  0.00000000000E+00  0.00000000000E+00  0.10839094894E+02  0.17051365333E+04  0.17051020824E+04 0.  0.
        5    1    3    3  502    0 -0.23880711910E+03 -0.79961811766E+03 -0.16894914871E+03  0.85145985171E+03  0.46999998093E+01 0.  1.
       -5    1    3    3    0  502  0.23880711910E+03  0.79961811766E+03  0.17978824360E+03  0.85367668163E+03  0.46999998093E+01 0. -1.
</event>
<event>
 5   0  0.2561518E-04  0.1633891E+04  0.7818609E-02  0.8799994E-01
        1   -1    0    0  501    0  0.00000000000E+00  0.00000000000E+00  0.22434965355E+04  0.22434965355E+04  0.50400001928E-02 0.  1.
       -1   -1    0    0    0  501  0.00000000000E+00  0.00000000000E+00 -0.29748202059E+03  0.29748202063E+03  0.50400001928E-02 0. -1.
    10030    2    1    2    0    0  0.00000000000E+00  0.00000000000E+00  0.19460145149E+04  0.25409785561E+04  0.16338909176E+04 0.  0.
        4    1    3    3  502    0  0.34597369275E+03 -0.56940073528E+03  0.23781579324E+03  0.70744113383E+03  0.12699999809E+01 0. -1.
       -4    1    3    3    0  502 -0.34597369275E+03  0.56940073528E+03  0.17081987217E+04  0.18335374223E+04  0.12699999809E+01 0.  1.
</event>
<event>
 5   0  0.2583422E-04  0.1701550E+04  0.7818609E-02  0.8760481E-01
       -1   -1    0    0    0  501  0.00000000000E+00  0.00000000000E+00  0.81814674122E+03  0.81814674123E+03  0.50400001928E-02 0.  1.
        1   -1    0    0  501    0  0.00000000000E+00  0.00000000000E+00 -0.88470500780E+03  0.88470500781E+03  0.50400001928E-02 0. -1.
    10030    2    1    2    0    0  0.00000000000E+00  0.00000000000E+00 -0.66558266579E+02  0.17028517490E+04  0.17015504919E+04 0.  0.
        3    1    3    3  502    0  0.58352115934E+03  0.47396847359E+03  0.36536637060E+03  0.83584427516E+03  0.10100000352E+00 0.  1.
       -3    1    3    3    0  502 -0.58352115934E+03 -0.47396847359E+03 -0.43192463718E+03  0.86700747388E+03  0.10100000352E+00 0. -1.
</event>
<event>
 5   0  0.5198430E-04  0.1680735E+04  0.7818609E-02  0.8772429E-01
       -2   -1    0    0    0  501  0.00000000000E+00  0.00000000000E+00  0.11284723300E+04  0.11284723300E+04  0.25500000920E-02 0. -1.
        2   -1    0    0  501    0  0.00000000000E+00  0.00000000000E+00 -0.62581767008E+03  0.62581767008E+03  0.25500000920E-02 0.  1.
    10030    2    1    2    0    0  0.00000000000E+00  0.00000000000E+00  0.50265465993E+03  0.17542900001E+04  0.16807354632E+04 0.  0.
        4    1    3    3  502    0  0.73235278135E+03  0.23293868118E+03 -0.10357565559E+03  0.77545506309E+03  0.12699999809E+01 0. -1.
       -4    1    3    3    0  502 -0.73235278135E+03 -0.23293868118E+03  0.60623031551E+03  0.97883493700E+03  0.12699999809E+01 0.  1.
</event>
<event>
 5   0  0.2583422E-04  0.1635299E+04  0.7818609E-02  0.8799151E-01
        1   -1    0    0  501    0  0.00000000000E+00  0.00000000000E+00  0.12357195787E+04  0.12357195787E+04  0.50400001928E-02 0.  1.
       -1   -1    0    0    0  501  0.00000000000E+00  0.00000000000E+00 -0.54102159819E+03  0.54102159821E+03  0.50400001928E-02 0. -1.
    10030    2    1    2    0    0  0.00000000000E+00  0.00000000000E+00  0.69469798050E+03  0.17767411769E+04  0.16352993382E+04 0.  0.
        3    1    3    3  502    0  0.50618451766E+03 -0.23154521417E+03  0.99808027537E+03  0.11428036570E+04  0.10100000352E+00 0.  1.
       -3    1    3    3    0  502 -0.50618451766E+03  0.23154521417E+03 -0.30338229487E+03  0.63393751993E+03  0.10100000352E+00 0. -1.
</event>
<event>
 5   0  0.5299877E-04  0.1702670E+04  0.7818609E-02  0.8759843E-01
        2   -1    0    0  501    0  0.00000000000E+00  0.00000000000E+00  0.77001188586E+03  0.77001188587E+03  0.25500000920E-02 0.  1.
       -2   -1    0    0    0  501  0.00000000000E+00  0.00000000000E+00 -0.94124718937E+03  0.94124718938E+03  0.25500000920E-02 0. -1.
    10030    2    1    2    0    0  0.00000000000E+00  0.00000000000E+00 -0.17123530351E+03  0.17112590752E+04  0.17026702832E+04 0.  0.
        3    1    3    3  502    0  0.41975310939E+03 -0.54945322383E+03 -0.58479190116E+03  0.90557887337E+03  0.10100000352E+00 0. -1.
       -3    1    3    3    0  502 -0.41975310939E+03  0.54945322383E+03  0.41355659765E+03  0.80568020187E+03  0.10100000352E+00 0.  1.
</event>
<event>
 5   0  0.5299877E-04  0.1682266E+04  0.7818609E-02  0.8771544E-01
       -2   -1    0    0    0  501  0.00000000000E+00  0.00000000000E+00  0.15540168377E+04  0.15540168377E+04  0.25500000920E-02 0.  1.
        2   -1    0    0  501    0  0.00000000000E+00  0.00000000000E+00 -0.45527476841E+03  0.45527476842E+03  0.25500000920E-02 0. -1.
    10030    2    1    2    0    0  0.00000000000E+00  0.00000000000E+00  0.10987420693E+04  0.20092916062E+04  0.16822659194E+04 0.  0.
        3    1    3    3  502    0  0.75302216813E+03  0.10097087356E+03  0.11828320027E+03  0.76891379795E+03  0.10100000352E+00 0. -1.
       -3    1    3    3    0  502 -0.75302216813E+03 -0.10097087356E+03  0.98045886906E+03  0.12403778082E+04  0.10100000352E+00 0.  1.
</event>
<event>
 5   0  0.1910750E-04  0.1725685E+04  0.7818609E-02  0.8746849E-01
        4   -1    0    0  501    0  0.00000000000E+00  0.00000000000E+00  0.60303071197E+03  0.60303204930E+03  0.12699999809E+01 0. -1.
       -4   -1    0    0    0  501  0.00000000000E+00  0.00000000000E+00 -0.12345895391E+04  0.12345901923E+04  0.12699999809E+01 0.  1.
    10030    2    1    2    0    0  0.00000000000E+00  0.00000000000E+00 -0.63155882712E+03  0.18376222416E+04  0.17256850671E+04 0.  0.
        5    1    3    3  502    0 -0.65722097908E+03 -0.77103807572E+02  0.27384330806E+03  0.71616803884E+03  0.46999998093E+01 0.  1.
       -5    1    3    3    0  502  0.65722097908E+03  0.77103807572E+02 -0.90540213518E+03  0.11214542028E+04  0.46999998093E+01 0. -1.
</event>
<event>
 5   0  0.5342255E-04  0.1745654E+04  0.7818609E-02  0.8735746E-01
       -2   -1    0    0    0  501  0.00000000000E+00  0.00000000000E+00  0.65020842075E+03  0.65020842075E+03  0.25500000920E-02 0.  1.
        2   -1    0    0  501    0  0.00000000000E+00  0.00000000000E+00 -0.11716660604E+04  0.11716660604E+04  0.25500000920E-02 0. -1.
    10030    2    1    2    0    0  0.00000000000E+00  0.00000000000E+00 -0.52145763969E+03  0.18218744812E+04  0.17456541912E+04 0.  0.
        5    1    3    3  502    0 -0.16230711042E+03  0.27219638146E+03 -0.11094844606E+04  0.11538684182E+04  0.46999998093E+01 0. -1.
       -5    1    3    3    0  502  0.16230711042E+03 -0.27219638146E+03  0.58802682088E+03  0.66800606303E+03  0.46999998093E+01 0.  1.
</event>
<event>
 5   0  0.2785059E-04  0.1707341E+04  0.7818609E-02  0.8757188E-01
       -1   -1    0    0    0  501  0.00000000000E+00  0.00000000000E+00  0.11385795783E+04  0.11385795783E+04  0.50400001928E-02 0. -1.
        1   -1    0    0  501    0  0.00000000000E+00  0.00000000000E+00 -0.64005513979E+03  0.64005513981E+03  0.50400001928E-02 0.  1.
    10030    2    1    2    0    0  0.00000000000E+00  0.00000000000E+00  0.49852443855E+03  0.17786347182E+04  0.17073414552E+04 0.  0.
        5    1    3    3  502    0  0.53250775946E+03  0.23274322938E+03 -0.40214636788E+03  0.70673737407E+03  0.46999998093E+01 0.  1.
       -5    1    3    3    0  502 -0.53250775946E+03 -0.23274322938E+03  0.90067080643E+03  0.10718973441E+04  0.46999998093E+01 0. -1.
</event>
<event>
 5   0  0.2595644E-04  0.1697647E+04  0.7818609E-02  0.8762707E-01
       -1   -1    0    0    0  501  0.00000000000E+00  0.00000000000E+00  0.66648833502E+03  0.66648833503E+03  0.50400001928E-02 0. -1.
        1   -1    0    0  501    0  0.00000000000E+00  0.00000000000E+00 -0.10810413111E+04  0.10810413111E+04  0.50400001928E-02 0.  1.
    10030    2    1    2    0    0  0.00000000000E+00  0.00000000000E+00 -0.41455297605E+03  0.17475296461E+04  0.16976471053E+04 0.  0.
        2    1    3    3  502    0  0.77275631857E+03 -0.96656242228E+02 -0.55484646765E+03  0.95621616788E+03  0.25500000920E-02 0.  1.
       -2    1    3    3    0  502 -0.77275631857E+03  0.96656242228E+02  0.14029349160E+03  0.79131347823E+03  0.25500000920E-02 0. -1.
</event>
<event>
 5   0  0.5342255E-04  0.1712063E+04  0.7818609E-02  0.8754514E-01
       -2   -1    0    0    0  501  0.00000000000E+00  0.00000000000E+00  0.78593381585E+03  0.78593381585E+03  0.25500000920E-02 0. -1.
        2   -1    0    0  501    0  0.00000000000E+00  0.00000000000E+00 -0.93238133773E+03  0.93238133774E+03  0.25500000920E-02 0.  1.
    10030    2    1    2    0    0  0.00000000000E+00  0.00000000000E+00 -0.14644752188E+03  0.17183151536E+04  0.17120631093E+04 0.  0.
        5    1    3    3  502    0  0.39377274737E+03  0.66700399663E+03 -0.43899476122E+03  0.89033128580E+03  0.46999998093E+01 0. -1.
       -5    1    3    3    0  502 -0.39377274737E+03 -0.66700399663E+03  0.29254723934E+03  0.82798386780E+03  0.46999998093E+01 0.  1.
</event>
<event>
 5   0  0.5310003E-04  0.1709668E+04  0.7818609E-02  0.8755870E-01
        2   -1    0    0  501    0  0.00000000000E+00  0.00000000000E+00  0.23284282920E+04  0.23284282920E+04  0.25500000920E-02 0. -1.
       -2   -1    0    0    0  501  0.00000000000E+00  0.00000000000E+00 -0.31383447755E+03  0.31383447756E+03  0.25500000920E-02 0.  1.
    10030    2    1    2    0    0  0.00000000000E+00  0.00000000000E+00  0.20145938144E+04  0.26422627695E+04  0.17096678935E+04 0.  0.
        1    1    3    3  502    0 -0.54438100228E+03 -0.46952528270E+03  0.29246060253E+03  0.77610429119E+03  0.50400001928E-02 0.  1.
       -1    1    3    3    0  502  0.54438100228E+03  0.46952528270E+03  0.17221332119E+04  0.18661584783E+04  0.50400001928E-02 0. -1.
</event>
<event>
 5   0  0.2595644E-04  0.1710336E+04  0.7818609E-02  0.8755491E-01
       -1   -1    0    0    0  501  0.00000000000E+00  0.00000000000E+00  0.63050254738E+03  0.63050254740E+03  0.50400001928E-02 0.  1.
        1   -1    0    0  501    0  0.00000000000E+00  0.00000000000E+00 -0.11598874936E+04  0.11598874936E+04  0.50400001928E-02 0. -1.
    10030    2    1    2    0    0  0.00000000000E+00  0.00000000000E+00 -0.52938494622E+03  0.17903900410E+04  0.17103356623E+04 0.  0.
        2    1    3    3  502    0  0.14402605157E+03  0.83509256304E+03 -0.14447404780E+03  0.85964867409E+03  0.25500000920E-02 0.  1.
       -2    1    3    3    0  502 -0.14402605157E+03 -0.83509256304E+03 -0.38491089843E+03  0.93074136693E+03  0.25500000920E-02 0. -1.
</event>
<event>
 5   0  0.5310003E-04  0.1678865E+04  0.7818609E-02  0.8773511E-01
       -2   -1    0    0    0  501  0.00000000000E+00  0.00000000000E+00  0.32123352290E+03  0.32123352291E+03  0.25500000920E-02 0.  1.
        2   -1    0    0  501    0  0.00000000000E+00  0.00000000000E+00 -0.21935663292E+04  0.21935663292E+04  0.25500000920E-02 0. -1.
    10030    2    1    2    0    0  0.00000000000E+00  0.00000000000E+00 -0.18723328063E+04  0.25147998521E+04  0.16788651401E+04 0.  0.
        1    1    3    3  502    0  0.55139077473E+03  0.99643689463E+02  0.10499152852E+00  0.56032192743E+03  0.50400001928E-02 0.  1.
       -1    1    3    3    0  502 -0.55139077473E+03 -0.99643689463E+02 -0.18724377979E+04  0.19544779247E+04  0.50400001928E-02 0. -1.
</event>
<event>
 5   0  0.2561518E-04  0.1749861E+04  0.7818609E-02  0.8733427E-01
        1   -1    0    0  501    0  0.00000000000E+00  0.00000000000E+00  0.65758659844E+03  0.65758659846E+03  0.50400001928E-02 0. -1.
       -1   -1    0    0    0  501  0.00000000000E+00  0.00000000000E+00 -0.11641106891E+04  0.11641106891E+04  0.50400001928E-02 0.  1.
    10030    2    1    2    0    0  0.00000000000E+00  0.00000000000E+00 -0.50652409064E+03  0.18216972875E+04  0.17498612382E+04 0.  0.
        4    1    3    3  502    0 -0.30969042044E+03  0.81825545797E+03 -0.26075649085E+03  0.91293247912E+03  0.12699999809E+01 0.  1.
       -4    1    3    3    0  502  0.30969042044E+03 -0.81825545797E+03 -0.24576759978E+03  0.90876480842E+03  0.12699999809E+01 0. -1.
</event>
<event>
 5   0  0.5299877E-04  0.1727664E+04  0.7818609E-02  0.8745742E-01
       -2   -1    0    0    0  501  0.00000000000E+00  0.00000000000E+00  0.36516460163E+03  0.36516460164E+03  0.25500000920E-02 0. -1.
        2   -1    0    0  501    0  0.00000000000E+00  0.00000000000E+00 -0.20434778281E+04  0.20434778281E+04  0.25500000920E-02 0.  1.
    10030    2    1    2    0    0  0.00000000000E+00  0.00000000000E+00 -0.16783132265E+04  0.24086424297E+04  0.17276640496E+04 0.  0.
        3    1    3    3  502    0  0.42877589394E+03  0.36445267618E+03  0.74557666642E+02  0.56765603693E+03  0.10100000352E+00 0. -1.
       -3    1    3    3    0  502 -0.42877589394E+03 -0.36445267618E+03 -0.17528708931E+04  0.18409863928E+04  0.10100000352E+00 0.  1.
</event>
<event>
 5   0  0.2561518E-04  0.1699782E+04  0.7818609E-02  0.8761489E-01
       -1   -1    0    0    0  501  0.00000000000E+00  0.00000000000E+00  0.32213979178E+03  0.32213979182E+03  0.50400001928E-02 0. -1.
        1   -1    0    0  501    0  0.00000000000E+00  0.00000000000E+00 -0.22422386916E+04  0.22422386916E+04  0.50400001928E-02 0.  1.
    10030    2    1    2    0    0  0.00000000000E+00  0.00000000000E+00 -0.19200988998E+04  0.25643784835E+04  0.16997815216E+04 0.  0.
        4    1    3    3  502    0  0.56943372793E+03 -0.11694174382E+03 -0.18953923470E+04  0.19825347170E+04  0.12699999809E+01 0.  1.
       -4    1    3    3    0  502 -0.56943372793E+03  0.11694174382E+03 -0.24706552833E+02  0.58184376650E+03  0.12699999809E+01 0. -1.
</event>
<event>
 5   0  0.5299877E-04  0.1722154E+04  0.7818609E-02  0.8748829E-01
       -2   -1    0    0    0  501  0.00000000000E+00  0.00000000000E+00  0.28267490418E+03  0.28267490419E+03  0.25500000920E-02 0.  1.
        2   -1    0    0  501    0  0.00000000000E+00  0.00000000000E+00 -0.26229905651E+04  0.26229905651E+04  0.25500000920E-02 0. -1.
    10030    2    1    2    0    0  0.00000000000E+00  0.00000000000E+00 -0.23403156609E+04  0.29056654693E+04  0.17221540078E+04 0.  0.
        3    1    3    3  502    0 -0.73917325175E+03  0.42184629799E+03 -0.94938103560E+03  0.12750120612E+04  0.10100000352E+00 0. -1.
       -3    1    3    3    0  502  0.73917325175E+03 -0.42184629799E+03 -0.13909346253E+04  0.16306534081E+04  0.10100000352E+00 0.  1.
</event>
<event>
 5   0  0.5198430E-04  0.1554466E+04  0.7818609E-02  0.8849020E-01
        2   -1    0    0  501    0  0.00000000000E+00  0.00000000000E+00  0.14051373159E+04  0.14051373159E+04  0.25500000920E-02 0. -1.
       -2   -1    0    0    0  501  0.00000000000E+00  0.00000000000E+00 -0.42991615743E+03  0.42991615744E+03  0.25500000920E-02 0.  1.
    10030    2    1    2    0    0  0.00000000000E+00  0.00000000000E+00  0.97522115849E+03  0.18350534734E+04  0.15544661277E+04 0.  0.
        4    1    3    3  502    0 -0.13665795154E+03  0.50688914974E+03 -0.18897128378E+03  0.55796394582E+03  0.12699999809E+01 0.  1.
       -4    1    3    3    0  502  0.13665795154E+03 -0.50688914974E+03  0.11641924423E+04  0.12770895275E+04  0.12699999809E+01 0. -1.
</event>
<event>
 5   0  0.5021349E-04  0.1752522E+04  0.7818609E-02  0.8731963E-01
        2   -1    0    0  501    0  0.00000000000E+00  0.00000000000E+00  0.13219664251E+04  0.13219664251E+04  0.25500000920E-02 0. -1.
       -2   -1    0    0    0  501  0.00000000000E+00  0.00000000000E+00 -0.58082688574E+03  0.58082688574E+03  0.25500000920E-02 0.  1.
    10030    2    1    2    0    0  0.00000000000E+00  0.00000000000E+00  0.74113953941E+03  0.19027933109E+04  0.17525223442E+04 0.  0.
        2    1    3    3  502    0 -0.68208473106E+03  0.54549150289E+03  0.29354240462E+03  0.92139443421E+03  0.25500000920E-02 0. -1.
       -2    1    3    3    0  502  0.68208473106E+03 -0.54549150289E+03  0.44759713478E+03  0.98139887668E+03  0.25500000920E-02 0.  1.
</event>
<event>
 5   0  0.5021349E-04  0.1711569E+04  0.7818609E-02  0.8754794E-01
       -2   -1    0    0    0  501  0.00000000000E+00  0.00000000000E+00  0.14249911826E+04  0.14249911826E+04  0.25500000920E-02 0. -1.
        2   -1    0    0  501    0  0.00000000000E+00  0.00000000000E+00 -0.51394471218E+03  0.51394471218E+03  0.25500000920E-02 0.  1.
    10030    2    1    2    0    0  0.00000000000E+00  0.00000000000E+00  0.91104647042E+03  0.19389358948E+04  0.17115685008E+04 0.  0.
        2    1    3    3  502    0 -0.52264343962E+03  0.67697143519E+03  0.48988764572E+03  0.98561472923E+03  0.25500000920E-02 0. -1.
       -2    1    3    3    0  502  0.52264343962E+03 -0.67697143519E+03  0.42115882470E+03  0.95332116555E+03  0.25500000920E-02 0.  1.
</event>
<event>
 5   0  0.2561518E-04  0.1711363E+04  0.7818609E-02  0.8754910E-01
       -1   -1    0    0    0  501  0.00000000000E+00  0.00000000000E+00  0.73369015076E+03  0.73369015078E+03  0.50400001928E-02 0. -1.
        1   -1    0    0  501    0  0.00000000000E+00  0.00000000000E+00 -0.99795673068E+03  0.99795673069E+03  0.50400001928E-02 0.  1.
    10030    2    1    2    0    0  0.00000000000E+00  0.00000000000E+00 -0.26426657992E+03  0.17316468815E+04  0.17113632276E+04 0.  0.
        4    1    3    3  502    0 -0.29403627920E+03  0.78338220092E+03 -0.31326448224E+03  0.89346586669E+03  0.12699999809E+01 0.  1.
       -4    1    3    3    0  502  0.29403627920E+03 -0.78338220092E+03  0.48997902323E+02  0.83818101478E+03  0.12699999809E+01 0. -1.
</event>
<event>
 5   0  0.5021349E-04  0.1701205E+04  0.7818609E-02  0.8760678E-01
        2   -1    0    0  501    0  0.00000000000E+00  0.00000000000E+00  0.10904063399E+04  0.10904063399E+04  0.25500000920E-02 0.  1.
       -2   -1    0    0    0  501  0.00000000000E+00  0.00000000000E+00 -0.66353647711E+03  0.66353647712E+03  0.25500000920E-02 0. -1.
    10030    2    1    2    0    0  0.00000000000E+00  0.00000000000E+00  0.42686986282E+03  0.17539428171E+04  0.17012047277E+04 0.  0.
        2    1    3    3  502    0  0.61533520627E+03 -0.33911922193E+03  0.70776187036E+03  0.99727936302E+03  0.25500000920E-02 0.  1.
       -2    1    3    3    0  502 -0.61533520627E+03  0.33911922193E+03 -0.28089200754E+03  0.75666345403E+03  0.25500000920E-02 0. -1.
</event>
<event>
 5   0  0.5342255E-04  0.1723524E+04  0.7818609E-02  0.8748060E-01
        2   -1    0    0  501    0  0.00000000000E+00  0.00000000000E+00  0.25978951910E+04  0.25978951910E+04  0.25500000920E-02 0. -1.
       -2   -1    0    0    0  501  0.00000000000E+00  0.00000000000E+00 -0.28585981810E+03  0.28585981811E+03  0.25500000920E-02 0.  1.
    10030    2    1    2    0    0  0.00000000000E+00  0.00000000000E+00  0.23120353729E+04  0.28837550091E+04  0.17235241185E+04 0.  0.
        5    1    3    3  502    0  0.30528668262E+03 -0.37019208521E+03  0.23536753053E+04  0.24020931853E+04  0.46999998093E+01 0. -1.
       -5    1    3    3    0  502 -0.30528668262E+03  0.37019208521E+03 -0.41639932330E+02  0.48166182379E+03  0.46999998093E+01 0.  1.
</event>
<event>
 5   0  0.5342255E-04  0.1697139E+04  0.7818609E-02  0.8762998E-01
       -2   -1    0    0    0  501  0.00000000000E+00  0.00000000000E+00  0.34607608345E+03  0.34607608346E+03  0.25500000920E-02 0. -1.
        2   -1    0    0  501    0  0.00000000000E+00  0.00000000000E+00 -0.20806694104E+04  0.20806694104E+04  0.25500000920E-02 0.  1.
    10030    2    1    2    0    0  0.00000000000E+00  0.00000000000E+00 -0.17345933269E+04  0.24267454938E+04  0.16971386749E+04 0.  0.
        5    1    3    3  502    0 -0.58685734623E+03  0.43885671083E+03 -0.25551981067E+03  0.77608583359E+03  0.46999998093E+01 0. -1.
       -5    1    3    3    0  502  0.58685734623E+03 -0.43885671083E+03 -0.14790735162E+04  0.16506596602E+04  0.46999998093E+01 0.  1.
</event>
<event>
 5   0  0.5299877E-04  0.1701456E+04  0.7818609E-02  0.8760534E-01
       -2   -1    0    0    0  501  0.00000000000E+00  0.00000000000E+00  0.51862397809E+03  0.51862397810E+03  0.25500000920E-02 0.  1.
        2   -1    0    0  501    0  0.00000000000E+00  0.00000000000E+00 -0.13954972989E+04  0.13954972989E+04  0.25500000920E-02 0. -1.
    10030    2    1    2    0    0  0.00000000000E+00  0.00000000000E+00 -0.87687332079E+03  0.19141212770E+04  0.17014562710E+04 0.  0.
        3    1    3    3  502    0  0.30619476460E+03 -0.78142337936E+03 -0.28190280761E+03  0.88535130588E+03  0.10100000352E+00 0.  1.
       -3    1    3    3    0  502 -0.30619476460E+03  0.78142337936E+03 -0.59497051318E+03  0.10287699711E+04  0.10100000352E+00 0. -1.
</event>
<event>
 5   0  0.2785059E-04  0.1696765E+04  0.7818609E-02  0.8763212E-01
       -1   -1    0    0    0  501  0.00000000000E+00  0.00000000000E+00  0.61571201919E+03  0.61571201921E+03  0.50400001928E-02 0.  1.
        1   -1    0    0  501    0  0.00000000000E+00  0.00000000000E+00 -0.11689762144E+04  0.11689762144E+04  0.50400001928E-02 0. -1.
    10030    2    1    2    0    0  0.00000000000E+00  0.00000000000E+00 -0.55326419517E+03  0.17846882336E+04  0.16967648103E+04 0.  0.
        5    1    3    3  502    0  0.40278080637E+03 -0.33990963103E+03 -0.97588139229E+03  0.11091156464E+04  0.46999998093E+01 0. -1.
       -5    1    3    3    0  502 -0.40278080637E+03  0.33990963103E+03  0.42261719713E+03  0.67557258719E+03  0.46999998093E+01 0.  1.
</event>
<event>
 5   0  0.2630135E-04  0.1640605E+04  0.7818609E-02  0.8795984E-01
       -1   -1    0    0    0  501  0.00000000000E+00  0.00000000000E+00  0.51296355497E+03  0.51296355499E+03  0.50400001928E-02 0. -1.
        1   -1    0    0  501    0  0.00000000000E+00  0.00000000000E+00 -0.13117816139E+04  0.13117816140E+04  0.50400001928E-02 0.  1.
    10030    2    1    2    0    0  0.00000000000E+00  0.00000000000E+00 -0.79881805898E+03  0.18247451689E+04  0.16406049617E+04 0.  0.
        1    1    3    3  502    0  0.91586887535E+01 -0.10797496492E+03  0.50496777172E+03  0.51646386624E+03  0.50400001928E-02 0. -1.
       -1    1    3    3    0  502 -0.91586887535E+01  0.10797496492E+03 -0.13037858307E+04  0.13082813027E+04  0.50400001928E-02 0.  1.
</event>
<event>
 5   0  0.5299877E-04  0.1700210E+04  0.7818609E-02  0.8761245E-01
        2   -1    0    0  501    0  0.00000000000E+00  0.00000000000E+00  0.31096797237E+04  0.31096797237E+04  0.25500000920E-02 0. -1.
       -2   -1    0    0    0  501  0.00000000000E+00  0.00000000000E+00 -0.23239640216E+03  0.23239640217E+03  0.25500000920E-02 0.  1.
    10030    2    1    2    0    0  0.00000000000E+00  0.00000000000E+00  0.28772833215E+04  0.33420761259E+04  0.17002098455E+04 0.  0.
        3    1    3    3  502    0 -0.83702821094E+03 -0.14637002510E+03  0.13889926841E+04  0.16282939222E+04  0.10100000352E+00 0. -1.
       -3    1    3    3    0  502  0.83702821094E+03  0.14637002510E+03  0.14882906374E+04  0.17137822037E+04  0.10100000352E+00 0.  1.
</event>
<event>
 5   0  0.2595644E-04  0.1536039E+04  0.7818609E-02  0.8860835E-01
       -1   -1    0    0    0  501  0.00000000000E+00  0.00000000000E+00  0.41043353187E+03  0.41043353190E+03  0.50400001928E-02 0. -1.
        1   -1    0    0  501    0  0.00000000000E+00  0.00000000000E+00 -0.14371485097E+04  0.14371485097E+04  0.50400001928E-02 0.  1.
    10030    2    1    2    0    0  0.00000000000E+00  0.00000000000E+00 -0.10267149778E+04  0.18475820416E+04  0.15360389822E+04 0.  0.
        2    1    3    3  502    0 -0.42412571372E+02  0.65072856163E+03 -0.25350276791E+02  0.65260181096E+03  0.25500000920E-02 0. -1.
       -2    1    3    3    0  502  0.42412571372E+02 -0.65072856163E+03 -0.10013647011E+04  0.11949802307E+04  0.25500000920E-02 0.  1.
</event>
<event>
 5   0  0.5198430E-04  0.1724345E+04  0.7818609E-02  0.8747600E-01
        2   -1    0    0  501    0  0.00000000000E+00  0.00000000000E+00  0.23825389484E+04  0.23825389484E+04  0.25500000920E-02 0. -1.
       -2   -1    0    0    0  501  0.00000000000E+00  0.00000000000E+00 -0.31199548701E+03  0.31199548702E+03  0.25500000920E-02 0.  1.
    10030    2    1    2    0    0  0.00000000000E+00  0.00000000000E+00  0.20705434614E+04  0.26945344354E+04  0.17243449766E+04 0.  0.
        4    1    3    3  502    0 -0.75466611720E+03  0.11787699019E+02  0.38404180754E+03  0.84684686995E+03  0.12699999809E+01 0.  1.
       -4    1    3    3    0  502  0.75466611720E+03 -0.11787699019E+02  0.16865016538E+04  0.18476875655E+04  0.12699999809E+01 0. -1.
</event>
<event>
 5   0  0.1910750E-04  0.1640455E+04  0.7818609E-02  0.8796073E-01
        3   -1    0    0  501    0  0.00000000000E+00  0.00000000000E+00  0.49732254078E+03  0.49732255104E+03  0.10100000352E+00 0.  1.
       -3   -1    0    0    0  501  0.00000000000E+00  0.00000000000E+00 -0.13527900525E+04  0.13527900562E+04  0.10100000352E+00 0. -1.
    10030    2    1    2    0    0  0.00000000000E+00  0.00000000000E+00 -0.85546751169E+03  0.18501126073E+04  0.16404548138E+04 0.  0.
        5    1    3    3  502    0 -0.42433690380E+03  0.53162157990E+03 -0.94464195853E+03  0.11640677953E+04  0.46999998093E+01 0. -1.
       -5    1    3    3    0  502  0.42433690380E+03 -0.53162157990E+03  0.89174446835E+02  0.68604481203E+03  0.46999998093E+01 0.  1.
</event>
<event>
 5   0  0.2561518E-04  0.1697115E+04  0.7818609E-02  0.8763012E-01
        1   -1    0    0  501    0  0.00000000000E+00  0.00000000000E+00  0.18082570042E+04  0.18082570042E+04  0.50400001928E-02 0. -1.
       -1   -1    0    0    0  501  0.00000000000E+00  0.00000000000E+00 -0.39820084610E+03  0.39820084613E+03  0.50400001928E-02 0.  1.
    10030    2    1    2    0    0  0.00000000000E+00  0.00000000000E+00  0.14100561581E+04  0.22064578503E+04  0.16971145737E+04 0.  0.
        4    1    3    3  502    0 -0.20552972668E+02  0.84792055913E+03  0.73833145924E+03  0.11245117411E+04  0.12699999809E+01 0. -1.
       -4    1    3    3    0  502  0.20552972668E+02 -0.84792055913E+03  0.67172469881E+03  0.10819461092E+04  0.12699999809E+01 0.  1.
</event>
<event>
 5   0  0.5198430E-04  0.1661385E+04  0.7818609E-02  0.8783700E-01
       -2   -1    0    0    0  501  0.00000000000E+00  0.00000000000E+00  0.30105103840E+03  0.30105103841E+03  0.25500000920E-02 0.  1.
        2   -1    0    0  501    0  0.00000000000E+00  0.00000000000E+00 -0.22921357414E+04  0.22921357414E+04  0.25500000920E-02 0. -1.
    10030    2    1    2    0    0  0.00000000000E+00  0.00000000000E+00 -0.19910847030E+04  0.25931867798E+04  0.16613847780E+04 0.  0.
        4    1    3    3  502    0 -0.91871279114E+02 -0.48205759886E+03  0.50615359116E+02  0.49333901936E+03  0.12699999809E+01 0.  1.
       -4    1    3    3    0  502  0.91871279114E+02  0.48205759886E+03 -0.20417000621E+04  0.20998477604E+04  0.12699999809E+01 0. -1.
</event>
<event>
 5   0  0.5310003E-04  0.1486271E+04  0.7818609E-02  0.8893635E-01
        2   -1    0    0  501    0  0.00000000000E+00  0.00000000000E+00  0.79718849334E+03  0.79718849335E+03  0.25500000920E-02 0.  1.
       -2   -1    0    0    0  501  0.00000000000E+00  0.00000000000E+00 -0.69274712309E+03  0.69274712309E+03  0.25500000920E-02 0. -1.
    10030    2    1    2    0    0  0.00000000000E+00  0.00000000000E+00  0.10444137025E+03  0.14899356164E+04  0.14862705478E+04 0.  0.
        1    1    3    3  502    0 -0.31126095559E+02 -0.46150161637E+03  0.63528840491E+03  0.78583963579E+03  0.50400001928E-02 0.  1.
       -1    1    3    3    0  502  0.31126095559E+02  0.46150161637E+03 -0.53084703466E+03  0.70409598065E+03  0.50400001928E-02 0. -1.
</event>
<event>
 5   0  0.5021349E-04  0.1716088E+04  0.7818609E-02  0.8752242E-01
        2   -1    0    0  501    0  0.00000000000E+00  0.00000000000E+00  0.95910185680E+03  0.95910185680E+03  0.25500000920E-02 0.  1.
       -2   -1    0    0    0  501  0.00000000000E+00  0.00000000000E+00 -0.76763428894E+03  0.76763428894E+03  0.25500000920E-02 0. -1.
    10030    2    1    2    0    0  0.00000000000E+00  0.00000000000E+00  0.19146756786E+03  0.17267361457E+04  0.17160879603E+04 0.  0.
        2    1    3    3  502    0  0.28337650011E+03 -0.35878649653E+03 -0.63486348028E+03  0.78235645937E+03  0.25500000920E-02 0. -1.
       -2    1    3    3    0  502 -0.28337650011E+03  0.35878649653E+03  0.82633104814E+03  0.94437968638E+03  0.25500000920E-02 0.  1.
</event>
<event>
 5   0  0.2583422E-04  0.1674445E+04  0.7818609E-02  0.8776075E-01
       -1   -1    0    0    0  501  0.00000000000E+00  0.00000000000E+00  0.72794832174E+03  0.72794832175E+03  0.50400001928E-02 0. -1.
        1   -1    0    0  501    0  0.00000000000E+00  0.00000000000E+00 -0.96289958613E+03  0.96289958614E+03  0.50400001928E-02 0.  1.
    10030    2    1    2    0    0  0.00000000000E+00  0.00000000000E+00 -0.23495126439E+03  0.16908479079E+04  0.16744445500E+04 0.  0.
        3    1    3    3  502    0 -0.26631680139E+03 -0.25693558909E+03  0.64088111328E+03  0.74004671961E+03  0.10100000352E+00 0. -1.
       -3    1    3    3    0  502  0.26631680139E+03  0.25693558909E+03 -0.87583237768E+03  0.95080118828E+03  0.10100000352E+00 0.  1.
</event>
<event>
 5   0  0.1910750E-04  0.1741355E+04  0.7818609E-02  0.8738123E-01
       -3   -1    0    0    0  501  0.00000000000E+00  0.00000000000E+00  0.99748829901E+03  0.99748830413E+03  0.10100000352E+00 0. -1.
        3   -1    0    0  501    0  0.00000000000E+00  0.00000000000E+00 -0.75998825811E+03  0.75998826482E+03  0.10100000352E+00 0.  1.
    10030    2    1    2    0    0  0.00000000000E+00  0.00000000000E+00  0.23750004091E+03  0.17574765689E+04  0.17413551105E+04 0.  0.
        3    1    3    3  502    0 -0.77423837586E+03 -0.19715766721E+03  0.46802210033E+03  0.92593785158E+03  0.10100000352E+00 0.  1.
       -3    1    3    3    0  502  0.77423837586E+03  0.19715766721E+03 -0.23052205942E+03  0.83153871737E+03  0.10100000352E+00 0. -1.
</event>
<event>
 5   0  0.2630135E-04  0.1676369E+04  0.7818609E-02  0.8774958E-01
       -1   -1    0    0    0  501  0.00000000000E+00  0.00000000000E+00  0.32949854945E+03  0.32949854949E+03  0.50400001928E-02 0.  1.
        1   -1    0    0  501    0  0.00000000000E+00  0.00000000000E+00 -0.21321884727E+04  0.21321884727E+04  0.50400001928E-02 0. -1.
    10030    2    1    2    0    0  0.00000000000E+00  0.00000000000E+00 -0.18026899232E+04  0.24616870222E+04  0.16763687052E+04 0.  0.
        1    1    3    3  502    0  0.35824431268E+03 -0.10599393793E+01  0.21141057292E+03  0.41597420762E+03  0.50400001928E-02 0.  1.
       -1    1    3    3    0  502 -0.35824431268E+03  0.10599393793E+01 -0.20141004961E+04  0.20457128145E+04  0.50400001928E-02 0. -1.
</event>
<event>
 5   0  0.2595644E-04  0.1701874E+04  0.7818609E-02  0.8760296E-01
       -1   -1    0    0    0  501  0.00000000000E+00  0.00000000000E+00  0.80272500590E+03  0.80272500592E+03  0.50400001928E-02 0.  1.
        1   -1    0    0  501    0  0.00000000000E+00  0.00000000000E+00 -0.90204419977E+03  0.90204419978E+03  0.50400001928E-02 0. -1.
    10030    2    1    2    0    0  0.00000000000E+00  0.00000000000E+00 -0.99319193866E+02  0.17047692057E+04  0.17018735977E+04 0.  0.
        2    1    3    3  502    0 -0.29776564943E+03 -0.15556902900E+02  0.74868263525E+03  0.80587349351E+03  0.25500000920E-02 0.  1.
       -2    1    3    3    0  502  0.29776564943E+03  0.15556902900E+02 -0.84800182912E+03  0.89889571219E+03  0.25500000920E-02 0. -1.
</event>
<event>
 5   0  0.5021349E-04  0.1699832E+04  0.7818609E-02  0.8761460E-01
        2   -1    0    0  501    0  0.00000000000E+00  0.00000000000E+00  0.21543015642E+04  0.21543015642E+04  0.25500000920E-02 0.  1.
       -2   -1    0    0    0  501  0.00000000000E+00  0.00000000000E+00 -0.33530911573E+03  0.33530911574E+03  0.25500000920E-02 0. -1.
    10030    2    1    2    0    0  0.00000000000E+00  0.00000000000E+00  0.18189924485E+04  0.24896106800E+04  0.16998317005E+04 0.  0.
        2    1    3    3  502    0  0.52070807880E+03  0.25820115382E+03  0.18177415507E+04  0.19083996134E+04  0.25500000920E-02 0.  1.
       -2    1    3    3    0  502 -0.52070807880E+03 -0.25820115382E+03  0.12508977822E+01  0.58121106658E+03  0.25500000920E-02 0. -1.
</event>
<event>
 5   0  0.5342255E-04  0.1704091E+04  0.7818609E-02  0.8759035E-01
        2   -1    0    0  501    0  0.00000000000E+00  0.00000000000E+00  0.83529984679E+03  0.83529984679E+03  0.25500000920E-02 0. -1.
       -2   -1    0    0    0  501  0.00000000000E+00  0.00000000000E+00 -0.86912652544E+03  0.86912652545E+03  0.25500000920E-02 0.  1.
    10030    2    1    2    0    0  0.00000000000E+00  0.00000000000E+00 -0.33826678658E+02  0.17044263722E+04  0.17040906708E+04 0.  0.
        5    1    3    3  502    0  0.49281105733E+03 -0.67998935512E+03 -0.16085451845E+03  0.85506989621E+03  0.46999998093E+01 0.  1.
       -5    1    3    3    0  502 -0.49281105733E+03  0.67998935512E+03  0.12702783980E+03  0.84935647603E+03  0.46999998093E+01 0. -1.
</event>
<event>
 5   0  0.2630135E-04  0.1706093E+04  0.7818609E-02  0.8757897E-01
        1   -1    0    0  501    0  0.00000000000E+00  0.00000000000E+00  0.17968882107E+04  0.17968882107E+04  0.50400001928E-02 0. -1.
       -1   -1    0    0    0  501  0.00000000000E+00  0.00000000000E+00 -0.40497138221E+03  0.40497138224E+03  0.50400001928E-02 0.  1.
    10030    2    1    2    0    0  0.00000000000E+00  0.00000000000E+00  0.13919168285E+04  0.22018595929E+04  0.17060929663E+04 0.  0.
        1    1    3    3  502    0  0.68549741309E+03 -0.38272777295E+03  0.11265212705E+04  0.13731123132E+04  0.50400001928E-02 0.  1.
       -1    1    3    3    0  502 -0.68549741309E+03  0.38272777295E+03  0.26539555794E+03  0.82874727978E+03  0.50400001928E-02 0. -1.
</event>
<event>
 5   0  0.5310003E-04  0.1740107E+04  0.7818609E-02  0.8738815E-01
        2   -1    0    0  501    0  0.00000000000E+00  0.00000000000E+00  0.30574761944E+04  0.30574761944E+04  0.25500000920E-02 0.  1.
       -2   -1    0    0    0  501  0.00000000000E+00  0.00000000000E+00 -0.24758750418E+03  0.24758750419E+03  0.25500000920E-02 0. -1.
    10030    2    1    2    0    0  0.00000000000E+00  0.00000000000E+00  0.28098886903E+04  0.33050636986E+04  0.17401067784E+04 0.  0.
        1    1    3    3  502    0  0.65238266553E+03  0.33290641337E+03  0.22969556161E+04  0.24108991942E+04  0.50400001928E-02 0.  1.
       -1    1    3    3    0  502 -0.65238266553E+03 -0.33290641337E+03  0.51293307414E+03  0.89416450440E+03  0.50400001928E-02 0. -1.
</event>
<event>
 5   0  0.2630135E-04  0.1691193E+04  0.7818609E-02  0.8766403E-01
       -1   -1    0    0    0  501  0.00000000000E+00  0.00000000000E+00  0.42371747371E+03  0.42371747374E+03  0.50400001928E-02 0. -1.
        1   -1    0    0  501    0  0.00000000000E+00  0.00000000000E+00 -0.16875248670E+04  0.16875248670E+04  0.50400001928E-02 0.  1.
    10030    2    1    2    0    0  0.00000000000E+00  0.00000000000E+00 -0.12638073932E+04  0.21112423407E+04  0.16911933934E+04 0.  0.
        1    1    3    3  502    0 -0.58684671380E+02  0.81000663106E+03 -0.33786148844E+03  0.87960503546E+03  0.50400001928E-02 0.  1.
       -1    1    3    3    0  502  0.58684671380E+02 -0.81000663106E+03 -0.92594590480E+03  0.12316373052E+04  0.50400001928E-02 0. -1.
</event>
<event>
 5   0  0.5342255E-04  0.1701508E+04  0.7818609E-02  0.8760505E-01
        2   -1    0    0  501    0  0.00000000000E+00  0.00000000000E+00  0.13798439465E+04  0.13798439465E+04  0.25500000920E-02 0. -1.
       -2   -1    0    0    0  501  0.00000000000E+00  0.00000000000E+00 -0.52453934256E+03  0.52453934257E+03  0.25500000920E-02 0.  1.
    10030    2    1    2    0    0  0.00000000000E+00  0.00000000000E+00  0.85530460394E+03  0.19043832891E+04  0.17015080800E+04 0.  0.
        5    1    3    3  502    0 -0.35586166061E+03  0.48357749275E+03  0.11022400987E+04  0.12551653430E+04  0.46999998093E+01 0. -1.
       -5    1    3    3    0  502  0.35586166061E+03 -0.48357749275E+03 -0.24693549477E+03  0.64921794611E+03  0.46999998093E+01 0.  1.
</event>
<event>
 5   0  0.5198430E-04  0.1701879E+04  0.7818609E-02  0.8760293E-01
       -2   -1    0    0    0  501  0.00000000000E+00  0.00000000000E+00  0.37015604253E+03  0.37015604254E+03  0.25500000920E-02 0. -1.
        2   -1    0    0  501    0  0.00000000000E+00  0.00000000000E+00 -0.19561965784E+04  0.19561965784E+04  0.25500000920E-02 0.  1.
    10030    2    1    2    0    0  0.00000000000E+00  0.00000000000E+00 -0.15860405359E+04  0.23263526210E+04  0.17018789427E+04 0.  0.
        4    1    3    3  502    0  0.19640352205E+03  0.74634202629E+03 -0.30302597677E+03  0.82911224764E+03  0.12699999809E+01 0. -1.
       -4    1    3    3    0  502 -0.19640352205E+03 -0.74634202629E+03 -0.12830145591E+04  0.14972403733E+04  0.12699999809E+01 0.  1.
</event>
<event>
 5   0  0.5342255E-04  0.1672916E+04  0.7818609E-02  0.8776964E-01
       -2   -1    0    0    0  501  0.00000000000E+00  0.00000000000E+00  0.48792984199E+03  0.48792984199E+03  0.25500000920E-02 0.  1.
        2   -1    0    0  501    0  0.00000000000E+00  0.00000000000E+00 -0.14339400795E+04  0.14339400795E+04  0.25500000920E-02 0. -1.
    10030    2    1    2    0    0  0.00000000000E+00  0.00000000000E+00 -0.94601023749E+03  0.19218699215E+04  0.16729162040E+04 0.  0.
        5    1    3    3  502    0 -0.62389679928E+03 -0.20180987277E+03 -0.10695767494E+04  0.12545879618E+04  0.46999998093E+01 0. -1.
       -5    1    3    3    0  502  0.62389679928E+03  0.20180987277E+03  0.12356651193E+03  0.66728195972E+03  0.46999998093E+01 0.  1.
</event>
<event>
 5   0  0.5342255E-04  0.1690937E+04  0.7818609E-02  0.8766550E-01
        2   -1    0    0  501    0  0.00000000000E+00  0.00000000000E+00  0.15980590024E+04  0.15980590024E+04  0.25500000920E-02 0.  1.
       -2   -1    0    0    0  501  0.00000000000E+00  0.00000000000E+00 -0.44730306028E+03  0.44730306029E+03  0.25500000920E-02 0. -1.
    10030    2    1    2    0    0  0.00000000000E+00  0.00000000000E+00  0.11507559421E+04  0.20453620627E+04  0.16909366426E+04 0.  0.
        5    1    3    3  502    0 -0.42809271993E+03  0.65951270143E+03  0.95127894227E+03  0.12341693953E+04  0.46999998093E+01 0.  1.
       -5    1    3    3    0  502  0.42809271993E+03 -0.65951270143E+03  0.19947699983E+03  0.81119266741E+03  0.46999998093E+01 0. -1.
</event>
<event>
 5   0  0.1910750E-04  0.1704157E+04  0.7818609E-02  0.8758997E-01
       -4   -1    0    0    0  501  0.00000000000E+00  0.00000000000E+00  0.95514614403E+03  0.95514698835E+03  0.12699999809E+01 0. -1.
        4   -1    0    0  501    0  0.00000000000E+00  0.00000000000E+00 -0.76013113569E+03  0.76013219662E+03  0.12699999809E+01 0.  1.
    10030    2    1    2    0    0  0.00000000000E+00  0.00000000000E+00  0.19501500834E+03  0.17152791850E+04  0.17041572195E+04 0.  0.
        5    1    3    3  502    0  0.19255768485E+02 -0.74445396344E+03 -0.31923984999E+03  0.81025839096E+03  0.46999998093E+01 0.  1.
       -5    1    3    3    0  502 -0.19255768485E+02  0.74445396344E+03  0.51425485833E+03  0.90502079402E+03  0.46999998093E+01 0. -1.
</event>
<event>
 5   0  0.5310003E-04  0.1724277E+04  0.7818609E-02  0.8747638E-01
        2   -1    0    0  501    0  0.00000000000E+00  0.00000000000E+00  0.12662933316E+04  0.12662933316E+04  0.25500000920E-02 0. -1.
       -2   -1    0    0    0  501  0.00000000000E+00  0.00000000000E+00 -0.58697513135E+03  0.58697513135E+03  0.25500000920E-02 0.  1.
    10030    2    1    2    0    0  0.00000000000E+00  0.00000000000E+00  0.67931820022E+03  0.18532684629E+04  0.17242768857E+04 0.  0.
        1    1    3    3  502    0 -0.22700929387E+03  0.65932814882E+03  0.88457338608E+03  0.11263733407E+04  0.50400001928E-02 0. -1.
       -1    1    3    3    0  502  0.22700929387E+03 -0.65932814882E+03 -0.20525518586E+03  0.72689512220E+03  0.50400001928E-02 0.  1.
</event>
<event>
 5   0  0.2595644E-04  0.1696684E+04  0.7818609E-02  0.8763258E-01
        1   -1    0    0  501    0  0.00000000000E+00  0.00000000000E+00  0.11197472691E+04  0.11197472691E+04  0.50400001928E-02 0.  1.
       -1   -1    0    0    0  501  0.00000000000E+00  0.00000000000E+00 -0.64272014538E+03  0.64272014540E+03  0.50400001928E-02 0. -1.
    10030    2    1    2    0    0  0.00000000000E+00  0.00000000000E+00  0.47702712371E+03  0.17624674145E+04  0.16966839748E+04 0.  0.
        2    1    3    3  502    0 -0.39317796149E+03 -0.15307416095E+03 -0.52599953890E+03  0.67431159198E+03  0.25500000920E-02 0. -1.
       -2    1    3    3    0  502  0.39317796149E+03  0.15307416095E+03  0.10030266626E+04  0.10881558225E+04  0.25500000920E-02 0.  1.
</event>
<event>
 5   0  0.5198430E-04  0.1693295E+04  0.7818609E-02  0.8765197E-01
        2   -1    0    0  501    0  0.00000000000E+00  0.00000000000E+00  0.13912602676E+04  0.13912602676E+04  0.25500000920E-02 0. -1.
       -2   -1    0    0    0  501  0.00000000000E+00  0.00000000000E+00 -0.51522521035E+03  0.51522521036E+03  0.25500000920E-02 0.  1.
    10030    2    1    2    0    0  0.00000000000E+00  0.00000000000E+00  0.87603505725E+03  0.19064854780E+04  0.16932954427E+04 0.  0.
        4    1    3    3  502    0  0.61897538772E+03  0.29261677522E+03 -0.12274026458E+03  0.69557306819E+03  0.12699999809E+01 0.  1.
       -4    1    3    3    0  502 -0.61897538772E+03 -0.29261677522E+03  0.99877532183E+03  0.12109124098E+04  0.12699999809E+01 0. -1.
</event>
<event>
 5   0  0.2583422E-04  0.1750715E+04  0.7818609E-02  0.8732957E-01
       -1   -1    0    0    0  501  0.00000000000E+00  0.00000000000E+00  0.50124353993E+03  0.50124353995E+03  0.50400001928E-02 0. -1.
        1   -1    0    0  501    0  0.00000000000E+00  0.00000000000E+00 -0.15286995492E+04  0.15286995492E+04  0.50400001928E-02 0.  1.
    10030    2    1    2    0    0  0.00000000000E+00  0.00000000000E+00 -0.10274560093E+04  0.20299430892E+04  0.17507150237E+04 0.  0.
        3    1    3    3  502    0 -0.35116053558E+03 -0.66524571060E+03  0.53124515024E+01  0.75225913724E+03  0.10100000352E+00 0. -1.
       -3    1    3    3    0  502  0.35116053558E+03  0.66524571060E+03 -0.10327684608E+04  0.12776839519E+04  0.10100000352E+00 0.  1.
</event>
<event>
 5   0  0.5299877E-04  0.1740237E+04  0.7818609E-02  0.8738743E-01
       -2   -1    0    0    0  501  0.00000000000E+00  0.00000000000E+00  0.99896929882E+03  0.99896929882E+03  0.25500000920E-02 0.  1.
        2   -1    0    0  501    0  0.00000000000E+00  0.00000000000E+00 -0.75788699731E+03  0.75788699731E+03  0.25500000920E-02 0. -1.
    10030    2    1    2    0    0  0.00000000000E+00  0.00000000000E+00  0.24108230151E+03  0.17568562961E+04  0.17402365842E+04 0.  0.
        3    1    3    3  502    0  0.15766611535E+03  0.70582391407E+02 -0.74040183963E+03  0.76028637515E+03  0.10100000352E+00 0. -1.
       -3    1    3    3    0  502 -0.15766611535E+03 -0.70582391407E+02  0.98148414114E+03  0.99656992099E+03  0.10100000352E+00 0.  1.
</event>
<event>
 5   0  0.2561518E-04  0.1538004E+04  0.7818609E-02  0.8859567E-01
        1   -1    0    0  501    0  0.00000000000E+00  0.00000000000E+00  0.44092661621E+03  0.44092661624E+03  0.50400001928E-02 0.  1.
       -1   -1    0    0    0  501  0.00000000000E+00  0.00000000000E+00 -0.13411843849E+04  0.13411843849E+04  0.50400001928E-02 0. -1.
    10030    2    1    2    0    0  0.00000000000E+00  0.00000000000E+00 -0.90025776866E+03  0.17821110011E+04  0.15380037615E+04 0.  0.
        4    1    3    3  502    0  0.51227176265E+03  0.21606378778E+03  0.16547198174E+03  0.58007629571E+03  0.12699999809E+01 0.  1.
       -4    1    3    3    0  502 -0.51227176265E+03 -0.21606378778E+03 -0.10657297504E+04  0.12020347054E+04  0.12699999809E+01 0. -1.
</event>
<event>
 5   0  0.5310003E-04  0.1699502E+04  0.7818609E-02  0.8761649E-01
        2   -1    0    0  501    0  0.00000000000E+00  0.00000000000E+00  0.88884655706E+03  0.88884655707E+03  0.25500000920E-02 0. -1.
       -2   -1    0    0    0  501  0.00000000000E+00  0.00000000000E+00 -0.81237477953E+03  0.81237477953E+03  0.25500000920E-02 0.  1.
    10030    2    1    2    0    0  0.00000000000E+00  0.00000000000E+00  0.76471777540E+02  0.17012213366E+04  0.16995017221E+04 0.  0.
        1    1    3    3  502    0  0.22176202990E+03  0.50928784186E+02 -0.78131371153E+03  0.81377100883E+03  0.50400001928E-02 0.  1.
       -1    1    3    3    0  502 -0.22176202990E+03 -0.50928784186E+02  0.85778548907E+03  0.88745032776E+03  0.50400001928E-02 0. -1.
</event>
<event>
 5   0  0.2785059E-04  0.1688563E+04  0.7818609E-02  0.8767914E-01
       -1   -1    0    0    0  501  0.00000000000E+00  0.00000000000E+00  0.45182121595E+03  0.45182121597E+03  0.50400001928E-02 0. -1.
        1   -1    0    0  501    0  0.00000000000E+00  0.00000000000E+00 -0.15776400754E+04  0.15776400754E+04  0.50400001928E-02 0.  1.
    10030    2    1    2    0    0  0.00000000000E+00  0.00000000000E+00 -0.11258188595E+04  0.20294612914E+04  0.16885630071E+04 0.  0.
        5    1    3    3  502    0 -0.71123334915E+03  0.42814448405E+03 -0.74765856525E+03  0.11172179717E+04  0.46999998093E+01 0.  1.
       -5    1    3    3    0  502  0.71123334915E+03 -0.42814448405E+03 -0.37816029424E+03  0.91224331968E+03  0.46999998093E+01 0. -1.
</event>
<event>
 5   0  0.2561518E-04  0.1697101E+04  0.7818609E-02  0.8763019E-01
        1   -1    0    0  501    0  0.00000000000E+00  0.00000000000E+00  0.17123273354E+04  0.17123273354E+04  0.50400001928E-02 0.  1.
       -1   -1    0    0    0  501  0.00000000000E+00  0.00000000000E+00 -0.42050251925E+03  0.42050251928E+03  0.50400001928E-02 0. -1.
    10030    2    1    2    0    0  0.00000000000E+00  0.00000000000E+00  0.12918248162E+04  0.21328298547E+04  0.16971010086E+04 0.  0.
        4    1    3    3  502    0  0.86962988167E+02  0.18045639375E+03 -0.39036016101E+03  0.43875931849E+03  0.12699999809E+01 0. -1.
       -4    1    3    3    0  502 -0.86962988167E+02 -0.18045639375E+03  0.16821849772E+04  0.16940705362E+04  0.12699999809E+01 0.  1.
</event>
<event>
 5   0  0.5299877E-04  0.1700328E+04  0.7818609E-02  0.8761177E-01
       -2   -1    0    0    0  501  0.00000000000E+00  0.00000000000E+00  0.45923400540E+03  0.45923400541E+03  0.25500000920E-02 0.  1.
        2   -1    0    0  501    0  0.00000000000E+00  0.00000000000E+00 -0.15738790664E+04  0.15738790664E+04  0.25500000920E-02 0. -1.
    10030    2    1    2    0    0  0.00000000000E+00  0.00000000000E+00 -0.11146450610E+04  0.20331130718E+04  0.17003279539E+04 0.  0.
        3    1    3    3  502    0  0.82285843449E+03  0.21373492023E+03 -0.55779805070E+03  0.10168172377E+04  0.10100000352E+00 0.  1.
       -3    1    3    3    0  502 -0.82285843449E+03 -0.21373492023E+03 -0.55684701028E+03  0.10162958341E+04  0.10100000352E+00 0. -1.
</event>
<event>
 5   0  0.2785059E-04  0.1609509E+04  0.7818609E-02  0.8814727E-01
       -1   -1    0    0    0  501  0.00000000000E+00  0.00000000000E+00  0.69954538151E+03  0.69954538153E+03  0.50400001928E-02 0.  1.
        1   -1    0    0  501    0  0.00000000000E+00  0.00000000000E+00 -0.92578722382E+03  0.92578722383E+03  0.50400001928E-02 0. -1.
    10030    2    1    2    0    0  0.00000000000E+00  0.00000000000E+00 -0.22624184231E+03  0.16253326054E+04  0.16095094616E+04 0.  0.
        5    1    3    3  502    0  0.96427904695E+02 -0.67055879516E+03  0.32550003242E+03  0.75161146856E+03  0.46999998093E+01 0.  1.
       -5    1    3    3    0  502 -0.96427904695E+02  0.67055879516E+03 -0.55174187472E+03  0.87372113680E+03  0.46999998093E+01 0. -1.
</event>
<event>
 5   0  0.2583422E-04  0.1679615E+04  0.7818609E-02  0.8773077E-01
        1   -1    0    0  501    0  0.00000000000E+00  0.00000000000E+00  0.11588762944E+04  0.11588762945E+04  0.50400001928E-02 0. -1.
       -1   -1    0    0    0  501  0.00000000000E+00  0.00000000000E+00 -0.60858630759E+03  0.60858630761E+03  0.50400001928E-02 0.  1.
    10030    2    1    2    0    0  0.00000000000E+00  0.00000000000E+00  0.55028998685E+03  0.17674626021E+04  0.16796145332E+04 0.  0.
        3    1    3    3  502    0 -0.74074457921E+03  0.29563354729E+03  0.55191157636E+03  0.96990108992E+03  0.10100000352E+00 0. -1.
       -3    1    3    3    0  502  0.74074457921E+03 -0.29563354729E+03 -0.16215895088E+01  0.79756151215E+03  0.10100000352E+00 0.  1.
</event>
<event>
 5   0  0.2595644E-04  0.1597524E+04  0.7818609E-02  0.8822071E-01
       -1   -1    0    0    0  501  0.00000000000E+00  0.00000000000E+00  0.34307020630E+03  0.34307020634E+03  0.50400001928E-02 0. -1.
        1   -1    0    0  501    0  0.00000000000E+00  0.00000000000E+00 -0.18597380397E+04  0.18597380397E+04  0.50400001928E-02 0.  1.
    10030    2    1    2    0    0  0.00000000000E+00  0.00000000000E+00 -0.15166678334E+04  0.22028082460E+04  0.15975239754E+04 0.  0.
        2    1    3    3  502    0 -0.13886299040E+03  0.14161208878E+03  0.30857676164E+03  0.36681948097E+03  0.25500000920E-02 0. -1.
       -2    1    3    3    0  502  0.13886299040E+03 -0.14161208878E+03 -0.18252445950E+04  0.18359887650E+04  0.25500000920E-02 0.  1.
</event>
<event>
 5   0  0.5021349E-04  0.1779730E+04  0.7818609E-02  0.8717153E-01
        2   -1    0    0  501    0  0.00000000000E+00  0.00000000000E+00  0.94024355576E+03  0.94024355577E+03  0.25500000920E-02 0. -1.
       -2   -1    0    0    0  501  0.00000000000E+00  0.00000000000E+00 -0.84218618740E+03  0.84218618740E+03  0.25500000920E-02 0.  1.
    10030    2    1    2    0    0  0.00000000000E+00  0.00000000000E+00  0.98057368366E+02  0.17824297432E+04  0.17797304689E+04 0.  0.
        2    1    3    3  502    0  0.32469684250E+03 -0.62196479467E+02 -0.77839848468E+03  0.84569536036E+03  0.25500000920E-02 0.  1.
       -2    1    3    3    0  502 -0.32469684250E+03  0.62196479467E+02  0.87645585304E+03  0.93673438280E+03  0.25500000920E-02 0. -1.
</event>
<event>
 5   0  0.2595644E-04  0.1734329E+04  0.7818609E-02  0.8742024E-01
       -1   -1    0    0    0  501  0.00000000000E+00  0.00000000000E+00  0.46983654022E+03  0.46983654024E+03  0.50400001928E-02 0.  1.
        1   -1    0    0  501    0  0.00000000000E+00  0.00000000000E+00 -0.16005023237E+04  0.16005023237E+04  0.50400001928E-02 0. -1.
    10030    2    1    2    0    0  0.00000000000E+00  0.00000000000E+00 -0.11306657835E+04  0.20703388640E+04  0.17343292357E+04 0.  0.
        2    1    3    3  502    0  0.24974930840E+03  0.81402061002E+03 -0.36928959191E+03  0.92810509818E+03  0.25500000920E-02 0. -1.
       -2    1    3    3    0  502 -0.24974930840E+03 -0.81402061002E+03 -0.76137619159E+03  0.11422337658E+04  0.25500000920E-02 0.  1.
</event>
<event>
 5   0  0.2595644E-04  0.1711784E+04  0.7818609E-02  0.8754672E-01
        1   -1    0    0  501    0  0.00000000000E+00  0.00000000000E+00  0.51823833813E+03  0.51823833816E+03  0.50400001928E-02 0.  1.
       -1   -1    0    0    0  501  0.00000000000E+00  0.00000000000E+00 -0.14135408093E+04  0.14135408093E+04  0.50400001928E-02 0. -1.
    10030    2    1    2    0    0  0.00000000000E+00  0.00000000000E+00 -0.89530247114E+03  0.19317791474E+04  0.17117839115E+04 0.  0.
        2    1    3    3  502    0 -0.66965768877E+03 -0.15378495020E+03 -0.10235934240E+04  0.12328157724E+04  0.25500000920E-02 0. -1.
       -2    1    3    3    0  502  0.66965768877E+03  0.15378495020E+03  0.12829095286E+03  0.69896337503E+03  0.25500000920E-02 0.  1.
</event>
<event>
 5   0  0.2583422E-04  0.1692378E+04  0.7818609E-02  0.8765724E-01
       -1   -1    0    0    0  501  0.00000000000E+00  0.00000000000E+00  0.57853673606E+03  0.57853673608E+03  0.50400001928E-02 0. -1.
        1   -1    0    0  501    0  0.00000000000E+00  0.00000000000E+00 -0.12376666503E+04  0.12376666503E+04  0.50400001928E-02 0.  1.
    10030    2    1    2    0    0  0.00000000000E+00  0.00000000000E+00 -0.65912991425E+03  0.18162033864E+04  0.16923777642E+04 0.  0.
        3    1    3    3  502    0  0.66659799513E+03  0.43834846787E+03 -0.63221574015E+03  0.10179386124E+04  0.10100000352E+00 0.  1.
       -3    1    3    3    0  502 -0.66659799513E+03 -0.43834846787E+03 -0.26914174102E+02  0.79826477397E+03  0.10100000352E+00 0. -1.
</event>
<event>
 5   0  0.5310003E-04  0.1746656E+04  0.7818609E-02  0.8735193E-01
       -2   -1    0    0    0  501  0.00000000000E+00  0.00000000000E+00  0.67966455528E+03  0.67966455529E+03  0.25500000920E-02 0. -1.
        2   -1    0    0  501    0  0.00000000000E+00  0.00000000000E+00 -0.11221737318E+04  0.11221737318E+04  0.25500000920E-02 0.  1.
    10030    2    1    2    0    0  0.00000000000E+00  0.00000000000E+00 -0.44250917648E+03  0.18018382871E+04  0.17466559024E+04 0.  0.
        1    1    3    3  502    0  0.64888298076E+03  0.31393999236E+03 -0.72987737745E+03  0.10258306038E+04  0.50400001928E-02 0.  1.
       -1    1    3    3    0  502 -0.64888298076E+03 -0.31393999236E+03  0.28736820097E+03  0.77600768326E+03  0.50400001928E-02 0. -1.
</event>
<event>
 5   0  0.5198430E-04  0.1700733E+04  0.7818609E-02  0.8760946E-01
       -2   -1    0    0    0  501  0.00000000000E+00  0.00000000000E+00  0.28146441507E+03  0.28146441508E+03  0.25500000920E-02 0.  1.
        2   -1    0    0  501    0  0.00000000000E+00  0.00000000000E+00 -0.25691465055E+04  0.25691465055E+04  0.25500000920E-02 0. -1.
    10030    2    1    2    0    0  0.00000000000E+00  0.00000000000E+00 -0.22876820904E+04  0.28506109206E+04  0.17007331577E+04 0.  0.
        4    1    3    3  502    0  0.44368616284E+03 -0.62025548329E+03 -0.17744392931E+04  0.19313753373E+04  0.12699999809E+01 0. -1.
       -4    1    3    3    0  502 -0.44368616284E+03  0.62025548329E+03 -0.51324279727E+03  0.91923558324E+03  0.12699999809E+01 0.  1.
</event>
<event>
 5   0  0.2630135E-04  0.1726933E+04  0.7818609E-02  0.8746151E-01
        1   -1    0    0  501    0  0.00000000000E+00  0.00000000000E+00  0.10211653459E+04  0.10211653459E+04  0.50400001928E-02 0. -1.
       -1   -1    0    0    0  501  0.00000000000E+00  0.00000000000E+00 -0.73012092133E+03  0.73012092135E+03  0.50400001928E-02 0.  1.
    10030    2    1    2    0    0  0.00000000000E+00  0.00000000000E+00  0.29104442452E+03  0.17512862672E+04  0.17269327528E+04 0.  0.
        1    1    3    3  502    0  0.29393611597E+03 -0.11397292332E+03 -0.66967082142E+03  0.74016705993E+03  0.50400001928E-02 0.  1.
       -1    1    3    3    0  502 -0.29393611597E+03  0.11397292332E+03  0.96071524594E+03  0.10111192073E+04  0.50400001928E-02 0. -1.
</event>
<event>
 5   0  0.5310003E-04  0.1695164E+04  0.7818609E-02  0.8764127E-01
        2   -1    0    0  501    0  0.00000000000E+00  0.00000000000E+00  0.12524169984E+04  0.12524169984E+04  0.25500000920E-02 0.  1.
       -2   -1    0    0    0  501  0.00000000000E+00  0.00000000000E+00 -0.57360687461E+03  0.57360687462E+03  0.25500000920E-02 0. -1.
    10030    2    1    2    0    0  0.00000000000E+00  0.00000000000E+00  0.67881012375E+03  0.18260238730E+04  0.16951637091E+04 0.  0.
        1    1    3    3  502    0  0.53945180928E+03 -0.41438793363E+03  0.88407595714E+03  0.11154890910E+04  0.50400001928E-02 0.  1.
       -1    1    3    3    0  502 -0.53945180928E+03  0.41438793363E+03 -0.20526583339E+03  0.71053478201E+03  0.50400001928E-02 0. -1.
</event>
<event>
 5   0  0.5198430E-04  0.1579852E+04  0.7818609E-02  0.8833022E-01
       -2   -1    0    0    0  501  0.00000000000E+00  0.00000000000E+00  0.28203266312E+03  0.28203266313E+03  0.25500000920E-02 0. -1.
        2   -1    0    0  501    0  0.00000000000E+00  0.00000000000E+00 -0.22124497834E+04  0.22124497834E+04  0.25500000920E-02 0.  1.
    10030    2    1    2    0    0  0.00000000000E+00  0.00000000000E+00 -0.19304171203E+04  0.24944824465E+04  0.15798520240E+04 0.  0.
        4    1    3    3  502    0  0.22569886556E+03  0.54993862763E+02 -0.21572957394E+04  0.21697674583E+04  0.12699999809E+01 0.  1.
       -4    1    3    3    0  502 -0.22569886556E+03 -0.54993862763E+02  0.22687861914E+03  0.32471498823E+03  0.12699999809E+01 0. -1.
</event>
<event>
 5   0  0.5342255E-04  0.1745950E+04  0.7818609E-02  0.8735583E-01
       -2   -1    0    0    0  501  0.00000000000E+00  0.00000000000E+00  0.83132302899E+03  0.83132302900E+03  0.25500000920E-02 0. -1.
        2   -1    0    0  501    0  0.00000000000E+00  0.00000000000E+00 -0.91671335390E+03  0.91671335390E+03  0.25500000920E-02 0.  1.
    10030    2    1    2    0    0  0.00000000000E+00  0.00000000000E+00 -0.85390324905E+02  0.17480363829E+04  0.17459495091E+04 0.  0.
        5    1    3    3  502    0 -0.22680506357E+03 -0.35379101613E+03  0.72336919214E+03  0.83659649658E+03  0.46999998093E+01 0. -1.
       -5    1    3    3    0  502  0.22680506357E+03  0.35379101613E+03 -0.80875951705E+03  0.91143988632E+03  0.46999998093E+01 0.  1.
</event>
<event>
 5   0  0.5310003E-04  0.1699323E+04  0.7818609E-02  0.8761750E-01
        2   -1    0    0  501    0  0.00000000000E+00  0.00000000000E+00  0.81381889792E+03  0.81381889793E+03  0.25500000920E-02 0. -1.
       -2   -1    0    0    0  501  0.00000000000E+00  0.00000000000E+00 -0.88708313348E+03  0.88708313348E+03  0.25500000920E-02 0.  1.
    10030    2    1    2    0    0  0.00000000000E+00  0.00000000000E+00 -0.73264235553E+02  0.17009020314E+04  0.16993234160E+04 0.  0.
        1    1    3    3  502    0 -0.36808988996E+03  0.44393373547E+03  0.58793287192E+03  0.82354865703E+03  0.50400001928E-02 0. -1.
       -1    1    3    3    0  502  0.36808988996E+03 -0.44393373547E+03 -0.66119710747E+03  0.87735337438E+03  0.50400001928E-02 0.  1.
</event>
<event>
 5   0  0.5342255E-04  0.1683396E+04  0.7818609E-02  0.8770891E-01
        2   -1    0    0  501    0  0.00000000000E+00  0.00000000000E+00  0.66399924475E+03  0.66399924476E+03  0.25500000920E-02 0.  1.
       -2   -1    0    0    0  501  0.00000000000E+00  0.00000000000E+00 -0.10669519589E+04  0.10669519589E+04  0.25500000920E-02 0. -1.
    10030    2    1    2    0    0  0.00000000000E+00  0.00000000000E+00 -0.40295271411E+03  0.17309512036E+04  0.16833957287E+04 0.  0.
        5    1    3    3  502    0 -0.27355952748E+03  0.21022254611E+03  0.58793880674E+03  0.68170555553E+03  0.46999998093E+01 0.  1.
       -5    1    3    3    0  502  0.27355952748E+03 -0.21022254611E+03 -0.99089152085E+03  0.10492456481E+04  0.46999998093E+01 0. -1.
</event>
<event>
 5   0  0.5310003E-04  0.1692778E+04  0.7818609E-02  0.8765494E-01
       -2   -1    0    0    0  501  0.00000000000E+00  0.00000000000E+00  0.71061282791E+03  0.71061282792E+03  0.25500000920E-02 0.  1.
        2   -1    0    0  501    0  0.00000000000E+00  0.00000000000E+00 -0.10081072201E+04  0.10081072201E+04  0.25500000920E-02 0. -1.
    10030    2    1    2    0    0  0.00000000000E+00  0.00000000000E+00 -0.29749439214E+03  0.17187200480E+04  0.16927775075E+04 0.  0.
        1    1    3    3  502    0 -0.28252568917E+03 -0.47912114870E+03 -0.79648668967E+03  0.97147768221E+03  0.50400001928E-02 0. -1.
       -1    1    3    3    0  502  0.28252568917E+03  0.47912114870E+03  0.49899229753E+03  0.74724236576E+03  0.50400001928E-02 0.  1.
</event>
<event>
 5   0  0.2561518E-04  0.1692611E+04  0.7818609E-02  0.8765590E-01
       -1   -1    0    0    0  501  0.00000000000E+00  0.00000000000E+00  0.40878113829E+03  0.40878113832E+03  0.50400001928E-02 0.  1.
        1   -1    0    0  501    0  0.00000000000E+00  0.00000000000E+00 -0.17521189140E+04  0.17521189140E+04  0.50400001928E-02 0. -1.
    10030    2    1    2    0    0  0.00000000000E+00  0.00000000000E+00 -0.13433377757E+04  0.21609000523E+04  0.16926111947E+04 0.  0.
        4    1    3    3  502    0  0.72582790535E+03  0.43255242701E+03 -0.61039154223E+03  0.10423565599E+04  0.12699999809E+01 0.  1.
       -4    1    3    3    0  502 -0.72582790535E+03 -0.43255242701E+03 -0.73294623344E+03  0.11185434924E+04  0.12699999809E+01 0. -1.
</event>
<event>
 5   0  0.2583422E-04  0.1272008E+04  0.7818609E-02  0.9052063E-01
        1   -1    0    0  501    0  0.00000000000E+00  0.00000000000E+00  0.46859891714E+03  0.46859891716E+03  0.50400001928E-02 0.  1.
       -1   -1    0    0    0  501  0.00000000000E+00  0.00000000000E+00 -0.86321334382E+03  0.86321334383E+03  0.50400001928E-02 0. -1.
    10030    2    1    2    0    0  0.00000000000E+00  0.00000000000E+00 -0.39461442668E+03  0.13318122610E+04  0.12720076072E+04 0.  0.
        3    1    3    3  502    0 -0.16871340673E+03  0.58071696719E+03 -0.40355718117E+03  0.72701775651E+03  0.10100000352E+00 0. -1.
       -3    1    3    3    0  502  0.16871340673E+03 -0.58071696719E+03  0.89427544913E+01  0.60479450449E+03  0.10100000352E+00 0.  1.
</event>
<event>
 5   0  0.5310003E-04  0.1711549E+04  0.7818609E-02  0.8754805E-01
       -2   -1    0    0    0  501  0.00000000000E+00  0.00000000000E+00  0.82936207531E+03  0.82936207531E+03  0.25500000920E-02 0. -1.
        2   -1    0    0  501    0  0.00000000000E+00  0.00000000000E+00 -0.88302820729E+03  0.88302820729E+03  0.25500000920E-02 0.  1.
    10030    2    1    2    0    0  0.00000000000E+00  0.00000000000E+00 -0.53666131977E+02  0.17123902826E+04  0.17115491305E+04 0.  0.
        1    1    3    3  502    0 -0.13814616278E+03  0.47463691274E+03  0.67206986760E+03  0.83429159662E+03  0.50400001928E-02 0. -1.
       -1    1    3    3    0  502  0.13814616278E+03 -0.47463691274E+03 -0.72573599957E+03  0.87809868599E+03  0.50400001928E-02 0.  1.
</event>
<event>
 5   0  0.2595644E-04  0.1713725E+04  0.7818609E-02  0.8753575E-01
       -1   -1    0    0    0  501  0.00000000000E+00  0.00000000000E+00  0.64490756653E+03  0.64490756655E+03  0.50400001928E-02 0. -1.
        1   -1    0    0  501    0  0.00000000000E+00  0.00000000000E+00 -0.11384786059E+04  0.11384786059E+04  0.50400001928E-02 0.  1.
    10030    2    1    2    0    0  0.00000000000E+00  0.00000000000E+00 -0.49357103933E+03  0.17833861724E+04  0.17137251440E+04 0.  0.
        2    1    3    3  502    0 -0.11822588237E+03  0.41177785223E+03  0.52545386866E+03  0.67796764447E+03  0.25500000920E-02 0. -1.
       -2    1    3    3    0  502  0.11822588237E+03 -0.41177785223E+03 -0.10190249080E+04  0.11054185280E+04  0.25500000920E-02 0.  1.
</event>
<event>
 5   0  0.5021349E-04  0.1684273E+04  0.7818609E-02  0.8770385E-01
        2   -1    0    0  501    0  0.00000000000E+00  0.00000000000E+00  0.13217023347E+04  0.13217023347E+04  0.25500000920E-02 0. -1.
       -2   -1    0    0    0  501  0.00000000000E+00  0.00000000000E+00 -0.53657599050E+03  0.53657599051E+03  0.25500000920E-02 0.  1.
    10030    2    1    2    0    0  0.00000000000E+00  0.00000000000E+00  0.78512634422E+03  0.18582783252E+04  0.16842728276E+04 0.  0.
        2    1    3    3  502    0 -0.31358346893E+03 -0.32054740872E+03 -0.39389667019E+03  0.59685829141E+03  0.25500000920E-02 0.  1.
       -2    1    3    3    0  502  0.31358346893E+03  0.32054740872E+03  0.11790230144E+04  0.12614200338E+04  0.25500000920E-02 0. -1.
</event>
<event>
 5   0  0.2561518E-04  0.1654673E+04  0.7818609E-02  0.8787647E-01
        1   -1    0    0  501    0  0.00000000000E+00  0.00000000000E+00  0.18068184708E+04  0.18068184708E+04  0.50400001928E-02 0. -1.
       -1   -1    0    0    0  501  0.00000000000E+00  0.00000000000E+00 -0.37883492283E+03  0.37883492286E+03  0.50400001928E-02 0.  1.
    10030    2    1    2    0    0  0.00000000000E+00  0.00000000000E+00  0.14279835480E+04  0.21856533937E+04  0.16546733043E+04 0.  0.
        4    1    3    3  502    0  0.52475543880E+03 -0.34077441911E+03  0.14289728980E+04  0.15599553299E+04  0.12699999809E+01 0. -1.
       -4    1    3    3    0  502 -0.52475543880E+03  0.34077441911E+03 -0.98935000468E+00  0.62569806376E+03  0.12699999809E+01 0.  1.
</event>
<event>
 5   0  0.5342255E-04  0.1800698E+04  0.7818609E-02  0.8705929E-01
        2   -1    0    0  501    0  0.00000000000E+00  0.00000000000E+00  0.37142632262E+03  0.37142632263E+03  0.25500000920E-02 0.  1.
       -2   -1    0    0    0  501  0.00000000000E+00  0.00000000000E+00 -0.21824729895E+04  0.21824729895E+04  0.25500000920E-02 0. -1.
    10030    2    1    2    0    0  0.00000000000E+00  0.00000000000E+00 -0.18110466668E+04  0.25538993121E+04  0.18006975501E+04 0.  0.
        5    1    3    3  502    0 -0.51214208140E+03 -0.14212898186E+03  0.12516538735E+03  0.54605734425E+03  0.46999998093E+01 0.  1.
       -5    1    3    3    0  502  0.51214208140E+03  0.14212898186E+03 -0.19362120542E+04  0.20078419678E+04  0.46999998093E+01 0. -1.
</event>
<event>
 5   0  0.2561518E-04  0.1673675E+04  0.7818609E-02  0.8776523E-01
       -1   -1    0    0    0  501  0.00000000000E+00  0.00000000000E+00  0.10669018889E+04  0.10669018889E+04  0.50400001928E-02 0. -1.
        1   -1    0    0  501    0  0.00000000000E+00  0.00000000000E+00 -0.65638366043E+03  0.65638366045E+03  0.50400001928E-02 0.  1.
    10030    2    1    2    0    0  0.00000000000E+00  0.00000000000E+00  0.41051822850E+03  0.17232855494E+04  0.16736749591E+04 0.  0.
        4    1    3    3  502    0 -0.69431866934E+03  0.17255007526E+03 -0.24170906574E+03  0.75516675538E+03  0.12699999809E+01 0.  1.
       -4    1    3    3    0  502  0.69431866934E+03 -0.17255007526E+03  0.65222729424E+03  0.96811879401E+03  0.12699999809E+01 0. -1.
</event>
<event>
 5   0  0.5310003E-04  0.1646406E+04  0.7818609E-02  0.8792536E-01
        2   -1    0    0  501    0  0.00000000000E+00  0.00000000000E+00  0.77333263061E+03  0.77333263061E+03  0.25500000920E-02 0. -1.
       -2   -1    0    0    0  501  0.00000000000E+00  0.00000000000E+00 -0.87628902111E+03  0.87628902111E+03  0.25500000920E-02 0.  1.
    10030    2    1    2    0    0  0.00000000000E+00  0.00000000000E+00 -0.10295639050E+03  0.16496216517E+04  0.16464056534E+04 0.  0.
        1    1    3    3  502    0 -0.28969747409E+03  0.44781671810E+03  0.57680204408E+03  0.78559852188E+03  0.50400001928E-02 0. -1.
       -1    1    3    3    0  502  0.28969747409E+03 -0.44781671810E+03 -0.67975843457E+03  0.86402312984E+03  0.50400001928E-02 0.  1.
</event>
<event>
 5   0  0.2595644E-04  0.1585790E+04  0.7818609E-02  0.8829326E-01
       -1   -1    0    0    0  501  0.00000000000E+00  0.00000000000E+00  0.16172905783E+04  0.16172905783E+04  0.50400001928E-02 0. -1.
        1   -1    0    0  501    0  0.00000000000E+00  0.00000000000E+00 -0.38872566031E+03  0.38872566034E+03  0.50400001928E-02 0.  1.
    10030    2    1    2    0    0  0.00000000000E+00  0.00000000000E+00  0.12285649180E+04  0.20060162386E+04  0.15857898322E+04 0.  0.
        2    1    3    3  502    0 -0.29329107456E+01  0.58195641437E+02  0.16145784306E+04  0.16156295501E+04  0.25500000920E-02 0. -1.
       -2    1    3    3    0  502  0.29329107456E+01 -0.58195641437E+02 -0.38601351262E+03  0.39038668853E+03  0.25500000920E-02 0.  1.
</event>
<event>
 5   0  0.2595644E-04  0.1904365E+04  0.7818609E-02  0.8652687E-01
       -1   -1    0    0    0  501  0.00000000000E+00  0.00000000000E+00  0.67142269894E+03  0.67142269895E+03  0.50400001928E-02 0.  1.
        1   -1    0    0  501    0  0.00000000000E+00  0.00000000000E+00 -0.13503434460E+04  0.13503434460E+04  0.50400001928E-02 0. -1.
    10030    2    1    2    0    0  0.00000000000E+00  0.00000000000E+00 -0.67892074707E+03  0.20217661450E+04  0.19043647141E+04 0.  0.
        2    1    3    3  502    0 -0.72847757345E+03  0.41611288929E+03  0.13866086383E+03  0.85032719985E+03  0.25500000920E-02 0.  1.
       -2    1    3    3    0  502  0.72847757345E+03 -0.41611288929E+03 -0.81758161090E+03  0.11714389451E+04  0.25500000920E-02 0. -1.
</event>
<event>
 5   0  0.2583422E-04  0.1690396E+04  0.7818609E-02  0.8766861E-01
       -1   -1    0    0    0  501  0.00000000000E+00  0.00000000000E+00  0.66017154466E+03  0.66017154468E+03  0.50400001928E-02 0.  1.
        1   -1    0    0  501    0  0.00000000000E+00  0.00000000000E+00 -0.10820812348E+04  0.10820812348E+04  0.50400001928E-02 0. -1.
    10030    2    1    2    0    0  0.00000000000E+00  0.00000000000E+00 -0.42190969018E+03  0.17422527795E+04  0.16903955043E+04 0.  0.
        3    1    3    3  502    0 -0.80974527408E+03  0.17840155775E+03 -0.37982471074E+03  0.91202047444E+03  0.10100000352E+00 0.  1.
       -3    1    3    3    0  502  0.80974527408E+03 -0.17840155775E+03 -0.42084979437E+02  0.83023230508E+03  0.10100000352E+00 0. -1.
</event>
<event>
 5   0  0.2785059E-04  0.1673381E+04  0.7818609E-02  0.8776693E-01
       -1   -1    0    0    0  501  0.00000000000E+00  0.00000000000E+00  0.15690894852E+04  0.15690894853E+04  0.50400001928E-02 0.  1.
        1   -1    0    0  501    0  0.00000000000E+00  0.00000000000E+00 -0.44615111334E+03  0.44615111337E+03  0.50400001928E-02 0. -1.
    10030    2    1    2    0    0  0.00000000000E+00  0.00000000000E+00  0.11229383719E+04  0.20152405986E+04  0.16733810335E+04 0.  0.
        5    1    3    3  502    0 -0.34053434430E+03 -0.40788931691E+03  0.13397923042E+04  0.14413198267E+04  0.46999998093E+01 0.  1.
       -5    1    3    3    0  502  0.34053434430E+03  0.40788931691E+03 -0.21685393228E+03  0.57392077192E+03  0.46999998093E+01 0. -1.
</event>
<event>
 5   0  0.2561518E-04  0.1687805E+04  0.7818609E-02  0.8768351E-01
       -1   -1    0    0    0  501  0.00000000000E+00  0.00000000000E+00  0.64932330253E+03  0.64932330255E+03  0.50400001928E-02 0.  1.
        1   -1    0    0  501    0  0.00000000000E+00  0.00000000000E+00 -0.10967897414E+04  0.10967897414E+04  0.50400001928E-02 0. -1.
    10030    2    1    2    0    0  0.00000000000E+00  0.00000000000E+00 -0.44746643888E+03  0.17461130440E+04  0.16878046535E+04 0.  0.
        4    1    3    3  502    0 -0.41540712287E+03  0.32866808373E+03  0.45591269785E+03  0.69888753599E+03  0.12699999809E+01 0.  1.
       -4    1    3    3    0  502  0.41540712287E+03 -0.32866808373E+03 -0.90337913674E+03  0.10472255080E+04  0.12699999809E+01 0. -1.
</event>
<event>
 5   0  0.5198430E-04  0.1719151E+04  0.7818609E-02  0.8750516E-01
        2   -1    0    0  501    0  0.00000000000E+00  0.00000000000E+00  0.14572360195E+04  0.14572360195E+04  0.25500000920E-02 0.  1.
       -2   -1    0    0    0  501  0.00000000000E+00  0.00000000000E+00 -0.50703543973E+03  0.50703543974E+03  0.25500000920E-02 0. -1.
    10030    2    1    2    0    0  0.00000000000E+00  0.00000000000E+00  0.95020057977E+03  0.19642714592E+04  0.17191513092E+04 0.  0.
        4    1    3    3  502    0  0.85457262653E+03  0.15404526698E+02  0.37077422764E+03  0.93166883292E+03  0.12699999809E+01 0. -1.
       -4    1    3    3    0  502 -0.85457262653E+03 -0.15404526698E+02  0.57942635213E+03  0.10326026263E+04  0.12699999809E+01 0.  1.
</event>
<event>
 5   0  0.5310003E-04  0.1705185E+04  0.7818609E-02  0.8758413E-01
       -2   -1    0    0    0  501  0.00000000000E+00  0.00000000000E+00  0.46906614064E+03  0.46906614065E+03  0.25500000920E-02 0.  1.
        2   -1    0    0  501    0  0.00000000000E+00  0.00000000000E+00 -0.15497048409E+04  0.15497048409E+04  0.25500000920E-02 0. -1.
    10030    2    1    2    0    0  0.00000000000E+00  0.00000000000E+00 -0.10806387002E+04  0.20187709815E+04  0.17051851147E+04 0.  0.
        1    1    3    3  502    0  0.15663606168E+03 -0.58855605657E+03  0.16604523751E+03  0.63127181821E+03  0.50400001928E-02 0.  1.
       -1    1    3    3    0  502 -0.15663606168E+03  0.58855605657E+03 -0.12466839377E+04  0.13874991633E+04  0.50400001928E-02 0. -1.
</event>
<event>
 5   0  0.5342255E-04  0.1660138E+04  0.7818609E-02  0.8784431E-01
       -2   -1    0    0    0  501  0.00000000000E+00  0.00000000000E+00  0.78573622725E+03  0.78573622725E+03  0.25500000920E-02 0.  1.
        2   -1    0    0  501    0  0.00000000000E+00  0.00000000000E+00 -0.87690311877E+03  0.87690311877E+03  0.25500000920E-02 0. -1.
    10030    2    1    2    0    0  0.00000000000E+00  0.00000000000E+00 -0.91166891516E+02  0.16626393460E+04  0.16601380042E+04 0.  0.
        5    1    3    3  502    0 -0.80555637566E+03  0.62704659426E+01  0.15479816315E+03  0.82033222198E+03  0.46999998093E+01 0.  1.
       -5    1    3    3    0  502  0.80555637566E+03 -0.62704659426E+01 -0.24596505466E+03  0.84230712404E+03  0.46999998093E+01 0. -1.
</event>
<event>
 5   0  0.5021349E-04  0.1799042E+04  0.7818609E-02  0.8706809E-01
       -2   -1    0    0    0  501  0.00000000000E+00  0.00000000000E+00  0.31613997770E+03  0.31613997771E+03  0.25500000920E-02 0.  1.
        2   -1    0    0  501    0  0.00000000000E+00  0.00000000000E+00 -0.25594286235E+04  0.25594286235E+04  0.25500000920E-02 0. -1.
    10030    2    1    2    0    0  0.00000000000E+00  0.00000000000E+00 -0.22432886458E+04  0.28755686012E+04  0.17990416426E+04 0.  0.
        2    1    3    3  502    0  0.19622364431E+03 -0.56744199486E+03 -0.21922591199E+04  0.22729923416E+04  0.25500000920E-02 0. -1.
       -2    1    3    3    0  502 -0.19622364431E+03  0.56744199486E+03 -0.51029525873E+02  0.60257625960E+03  0.25500000920E-02 0.  1.
</event>
<event>
 5   0  0.2595644E-04  0.1717019E+04  0.7818609E-02  0.8751717E-01
        1   -1    0    0  501    0  0.00000000000E+00  0.00000000000E+00  0.68507662265E+03  0.68507662267E+03  0.50400001928E-02 0.  1.
       -1   -1    0    0    0  501  0.00000000000E+00  0.00000000000E+00 -0.10758483388E+04  0.10758483388E+04  0.50400001928E-02 0. -1.
    10030    2    1    2    0    0  0.00000000000E+00  0.00000000000E+00 -0.39077171615E+03  0.17609249615E+04  0.17170189824E+04 0.  0.
        2    1    3    3  502    0  0.38745273104E+03  0.35205640087E+02  0.58948058504E+03  0.70629060310E+03  0.25500000920E-02 0.  1.
       -2    1    3    3    0  502 -0.38745273104E+03 -0.35205640087E+02 -0.98025230119E+03  0.10546343584E+04  0.25500000920E-02 0. -1.
</event>
<event>
 5   0  0.2630135E-04  0.1685812E+04  0.7818609E-02  0.8769498E-01
        1   -1    0    0  501    0  0.00000000000E+00  0.00000000000E+00  0.16660480321E+04  0.16660480321E+04  0.50400001928E-02 0.  1.
       -1   -1    0    0    0  501  0.00000000000E+00  0.00000000000E+00 -0.42645243509E+03  0.42645243512E+03  0.50400001928E-02 0. -1.
    10030    2    1    2    0    0  0.00000000000E+00  0.00000000000E+00  0.12395955970E+04  0.20925004672E+04  0.16858116624E+04 0.  0.
        1    1    3    3  502    0 -0.23778907802E+03 -0.45671940128E+03  0.14481388408E+04  0.15369588021E+04  0.50400001928E-02 0.  1.
       -1    1    3    3    0  502  0.23778907802E+03  0.45671940128E+03 -0.20854324379E+03  0.55554166512E+03  0.50400001928E-02 0. -1.
</event>
<event>
 5   0  0.5342255E-04  0.1740874E+04  0.7818609E-02  0.8738390E-01
        2   -1    0    0  501    0  0.00000000000E+00  0.00000000000E+00  0.16592895382E+04  0.16592895382E+04  0.25500000920E-02 0.  1.
       -2   -1    0    0    0  501  0.00000000000E+00  0.00000000000E+00 -0.45661764474E+03  0.45661764474E+03  0.25500000920E-02 0. -1.
    10030    2    1    2    0    0  0.00000000000E+00  0.00000000000E+00  0.12026718935E+04  0.21159071829E+04  0.17408743560E+04 0.  0.
        5    1    3    3  502    0  0.28748193060E+03  0.45643826789E+01 -0.39721929263E+03  0.49037939440E+03  0.46999998093E+01 0. -1.
       -5    1    3    3    0  502 -0.28748193060E+03 -0.45643826789E+01  0.15998911861E+04  0.16255277886E+04  0.46999998093E+01 0.  1.
</event>
<event>
 5   0  0.5310003E-04  0.1594565E+04  0.7818609E-02  0.8823894E-01
        2   -1    0    0  501    0  0.00000000000E+00  0.00000000000E+00  0.19153115267E+04  0.19153115267E+04  0.25500000920E-02 0. -1.
       -2   -1    0    0    0  501  0.00000000000E+00  0.00000000000E+00 -0.33188293544E+03  0.33188293545E+03  0.25500000920E-02 0.  1.
    10030    2    1    2    0    0  0.00000000000E+00  0.00000000000E+00  0.15834285912E+04  0.22471944621E+04  0.15945647830E+04 0.  0.
        1    1    3    3  502    0 -0.48457800700E+03  0.58177041699E+03  0.11437153532E+04  0.13716258499E+04  0.50400001928E-02 0. -1.
       -1    1    3    3    0  502  0.48457800700E+03 -0.58177041699E+03  0.43971323798E+03  0.87556861218E+03  0.50400001928E-02 0.  1.
</event>
<event>
 5   0  0.2785059E-04  0.1686301E+04  0.7818609E-02  0.8769216E-01
       -1   -1    0    0    0  501  0.00000000000E+00  0.00000000000E+00  0.97462540578E+03  0.97462540580E+03  0.50400001928E-02 0.  1.
        1   -1    0    0  501    0  0.00000000000E+00  0.00000000000E+00 -0.72941117171E+03  0.72941117172E+03  0.50400001928E-02 0. -1.
    10030    2    1    2    0    0  0.00000000000E+00  0.00000000000E+00  0.24521423408E+03  0.17040365775E+04  0.16863008738E+04 0.  0.
        5    1    3    3  502    0  0.26023961701E+02 -0.41895829989E+03  0.86151399120E+03  0.95834844950E+03  0.46999998093E+01 0.  1.
       -5    1    3    3    0  502 -0.26023961701E+02  0.41895829989E+03 -0.61629975713E+03  0.74568812802E+03  0.46999998093E+01 0. -1.
</event>
<event>
 5   0  0.2583422E-04  0.1685002E+04  0.7818609E-02  0.8769965E-01
        1   -1    0    0  501    0  0.00000000000E+00  0.00000000000E+00  0.98565081931E+03  0.98565081932E+03  0.50400001928E-02 0.  1.
       -1   -1    0    0    0  501  0.00000000000E+00  0.00000000000E+00 -0.72014117994E+03  0.72014117995E+03  0.50400001928E-02 0. -1.
    10030    2    1    2    0    0  0.00000000000E+00  0.00000000000E+00  0.26550963937E+03  0.17057919993E+04  0.16850017733E+04 0.  0.
        3    1    3    3  502    0 -0.47605239653E+03  0.68007566750E+03 -0.12821188419E+02  0.83023682816E+03  0.10100000352E+00 0. -1.
       -3    1    3    3    0  502  0.47605239653E+03 -0.68007566750E+03  0.27833082779E+03  0.87555517111E+03  0.10100000352E+00 0.  1.
</event>
<event>
 5   0  0.5342255E-04  0.1710972E+04  0.7818609E-02  0.8755131E-01
        2   -1    0    0  501    0  0.00000000000E+00  0.00000000000E+00  0.17233709747E+04  0.17233709747E+04  0.25500000920E-02 0. -1.
       -2   -1    0    0    0  501  0.00000000000E+00  0.00000000000E+00 -0.42466538153E+03  0.42466538154E+03  0.25500000920E-02 0.  1.
    10030    2    1    2    0    0  0.00000000000E+00  0.00000000000E+00  0.12987055931E+04  0.21480363562E+04  0.17109716450E+04 0.  0.
        5    1    3    3  502    0  0.11115530072E+02  0.54295553056E+03 -0.18048770735E+03  0.57229552302E+03  0.46999998093E+01 0.  1.
       -5    1    3    3    0  502 -0.11115530072E+02 -0.54295553056E+03  0.14791933005E+04  0.15757408332E+04  0.46999998093E+01 0. -1.
</event>
<event>
 5   0  0.2583422E-04  0.1691366E+04  0.7818609E-02  0.8766304E-01
        1   -1    0    0  501    0  0.00000000000E+00  0.00000000000E+00  0.64457879901E+03  0.64457879903E+03  0.50400001928E-02 0. -1.
       -1   -1    0    0    0  501  0.00000000000E+00  0.00000000000E+00 -0.11095303772E+04  0.11095303772E+04  0.50400001928E-02 0.  1.
    10030    2    1    2    0    0  0.00000000000E+00  0.00000000000E+00 -0.46495157821E+03  0.17541091763E+04  0.16913660255E+04 0.  0.
        3    1    3    3  502    0 -0.43945014064E+03 -0.71362838460E+03 -0.34979997056E+03  0.90815303062E+03  0.10100000352E+00 0. -1.
       -3    1    3    3    0  502  0.43945014064E+03  0.71362838460E+03 -0.11515160765E+03  0.84595614565E+03  0.10100000352E+00 0.  1.
</event>
<event>
 5   0  0.5342255E-04  0.1665137E+04  0.7818609E-02  0.8781502E-01
       -2   -1    0    0    0  501  0.00000000000E+00  0.00000000000E+00  0.43439291529E+03  0.43439291530E+03  0.25500000920E-02 0. -1.
        2   -1    0    0  501    0  0.00000000000E+00  0.00000000000E+00 -0.15957215784E+04  0.15957215784E+04  0.25500000920E-02 0.  1.
    10030    2    1    2    0    0  0.00000000000E+00  0.00000000000E+00 -0.11613286631E+04  0.20301144937E+04  0.16651368093E+04 0.  0.
        5    1    3    3  502    0  0.10675476540E+03 -0.39245345345E+03  0.30501646528E+03  0.50840281977E+03  0.46999998093E+01 0. -1.
       -5    1    3    3    0  502 -0.10675476540E+03  0.39245345345E+03 -0.14663451284E+04  0.15217116739E+04  0.46999998093E+01 0.  1.
</event>
<event>
 5   0  0.2595644E-04  0.1716034E+04  0.7818609E-02  0.8752272E-01
        1   -1    0    0  501    0  0.00000000000E+00  0.00000000000E+00  0.84382447412E+03  0.84382447414E+03  0.50400001928E-02 0. -1.
       -1   -1    0    0    0  501  0.00000000000E+00  0.00000000000E+00 -0.87244874097E+03  0.87244874099E+03  0.50400001928E-02 0.  1.
    10030    2    1    2    0    0  0.00000000000E+00  0.00000000000E+00 -0.28624266851E+02  0.17162732151E+04  0.17160344986E+04 0.  0.
        2    1    3    3  502    0 -0.63565537847E+02  0.39357620115E+03 -0.77418805064E+03  0.87080993418E+03  0.25500000920E-02 0.  1.
       -2    1    3    3    0  502  0.63565537847E+02 -0.39357620115E+03  0.74556378379E+03  0.84546328094E+03  0.25500000920E-02 0. -1.
</event>
<event>
 5   0  0.5310003E-04  0.1737290E+04  0.7818609E-02  0.8740378E-01
        2   -1    0    0  501    0  0.00000000000E+00  0.00000000000E+00  0.70258414330E+03  0.70258414330E+03  0.25500000920E-02 0. -1.
       -2   -1    0    0    0  501  0.00000000000E+00  0.00000000000E+00 -0.10739557796E+04  0.10739557796E+04  0.25500000920E-02 0.  1.
    10030    2    1    2    0    0  0.00000000000E+00  0.00000000000E+00 -0.37137163631E+03  0.17765399229E+04  0.17372901903E+04 0.  0.
        1    1    3    3  502    0  0.21110470304E+03  0.56186675299E+03  0.45642154981E+03  0.75404248880E+03  0.50400001928E-02 0. -1.
       -1    1    3    3    0  502 -0.21110470304E+03 -0.56186675299E+03 -0.82779318613E+03  0.10224974341E+04  0.50400001928E-02 0.  1.
</event>
<event>
 5   0  0.2595644E-04  0.1579342E+04  0.7818609E-02  0.8833341E-01
        1   -1    0    0  501    0  0.00000000000E+00  0.00000000000E+00  0.15676196281E+04  0.15676196281E+04  0.50400001928E-02 0. -1.
       -1   -1    0    0    0  501  0.00000000000E+00  0.00000000000E+00 -0.39778783230E+03  0.39778783233E+03  0.50400001928E-02 0.  1.
    10030    2    1    2    0    0  0.00000000000E+00  0.00000000000E+00  0.11698317958E+04  0.19654074604E+04  0.15793416524E+04 0.  0.
        2    1    3    3  502    0  0.95463783971E+02  0.40591581749E+03 -0.24960551713E+03  0.48598755038E+03  0.25500000920E-02 0.  1.
       -2    1    3    3    0  502 -0.95463783971E+02 -0.40591581749E+03  0.14194373129E+04  0.14794199100E+04  0.25500000920E-02 0. -1.
</event>
<event>
 5   0  0.5198430E-04  0.1703085E+04  0.7818609E-02  0.8759607E-01
        2   -1    0    0  501    0  0.00000000000E+00  0.00000000000E+00  0.16251006808E+04  0.16251006808E+04  0.25500000920E-02 0. -1.
       -2   -1    0    0    0  501  0.00000000000E+00  0.00000000000E+00 -0.44620272449E+03  0.44620272450E+03  0.25500000920E-02 0.  1.
    10030    2    1    2    0    0  0.00000000000E+00  0.00000000000E+00  0.11788979563E+04  0.20713034053E+04  0.17030846736E+04 0.  0.
        4    1    3    3  502    0 -0.58709298900E+03 -0.50187723033E+03  0.15336830482E+03  0.78745309821E+03  0.12699999809E+01 0.  1.
       -4    1    3    3    0  502  0.58709298900E+03  0.50187723033E+03  0.10255296515E+04  0.12838503071E+04  0.12699999809E+01 0. -1.
</event>
<event>
 5   0  0.2561518E-04  0.1694070E+04  0.7818609E-02  0.8764754E-01
        1   -1    0    0  501    0  0.00000000000E+00  0.00000000000E+00  0.71142296607E+03  0.71142296609E+03  0.50400001928E-02 0. -1.
       -1   -1    0    0    0  501  0.00000000000E+00  0.00000000000E+00 -0.10084976895E+04  0.10084976895E+04  0.50400001928E-02 0.  1.
    10030    2    1    2    0    0  0.00000000000E+00  0.00000000000E+00 -0.29707472339E+03  0.17199206556E+04  0.16940701491E+04 0.  0.
        4    1    3    3  502    0 -0.18214538798E+02  0.76658525181E+03  0.21678971994E+03  0.79685890425E+03  0.12699999809E+01 0. -1.
       -4    1    3    3    0  502  0.18214538798E+02 -0.76658525181E+03 -0.51386444333E+03  0.92306175131E+03  0.12699999809E+01 0.  1.
</event>
<event>
 5   0  0.1910750E-04  0.1685311E+04  0.7818609E-02  0.8769787E-01
       -4   -1    0    0    0  501  0.00000000000E+00  0.00000000000E+00  0.67879136700E+03  0.67879255506E+03  0.12699999809E+01 0.  1.
        4   -1    0    0  501    0  0.00000000000E+00  0.00000000000E+00 -0.10460750193E+04  0.10460757902E+04  0.12699999809E+01 0. -1.
    10030    2    1    2    0    0  0.00000000000E+00  0.00000000000E+00 -0.36728365227E+03  0.17248683453E+04  0.16853111070E+04 0.  0.
        5    1    3    3  502    0 -0.48068953165E+03 -0.38211092265E+03  0.40694227841E+03  0.73667855338E+03  0.46999998093E+01 0.  1.
       -5    1    3    3    0  502  0.48068953165E+03  0.38211092265E+03 -0.77422593067E+03  0.98818979188E+03  0.46999998093E+01 0. -1.
</event>
<event>
 5   0  0.2583422E-04  0.1714402E+04  0.7818609E-02  0.8753193E-01
       -1   -1    0    0    0  501  0.00000000000E+00  0.00000000000E+00  0.12122526104E+04  0.12122526105E+04  0.50400001928E-02 0. -1.
        1   -1    0    0  501    0  0.00000000000E+00  0.00000000000E+00 -0.60613900453E+03  0.60613900455E+03  0.50400001928E-02 0.  1.
    10030    2    1    2    0    0  0.00000000000E+00  0.00000000000E+00  0.60611360591E+03  0.18183916150E+04  0.17144020422E+04 0.  0.
        3    1    3    3  502    0  0.46131638434E+02  0.69049023451E+03 -0.23348095338E+03  0.73035488484E+03  0.10100000352E+00 0.  1.
       -3    1    3    3    0  502 -0.46131638434E+02 -0.69049023451E+03  0.83959455929E+03  0.10880367302E+04  0.10100000352E+00 0. -1.
</event>
<event>
 5   0  0.2595644E-04  0.1665246E+04  0.7818609E-02  0.8781438E-01
        1   -1    0    0  501    0  0.00000000000E+00  0.00000000000E+00  0.98624883577E+03  0.98624883579E+03  0.50400001928E-02 0. -1.
       -1   -1    0    0    0  501  0.00000000000E+00  0.00000000000E+00 -0.70292706214E+03  0.70292706216E+03  0.50400001928E-02 0.  1.
    10030    2    1    2    0    0  0.00000000000E+00  0.00000000000E+00  0.28332177363E+03  0.16891758979E+04  0.16652459238E+04 0.  0.
        2    1    3    3  502    0 -0.63065359473E+03  0.13648673465E+03  0.67544368114E+03  0.93411816794E+03  0.25500000920E-02 0. -1.
       -2    1    3    3    0  502  0.63065359473E+03 -0.13648673465E+03 -0.39212190751E+03  0.75505773000E+03  0.25500000920E-02 0.  1.
</event>
<event>
 5   0  0.2583422E-04  0.1699633E+04  0.7818609E-02  0.8761574E-01
        1   -1    0    0  501    0  0.00000000000E+00  0.00000000000E+00  0.79392223829E+03  0.79392223831E+03  0.50400001928E-02 0.  1.
       -1   -1    0    0    0  501  0.00000000000E+00  0.00000000000E+00 -0.90964603051E+03  0.90964603052E+03  0.50400001928E-02 0. -1.
    10030    2    1    2    0    0  0.00000000000E+00  0.00000000000E+00 -0.11572379221E+03  0.17035682688E+04  0.16996331517E+04 0.  0.
        3    1    3    3  502    0 -0.28345178262E+03  0.59616364219E+03 -0.59429462700E+03  0.88822413569E+03  0.10100000352E+00 0. -1.
       -3    1    3    3    0  502  0.28345178262E+03 -0.59616364219E+03  0.47857083479E+03  0.81534413314E+03  0.10100000352E+00 0.  1.
</event>
<event>
 5   0  0.2785059E-04  0.1686801E+04  0.7818609E-02  0.8768928E-01
       -1   -1    0    0    0  501  0.00000000000E+00  0.00000000000E+00  0.48274197487E+03  0.48274197490E+03  0.50400001928E-02 0.  1.
        1   -1    0    0  501    0  0.00000000000E+00  0.00000000000E+00 -0.14735090133E+04  0.14735090133E+04  0.50400001928E-02 0. -1.
    10030    2    1    2    0    0  0.00000000000E+00  0.00000000000E+00 -0.99076703843E+03  0.19562509882E+04  0.16868012937E+04 0.  0.
        5    1    3    3  502    0 -0.28458334979E+03  0.55834419429E+03 -0.11499606009E+04  0.13096439958E+04  0.46999998093E+01 0. -1.
       -5    1    3    3    0  502  0.28458334979E+03 -0.55834419429E+03  0.15919356243E+03  0.64660699238E+03  0.46999998093E+01 0.  1.
</event>
<event>
 5   0  0.2785059E-04  0.1387704E+04  0.7818609E-02  0.8962768E-01
        1   -1    0    0  501    0  0.00000000000E+00  0.00000000000E+00  0.15465915550E+04  0.15465915550E+04  0.50400001928E-02 0. -1.
       -1   -1    0    0    0  501  0.00000000000E+00  0.00000000000E+00 -0.31128467891E+03  0.31128467895E+03  0.50400001928E-02 0.  1.
    10030    2    1    2    0    0  0.00000000000E+00  0.00000000000E+00  0.12353068760E+04  0.18578762339E+04  0.13877035067E+04 0.  0.
        5    1    3    3  502    0  0.28915505155E+03 -0.34359598821E+03  0.13257571156E+04  0.13997581457E+04  0.46999998093E+01 0. -1.
       -5    1    3    3    0  502 -0.28915505155E+03  0.34359598821E+03 -0.90450239511E+02  0.45811808824E+03  0.46999998093E+01 0.  1.
</event>
<event>
 5   0  0.2785059E-04  0.1704734E+04  0.7818609E-02  0.8758669E-01
        1   -1    0    0  501    0  0.00000000000E+00  0.00000000000E+00  0.90876633229E+03  0.90876633230E+03  0.50400001928E-02 0. -1.
       -1   -1    0    0    0  501  0.00000000000E+00  0.00000000000E+00 -0.79946825789E+03  0.79946825790E+03  0.50400001928E-02 0.  1.
    10030    2    1    2    0    0  0.00000000000E+00  0.00000000000E+00  0.10929807440E+03  0.17082345902E+04  0.17047343917E+04 0.  0.
        5    1    3    3  502    0 -0.41097753622E+03 -0.16037853259E+03 -0.67615212020E+03  0.80735840161E+03  0.46999998093E+01 0.  1.
       -5    1    3    3    0  502  0.41097753622E+03  0.16037853259E+03  0.78545019460E+03  0.90087618860E+03  0.46999998093E+01 0. -1.
</event>
<event>
 5   0  0.5198430E-04  0.1703200E+04  0.7818609E-02  0.8759542E-01
        2   -1    0    0  501    0  0.00000000000E+00  0.00000000000E+00  0.77031535982E+03  0.77031535983E+03  0.25500000920E-02 0.  1.
       -2   -1    0    0    0  501  0.00000000000E+00  0.00000000000E+00 -0.94146147375E+03  0.94146147376E+03  0.25500000920E-02 0. -1.
    10030    2    1    2    0    0  0.00000000000E+00  0.00000000000E+00 -0.17114611393E+03  0.17117768336E+04  0.17031996171E+04 0.  0.
        4    1    3    3  502    0  0.56649278557E+03  0.41089705981E+02  0.55214436967E+03  0.79212843523E+03  0.12699999809E+01 0.  1.
       -4    1    3    3    0  502 -0.56649278557E+03 -0.41089705981E+02 -0.72329048360E+03  0.91964839836E+03  0.12699999809E+01 0. -1.
</event>
<event>
 5   0  0.2561518E-04  0.1471902E+04  0.7818609E-02  0.8903356E-01
        1   -1    0    0  501    0  0.00000000000E+00  0.00000000000E+00  0.80545258862E+03  0.80545258863E+03  0.50400001928E-02 0. -1.
       -1   -1    0    0    0  501  0.00000000000E+00  0.00000000000E+00 -0.67244642997E+03  0.67244642999E+03  0.50400001928E-02 0.  1.
    10030    2    1    2    0    0  0.00000000000E+00  0.00000000000E+00  0.13300615865E+03  0.14778990186E+04  0.14719017871E+04 0.  0.
        4    1    3    3  502    0  0.23174792721E+03 -0.58217457200E+02  0.76541806230E+03  0.80184961002E+03  0.12699999809E+01 0. -1.
       -4    1    3    3    0  502 -0.23174792721E+03  0.58217457200E+02 -0.63241190365E+03  0.67604940860E+03  0.12699999809E+01 0.  1.
</event>
<event>
 5   0  0.5299877E-04  0.1681764E+04  0.7818609E-02  0.8771834E-01
        2   -1    0    0  501    0  0.00000000000E+00  0.00000000000E+00  0.14735871423E+04  0.14735871423E+04  0.25500000920E-02 0.  1.
       -2   -1    0    0    0  501  0.00000000000E+00  0.00000000000E+00 -0.47983772645E+03  0.47983772645E+03  0.25500000920E-02 0. -1.
    10030    2    1    2    0    0  0.00000000000E+00  0.00000000000E+00  0.99374941590E+03  0.19534248688E+04  0.16817641976E+04 0.  0.
        3    1    3    3  502    0  0.29418446536E+03 -0.58731412037E+03  0.11066523085E+04  0.12869194682E+04  0.10100000352E+00 0.  1.
       -3    1    3    3    0  502 -0.29418446536E+03  0.58731412037E+03 -0.11290289257E+03  0.66650540058E+03  0.10100000352E+00 0. -1.
</event>
<event>
 5   0  0.5310003E-04  0.1640043E+04  0.7818609E-02  0.8796319E-01
        2   -1    0    0  501    0  0.00000000000E+00  0.00000000000E+00  0.93878087660E+03  0.93878087661E+03  0.25500000920E-02 0.  1.
       -2   -1    0    0    0  501  0.00000000000E+00  0.00000000000E+00 -0.71628601073E+03  0.71628601074E+03  0.25500000920E-02 0. -1.
    10030    2    1    2    0    0  0.00000000000E+00  0.00000000000E+00  0.22249486587E+03  0.16550668873E+04  0.16400434251E+04 0.  0.
        1    1    3    3  502    0  0.43973695875E+03  0.15536963920E+03  0.79190895109E+03  0.91903650880E+03  0.50400001928E-02 0.  1.
       -1    1    3    3    0  502 -0.43973695875E+03 -0.15536963920E+03 -0.56941408522E+03  0.73603037855E+03  0.50400001928E-02 0. -1.
</event>
<event>
 5   0  0.2561518E-04  0.1682186E+04  0.7818609E-02  0.8771590E-01
       -1   -1    0    0    0  501  0.00000000000E+00  0.00000000000E+00  0.50715135132E+03  0.50715135135E+03  0.50400001928E-02 0. -1.
        1   -1    0    0  501    0  0.00000000000E+00  0.00000000000E+00 -0.13949229926E+04  0.13949229926E+04  0.50400001928E-02 0.  1.
    10030    2    1    2    0    0  0.00000000000E+00  0.00000000000E+00 -0.88777164124E+03  0.19020743439E+04  0.16821855792E+04 0.  0.
        4    1    3    3  502    0 -0.20161442568E+03 -0.66237754434E+03  0.96074729317E+02  0.69901670538E+03  0.12699999809E+01 0. -1.
       -4    1    3    3    0  502  0.20161442568E+03  0.66237754434E+03 -0.98384637056E+03  0.12030576385E+04  0.12699999809E+01 0.  1.
</event>
<event>
 5   0  0.5310003E-04  0.1668086E+04  0.7818609E-02  0.8779778E-01
        2   -1    0    0  501    0  0.00000000000E+00  0.00000000000E+00  0.22275477626E+04  0.22275477626E+04  0.25500000920E-02 0. -1.
       -2   -1    0    0    0  501  0.00000000000E+00  0.00000000000E+00 -0.31228419359E+03  0.31228419360E+03  0.25500000920E-02 0.  1.
    10030    2    1    2    0    0  0.00000000000E+00  0.00000000000E+00  0.19152635691E+04  0.25398319562E+04  0.16680862769E+04 0.  0.
        1    1    3    3  502    0 -0.15997559574E+03  0.52035889609E+03  0.19197217210E+04  0.19954190182E+04  0.50400001928E-02 0. -1.
       -1    1    3    3    0  502  0.15997559574E+03 -0.52035889609E+03 -0.44581519724E+01  0.54441293805E+03  0.50400001928E-02 0.  1.
</event>
<event>
 5   0  0.5310003E-04  0.1384230E+04  0.7818609E-02  0.8965313E-01
       -2   -1    0    0    0  501  0.00000000000E+00  0.00000000000E+00  0.36427110243E+03  0.36427110244E+03  0.25500000920E-02 0. -1.
        2   -1    0    0  501    0  0.00000000000E+00  0.00000000000E+00 -0.13150181759E+04  0.13150181759E+04  0.25500000920E-02 0.  1.
    10030    2    1    2    0    0  0.00000000000E+00  0.00000000000E+00 -0.95074707347E+03  0.16792892783E+04  0.13842299241E+04 0.  0.
        1    1    3    3  502    0 -0.40583429740E+03 -0.97530543314E+01 -0.11554201790E+04  0.12246601117E+04  0.50400001928E-02 0.  1.
       -1    1    3    3    0  502  0.40583429740E+03  0.97530543314E+01  0.20467310556E+03  0.45462916666E+03  0.50400001928E-02 0. -1.
</event>
<event>
 5   0  0.2595644E-04  0.1688393E+04  0.7818609E-02  0.8768012E-01
        1   -1    0    0  501    0  0.00000000000E+00  0.00000000000E+00  0.18031640766E+04  0.18031640766E+04  0.50400001928E-02 0. -1.
       -1   -1    0    0    0  501  0.00000000000E+00  0.00000000000E+00 -0.39523160849E+03  0.39523160852E+03  0.50400001928E-02 0.  1.
    10030    2    1    2    0    0  0.00000000000E+00  0.00000000000E+00  0.14079324681E+04  0.21983956851E+04  0.16883926539E+04 0.  0.
        2    1    3    3  502    0 -0.48874141344E+03 -0.33579334457E+03  0.14863346896E+04  0.16002550263E+04  0.25500000920E-02 0. -1.
       -2    1    3    3    0  502  0.48874141344E+03  0.33579334457E+03 -0.78402221492E+02  0.59814065889E+03  0.25500000920E-02 0.  1.
</event>
<event>
 5   0  0.5310003E-04  0.1510724E+04  0.7818609E-02  0.8877353E-01
       -2   -1    0    0    0  501  0.00000000000E+00  0.00000000000E+00  0.45898764526E+03  0.45898764526E+03  0.25500000920E-02 0. -1.
        2   -1    0    0  501    0  0.00000000000E+00  0.00000000000E+00 -0.12431089579E+04  0.12431089579E+04  0.25500000920E-02 0.  1.
    10030    2    1    2    0    0  0.00000000000E+00  0.00000000000E+00 -0.78412131267E+03  0.17020966032E+04  0.15107238707E+04 0.  0.
        1    1    3    3  502    0  0.50069660988E+03 -0.13937084194E+03 -0.10096296081E+04  0.11355497666E+04  0.50400001928E-02 0.  1.
       -1    1    3    3    0  502 -0.50069660988E+03  0.13937084194E+03  0.22550829547E+03  0.56654683661E+03  0.50400001928E-02 0. -1.
</event>
<event>
 5   0  0.2561518E-04  0.1701256E+04  0.7818609E-02  0.8760649E-01
        1   -1    0    0  501    0  0.00000000000E+00  0.00000000000E+00  0.17946660725E+04  0.17946660725E+04  0.50400001928E-02 0.  1.
       -1   -1    0    0    0  501  0.00000000000E+00  0.00000000000E+00 -0.40317678094E+03  0.40317678097E+03  0.50400001928E-02 0. -1.
    10030    2    1    2    0    0  0.00000000000E+00  0.00000000000E+00  0.13914892915E+04  0.21978428534E+04  0.17012556422E+04 0.  0.
        4    1    3    3  502    0 -0.10870091636E+02  0.67751074599E+03  0.13600688033E+04  0.15195156243E+04  0.12699999809E+01 0.  1.
       -4    1    3    3    0  502  0.10870091636E+02 -0.67751074599E+03  0.31420488205E+02  0.67832722915E+03  0.12699999809E+01 0. -1.
</event>
<event>
 5   0  0.2595644E-04  0.1650739E+04  0.7818609E-02  0.8789970E-01
        1   -1    0    0  501    0  0.00000000000E+00  0.00000000000E+00  0.76308799936E+03  0.76308799938E+03  0.50400001928E-02 0.  1.
       -1   -1    0    0    0  501  0.00000000000E+00  0.00000000000E+00 -0.89273394536E+03  0.89273394538E+03  0.50400001928E-02 0. -1.
    10030    2    1    2    0    0  0.00000000000E+00  0.00000000000E+00 -0.12964594600E+03  0.16558219448E+04  0.16507386957E+04 0.  0.
        2    1    3    3  502    0  0.41401335019E+03 -0.27653263179E+03  0.59550290167E+03  0.77620941536E+03  0.25500000920E-02 0.  1.
       -2    1    3    3    0  502 -0.41401335019E+03  0.27653263179E+03 -0.72514884767E+03  0.87961252940E+03  0.25500000920E-02 0. -1.
</event>
<event>
 5   0  0.2561518E-04  0.1697717E+04  0.7818609E-02  0.8762667E-01
        1   -1    0    0  501    0  0.00000000000E+00  0.00000000000E+00  0.23594241098E+04  0.23594241098E+04  0.50400001928E-02 0.  1.
       -1   -1    0    0    0  501  0.00000000000E+00  0.00000000000E+00 -0.30539705544E+03  0.30539705548E+03  0.50400001928E-02 0. -1.
    10030    2    1    2    0    0  0.00000000000E+00  0.00000000000E+00  0.20540270543E+04  0.26648211653E+04  0.16977174980E+04 0.  0.
        4    1    3    3  502    0 -0.52894038131E+03 -0.21834832871E+02 -0.14534718233E+02  0.52959187857E+03  0.12699999809E+01 0. -1.
       -4    1    3    3    0  502  0.52894038131E+03  0.21834832871E+02  0.20685617726E+04  0.21352292867E+04  0.12699999809E+01 0.  1.
</event>
<event>
 5   0  0.5310003E-04  0.1700286E+04  0.7818609E-02  0.8761201E-01
       -2   -1    0    0    0  501  0.00000000000E+00  0.00000000000E+00  0.47194377419E+03  0.47194377420E+03  0.25500000920E-02 0. -1.
        2   -1    0    0  501    0  0.00000000000E+00  0.00000000000E+00 -0.15314175702E+04  0.15314175702E+04  0.25500000920E-02 0.  1.
    10030    2    1    2    0    0  0.00000000000E+00  0.00000000000E+00 -0.10594737960E+04  0.20033613444E+04  0.17002858442E+04 0.  0.
        1    1    3    3  502    0  0.84174036900E+03 -0.11834388445E+03 -0.54684645330E+03  0.10107290276E+04  0.50400001928E-02 0. -1.
       -1    1    3    3    0  502 -0.84174036900E+03  0.11834388445E+03 -0.51262734273E+03  0.99263231678E+03  0.50400001928E-02 0.  1.
</event>
<event>
 5   0  0.2630135E-04  0.1670299E+04  0.7818609E-02  0.8778488E-01
       -1   -1    0    0    0  501  0.00000000000E+00  0.00000000000E+00  0.75667688727E+03  0.75667688729E+03  0.50400001928E-02 0. -1.
        1   -1    0    0  501    0  0.00000000000E+00  0.00000000000E+00 -0.92176035520E+03  0.92176035521E+03  0.50400001928E-02 0.  1.
    10030    2    1    2    0    0  0.00000000000E+00  0.00000000000E+00 -0.16508346793E+03  0.16784372425E+04  0.16702990827E+04 0.  0.
        1    1    3    3  502    0  0.11403639334E+03 -0.29843449003E+03 -0.85792771893E+03  0.91548206688E+03  0.50400001928E-02 0.  1.
       -1    1    3    3    0  502 -0.11403639334E+03  0.29843449003E+03  0.69284425100E+03  0.76295517563E+03  0.50400001928E-02 0. -1.
</event>
<event>
 5   0  0.2595644E-04  0.1759205E+04  0.7818609E-02  0.8728300E-01
        1   -1    0    0  501    0  0.00000000000E+00  0.00000000000E+00  0.75977156153E+03  0.75977156155E+03  0.50400001928E-02 0.  1.
       -1   -1    0    0    0  501  0.00000000000E+00  0.00000000000E+00 -0.10183335060E+04  0.10183335061E+04  0.50400001928E-02 0. -1.
    10030    2    1    2    0    0  0.00000000000E+00  0.00000000000E+00 -0.25856194452E+03  0.17781050676E+04  0.17592053184E+04 0.  0.
        2    1    3    3  502    0  0.49412639472E+03 -0.68226388340E+03  0.12653083525E+03  0.85185383302E+03  0.25500000920E-02 0.  1.
       -2    1    3    3    0  502 -0.49412639472E+03  0.68226388340E+03 -0.38509277977E+03  0.92625123459E+03  0.25500000920E-02 0. -1.
</event>
<event>
 5   0  0.5021349E-04  0.1657785E+04  0.7818609E-02  0.8785814E-01
        2   -1    0    0  501    0  0.00000000000E+00  0.00000000000E+00  0.99319634458E+03  0.99319634458E+03  0.25500000920E-02 0. -1.
       -2   -1    0    0    0  501  0.00000000000E+00  0.00000000000E+00 -0.69176927753E+03  0.69176927754E+03  0.25500000920E-02 0.  1.
    10030    2    1    2    0    0  0.00000000000E+00  0.00000000000E+00  0.30142706705E+03  0.16849656221E+04  0.16577849290E+04 0.  0.
        2    1    3    3  502    0  0.29655399736E+03 -0.72899033337E+03  0.41515529964E+03  0.88978935840E+03  0.25500000920E-02 0. -1.
       -2    1    3    3    0  502 -0.29655399736E+03  0.72899033337E+03 -0.11372823259E+03  0.79517626372E+03  0.25500000920E-02 0.  1.
</event>
<event>
 5   0  0.5021349E-04  0.1692332E+04  0.7818609E-02  0.8765750E-01
       -2   -1    0    0    0  501  0.00000000000E+00  0.00000000000E+00  0.97402725074E+03  0.97402725074E+03  0.25500000920E-02 0.  1.
        2   -1    0    0  501    0  0.00000000000E+00  0.00000000000E+00 -0.73508943279E+03  0.73508943279E+03  0.25500000920E-02 0. -1.
    10030    2    1    2    0    0  0.00000000000E+00  0.00000000000E+00  0.23893781795E+03  0.17091166835E+04  0.16923322833E+04 0.  0.
        2    1    3    3  502    0  0.20263659511E+03 -0.42327207710E+02 -0.70912178248E+03  0.73871976053E+03  0.25500000920E-02 0. -1.
       -2    1    3    3    0  502 -0.20263659511E+03  0.42327207710E+02  0.94805960044E+03  0.97039692301E+03  0.25500000920E-02 0.  1.
</event>
<event>
 5   0  0.1910750E-04  0.1677724E+04  0.7818609E-02  0.8774172E-01
        4   -1    0    0  501    0  0.00000000000E+00  0.00000000000E+00  0.99619249380E+03  0.99619330334E+03  0.12699999809E+01 0. -1.
       -4   -1    0    0    0  501  0.00000000000E+00  0.00000000000E+00 -0.70637772300E+03  0.70637886466E+03  0.12699999809E+01 0.  1.
    10030    2    1    2    0    0  0.00000000000E+00  0.00000000000E+00  0.28981477081E+03  0.17025721680E+04  0.16777244666E+04 0.  0.
        2    1    3    3  502    0 -0.11356605205E+03 -0.64639537505E+03 -0.38529156687E+03  0.76103470393E+03  0.25500000920E-02 0.  1.
       -2    1    3    3    0  502  0.11356605205E+03  0.64639537505E+03  0.67510633768E+03  0.94153746407E+03  0.25500000920E-02 0. -1.
</event>
<event>
 5   0  0.5310003E-04  0.1552489E+04  0.7818609E-02  0.8850279E-01
       -2   -1    0    0    0  501  0.00000000000E+00  0.00000000000E+00  0.47439540520E+03  0.47439540521E+03  0.25500000920E-02 0.  1.
        2   -1    0    0  501    0  0.00000000000E+00  0.00000000000E+00 -0.12701551857E+04  0.12701551857E+04  0.25500000920E-02 0. -1.
    10030    2    1    2    0    0  0.00000000000E+00  0.00000000000E+00 -0.79575978047E+03  0.17445505909E+04  0.15524893352E+04 0.  0.
        1    1    3    3  502    0 -0.48196511000E+03 -0.54881821163E+03 -0.69319166711E+03  0.10069788896E+04  0.50400001928E-02 0. -1.
       -1    1    3    3    0  502  0.48196511000E+03  0.54881821163E+03 -0.10256811336E+03  0.73757170131E+03  0.50400001928E-02 0.  1.
</event>
<event>
 5   0  0.2583422E-04  0.1680117E+04  0.7818609E-02  0.8772786E-01
       -1   -1    0    0    0  501  0.00000000000E+00  0.00000000000E+00  0.59899790449E+03  0.59899790452E+03  0.50400001928E-02 0. -1.
        1   -1    0    0  501    0  0.00000000000E+00  0.00000000000E+00 -0.11781320863E+04  0.11781320863E+04  0.50400001928E-02 0.  1.
    10030    2    1    2    0    0  0.00000000000E+00  0.00000000000E+00 -0.57913418181E+03  0.17771299908E+04  0.16801174375E+04 0.  0.
        3    1    3    3  502    0 -0.74246066729E+03  0.31839476325E+03 -0.45883153916E+02  0.80915285438E+03  0.10100000352E+00 0. -1.
       -3    1    3    3    0  502  0.74246066729E+03 -0.31839476325E+03 -0.53325102789E+03  0.96797713645E+03  0.10100000352E+00 0.  1.
</event>
<event>
 5   0  0.5198430E-04  0.1691273E+04  0.7818609E-02  0.8766358E-01
        2   -1    0    0  501    0  0.00000000000E+00  0.00000000000E+00  0.18046668564E+04  0.18046668564E+04  0.25500000920E-02 0.  1.
       -2   -1    0    0    0  501  0.00000000000E+00  0.00000000000E+00 -0.39625091815E+03  0.39625091815E+03  0.25500000920E-02 0. -1.
    10030    2    1    2    0    0  0.00000000000E+00  0.00000000000E+00  0.14084159383E+04  0.22009177746E+04  0.16912727738E+04 0.  0.
        4    1    3    3  502    0  0.50169281117E+03  0.16583608457E+03 -0.15497288772E+03  0.55065006361E+03  0.12699999809E+01 0. -1.
       -4    1    3    3    0  502 -0.50169281117E+03 -0.16583608457E+03  0.15633888260E+04  0.16502677110E+04  0.12699999809E+01 0.  1.
</event>
<event>
 5   0  0.5342255E-04  0.1679983E+04  0.7818609E-02  0.8772864E-01
        2   -1    0    0  501    0  0.00000000000E+00  0.00000000000E+00  0.18043693892E+04  0.18043693892E+04  0.25500000920E-02 0. -1.
       -2   -1    0    0    0  501  0.00000000000E+00  0.00000000000E+00 -0.39104264863E+03  0.39104264864E+03  0.25500000920E-02 0.  1.
    10030    2    1    2    0    0  0.00000000000E+00  0.00000000000E+00  0.14133267405E+04  0.21954120378E+04  0.16799826012E+04 0.  0.
        5    1    3    3  502    0 -0.42718489664E+03  0.32240464591E+03 -0.13936799018E+03  0.55306167677E+03  0.46999998093E+01 0.  1.
       -5    1    3    3    0  502  0.42718489664E+03 -0.32240464591E+03  0.15526947307E+04  0.16423503611E+04  0.46999998093E+01 0. -1.
</event>
<event>
 5   0  0.5310003E-04  0.1740924E+04  0.7818609E-02  0.8738362E-01
        2   -1    0    0  501    0  0.00000000000E+00  0.00000000000E+00  0.64328691130E+03  0.64328691130E+03  0.25500000920E-02 0. -1.
       -2   -1    0    0    0  501  0.00000000000E+00  0.00000000000E+00 -0.11778634622E+04  0.11778634622E+04  0.25500000920E-02 0.  1.
    10030    2    1    2    0    0  0.00000000000E+00  0.00000000000E+00 -0.53457655091E+03  0.18211503735E+04  0.17409240633E+04 0.  0.
        1    1    3    3  502    0 -0.11695717892E+03 -0.17278770089E+03 -0.11513175603E+04  0.11700712355E+04  0.50400001928E-02 0.  1.
       -1    1    3    3    0  502  0.11695717892E+03  0.17278770089E+03  0.61674100943E+03  0.65107913806E+03  0.50400001928E-02 0. -1.
</event>
<event>
 5   0  0.2630135E-04  0.1696805E+04  0.7818609E-02  0.8763188E-01
        1   -1    0    0  501    0  0.00000000000E+00  0.00000000000E+00  0.97106620597E+03  0.97106620598E+03  0.50400001928E-02 0.  1.
       -1   -1    0    0    0  501  0.00000000000E+00  0.00000000000E+00 -0.74123383218E+03  0.74123383220E+03  0.50400001928E-02 0. -1.
    10030    2    1    2    0    0  0.00000000000E+00  0.00000000000E+00  0.22983237379E+03  0.17123000382E+04  0.16968053809E+04 0.  0.
        1    1    3    3  502    0 -0.16024175204E+02  0.25268243080E+03  0.93205237537E+03  0.96582959961E+03  0.50400001928E-02 0.  1.
       -1    1    3    3    0  502  0.16024175204E+02 -0.25268243080E+03 -0.70222000157E+03  0.74647043857E+03  0.50400001928E-02 0. -1.
</event>
<event>
 5   0  0.1910750E-04  0.1618169E+04  0.7818609E-02  0.8809463E-01
        4   -1    0    0  501    0  0.00000000000E+00  0.00000000000E+00  0.12383068950E+04  0.12383075463E+04  0.12699999809E+01 0.  1.
       -4   -1    0    0    0  501  0.00000000000E+00  0.00000000000E+00 -0.52863796882E+03  0.52863949434E+03  0.12699999809E+01 0. -1.
    10030    2    1    2    0    0  0.00000000000E+00  0.00000000000E+00  0.70966892619E+03  0.17669470406E+04  0.16181692926E+04 0.  0.
        5    1    3    3  502    0 -0.36399176948E+03  0.16697189861E+03  0.11224830989E+04  0.11917885804E+04  0.46999998093E+01 0.  1.
       -5    1    3    3    0  502  0.36399176948E+03 -0.16697189861E+03 -0.41281417267E+03  0.57515846019E+03  0.46999998093E+01 0. -1.
</event>
<event>
 5   0  0.2595644E-04  0.1722806E+04  0.7818609E-02  0.8748463E-01
       -1   -1    0    0    0  501  0.00000000000E+00  0.00000000000E+00  0.11625160450E+04  0.11625160450E+04  0.50400001928E-02 0.  1.
        1   -1    0    0  501    0  0.00000000000E+00  0.00000000000E+00 -0.63828390041E+03  0.63828390043E+03  0.50400001928E-02 0. -1.
    10030    2    1    2    0    0  0.00000000000E+00  0.00000000000E+00  0.52423214456E+03  0.18007999454E+04  0.17228061708E+04 0.  0.
        2    1    3    3  502    0  0.64882435171E+03  0.71866414764E+01 -0.33009319543E+03  0.72800151433E+03  0.25500000920E-02 0. -1.
       -2    1    3    3    0  502 -0.64882435171E+03 -0.71866414764E+01  0.85432533999E+03  0.10727984311E+04  0.25500000920E-02 0.  1.
</event>
<event>
 5   0  0.5021349E-04  0.1697868E+04  0.7818609E-02  0.8762581E-01
        2   -1    0    0  501    0  0.00000000000E+00  0.00000000000E+00  0.61290934357E+03  0.61290934357E+03  0.25500000920E-02 0. -1.
       -2   -1    0    0    0  501  0.00000000000E+00  0.00000000000E+00 -0.11758486556E+04  0.11758486556E+04  0.25500000920E-02 0.  1.
    10030    2    1    2    0    0  0.00000000000E+00  0.00000000000E+00 -0.56293931203E+03  0.17887579992E+04  0.16978676364E+04 0.  0.
        2    1    3    3  502    0  0.13809131535E+03 -0.32833994513E+03 -0.10933132200E+04  0.11498739618E+04  0.25500000920E-02 0.  1.
       -2    1    3    3    0  502 -0.13809131535E+03  0.32833994513E+03  0.53037390799E+03  0.63888403738E+03  0.25500000920E-02 0. -1.
</event>
<event>
 5   0  0.5198430E-04  0.1709576E+04  0.7818609E-02  0.8755922E-01
        2   -1    0    0  501    0  0.00000000000E+00  0.00000000000E+00  0.58509699567E+03  0.58509699568E+03  0.25500000920E-02 0.  1.
       -2   -1    0    0    0  501  0.00000000000E+00  0.00000000000E+00 -0.12487884041E+04  0.12487884041E+04  0.25500000920E-02 0. -1.
    10030    2    1    2    0    0  0.00000000000E+00  0.00000000000E+00 -0.66369140846E+03  0.18338853998E+04  0.17095757877E+04 0.  0.
        4    1    3    3  502    0 -0.32709646186E+02  0.83532056074E+03 -0.52322928727E+03  0.98620528295E+03  0.12699999809E+01 0. -1.
       -4    1    3    3    0  502  0.32709646186E+02 -0.83532056074E+03 -0.14046212119E+03  0.84768011687E+03  0.12699999809E+01 0.  1.
</event>
<event>
 5   0  0.5342255E-04  0.1699525E+04  0.7818609E-02  0.8761635E-01
       -2   -1    0    0    0  501  0.00000000000E+00  0.00000000000E+00  0.84375814806E+03  0.84375814806E+03  0.25500000920E-02 0. -1.
        2   -1    0    0  501    0  0.00000000000E+00  0.00000000000E+00 -0.85580956031E+03  0.85580956031E+03  0.25500000920E-02 0.  1.
    10030    2    1    2    0    0  0.00000000000E+00  0.00000000000E+00 -0.12051412246E+02  0.16995677084E+04  0.16995249803E+04 0.  0.
        5    1    3    3  502    0  0.52107838288E+03 -0.25286326979E+03  0.61577098522E+03  0.84537477520E+03  0.46999998093E+01 0. -1.
       -5    1    3    3    0  502 -0.52107838288E+03  0.25286326979E+03 -0.62782239747E+03  0.85419293317E+03  0.46999998093E+01 0.  1.
</event>
<event>
 5   0  0.2561518E-04  0.2151896E+04  0.7818609E-02  0.8538721E-01
       -1   -1    0    0    0  501  0.00000000000E+00  0.00000000000E+00  0.81769287876E+03  0.81769287878E+03  0.50400001928E-02 0. -1.
        1   -1    0    0  501    0  0.00000000000E+00  0.00000000000E+00 -0.14157685406E+04  0.14157685406E+04  0.50400001928E-02 0.  1.
    10030    2    1    2    0    0  0.00000000000E+00  0.00000000000E+00 -0.59807566180E+03  0.22334614194E+04  0.21518957722E+04 0.  0.
        4    1    3    3  502    0  0.67676927219E+03  0.51238635850E+03  0.38716185267E+03  0.93298035414E+03  0.12699999809E+01 0. -1.
       -4    1    3    3    0  502 -0.67676927219E+03 -0.51238635850E+03 -0.98523751447E+03  0.13004810652E+04  0.12699999809E+01 0.  1.
</event>
<event>
 5   0  0.2561518E-04  0.1878846E+04  0.7818609E-02  0.8665458E-01
        1   -1    0    0  501    0  0.00000000000E+00  0.00000000000E+00  0.13108049837E+04  0.13108049837E+04  0.50400001928E-02 0.  1.
       -1   -1    0    0    0  501  0.00000000000E+00  0.00000000000E+00 -0.67326222432E+03  0.67326222434E+03  0.50400001928E-02 0. -1.
    10030    2    1    2    0    0  0.00000000000E+00  0.00000000000E+00  0.63754275941E+03  0.19840672081E+04  0.18788459000E+04 0.  0.
        4    1    3    3  502    0  0.13962554828E+03 -0.63837920193E+03 -0.39392558887E+03  0.76302180942E+03  0.12699999809E+01 0. -1.
       -4    1    3    3    0  502 -0.13962554828E+03  0.63837920193E+03  0.10314683483E+04  0.12210453987E+04  0.12699999809E+01 0.  1.
</event>
<event>
 5   0  0.5021349E-04  0.1712164E+04  0.7818609E-02  0.8754457E-01
       -2   -1    0    0    0  501  0.00000000000E+00  0.00000000000E+00  0.50468572601E+03  0.50468572602E+03  0.25500000920E-02 0. -1.
        2   -1    0    0  501    0  0.00000000000E+00  0.00000000000E+00 -0.14521447759E+04  0.14521447759E+04  0.25500000920E-02 0.  1.
    10030    2    1    2    0    0  0.00000000000E+00  0.00000000000E+00 -0.94745904991E+03  0.19568305020E+04  0.17121644086E+04 0.  0.
        2    1    3    3  502    0 -0.42619941865E+03  0.26658763908E+03 -0.12656864477E+04  0.13618653009E+04  0.25500000920E-02 0.  1.
       -2    1    3    3    0  502  0.42619941865E+03 -0.26658763908E+03  0.31822739781E+03  0.59496520108E+03  0.25500000920E-02 0. -1.
</event>
<event>
 5   0  0.5310003E-04  0.1679281E+04  0.7818609E-02  0.8773270E-01
       -2   -1    0    0    0  501  0.00000000000E+00  0.00000000000E+00  0.42539699035E+03  0.42539699036E+03  0.25500000920E-02 0.  1.
        2   -1    0    0  501    0  0.00000000000E+00  0.00000000000E+00 -0.16572667122E+04  0.16572667122E+04  0.25500000920E-02 0. -1.
    10030    2    1    2    0    0  0.00000000000E+00  0.00000000000E+00 -0.12318697219E+04  0.20826637026E+04  0.16792811219E+04 0.  0.
        1    1    3    3  502    0  0.50299109472E+03 -0.44490133499E+03  0.91846614846E+01  0.67158141522E+03  0.50400001928E-02 0.  1.
       -1    1    3    3    0  502 -0.50299109472E+03  0.44490133499E+03 -0.12410543834E+04  0.14110822874E+04  0.50400001928E-02 0. -1.
</event>
<event>
 5   0  0.5310003E-04  0.1714940E+04  0.7818609E-02  0.8752889E-01
        2   -1    0    0  501    0  0.00000000000E+00  0.00000000000E+00  0.12889333878E+04  0.12889333878E+04  0.25500000920E-02 0.  1.
       -2   -1    0    0    0  501  0.00000000000E+00  0.00000000000E+00 -0.57043647834E+03  0.57043647834E+03  0.25500000920E-02 0. -1.
    10030    2    1    2    0    0  0.00000000000E+00  0.00000000000E+00  0.71849690948E+03  0.18593698662E+04  0.17149397920E+04 0.  0.
        1    1    3    3  502    0  0.26991074146E+03 -0.57102745738E+02 -0.52100235528E+03  0.58953879106E+03  0.50400001928E-02 0. -1.
       -1    1    3    3    0  502 -0.26991074146E+03  0.57102745738E+02  0.12394992648E+04  0.12698310751E+04  0.50400001928E-02 0.  1.
</event>
<event>
 5   0  0.2595644E-04  0.1704253E+04  0.7818609E-02  0.8758942E-01
        1   -1    0    0  501    0  0.00000000000E+00  0.00000000000E+00  0.67928167010E+03  0.67928167011E+03  0.50400001928E-02 0.  1.
       -1   -1    0    0    0  501  0.00000000000E+00  0.00000000000E+00 -0.10689521297E+04  0.10689521297E+04  0.50400001928E-02 0. -1.
    10030    2    1    2    0    0  0.00000000000E+00  0.00000000000E+00 -0.38967045956E+03  0.17482337998E+04  0.17042530187E+04 0.  0.
        2    1    3    3  502    0  0.27854018510E+03 -0.31140278143E+02 -0.10203164617E+04  0.10581115413E+04  0.25500000920E-02 0. -1.
       -2    1    3    3    0  502 -0.27854018510E+03  0.31140278143E+02  0.63064600218E+03  0.69012225852E+03  0.25500000920E-02 0.  1.
</event>
<event>
 5   0  0.5342255E-04  0.1708661E+04  0.7818609E-02  0.8756440E-01
       -2   -1    0    0    0  501  0.00000000000E+00  0.00000000000E+00  0.56648803735E+03  0.56648803736E+03  0.25500000920E-02 0. -1.
        2   -1    0    0  501    0  0.00000000000E+00  0.00000000000E+00 -0.12884306041E+04  0.12884306041E+04  0.25500000920E-02 0.  1.
    10030    2    1    2    0    0  0.00000000000E+00  0.00000000000E+00 -0.72194256675E+03  0.18549186415E+04  0.17086609075E+04 0.  0.
        5    1    3    3  502    0 -0.76765826386E+03 -0.29233942201E+03 -0.10615187022E+03  0.82828247433E+03  0.46999998093E+01 0. -1.
       -5    1    3    3    0  502  0.76765826386E+03  0.29233942201E+03 -0.61579069653E+03  0.10266361671E+04  0.46999998093E+01 0.  1.
</event>
<event>
 5   0  0.2561518E-04  0.1714669E+04  0.7818609E-02  0.8753042E-01
        1   -1    0    0  501    0  0.00000000000E+00  0.00000000000E+00  0.68738425479E+03  0.68738425481E+03  0.50400001928E-02 0. -1.
       -1   -1    0    0    0  501  0.00000000000E+00  0.00000000000E+00 -0.10693034900E+04  0.10693034900E+04  0.50400001928E-02 0.  1.
    10030    2    1    2    0    0  0.00000000000E+00  0.00000000000E+00 -0.38191923520E+03  0.17566877448E+04  0.17146689274E+04 0.  0.
        4    1    3    3  502    0  0.13982945159E+03 -0.34128679994E+03 -0.98387115559E+03  0.10507297555E+04  0.12699999809E+01 0.  1.
       -4    1    3    3    0  502 -0.13982945159E+03  0.34128679994E+03  0.60195192039E+03  0.70595798934E+03  0.12699999809E+01 0. -1.
</event>
<event>
 5   0  0.2630135E-04  0.1533340E+04  0.7818609E-02  0.8862580E-01
        1   -1    0    0  501    0  0.00000000000E+00  0.00000000000E+00  0.19340876598E+04  0.19340876598E+04  0.50400001928E-02 0.  1.
       -1   -1    0    0    0  501  0.00000000000E+00  0.00000000000E+00 -0.30390687004E+03  0.30390687008E+03  0.50400001928E-02 0. -1.
    10030    2    1    2    0    0  0.00000000000E+00  0.00000000000E+00  0.16301807898E+04  0.22379945299E+04  0.15333395281E+04 0.  0.
        1    1    3    3  502    0  0.43273284508E+03  0.33270637154E+03  0.29324240699E+02  0.54663621907E+03  0.50400001928E-02 0. -1.
       -1    1    3    3    0  502 -0.43273284508E+03 -0.33270637154E+03  0.16008565491E+04  0.16913583109E+04  0.50400001928E-02 0.  1.
</event>
<event>
 5   0  0.2630135E-04  0.1623983E+04  0.7818609E-02  0.8805948E-01
       -1   -1    0    0    0  501  0.00000000000E+00  0.00000000000E+00  0.10122405473E+04  0.10122405473E+04  0.50400001928E-02 0.  1.
        1   -1    0    0  501    0  0.00000000000E+00  0.00000000000E+00 -0.65135717280E+03  0.65135717282E+03  0.50400001928E-02 0. -1.
    10030    2    1    2    0    0  0.00000000000E+00  0.00000000000E+00  0.36088337449E+03  0.16635977201E+04  0.16239829323E+04 0.  0.
        1    1    3    3  502    0 -0.31229954023E+03 -0.69436484957E+03  0.46956141221E+03  0.89451744925E+03  0.50400001928E-02 0.  1.
       -1    1    3    3    0  502  0.31229954023E+03  0.69436484957E+03 -0.10867803772E+03  0.76908027088E+03  0.50400001928E-02 0. -1.
</event>
<event>
 5   0  0.2595644E-04  0.1695214E+04  0.7818609E-02  0.8764099E-01
        1   -1    0    0  501    0  0.00000000000E+00  0.00000000000E+00  0.20736065543E+04  0.20736065543E+04  0.50400001928E-02 0. -1.
       -1   -1    0    0    0  501  0.00000000000E+00  0.00000000000E+00 -0.34646763421E+03  0.34646763425E+03  0.50400001928E-02 0.  1.
    10030    2    1    2    0    0  0.00000000000E+00  0.00000000000E+00  0.17271389201E+04  0.24200741885E+04  0.16952139183E+04 0.  0.
        2    1    3    3  502    0 -0.57035005878E+03 -0.10724609401E+03 -0.18350564710E+02  0.58063556338E+03  0.25500000920E-02 0.  1.
       -2    1    3    3    0  502  0.57035005878E+03  0.10724609401E+03  0.17454894848E+04  0.18394386252E+04  0.25500000920E-02 0. -1.
</event>
<event>
 5   0  0.2630135E-04  0.1721738E+04  0.7818609E-02  0.8749063E-01
        1   -1    0    0  501    0  0.00000000000E+00  0.00000000000E+00  0.80532896802E+03  0.80532896804E+03  0.50400001928E-02 0. -1.
       -1   -1    0    0    0  501  0.00000000000E+00  0.00000000000E+00 -0.92023910759E+03  0.92023910760E+03  0.50400001928E-02 0.  1.
    10030    2    1    2    0    0  0.00000000000E+00  0.00000000000E+00 -0.11491013956E+03  0.17255680756E+04  0.17217377395E+04 0.  0.
        1    1    3    3  502    0  0.49191716498E+03 -0.20535642532E+03  0.62002321159E+03  0.81766896820E+03  0.50400001928E-02 0.  1.
       -1    1    3    3    0  502 -0.49191716498E+03  0.20535642532E+03 -0.73493335116E+03  0.90789910744E+03  0.50400001928E-02 0. -1.
</event>
<event>
 5   0  0.5299877E-04  0.1690024E+04  0.7818609E-02  0.8767075E-01
        2   -1    0    0  501    0  0.00000000000E+00  0.00000000000E+00  0.79612502153E+03  0.79612502153E+03  0.25500000920E-02 0. -1.
       -2   -1    0    0    0  501  0.00000000000E+00  0.00000000000E+00 -0.89690072092E+03  0.89690072092E+03  0.25500000920E-02 0.  1.
    10030    2    1    2    0    0  0.00000000000E+00  0.00000000000E+00 -0.10077569939E+03  0.16930257425E+04  0.16900237936E+04 0.  0.
        3    1    3    3  502    0  0.59330986179E+01 -0.73764896086E+03  0.36251402954E+03  0.82193529121E+03  0.10100000352E+00 0. -1.
       -3    1    3    3    0  502 -0.59330986179E+01  0.73764896086E+03 -0.46328972893E+03  0.87109045125E+03  0.10100000352E+00 0.  1.
</event>
<event>
 5   0  0.2583422E-04  0.1493960E+04  0.7818609E-02  0.8888480E-01
        1   -1    0    0  501    0  0.00000000000E+00  0.00000000000E+00  0.96233052849E+03  0.96233052850E+03  0.50400001928E-02 0.  1.
       -1   -1    0    0    0  501  0.00000000000E+00  0.00000000000E+00 -0.57982045851E+03  0.57982045854E+03  0.50400001928E-02 0. -1.
    10030    2    1    2    0    0  0.00000000000E+00  0.00000000000E+00  0.38251006998E+03  0.15421509870E+04  0.14939597428E+04 0.  0.
        3    1    3    3  502    0  0.15652253089E+03 -0.64449072400E+03  0.54601431657E+03  0.85906882152E+03  0.10100000352E+00 0.  1.
       -3    1    3    3    0  502 -0.15652253089E+03  0.64449072400E+03 -0.16350424660E+03  0.68308216552E+03  0.10100000352E+00 0. -1.
</event>
<event>
 5   0  0.5198430E-04  0.1731734E+04  0.7818609E-02  0.8743470E-01
       -2   -1    0    0    0  501  0.00000000000E+00  0.00000000000E+00  0.37295243047E+03  0.37295243047E+03  0.25500000920E-02 0. -1.
        2   -1    0    0  501    0  0.00000000000E+00  0.00000000000E+00 -0.20102440989E+04  0.20102440989E+04  0.25500000920E-02 0.  1.
    10030    2    1    2    0    0  0.00000000000E+00  0.00000000000E+00 -0.16372916684E+04  0.23831965294E+04  0.17317337238E+04 0.  0.
        4    1    3    3  502    0  0.83805218337E+02 -0.94114998588E+02 -0.19975548267E+04  0.20015263790E+04  0.12699999809E+01 0.  1.
       -4    1    3    3    0  502 -0.83805218337E+02  0.94114998588E+02  0.36026315823E+03  0.38167015033E+03  0.12699999809E+01 0. -1.
</event>
<event>
 5   0  0.5299877E-04  0.1715369E+04  0.7818609E-02  0.8752647E-01
        2   -1    0    0  501    0  0.00000000000E+00  0.00000000000E+00  0.90892901731E+03  0.90892901731E+03  0.25500000920E-02 0. -1.
       -2   -1    0    0    0  501  0.00000000000E+00  0.00000000000E+00 -0.80932918671E+03  0.80932918671E+03  0.25500000920E-02 0.  1.
    10030    2    1    2    0    0  0.00000000000E+00  0.00000000000E+00  0.99599830602E+02  0.17182582040E+04  0.17153690942E+04 0.  0.
        3    1    3    3  502    0  0.15545714112E+03 -0.71011417427E+03  0.50575191776E+03  0.88555862355E+03  0.10100000352E+00 0. -1.
       -3    1    3    3    0  502 -0.15545714112E+03  0.71011417427E+03 -0.40615208716E+03  0.83269958047E+03  0.10100000352E+00 0.  1.
</event>
<event>
 5   0  0.5021349E-04  0.1700356E+04  0.7818609E-02  0.8761161E-01
        2   -1    0    0  501    0  0.00000000000E+00  0.00000000000E+00  0.78905143444E+03  0.78905143445E+03  0.25500000920E-02 0.  1.
       -2   -1    0    0    0  501  0.00000000000E+00  0.00000000000E+00 -0.91604007542E+03  0.91604007542E+03  0.25500000920E-02 0. -1.
    10030    2    1    2    0    0  0.00000000000E+00  0.00000000000E+00 -0.12698864097E+03  0.17050915099E+04  0.17003561221E+04 0.  0.
        2    1    3    3  502    0 -0.31765978126E+02  0.59177997463E+03 -0.67477389095E+03  0.89807150030E+03  0.25500000920E-02 0. -1.
       -2    1    3    3    0  502  0.31765978126E+02 -0.59177997463E+03  0.54778524997E+03  0.80702000957E+03  0.25500000920E-02 0.  1.
</event>
<event>
 5   0  0.2785059E-04  0.1657676E+04  0.7818609E-02  0.8785878E-01
        1   -1    0    0  501    0  0.00000000000E+00  0.00000000000E+00  0.11425722446E+04  0.11425722446E+04  0.50400001928E-02 0.  1.
       -1   -1    0    0    0  501  0.00000000000E+00  0.00000000000E+00 -0.60125085318E+03  0.60125085320E+03  0.50400001928E-02 0. -1.
    10030    2    1    2    0    0  0.00000000000E+00  0.00000000000E+00  0.54132139141E+03  0.17438230978E+04  0.16576761287E+04 0.  0.
        5    1    3    3  502    0  0.46450826784E+03 -0.38957473638E+03  0.86519886813E+03  0.10564693926E+04  0.46999998093E+01 0.  1.
       -5    1    3    3    0  502 -0.46450826784E+03  0.38957473638E+03 -0.32387747672E+03  0.68735370519E+03  0.46999998093E+01 0. -1.
</event>
<event>
 5   0  0.2630135E-04  0.1699441E+04  0.7818609E-02  0.8761683E-01
       -1   -1    0    0    0  501  0.00000000000E+00  0.00000000000E+00  0.46591989248E+03  0.46591989250E+03  0.50400001928E-02 0. -1.
        1   -1    0    0  501    0  0.00000000000E+00  0.00000000000E+00 -0.15496758602E+04  0.15496758602E+04  0.50400001928E-02 0.  1.
    10030    2    1    2    0    0  0.00000000000E+00  0.00000000000E+00 -0.10837559678E+04  0.20155957527E+04  0.16994408612E+04 0.  0.
        1    1    3    3  502    0 -0.18641828624E+03 -0.30272896830E+03 -0.14572233886E+04  0.14999655363E+04  0.50400001928E-02 0.  1.
       -1    1    3    3    0  502  0.18641828624E+03  0.30272896830E+03  0.37346742084E+03  0.51563021648E+03  0.50400001928E-02 0. -1.
</event>
<event>
 5   0  0.5198430E-04  0.1692753E+04  0.7818609E-02  0.8765509E-01
        2   -1    0    0  501    0  0.00000000000E+00  0.00000000000E+00  0.11555239264E+04  0.11555239264E+04  0.25500000920E-02 0. -1.
       -2   -1    0    0    0  501  0.00000000000E+00  0.00000000000E+00 -0.61993781474E+03  0.61993781474E+03  0.25500000920E-02 0.  1.
    10030    2    1    2    0    0  0.00000000000E+00  0.00000000000E+00  0.53558611164E+03  0.17754617411E+04  0.16927527614E+04 0.  0.
        4    1    3    3  502    0  0.66437274878E+03  0.15373976205E+03  0.79361054750E+03  0.10463490707E+04  0.12699999809E+01 0. -1.
       -4    1    3    3    0  502 -0.66437274878E+03 -0.15373976205E+03 -0.25802443586E+03  0.72911267041E+03  0.12699999809E+01 0.  1.
</event>
<event>
 5   0  0.5198430E-04  0.1638304E+04  0.7818609E-02  0.8797356E-01
        2   -1    0    0  501    0  0.00000000000E+00  0.00000000000E+00  0.48093007445E+03  0.48093007446E+03  0.25500000920E-02 0.  1.
       -2   -1    0    0    0  501  0.00000000000E+00  0.00000000000E+00 -0.13952333112E+04  0.13952333112E+04  0.25500000920E-02 0. -1.
    10030    2    1    2    0    0  0.00000000000E+00  0.00000000000E+00 -0.91430323679E+03  0.18761633857E+04  0.16383035863E+04 0.  0.
        4    1    3    3  502    0  0.21888662688E+03 -0.21559029251E+03 -0.13267529385E+04  0.13618610437E+04  0.12699999809E+01 0. -1.
       -4    1    3    3    0  502 -0.21888662688E+03  0.21559029251E+03  0.41244970170E+03  0.51430234200E+03  0.12699999809E+01 0.  1.
</event>
<event>
 5   0  0.5342255E-04  0.1712002E+04  0.7818609E-02  0.8754549E-01
        2   -1    0    0  501    0  0.00000000000E+00  0.00000000000E+00  0.11209008641E+04  0.11209008641E+04  0.25500000920E-02 0. -1.
       -2   -1    0    0    0  501  0.00000000000E+00  0.00000000000E+00 -0.65370427271E+03  0.65370427271E+03  0.25500000920E-02 0.  1.
    10030    2    1    2    0    0  0.00000000000E+00  0.00000000000E+00  0.46719659134E+03  0.17746051368E+04  0.17120019674E+04 0.  0.
        5    1    3    3  502    0 -0.15510028942E+03 -0.28761934644E+03 -0.58649253538E+03  0.67139896655E+03  0.46999998093E+01 0.  1.
       -5    1    3    3    0  502  0.15510028942E+03  0.28761934644E+03  0.10536891267E+04  0.11032061702E+04  0.46999998093E+01 0. -1.
</event>
<event>
 5   0  0.5299877E-04  0.1599077E+04  0.7818609E-02  0.8821116E-01
        2   -1    0    0  501    0  0.00000000000E+00  0.00000000000E+00  0.14446407625E+04  0.14446407625E+04  0.25500000920E-02 0. -1.
       -2   -1    0    0    0  501  0.00000000000E+00  0.00000000000E+00 -0.44250546027E+03  0.44250546028E+03  0.25500000920E-02 0.  1.
    10030    2    1    2    0    0  0.00000000000E+00  0.00000000000E+00  0.10021353022E+04  0.18871462227E+04  0.15990765154E+04 0.  0.
        3    1    3    3  502    0  0.12463047357E+03  0.55855209967E+03 -0.15786085016E+03  0.59366089749E+03  0.10100000352E+00 0.  1.
       -3    1    3    3    0  502 -0.12463047357E+03 -0.55855209967E+03  0.11599961524E+04  0.12934853253E+04  0.10100000352E+00 0. -1.
</event>
<event>
 5   0  0.5198430E-04  0.1663401E+04  0.7818609E-02  0.8782518E-01
       -2   -1    0    0    0  501  0.00000000000E+00  0.00000000000E+00  0.44121149402E+03  0.44121149402E+03  0.25500000920E-02 0.  1.
        2   -1    0    0  501    0  0.00000000000E+00  0.00000000000E+00 -0.15677864138E+04  0.15677864138E+04  0.25500000920E-02 0. -1.
    10030    2    1    2    0    0  0.00000000000E+00  0.00000000000E+00 -0.11265749197E+04  0.20089979078E+04  0.16634005963E+04 0.  0.
        4    1    3    3  502    0 -0.57442473669E+03  0.24100573101E+03  0.10227379675E+03  0.63127575821E+03  0.12699999809E+01 0.  1.
       -4    1    3    3    0  502  0.57442473669E+03 -0.24100573101E+03 -0.12288487165E+04  0.13777221496E+04  0.12699999809E+01 0. -1.
</event>
<event>
 5   0  0.2785059E-04  0.1306692E+04  0.7818609E-02  0.9024275E-01
       -1   -1    0    0    0  501  0.00000000000E+00  0.00000000000E+00  0.68928272265E+03  0.68928272267E+03  0.50400001928E-02 0.  1.
        1   -1    0    0  501    0  0.00000000000E+00  0.00000000000E+00 -0.61928313670E+03  0.61928313672E+03  0.50400001928E-02 0. -1.
    10030    2    1    2    0    0  0.00000000000E+00  0.00000000000E+00  0.69999585956E+02  0.13085658594E+04  0.13066922615E+04 0.  0.
        5    1    3    3  502    0  0.49314740125E+03  0.41452696832E+03  0.14383915892E+03  0.66010511319E+03  0.46999998093E+01 0. -1.
       -5    1    3    3    0  502 -0.49314740125E+03 -0.41452696832E+03 -0.73839572964E+02  0.64846074620E+03  0.46999998093E+01 0.  1.
</event>
<event>
 5   0  0.2595644E-04  0.1708021E+04  0.7818609E-02  0.8756803E-01
        1   -1    0    0  501    0  0.00000000000E+00  0.00000000000E+00  0.76446722401E+03  0.76446722403E+03  0.50400001928E-02 0. -1.
       -1   -1    0    0    0  501  0.00000000000E+00  0.00000000000E+00 -0.95404173203E+03  0.95404173204E+03  0.50400001928E-02 0.  1.
    10030    2    1    2    0    0  0.00000000000E+00  0.00000000000E+00 -0.18957450802E+03  0.17185089561E+04  0.17080206492E+04 0.  0.
        2    1    3    3  502    0 -0.19649561931E+03 -0.32923460172E+03 -0.86257716530E+03  0.94395196779E+03  0.25500000920E-02 0.  1.
       -2    1    3    3    0  502  0.19649561931E+03  0.32923460172E+03  0.67300265729E+03  0.77455698828E+03  0.25500000920E-02 0. -1.
</event>
<event>
 5   0  0.5198430E-04  0.1690158E+04  0.7818609E-02  0.8766997E-01
        2   -1    0    0  501    0  0.00000000000E+00  0.00000000000E+00  0.23555282995E+04  0.23555282995E+04  0.25500000920E-02 0.  1.
       -2   -1    0    0    0  501  0.00000000000E+00  0.00000000000E+00 -0.30318413588E+03  0.30318413589E+03  0.25500000920E-02 0. -1.
    10030    2    1    2    0    0  0.00000000000E+00  0.00000000000E+00  0.20523441636E+04  0.26587124354E+04  0.16901583500E+04 0.  0.
        4    1    3    3  502    0  0.65437656770E+03  0.37025357039E+03  0.41924831243E+03  0.86085257688E+03  0.12699999809E+01 0.  1.
       -4    1    3    3    0  502 -0.65437656770E+03 -0.37025357039E+03  0.16330958512E+04  0.17978598585E+04  0.12699999809E+01 0. -1.
</event>
<event>
 5   0  0.5299877E-04  0.1671663E+04  0.7818609E-02  0.8777693E-01
        2   -1    0    0  501    0  0.00000000000E+00  0.00000000000E+00  0.13102208941E+04  0.13102208941E+04  0.25500000920E-02 0.  1.
       -2   -1    0    0    0  501  0.00000000000E+00  0.00000000000E+00 -0.53320345489E+03  0.53320345490E+03  0.25500000920E-02 0. -1.
    10030    2    1    2    0    0  0.00000000000E+00  0.00000000000E+00  0.77701743922E+03  0.18434243490E+04  0.16716630132E+04 0.  0.
        3    1    3    3  502    0 -0.19757634091E+03  0.24552091242E+03 -0.46517651798E+03  0.56187732825E+03  0.10100000352E+00 0. -1.
       -3    1    3    3    0  502  0.19757634091E+03 -0.24552091242E+03  0.12421939572E+04  0.12815470208E+04  0.10100000352E+00 0.  1.
</event>
<event>
 5   0  0.1910750E-04  0.1736505E+04  0.7818609E-02  0.8740814E-01
       -3   -1    0    0    0  501  0.00000000000E+00  0.00000000000E+00  0.17246660765E+04  0.17246660795E+04  0.10100000352E+00 0. -1.
        3   -1    0    0  501    0  0.00000000000E+00  0.00000000000E+00 -0.43710645717E+03  0.43710646884E+03  0.10100000352E+00 0.  1.
    10030    2    1    2    0    0  0.00000000000E+00  0.00000000000E+00  0.12875596194E+04  0.21617725483E+04  0.17365053347E+04 0.  0.
        2    1    3    3  502    0 -0.61071448911E+03 -0.30363056552E+03 -0.25112966263E+02  0.68249129563E+03  0.25500000920E-02 0. -1.
       -2    1    3    3    0  502  0.61071448911E+03  0.30363056552E+03  0.13126725856E+04  0.14792812527E+04  0.25500000920E-02 0.  1.
</event>
<event>
 5   0  0.5021349E-04  0.1678843E+04  0.7818609E-02  0.8773524E-01
        2   -1    0    0  501    0  0.00000000000E+00  0.00000000000E+00  0.13579570467E+04  0.13579570467E+04  0.25500000920E-02 0. -1.
       -2   -1    0    0    0  501  0.00000000000E+00  0.00000000000E+00 -0.51888873658E+03  0.51888873659E+03  0.25500000920E-02 0.  1.
    10030    2    1    2    0    0  0.00000000000E+00  0.00000000000E+00  0.83906831008E+03  0.18768457833E+04  0.16788431925E+04 0.  0.
        2    1    3    3  502    0  0.65279989331E+01  0.41514876579E+03  0.12351228395E+04  0.13030424173E+04  0.25500000920E-02 0. -1.
       -2    1    3    3    0  502 -0.65279989331E+01 -0.41514876579E+03 -0.39605452944E+03  0.57380336597E+03  0.25500000920E-02 0.  1.
</event>
<event>
 5   0  0.5198430E-04  0.1721306E+04  0.7818609E-02  0.8749305E-01
       -2   -1    0    0    0  501  0.00000000000E+00  0.00000000000E+00  0.10112120018E+04  0.10112120018E+04  0.25500000920E-02 0. -1.
        2   -1    0    0  501    0  0.00000000000E+00  0.00000000000E+00 -0.73251058610E+03  0.73251058610E+03  0.25500000920E-02 0.  1.
    10030    2    1    2    0    0  0.00000000000E+00  0.00000000000E+00  0.27870141573E+03  0.17437225879E+04  0.17213058951E+04 0.  0.
        4    1    3    3  502    0 -0.39800560165E+03 -0.75942173352E+03  0.63596798111E+02  0.85975344949E+03  0.12699999809E+01 0.  1.
       -4    1    3    3    0  502  0.39800560165E+03  0.75942173352E+03  0.21510461762E+03  0.88396913844E+03  0.12699999809E+01 0. -1.
</event>
<event>
 5   0  0.2630135E-04  0.1695042E+04  0.7818609E-02  0.8764197E-01
       -1   -1    0    0    0  501  0.00000000000E+00  0.00000000000E+00  0.99875241013E+03  0.99875241014E+03  0.50400001928E-02 0.  1.
        1   -1    0    0  501    0  0.00000000000E+00  0.00000000000E+00 -0.71918924204E+03  0.71918924205E+03  0.50400001928E-02 0. -1.
    10030    2    1    2    0    0  0.00000000000E+00  0.00000000000E+00  0.27956316809E+03  0.17179416522E+04  0.16950421692E+04 0.  0.
        1    1    3    3  502    0 -0.38750789250E+03  0.53228002282E+03  0.68066502900E+03  0.94698958345E+03  0.50400001928E-02 0.  1.
       -1    1    3    3    0  502  0.38750789250E+03 -0.53228002282E+03 -0.40110186091E+03  0.77095206874E+03  0.50400001928E-02 0. -1.
</event>
<event>
 5   0  0.5021349E-04  0.1680497E+04  0.7818609E-02  0.8772566E-01
        2   -1    0    0  501    0  0.00000000000E+00  0.00000000000E+00  0.10306681442E+04  0.10306681442E+04  0.25500000920E-02 0.  1.
       -2   -1    0    0    0  501  0.00000000000E+00  0.00000000000E+00 -0.68500959194E+03  0.68500959195E+03  0.25500000920E-02 0. -1.
    10030    2    1    2    0    0  0.00000000000E+00  0.00000000000E+00  0.34565855230E+03  0.17156777362E+04  0.16804970276E+04 0.  0.
        2    1    3    3  502    0  0.46927286809E+03 -0.64935347109E+03 -0.85732611174E+02  0.80574626016E+03  0.25500000920E-02 0.  1.
       -2    1    3    3    0  502 -0.46927286809E+03  0.64935347109E+03  0.43139116347E+03  0.90993147603E+03  0.25500000920E-02 0. -1.
</event>
<event>
 5   0  0.2785059E-04  0.1689464E+04  0.7818609E-02  0.8767396E-01
       -1   -1    0    0    0  501  0.00000000000E+00  0.00000000000E+00  0.10501405936E+04  0.10501405937E+04  0.50400001928E-02 0.  1.
        1   -1    0    0  501    0  0.00000000000E+00  0.00000000000E+00 -0.67950135594E+03  0.67950135595E+03  0.50400001928E-02 0. -1.
    10030    2    1    2    0    0  0.00000000000E+00  0.00000000000E+00  0.37063923771E+03  0.17296419496E+04  0.16894637698E+04 0.  0.
        5    1    3    3  502    0 -0.90797094095E+02 -0.82889791423E+03  0.47074968053E+02  0.83519698702E+03  0.46999998093E+01 0.  1.
       -5    1    3    3    0  502  0.90797094095E+02  0.82889791423E+03  0.32356426965E+03  0.89444496259E+03  0.46999998093E+01 0. -1.
</event>
<event>
 5   0  0.1910750E-04  0.1659044E+04  0.7818609E-02  0.8785074E-01
       -3   -1    0    0    0  501  0.00000000000E+00  0.00000000000E+00  0.16986406029E+04  0.16986406059E+04  0.10100000352E+00 0. -1.
        3   -1    0    0  501    0  0.00000000000E+00  0.00000000000E+00 -0.40509282627E+03  0.40509283886E+03  0.10100000352E+00 0.  1.
    10030    2    1    2    0    0  0.00000000000E+00  0.00000000000E+00  0.12935477766E+04  0.21037334448E+04  0.16590444708E+04 0.  0.
        5    1    3    3  502    0 -0.51474902163E+03 -0.43101595372E+03  0.12645364369E+04  0.14317177787E+04  0.46999998093E+01 0. -1.
       -5    1    3    3    0  502  0.51474902163E+03  0.43101595372E+03  0.29011339751E+02  0.67201566608E+03  0.46999998093E+01 0.  1.
</event>
<event>
 5   0  0.2630135E-04  0.1712464E+04  0.7818609E-02  0.8754288E-01
        1   -1    0    0  501    0  0.00000000000E+00  0.00000000000E+00  0.21387542148E+04  0.21387542148E+04  0.50400001928E-02 0. -1.
       -1   -1    0    0    0  501  0.00000000000E+00  0.00000000000E+00 -0.34278507409E+03  0.34278507413E+03  0.50400001928E-02 0.  1.
    10030    2    1    2    0    0  0.00000000000E+00  0.00000000000E+00  0.17959691407E+04  0.24815392889E+04  0.17124637480E+04 0.  0.
        1    1    3    3  502    0 -0.63492915593E+03  0.49339460415E+03  0.13243262332E+04  0.15493267055E+04  0.50400001928E-02 0. -1.
       -1    1    3    3    0  502  0.63492915593E+03 -0.49339460415E+03  0.47164290754E+03  0.93221258343E+03  0.50400001928E-02 0.  1.
</event>
<event>
 5   0  0.5342255E-04  0.1701473E+04  0.7818609E-02  0.8760525E-01
        2   -1    0    0  501    0  0.00000000000E+00  0.00000000000E+00  0.16006145194E+04  0.16006145194E+04  0.25500000920E-02 0. -1.
       -2   -1    0    0    0  501  0.00000000000E+00  0.00000000000E+00 -0.45217184605E+03  0.45217184606E+03  0.25500000920E-02 0.  1.
    10030    2    1    2    0    0  0.00000000000E+00  0.00000000000E+00  0.11484426733E+04  0.20527863654E+04  0.17014732699E+04 0.  0.
        5    1    3    3  502    0 -0.21307236600E+03  0.76769763544E+03  0.93408951380E+03  0.12277234226E+04  0.46999998093E+01 0. -1.
       -5    1    3    3    0  502  0.21307236600E+03 -0.76769763544E+03  0.21435315951E+03  0.82506294282E+03  0.46999998093E+01 0.  1.
</event>
<event>
 5   0  0.2785059E-04  0.1675259E+04  0.7818609E-02  0.8775602E-01
       -1   -1    0    0    0  501  0.00000000000E+00  0.00000000000E+00  0.94369545359E+03  0.94369545360E+03  0.50400001928E-02 0.  1.
        1   -1    0    0  501    0  0.00000000000E+00  0.00000000000E+00 -0.74348462675E+03  0.74348462677E+03  0.50400001928E-02 0. -1.
    10030    2    1    2    0    0  0.00000000000E+00  0.00000000000E+00  0.20021082684E+03  0.16871800804E+04  0.16752588601E+04 0.  0.
        5    1    3    3  502    0 -0.62092467392E+02 -0.54154936660E+03 -0.54039963294E+03  0.76758390047E+03  0.46999998093E+01 0. -1.
       -5    1    3    3    0  502  0.62092467392E+02  0.54154936660E+03  0.74061045977E+03  0.91959617991E+03  0.46999998093E+01 0.  1.
</event>
<event>
 5   0  0.5299877E-04  0.1703995E+04  0.7818609E-02  0.8759089E-01
        2   -1    0    0  501    0  0.00000000000E+00  0.00000000000E+00  0.97391869403E+03  0.97391869403E+03  0.25500000920E-02 0.  1.
       -2   -1    0    0    0  501  0.00000000000E+00  0.00000000000E+00 -0.74533903530E+03  0.74533903530E+03  0.25500000920E-02 0. -1.
    10030    2    1    2    0    0  0.00000000000E+00  0.00000000000E+00  0.22857965873E+03  0.17192577293E+04  0.17039948590E+04 0.  0.
        3    1    3    3  502    0 -0.45452366340E+03 -0.63220737097E+03 -0.23467179572E+03  0.81323353498E+03  0.10100000352E+00 0. -1.
       -3    1    3    3    0  502  0.45452366340E+03  0.63220737097E+03  0.46325145445E+03  0.90602419436E+03  0.10100000352E+00 0.  1.
</event>
<event>
 5   0  0.2630135E-04  0.1707379E+04  0.7818609E-02  0.8757167E-01
        1   -1    0    0  501    0  0.00000000000E+00  0.00000000000E+00  0.17065909759E+04  0.17065909759E+04  0.50400001928E-02 0.  1.
       -1   -1    0    0    0  501  0.00000000000E+00  0.00000000000E+00 -0.42704180357E+03  0.42704180360E+03  0.50400001928E-02 0. -1.
    10030    2    1    2    0    0  0.00000000000E+00  0.00000000000E+00  0.12795491723E+04  0.21336327795E+04  0.17073789132E+04 0.  0.
        1    1    3    3  502    0 -0.26845719807E+03  0.17119977618E+03 -0.35006418641E+03  0.47320562676E+03  0.50400001928E-02 0. -1.
       -1    1    3    3    0  502  0.26845719807E+03 -0.17119977618E+03  0.16296133587E+04  0.16604271527E+04  0.50400001928E-02 0.  1.
</event>
<event>
 5   0  0.2583422E-04  0.1819447E+04  0.7818609E-02  0.8696026E-01
        1   -1    0    0  501    0  0.00000000000E+00  0.00000000000E+00  0.11567752225E+04  0.11567752226E+04  0.50400001928E-02 0.  1.
       -1   -1    0    0    0  501  0.00000000000E+00  0.00000000000E+00 -0.71543431908E+03  0.71543431910E+03  0.50400001928E-02 0. -1.
    10030    2    1    2    0    0  0.00000000000E+00  0.00000000000E+00  0.44134090346E+03  0.18722095417E+04  0.18194468321E+04 0.  0.
        3    1    3    3  502    0 -0.28828776795E+03  0.82525901569E+03 -0.38495243367E+02  0.87501095656E+03  0.10100000352E+00 0. -1.
       -3    1    3    3    0  502  0.28828776795E+03 -0.82525901569E+03  0.47983614683E+03  0.99719858511E+03  0.10100000352E+00 0.  1.
</event>
<event>
 5   0  0.5299877E-04  0.1727086E+04  0.7818609E-02  0.8746065E-01
       -2   -1    0    0    0  501  0.00000000000E+00  0.00000000000E+00  0.83762538497E+03  0.83762538498E+03  0.25500000920E-02 0.  1.
        2   -1    0    0  501    0  0.00000000000E+00  0.00000000000E+00 -0.89026252867E+03  0.89026252867E+03  0.25500000920E-02 0. -1.
    10030    2    1    2    0    0  0.00000000000E+00  0.00000000000E+00 -0.52637143698E+02  0.17278879136E+04  0.17270859774E+04 0.  0.
        3    1    3    3  502    0  0.59917628471E+03  0.14757677833E+03 -0.63068130875E+03  0.88235483173E+03  0.10100000352E+00 0. -1.
       -3    1    3    3    0  502 -0.59917628471E+03 -0.14757677833E+03  0.57804416506E+03  0.84553308192E+03  0.10100000352E+00 0.  1.
</event>
<event>
 5   0  0.5342255E-04  0.1707612E+04  0.7818609E-02  0.8757035E-01
       -2   -1    0    0    0  501  0.00000000000E+00  0.00000000000E+00  0.18597779281E+04  0.18597779281E+04  0.25500000920E-02 0. -1.
        2   -1    0    0  501    0  0.00000000000E+00  0.00000000000E+00 -0.39197416751E+03  0.39197416752E+03  0.25500000920E-02 0.  1.
    10030    2    1    2    0    0  0.00000000000E+00  0.00000000000E+00  0.14678037605E+04  0.22517520956E+04  0.17076122571E+04 0.  0.
        5    1    3    3  502    0  0.27436536196E+02  0.84605892824E+03  0.88070762213E+03  0.12215713157E+04  0.46999998093E+01 0.  1.
       -5    1    3    3    0  502 -0.27436536196E+02 -0.84605892824E+03  0.58709613841E+03  0.10301807799E+04  0.46999998093E+01 0. -1.
</event>
<event>
 5   0  0.5342255E-04  0.1872888E+04  0.7818609E-02  0.8668471E-01
        2   -1    0    0  501    0  0.00000000000E+00  0.00000000000E+00  0.82093140583E+03  0.82093140583E+03  0.25500000920E-02 0.  1.
       -2   -1    0    0    0  501  0.00000000000E+00  0.00000000000E+00 -0.10682100984E+04  0.10682100984E+04  0.25500000920E-02 0. -1.
    10030    2    1    2    0    0  0.00000000000E+00  0.00000000000E+00 -0.24727869258E+03  0.18891415042E+04  0.18728878427E+04 0.  0.
        5    1    3    3  502    0  0.40532102590E+03  0.84272240773E+03 -0.17345353195E+03  0.95109116718E+03  0.46999998093E+01 0.  1.
       -5    1    3    3    0  502 -0.40532102590E+03 -0.84272240773E+03 -0.73825160629E+02  0.93805033707E+03  0.46999998093E+01 0. -1.
</event>
<event>
 5   0  0.2561518E-04  0.1705071E+04  0.7818609E-02  0.8758478E-01
       -1   -1    0    0    0  501  0.00000000000E+00  0.00000000000E+00  0.50089875199E+03  0.50089875201E+03  0.50400001928E-02 0.  1.
        1   -1    0    0  501    0  0.00000000000E+00  0.00000000000E+00 -0.14510247868E+04  0.14510247868E+04  0.50400001928E-02 0. -1.
    10030    2    1    2    0    0  0.00000000000E+00  0.00000000000E+00 -0.95012603476E+03  0.19519235388E+04  0.17050706787E+04 0.  0.
        4    1    3    3  502    0  0.33313341720E+03 -0.38465648206E+03 -0.12581066985E+04  0.13571192138E+04  0.12699999809E+01 0. -1.
       -4    1    3    3    0  502 -0.33313341720E+03  0.38465648206E+03  0.30798066373E+03  0.59480432495E+03  0.12699999809E+01 0.  1.
</event>
<event>
 5   0  0.2785059E-04  0.1601956E+04  0.7818609E-02  0.8819347E-01
       -1   -1    0    0    0  501  0.00000000000E+00  0.00000000000E+00  0.45028109285E+03  0.45028109288E+03  0.50400001928E-02 0.  1.
        1   -1    0    0  501    0  0.00000000000E+00  0.00000000000E+00 -0.14248114460E+04  0.14248114460E+04  0.50400001928E-02 0. -1.
    10030    2    1    2    0    0  0.00000000000E+00  0.00000000000E+00 -0.97453035318E+03  0.18750925389E+04  0.16019558734E+04 0.  0.
        5    1    3    3  502    0  0.94510767575E+02 -0.63062528101E+02 -0.14153148605E+04  0.14198758438E+04  0.46999998093E+01 0. -1.
       -5    1    3    3    0  502 -0.94510767575E+02  0.63062528101E+02  0.44078450728E+03  0.45521669509E+03  0.46999998093E+01 0.  1.
</event>
<event>
 5   0  0.2561518E-04  0.1581773E+04  0.7818609E-02  0.8831825E-01
        1   -1    0    0  501    0  0.00000000000E+00  0.00000000000E+00  0.80575371394E+03  0.80575371396E+03  0.50400001928E-02 0. -1.
       -1   -1    0    0    0  501  0.00000000000E+00  0.00000000000E+00 -0.77629339864E+03  0.77629339865E+03  0.50400001928E-02 0.  1.
    10030    2    1    2    0    0  0.00000000000E+00  0.00000000000E+00  0.29460315305E+02  0.15820471126E+04  0.15817727891E+04 0.  0.
        4    1    3    3  502    0  0.85501023950E+02 -0.70967610702E+03  0.35323984684E+03  0.79732716263E+03  0.12699999809E+01 0. -1.
       -4    1    3    3    0  502 -0.85501023950E+02  0.70967610702E+03 -0.32377953153E+03  0.78471994999E+03  0.12699999809E+01 0.  1.
</event>
<event>
 5   0  0.2630135E-04  0.1681120E+04  0.7818609E-02  0.8772206E-01
        1   -1    0    0  501    0  0.00000000000E+00  0.00000000000E+00  0.77264570668E+03  0.77264570669E+03  0.50400001928E-02 0.  1.
       -1   -1    0    0    0  501  0.00000000000E+00  0.00000000000E+00 -0.91444382542E+03  0.91444382544E+03  0.50400001928E-02 0. -1.
    10030    2    1    2    0    0  0.00000000000E+00  0.00000000000E+00 -0.14179811875E+03  0.16870895321E+04  0.16811199787E+04 0.  0.
        1    1    3    3  502    0  0.45672051301E+03  0.39931966947E+03  0.51296690266E+03  0.79447143982E+03  0.50400001928E-02 0.  1.
       -1    1    3    3    0  502 -0.45672051301E+03 -0.39931966947E+03 -0.65476502141E+03  0.89261809231E+03  0.50400001928E-02 0. -1.
</event>
<event>
 5   0  0.2561518E-04  0.1622714E+04  0.7818609E-02  0.8806714E-01
       -1   -1    0    0    0  501  0.00000000000E+00  0.00000000000E+00  0.11193051738E+04  0.11193051738E+04  0.50400001928E-02 0. -1.
        1   -1    0    0  501    0  0.00000000000E+00  0.00000000000E+00 -0.58813310820E+03  0.58813310823E+03  0.50400001928E-02 0.  1.
    10030    2    1    2    0    0  0.00000000000E+00  0.00000000000E+00  0.53117206559E+03  0.17074382820E+04  0.16227143075E+04 0.  0.
        4    1    3    3  502    0  0.35799535401E+03 -0.49389960132E+03 -0.29732371797E+03  0.67860186843E+03  0.12699999809E+01 0.  1.
       -4    1    3    3    0  502 -0.35799535401E+03  0.49389960132E+03  0.82849578356E+03  0.10288364136E+04  0.12699999809E+01 0. -1.
</event>
<event>
 5   0  0.5299877E-04  0.1732641E+04  0.7818609E-02  0.8742964E-01
        2   -1    0    0  501    0  0.00000000000E+00  0.00000000000E+00  0.26017689566E+04  0.26017689566E+04  0.25500000920E-02 0. -1.
       -2   -1    0    0    0  501  0.00000000000E+00  0.00000000000E+00 -0.28846185876E+03  0.28846185877E+03  0.25500000920E-02 0.  1.
    10030    2    1    2    0    0  0.00000000000E+00  0.00000000000E+00  0.23133070978E+04  0.28902308154E+04  0.17326408852E+04 0.  0.
        3    1    3    3  502    0 -0.33215510341E+03 -0.11885793460E+02  0.24911839817E+04  0.25132580301E+04  0.10100000352E+00 0. -1.
       -3    1    3    3    0  502  0.33215510341E+03  0.11885793460E+02 -0.17787688390E+03  0.37697278527E+03  0.10100000352E+00 0.  1.
</event>
<event>
 5   0  0.5342255E-04  0.1693149E+04  0.7818609E-02  0.8765282E-01
        2   -1    0    0  501    0  0.00000000000E+00  0.00000000000E+00  0.18557922494E+04  0.18557922494E+04  0.25500000920E-02 0.  1.
       -2   -1    0    0    0  501  0.00000000000E+00  0.00000000000E+00 -0.38618987933E+03  0.38618987934E+03  0.25500000920E-02 0. -1.
    10030    2    1    2    0    0  0.00000000000E+00  0.00000000000E+00  0.14696023700E+04  0.22419821287E+04  0.16931487647E+04 0.  0.
        5    1    3    3  502    0 -0.68473713138E+03  0.29028481053E+02  0.76766144775E+02  0.68965406023E+03  0.46999998093E+01 0. -1.
       -5    1    3    3    0  502  0.68473713138E+03 -0.29028481053E+02  0.13928362253E+04  0.15523280685E+04  0.46999998093E+01 0.  1.
</event>
<event>
 5   0  0.5342255E-04  0.1683023E+04  0.7818609E-02  0.8771106E-01
       -2   -1    0    0    0  501  0.00000000000E+00  0.00000000000E+00  0.87724167720E+03  0.87724167721E+03  0.25500000920E-02 0. -1.
        2   -1    0    0  501    0  0.00000000000E+00  0.00000000000E+00 -0.80723697245E+03  0.80723697245E+03  0.25500000920E-02 0.  1.
    10030    2    1    2    0    0  0.00000000000E+00  0.00000000000E+00  0.70004704757E+02  0.16844786497E+04  0.16830233696E+04 0.  0.
        5    1    3    3  502    0  0.32484414244E+03  0.67026465106E+03  0.42692926399E+03  0.85852728891E+03  0.46999998093E+01 0. -1.
       -5    1    3    3    0  502 -0.32484414244E+03 -0.67026465106E+03 -0.35692455924E+03  0.82595136075E+03  0.46999998093E+01 0.  1.
</event>
<event>
 5   0  0.2630135E-04  0.1697604E+04  0.7818609E-02  0.8762732E-01
       -1   -1    0    0    0  501  0.00000000000E+00  0.00000000000E+00  0.10269689715E+04  0.10269689715E+04  0.50400001928E-02 0.  1.
        1   -1    0    0  501    0  0.00000000000E+00  0.00000000000E+00 -0.70154494549E+03  0.70154494551E+03  0.50400001928E-02 0. -1.
    10030    2    1    2    0    0  0.00000000000E+00  0.00000000000E+00  0.32542402599E+03  0.17285139170E+04  0.16976040659E+04 0.  0.
        1    1    3    3  502    0 -0.61403028498E+03 -0.51951637019E+03  0.43882184553E+03  0.91623963127E+03  0.50400001928E-02 0.  1.
       -1    1    3    3    0  502  0.61403028498E+03  0.51951637019E+03 -0.11339781954E+03  0.81227428574E+03  0.50400001928E-02 0. -1.
</event>
<event>
 5   0  0.5310003E-04  0.1694557E+04  0.7818609E-02  0.8764475E-01
       -2   -1    0    0    0  501  0.00000000000E+00  0.00000000000E+00  0.71800574356E+03  0.71800574356E+03  0.25500000920E-02 0. -1.
        2   -1    0    0  501    0  0.00000000000E+00  0.00000000000E+00 -0.99982625228E+03  0.99982625229E+03  0.25500000920E-02 0.  1.
    10030    2    1    2    0    0  0.00000000000E+00  0.00000000000E+00 -0.28182050873E+03  0.17178319958E+04  0.16945571595E+04 0.  0.
        1    1    3    3  502    0 -0.64772242899E+03 -0.41195159694E+03  0.22266964742E+03  0.79926856259E+03  0.50400001928E-02 0. -1.
       -1    1    3    3    0  502  0.64772242899E+03  0.41195159694E+03 -0.50449015614E+03  0.91856343325E+03  0.50400001928E-02 0.  1.
</event>
<event>
 5   0  0.5310003E-04  0.1690001E+04  0.7818609E-02  0.8767088E-01
       -2   -1    0    0    0  501  0.00000000000E+00  0.00000000000E+00  0.71396511816E+03  0.71396511817E+03  0.25500000920E-02 0. -1.
        2   -1    0    0  501    0  0.00000000000E+00  0.00000000000E+00 -0.10000855825E+04  0.10000855825E+04  0.25500000920E-02 0.  1.
    10030    2    1    2    0    0  0.00000000000E+00  0.00000000000E+00 -0.28612046438E+03  0.17140507007E+04  0.16900014451E+04 0.  0.
        1    1    3    3  502    0  0.50350395227E+03  0.67352490142E+03 -0.22715086411E+03  0.87106230425E+03  0.50400001928E-02 0.  1.
       -1    1    3    3    0  502 -0.50350395227E+03 -0.67352490142E+03 -0.58969600268E+02  0.84298839646E+03  0.50400001928E-02 0. -1.
</event>
<event>
 5   0  0.2583422E-04  0.1691091E+04  0.7818609E-02  0.8766462E-01
       -1   -1    0    0    0  501  0.00000000000E+00  0.00000000000E+00  0.62558708078E+03  0.62558708080E+03  0.50400001928E-02 0. -1.
        1   -1    0    0  501    0  0.00000000000E+00  0.00000000000E+00 -0.11428417185E+04  0.11428417185E+04  0.50400001928E-02 0.  1.
    10030    2    1    2    0    0  0.00000000000E+00  0.00000000000E+00 -0.51725463768E+03  0.17684287993E+04  0.16910907894E+04 0.  0.
        3    1    3    3  502    0  0.91236937813E+02  0.69044306029E+03  0.24279160963E+03  0.73755242135E+03  0.10100000352E+00 0. -1.
       -3    1    3    3    0  502 -0.91236937813E+02 -0.69044306029E+03 -0.76004624731E+03  0.10308763779E+04  0.10100000352E+00 0.  1.
</event>
<event>
 5   0  0.5198430E-04  0.1576232E+04  0.7818609E-02  0.8835284E-01
       -2   -1    0    0    0  501  0.00000000000E+00  0.00000000000E+00  0.41398901735E+03  0.41398901736E+03  0.25500000920E-02 0. -1.
        2   -1    0    0  501    0  0.00000000000E+00  0.00000000000E+00 -0.15003454296E+04  0.15003454296E+04  0.25500000920E-02 0.  1.
    10030    2    1    2    0    0  0.00000000000E+00  0.00000000000E+00 -0.10863564123E+04  0.19143344470E+04  0.15762316202E+04 0.  0.
        4    1    3    3  502    0 -0.26835703640E+03  0.52731444280E+03  0.89119491744E+02  0.59834765586E+03  0.12699999809E+01 0. -1.
       -4    1    3    3    0  502  0.26835703640E+03 -0.52731444280E+03 -0.11754759040E+04  0.13159867911E+04  0.12699999809E+01 0.  1.
</event>
<event>
 5   0  0.2595644E-04  0.1709498E+04  0.7818609E-02  0.8755966E-01
       -1   -1    0    0    0  501  0.00000000000E+00  0.00000000000E+00  0.56161479261E+03  0.56161479263E+03  0.50400001928E-02 0. -1.
        1   -1    0    0  501    0  0.00000000000E+00  0.00000000000E+00 -0.13008842573E+04  0.13008842573E+04  0.50400001928E-02 0.  1.
    10030    2    1    2    0    0  0.00000000000E+00  0.00000000000E+00 -0.73926946470E+03  0.18624990500E+04  0.17094979876E+04 0.  0.
        2    1    3    3  502    0 -0.19052203493E+02  0.74722188902E+03  0.82071084307E+02  0.75195691418E+03  0.25500000920E-02 0. -1.
       -2    1    3    3    0  502  0.19052203493E+02 -0.74722188902E+03 -0.82134054901E+03  0.11105421358E+04  0.25500000920E-02 0.  1.
</event>
<event>
 5   0  0.5021349E-04  0.1635044E+04  0.7818609E-02  0.8799304E-01
        2   -1    0    0  501    0  0.00000000000E+00  0.00000000000E+00  0.20583811956E+04  0.20583811956E+04  0.25500000920E-02 0.  1.
       -2   -1    0    0    0  501  0.00000000000E+00  0.00000000000E+00 -0.32469326443E+03  0.32469326444E+03  0.25500000920E-02 0. -1.
    10030    2    1    2    0    0  0.00000000000E+00  0.00000000000E+00  0.17336879312E+04  0.23830744600E+04  0.16350443540E+04 0.  0.
        2    1    3    3  502    0 -0.24580542550E+02 -0.30799896557E+02 -0.32330824201E+03  0.32570086898E+03  0.25500000920E-02 0. -1.
       -2    1    3    3    0  502  0.24580542550E+02  0.30799896557E+02  0.20569961732E+04  0.20573735911E+04  0.25500000920E-02 0.  1.
</event>
<event>
 5   0  0.2630135E-04  0.1721041E+04  0.7818609E-02  0.8749454E-01
       -1   -1    0    0    0  501  0.00000000000E+00  0.00000000000E+00  0.73217507583E+03  0.73217507585E+03  0.50400001928E-02 0.  1.
        1   -1    0    0  501    0  0.00000000000E+00  0.00000000000E+00 -0.10113636397E+04  0.10113636397E+04  0.50400001928E-02 0. -1.
    10030    2    1    2    0    0  0.00000000000E+00  0.00000000000E+00 -0.27918856384E+03  0.17435387155E+04  0.17210406731E+04 0.  0.
        1    1    3    3  502    0 -0.71653902565E+03  0.65542625392E+02 -0.61775073473E+03  0.94833537386E+03  0.50400001928E-02 0. -1.
       -1    1    3    3    0  502  0.71653902565E+03 -0.65542625392E+02  0.33856217089E+03  0.79520334168E+03  0.50400001928E-02 0.  1.
</event>
<event>
 5   0  0.5021349E-04  0.1713337E+04  0.7818609E-02  0.8753794E-01
       -2   -1    0    0    0  501  0.00000000000E+00  0.00000000000E+00  0.50290495371E+03  0.50290495371E+03  0.25500000920E-02 0. -1.
        2   -1    0    0  501    0  0.00000000000E+00  0.00000000000E+00 -0.14592842865E+04  0.14592842865E+04  0.25500000920E-02 0.  1.
    10030    2    1    2    0    0  0.00000000000E+00  0.00000000000E+00 -0.95637933277E+03  0.19621892402E+04  0.17133374408E+04 0.  0.
        2    1    3    3  502    0 -0.10354435806E+03  0.84011453926E+03 -0.32726310404E+03  0.90753237541E+03  0.25500000920E-02 0. -1.
       -2    1    3    3    0  502  0.10354435806E+03 -0.84011453926E+03 -0.62911622873E+03  0.10546568648E+04  0.25500000920E-02 0.  1.
</event>
<event>
 5   0  0.5342255E-04  0.1683531E+04  0.7818609E-02  0.8770813E-01
        2   -1    0    0  501    0  0.00000000000E+00  0.00000000000E+00  0.14276687808E+04  0.14276687808E+04  0.25500000920E-02 0.  1.
       -2   -1    0    0    0  501  0.00000000000E+00  0.00000000000E+00 -0.49631191983E+03  0.49631191984E+03  0.25500000920E-02 0. -1.
    10030    2    1    2    0    0  0.00000000000E+00  0.00000000000E+00  0.93135686097E+03  0.19239807006E+04  0.16835308533E+04 0.  0.
        5    1    3    3  502    0 -0.34640517805E+03 -0.29311941707E+03  0.12759011944E+04  0.13542014208E+04  0.46999998093E+01 0.  1.
       -5    1    3    3    0  502  0.34640517805E+03  0.29311941707E+03 -0.34454433347E+03  0.56977927987E+03  0.46999998093E+01 0. -1.
</event>
<event>
 5   0  0.5342255E-04  0.1693576E+04  0.7818609E-02  0.8765037E-01
        2   -1    0    0  501    0  0.00000000000E+00  0.00000000000E+00  0.42289826545E+03  0.42289826546E+03  0.25500000920E-02 0. -1.
       -2   -1    0    0    0  501  0.00000000000E+00  0.00000000000E+00 -0.16955617547E+04  0.16955617547E+04  0.25500000920E-02 0.  1.
    10030    2    1    2    0    0  0.00000000000E+00  0.00000000000E+00 -0.12726634893E+04  0.21184600202E+04  0.16935762458E+04 0.  0.
        5    1    3    3  502    0 -0.23974651893E+03  0.28812760739E+03  0.31345755841E+03  0.48864469955E+03  0.46999998093E+01 0. -1.
       -5    1    3    3    0  502  0.23974651893E+03 -0.28812760739E+03 -0.15861210477E+04  0.16298153206E+04  0.46999998093E+01 0.  1.
</event>
<event>
 5   0  0.5342255E-04  0.1703564E+04  0.7818609E-02  0.8759334E-01
        2   -1    0    0  501    0  0.00000000000E+00  0.00000000000E+00  0.41659966860E+03  0.41659966861E+03  0.25500000920E-02 0.  1.
       -2   -1    0    0    0  501  0.00000000000E+00  0.00000000000E+00 -0.17415580259E+04  0.17415580259E+04  0.25500000920E-02 0. -1.
    10030    2    1    2    0    0  0.00000000000E+00  0.00000000000E+00 -0.13249583573E+04  0.21581576945E+04  0.17035639072E+04 0.  0.
        5    1    3    3  502    0  0.37229187325E+03  0.68038975010E+03 -0.21641357962E+03  0.80522566922E+03  0.46999998093E+01 0.  1.
       -5    1    3    3    0  502 -0.37229187325E+03 -0.68038975010E+03 -0.11085447777E+04  0.13529320253E+04  0.46999998093E+01 0. -1.
</event>
<event>
 5   0  0.2630135E-04  0.1684188E+04  0.7818609E-02  0.8770434E-01
        1   -1    0    0  501    0  0.00000000000E+00  0.00000000000E+00  0.92151892780E+03  0.92151892781E+03  0.50400001928E-02 0.  1.
       -1   -1    0    0    0  501  0.00000000000E+00  0.00000000000E+00 -0.76951504306E+03  0.76951504307E+03  0.50400001928E-02 0. -1.
    10030    2    1    2    0    0  0.00000000000E+00  0.00000000000E+00  0.15200388474E+03  0.16910339709E+04  0.16841884425E+04 0.  0.
        1    1    3    3  502    0 -0.87129681091E+02  0.81154243220E+03 -0.13203572537E+03  0.82681686811E+03  0.50400001928E-02 0.  1.
       -1    1    3    3    0  502  0.87129681091E+02 -0.81154243220E+03  0.28403961011E+03  0.86421710278E+03  0.50400001928E-02 0. -1.
</event>
<event>
 5   0  0.2630135E-04  0.1703990E+04  0.7818609E-02  0.8759092E-01
       -1   -1    0    0    0  501  0.00000000000E+00  0.00000000000E+00  0.45632896708E+03  0.45632896711E+03  0.50400001928E-02 0.  1.
        1   -1    0    0  501    0  0.00000000000E+00  0.00000000000E+00 -0.15907281632E+04  0.15907281633E+04  0.50400001928E-02 0. -1.
    10030    2    1    2    0    0  0.00000000000E+00  0.00000000000E+00 -0.11343991962E+04  0.20470571304E+04  0.17039898353E+04 0.  0.
        1    1    3    3  502    0 -0.65514083809E+03 -0.16691038243E+03 -0.11900721615E+04  0.13687002386E+04  0.50400001928E-02 0. -1.
       -1    1    3    3    0  502  0.65514083809E+03  0.16691038243E+03  0.55672965349E+02  0.67835689176E+03  0.50400001928E-02 0.  1.
</event>
<event>
 5   0  0.2583422E-04  0.1763052E+04  0.7818609E-02  0.8726199E-01
        1   -1    0    0  501    0  0.00000000000E+00  0.00000000000E+00  0.89853874214E+03  0.89853874215E+03  0.50400001928E-02 0. -1.
       -1   -1    0    0    0  501  0.00000000000E+00  0.00000000000E+00 -0.86483505941E+03  0.86483505943E+03  0.50400001928E-02 0.  1.
    10030    2    1    2    0    0  0.00000000000E+00  0.00000000000E+00  0.33703682722E+02  0.17633738016E+04  0.17630516799E+04 0.  0.
        3    1    3    3  502    0  0.18796245800E+03 -0.18413369429E+03 -0.82464169757E+03  0.86560328243E+03  0.10100000352E+00 0.  1.
       -3    1    3    3    0  502 -0.18796245800E+03  0.18413369429E+03  0.85834538029E+03  0.89777051915E+03  0.10100000352E+00 0. -1.
</event>
<event>
 5   0  0.5310003E-04  0.1728498E+04  0.7818609E-02  0.8745276E-01
       -2   -1    0    0    0  501  0.00000000000E+00  0.00000000000E+00  0.40866264901E+03  0.40866264902E+03  0.25500000920E-02 0.  1.
        2   -1    0    0  501    0  0.00000000000E+00  0.00000000000E+00 -0.18277338754E+04  0.18277338754E+04  0.25500000920E-02 0. -1.
    10030    2    1    2    0    0  0.00000000000E+00  0.00000000000E+00 -0.14190712264E+04  0.22363965244E+04  0.17284982699E+04 0.  0.
        1    1    3    3  502    0 -0.20380082898E+03 -0.80837877917E+03 -0.10043363346E+04  0.13052595533E+04  0.50400001928E-02 0. -1.
       -1    1    3    3    0  502  0.20380082898E+03  0.80837877917E+03 -0.41473489183E+03  0.93113697114E+03  0.50400001928E-02 0.  1.
</event>
<event>
 5   0  0.2785059E-04  0.1711980E+04  0.7818609E-02  0.8754561E-01
        1   -1    0    0  501    0  0.00000000000E+00  0.00000000000E+00  0.17143266657E+04  0.17143266657E+04  0.50400001928E-02 0. -1.
       -1   -1    0    0    0  501  0.00000000000E+00  0.00000000000E+00 -0.42740929854E+03  0.42740929857E+03  0.50400001928E-02 0.  1.
    10030    2    1    2    0    0  0.00000000000E+00  0.00000000000E+00  0.12869173671E+04  0.21417359642E+04  0.17119803243E+04 0.  0.
        5    1    3    3  502    0  0.20194097320E+02 -0.51831746701E+03  0.14952944318E+04  0.15827154912E+04  0.46999998093E+01 0. -1.
       -5    1    3    3    0  502 -0.20194097320E+02  0.51831746701E+03 -0.20837706472E+03  0.55902047304E+03  0.46999998093E+01 0.  1.
</event>
<event>
 5   0  0.5310003E-04  0.1682153E+04  0.7818609E-02  0.8771609E-01
       -2   -1    0    0    0  501  0.00000000000E+00  0.00000000000E+00  0.71525044169E+03  0.71525044169E+03  0.25500000920E-02 0. -1.
        2   -1    0    0  501    0  0.00000000000E+00  0.00000000000E+00 -0.98903789122E+03  0.98903789122E+03  0.25500000920E-02 0.  1.
    10030    2    1    2    0    0  0.00000000000E+00  0.00000000000E+00 -0.27378744953E+03  0.17042883329E+04  0.16821531304E+04 0.  0.
        1    1    3    3  502    0 -0.22009032967E+02  0.84068937152E+03 -0.12380978301E+03  0.85004228089E+03  0.50400001928E-02 0.  1.
       -1    1    3    3    0  502  0.22009032967E+02 -0.84068937152E+03 -0.14997766653E+03  0.85424605202E+03  0.50400001928E-02 0. -1.
</event>
<event>
 5   0  0.5299877E-04  0.1695819E+04  0.7818609E-02  0.8763752E-01
       -2   -1    0    0    0  501  0.00000000000E+00  0.00000000000E+00  0.53964291697E+03  0.53964291698E+03  0.25500000920E-02 0. -1.
        2   -1    0    0  501    0  0.00000000000E+00  0.00000000000E+00 -0.13322715715E+04  0.13322715715E+04  0.25500000920E-02 0.  1.
    10030    2    1    2    0    0  0.00000000000E+00  0.00000000000E+00 -0.79262865450E+03  0.18719144885E+04  0.16958194680E+04 0.  0.
        3    1    3    3  502    0  0.62830476410E+03  0.21824002632E+03  0.18417922278E+03  0.69015765010E+03  0.10100000352E+00 0. -1.
       -3    1    3    3    0  502 -0.62830476410E+03 -0.21824002632E+03 -0.97680787729E+03  0.11817568384E+04  0.10100000352E+00 0.  1.
</event>
<event>
 5   0  0.5021349E-04  0.1718005E+04  0.7818609E-02  0.8751162E-01
        2   -1    0    0  501    0  0.00000000000E+00  0.00000000000E+00  0.12328624432E+04  0.12328624432E+04  0.25500000920E-02 0. -1.
       -2   -1    0    0    0  501  0.00000000000E+00  0.00000000000E+00 -0.59851354204E+03  0.59851354204E+03  0.25500000920E-02 0.  1.
    10030    2    1    2    0    0  0.00000000000E+00  0.00000000000E+00  0.63434890116E+03  0.18313759852E+04  0.17180045026E+04 0.  0.
        2    1    3    3  502    0 -0.34274478826E+03  0.41467872270E+03  0.10310317595E+04  0.11629526740E+04  0.25500000920E-02 0. -1.
       -2    1    3    3    0  502  0.34274478826E+03 -0.41467872270E+03 -0.39668285830E+03  0.66842331124E+03  0.25500000920E-02 0.  1.
</event>
<event>
 5   0  0.2595644E-04  0.1698905E+04  0.7818609E-02  0.8761989E-01
        1   -1    0    0  501    0  0.00000000000E+00  0.00000000000E+00  0.66808083437E+03  0.66808083439E+03  0.50400001928E-02 0. -1.
       -1   -1    0    0    0  501  0.00000000000E+00  0.00000000000E+00 -0.10800629112E+04  0.10800629113E+04  0.50400001928E-02 0.  1.
    10030    2    1    2    0    0  0.00000000000E+00  0.00000000000E+00 -0.41198207687E+03  0.17481437456E+04  0.16989047424E+04 0.  0.
        2    1    3    3  502    0  0.25419802099E+03 -0.39940723674E+03 -0.93171689358E+03  0.10451024564E+04  0.25500000920E-02 0.  1.
       -2    1    3    3    0  502 -0.25419802099E+03  0.39940723674E+03  0.51973481671E+03  0.70304128922E+03  0.25500000920E-02 0. -1.
</event>
<event>
 5   0  0.5342255E-04  0.1655400E+04  0.7818609E-02  0.8787218E-01
       -2   -1    0    0    0  501  0.00000000000E+00  0.00000000000E+00  0.97281198397E+03  0.97281198397E+03  0.25500000920E-02 0. -1.
        2   -1    0    0  501    0  0.00000000000E+00  0.00000000000E+00 -0.70423396112E+03  0.70423396112E+03  0.25500000920E-02 0.  1.
    10030    2    1    2    0    0  0.00000000000E+00  0.00000000000E+00  0.26857802285E+03  0.16770459451E+04  0.16553999358E+04 0.  0.
        5    1    3    3  502    0 -0.36920100703E+03  0.10220198212E+03 -0.60900127905E+03  0.71948542489E+03  0.46999998093E+01 0.  1.
       -5    1    3    3    0  502  0.36920100703E+03 -0.10220198212E+03  0.87757930190E+03  0.95756052021E+03  0.46999998093E+01 0. -1.
</event>
<event>
 5   0  0.1910750E-04  0.1707414E+04  0.7818609E-02  0.8757147E-01
        3   -1    0    0  501    0  0.00000000000E+00  0.00000000000E+00  0.11665422316E+04  0.11665422360E+04  0.10100000352E+00 0. -1.
       -3   -1    0    0    0  501  0.00000000000E+00  0.00000000000E+00 -0.62476599069E+03  0.62476599886E+03  0.10100000352E+00 0.  1.
    10030    2    1    2    0    0  0.00000000000E+00  0.00000000000E+00  0.54177624093E+03  0.17913082349E+04  0.17074143308E+04 0.  0.
        4    1    3    3  502    0 -0.52301338623E+03  0.67055718986E+03  0.19220743734E+03  0.87185736156E+03  0.12699999809E+01 0. -1.
       -4    1    3    3    0  502  0.52301338623E+03 -0.67055718986E+03  0.34956880360E+03  0.91945087329E+03  0.12699999809E+01 0.  1.
</event>
<event>
 5   0  0.5342255E-04  0.1695988E+04  0.7818609E-02  0.8763656E-01
       -2   -1    0    0    0  501  0.00000000000E+00  0.00000000000E+00  0.52954118815E+03  0.52954118816E+03  0.25500000920E-02 0.  1.
        2   -1    0    0  501    0  0.00000000000E+00  0.00000000000E+00 -0.13579570071E+04  0.13579570071E+04  0.25500000920E-02 0. -1.
    10030    2    1    2    0    0  0.00000000000E+00  0.00000000000E+00 -0.82841581894E+03  0.18874981953E+04  0.16959884045E+04 0.  0.
        5    1    3    3  502    0  0.75447461602E+03 -0.90478558860E+02  0.46606098800E+01  0.75990928875E+03  0.46999998093E+01 0. -1.
       -5    1    3    3    0  502 -0.75447461602E+03  0.90478558860E+02 -0.83307642882E+03  0.11275889065E+04  0.46999998093E+01 0.  1.
</event>
<event>
 5   0  0.5310003E-04  0.1702736E+04  0.7818609E-02  0.8759806E-01
       -2   -1    0    0    0  501  0.00000000000E+00  0.00000000000E+00  0.54338900671E+03  0.54338900671E+03  0.25500000920E-02 0.  1.
        2   -1    0    0  501    0  0.00000000000E+00  0.00000000000E+00 -0.13339009627E+04  0.13339009627E+04  0.25500000920E-02 0. -1.
    10030    2    1    2    0    0  0.00000000000E+00  0.00000000000E+00 -0.79051195597E+03  0.18772899694E+04  0.17027355862E+04 0.  0.
        1    1    3    3  502    0  0.80704993901E+03  0.23956143498E+03 -0.25532859266E+03  0.87972266962E+03  0.50400001928E-02 0.  1.
       -1    1    3    3    0  502 -0.80704993901E+03 -0.23956143498E+03 -0.53518336332E+03  0.99756729978E+03  0.50400001928E-02 0. -1.
</event>
<event>
 5   0  0.5198430E-04  0.1719711E+04  0.7818609E-02  0.8750202E-01
       -2   -1    0    0    0  501  0.00000000000E+00  0.00000000000E+00  0.62735847579E+03  0.62735847580E+03  0.25500000920E-02 0. -1.
        2   -1    0    0  501    0  0.00000000000E+00  0.00000000000E+00 -0.11785152908E+04  0.11785152909E+04  0.25500000920E-02 0.  1.
    10030    2    1    2    0    0  0.00000000000E+00  0.00000000000E+00 -0.55115681506E+03  0.18058737667E+04  0.17197110880E+04 0.  0.
        4    1    3    3  502    0  0.70857428432E+03  0.46116803090E+03 -0.44026882467E+03  0.95320077633E+03  0.12699999809E+01 0.  1.
       -4    1    3    3    0  502 -0.70857428432E+03 -0.46116803090E+03 -0.11088799039E+03  0.85267299032E+03  0.12699999809E+01 0. -1.
</event>
<event>
 5   0  0.2595644E-04  0.1707304E+04  0.7818609E-02  0.8757210E-01
       -1   -1    0    0    0  501  0.00000000000E+00  0.00000000000E+00  0.42994200488E+03  0.42994200491E+03  0.50400001928E-02 0.  1.
        1   -1    0    0  501    0  0.00000000000E+00  0.00000000000E+00 -0.16949295032E+04  0.16949295032E+04  0.50400001928E-02 0. -1.
    10030    2    1    2    0    0  0.00000000000E+00  0.00000000000E+00 -0.12649874983E+04  0.21248715082E+04  0.17073035920E+04 0.  0.
        2    1    3    3  502    0 -0.26153375880E+03 -0.41063323413E+03  0.24022203535E+03  0.54288690004E+03  0.25500000920E-02 0.  1.
       -2    1    3    3    0  502  0.26153375880E+03  0.41063323413E+03 -0.15052095337E+04  0.15819846081E+04  0.25500000920E-02 0. -1.
</event>
<event>
 5   0  0.2595644E-04  0.2010562E+04  0.7818609E-02  0.8601699E-01
       -1   -1    0    0    0  501  0.00000000000E+00  0.00000000000E+00  0.10203749148E+04  0.10203749148E+04  0.50400001928E-02 0. -1.
        1   -1    0    0  501    0  0.00000000000E+00  0.00000000000E+00 -0.99041022254E+03  0.99041022255E+03  0.50400001928E-02 0.  1.
    10030    2    1    2    0    0  0.00000000000E+00  0.00000000000E+00  0.29964692223E+02  0.20107851373E+04  0.20105618582E+04 0.  0.
        2    1    3    3  502    0 -0.79524017008E+02  0.81296686949E+03 -0.57104394235E+03  0.99665961304E+03  0.25500000920E-02 0.  1.
       -2    1    3    3    0  502  0.79524017008E+02 -0.81296686949E+03  0.60100863457E+03  0.10141255243E+04  0.25500000920E-02 0. -1.
</event>
<event>
 5   0  0.5342255E-04  0.1721832E+04  0.7818609E-02  0.8749010E-01
        2   -1    0    0  501    0  0.00000000000E+00  0.00000000000E+00  0.13586639971E+04  0.13586639971E+04  0.25500000920E-02 0. -1.
       -2   -1    0    0    0  501  0.00000000000E+00  0.00000000000E+00 -0.54551869555E+03  0.54551869556E+03  0.25500000920E-02 0.  1.
    10030    2    1    2    0    0  0.00000000000E+00  0.00000000000E+00  0.81314530158E+03  0.19041826927E+04  0.17218322931E+04 0.  0.
        5    1    3    3  502    0 -0.67130794912E+01  0.85449151151E+03  0.52231663783E+03  0.10015176328E+04  0.46999998093E+01 0. -1.
       -5    1    3    3    0  502  0.67130794912E+01 -0.85449151151E+03  0.29082866375E+03  0.90266505988E+03  0.46999998093E+01 0.  1.
</event>
<event>
 5   0  0.5299877E-04  0.1702994E+04  0.7818609E-02  0.8759658E-01
       -2   -1    0    0    0  501  0.00000000000E+00  0.00000000000E+00  0.81690613221E+03  0.81690613221E+03  0.25500000920E-02 0.  1.
        2   -1    0    0  501    0  0.00000000000E+00  0.00000000000E+00 -0.88755291727E+03  0.88755291728E+03  0.25500000920E-02 0. -1.
    10030    2    1    2    0    0  0.00000000000E+00  0.00000000000E+00 -0.70646785066E+02  0.17044590495E+04  0.17029943286E+04 0.  0.
        3    1    3    3  502    0  0.48179960241E+03 -0.35910800520E+03  0.56848480019E+03  0.82720275298E+03  0.10100000352E+00 0.  1.
       -3    1    3    3    0  502 -0.48179960241E+03  0.35910800520E+03 -0.63913158526E+03  0.87725629651E+03  0.10100000352E+00 0. -1.
</event>
<event>
 5   0  0.2595644E-04  0.1696816E+04  0.7818609E-02  0.8763182E-01
       -1   -1    0    0    0  501  0.00000000000E+00  0.00000000000E+00  0.24560881603E+03  0.24560881608E+03  0.50400001928E-02 0.  1.
        1   -1    0    0  501    0  0.00000000000E+00  0.00000000000E+00 -0.29306613736E+04  0.29306613736E+04  0.50400001928E-02 0. -1.
    10030    2    1    2    0    0  0.00000000000E+00  0.00000000000E+00 -0.26850525576E+04  0.31762701897E+04  0.16968161600E+04 0.  0.
        2    1    3    3  502    0  0.35157607576E+03 -0.73200984276E+03 -0.88266279617E+03  0.11993905780E+04  0.25500000920E-02 0. -1.
       -2    1    3    3    0  502 -0.35157607576E+03  0.73200984276E+03 -0.18023897614E+04  0.19768796117E+04  0.25500000920E-02 0.  1.
</event>
<event>
 5   0  0.5021349E-04  0.1702771E+04  0.7818609E-02  0.8759785E-01
       -2   -1    0    0    0  501  0.00000000000E+00  0.00000000000E+00  0.10241966758E+04  0.10241966758E+04  0.25500000920E-02 0.  1.
        2   -1    0    0  501    0  0.00000000000E+00  0.00000000000E+00 -0.70773275726E+03  0.70773275726E+03  0.25500000920E-02 0. -1.
    10030    2    1    2    0    0  0.00000000000E+00  0.00000000000E+00  0.31646391855E+03  0.17319294331E+04  0.17027713145E+04 0.  0.
        2    1    3    3  502    0  0.30419896326E+03 -0.33864088805E+03 -0.57356228397E+03  0.73224883333E+03  0.25500000920E-02 0. -1.
       -2    1    3    3    0  502 -0.30419896326E+03  0.33864088805E+03  0.89002620253E+03  0.99968059974E+03  0.25500000920E-02 0.  1.
</event>
<event>
 5   0  0.2561518E-04  0.1658170E+04  0.7818609E-02  0.8785588E-01
       -1   -1    0    0    0  501  0.00000000000E+00  0.00000000000E+00  0.98053835129E+03  0.98053835130E+03  0.50400001928E-02 0. -1.
        1   -1    0    0  501    0  0.00000000000E+00  0.00000000000E+00 -0.70102470043E+03  0.70102470045E+03  0.50400001928E-02 0.  1.
    10030    2    1    2    0    0  0.00000000000E+00  0.00000000000E+00  0.27951365086E+03  0.16815630518E+04  0.16581695981E+04 0.  0.
        4    1    3    3  502    0 -0.69009169234E+03 -0.73101193969E+02  0.59981959382E+03  0.91725431938E+03  0.12699999809E+01 0. -1.
       -4    1    3    3    0  502  0.69009169234E+03  0.73101193969E+02 -0.32030594296E+03  0.76430873238E+03  0.12699999809E+01 0.  1.
</event>
<event>
 5   0  0.2583422E-04  0.1748954E+04  0.7818609E-02  0.8733926E-01
       -1   -1    0    0    0  501  0.00000000000E+00  0.00000000000E+00  0.85790817128E+03  0.85790817130E+03  0.50400001928E-02 0. -1.
        1   -1    0    0  501    0  0.00000000000E+00  0.00000000000E+00 -0.89136623050E+03  0.89136623052E+03  0.50400001928E-02 0.  1.
    10030    2    1    2    0    0  0.00000000000E+00  0.00000000000E+00 -0.33458059217E+02  0.17492744018E+04  0.17489543994E+04 0.  0.
        3    1    3    3  502    0 -0.61989641944E+03  0.10455351479E+03 -0.62471141636E+03  0.88626597149E+03  0.10100000352E+00 0.  1.
       -3    1    3    3    0  502  0.61989641944E+03 -0.10455351479E+03  0.59125335714E+03  0.86300843033E+03  0.10100000352E+00 0. -1.
</event>
<event>
 5   0  0.5310003E-04  0.1324284E+04  0.7818609E-02  0.9010526E-01
       -2   -1    0    0    0  501  0.00000000000E+00  0.00000000000E+00  0.25711921533E+03  0.25711921534E+03  0.25500000920E-02 0.  1.
        2   -1    0    0  501    0  0.00000000000E+00  0.00000000000E+00 -0.17051706208E+04  0.17051706208E+04  0.25500000920E-02 0. -1.
    10030    2    1    2    0    0  0.00000000000E+00  0.00000000000E+00 -0.14480514054E+04  0.19622898361E+04  0.13242841569E+04 0.  0.
        1    1    3    3  502    0  0.86214505177E+02 -0.10445616970E+02 -0.16966950260E+04  0.16989161436E+04  0.50400001928E-02 0. -1.
       -1    1    3    3    0  502 -0.86214505177E+02  0.10445616970E+02  0.24864362057E+03  0.26337369248E+03  0.50400001928E-02 0.  1.
</event>
<event>
 5   0  0.2595644E-04  0.1700591E+04  0.7818609E-02  0.8761028E-01
        1   -1    0    0  501    0  0.00000000000E+00  0.00000000000E+00  0.53511342288E+03  0.53511342291E+03  0.50400001928E-02 0. -1.
       -1   -1    0    0    0  501  0.00000000000E+00  0.00000000000E+00 -0.13511193580E+04  0.13511193580E+04  0.50400001928E-02 0.  1.
    10030    2    1    2    0    0  0.00000000000E+00  0.00000000000E+00 -0.81600593513E+03  0.18862327809E+04  0.17005906085E+04 0.  0.
        2    1    3    3  502    0  0.69876937788E+03  0.43399925086E+03 -0.64684195128E+03  0.10464408742E+04  0.25500000920E-02 0. -1.
       -2    1    3    3    0  502 -0.69876937788E+03 -0.43399925086E+03 -0.16916398384E+03  0.83979190675E+03  0.25500000920E-02 0.  1.
</event>
<event>
 5   0  0.5310003E-04  0.1689219E+04  0.7818609E-02  0.8767537E-01
        2   -1    0    0  501    0  0.00000000000E+00  0.00000000000E+00  0.10363930375E+04  0.10363930375E+04  0.25500000920E-02 0. -1.
       -2   -1    0    0    0  501  0.00000000000E+00  0.00000000000E+00 -0.68831495047E+03  0.68831495048E+03  0.25500000920E-02 0.  1.
    10030    2    1    2    0    0  0.00000000000E+00  0.00000000000E+00  0.34807808702E+03  0.17247079880E+04  0.16892185439E+04 0.  0.
        1    1    3    3  502    0 -0.22566171422E+03 -0.66573918588E+03  0.65209930829E+03  0.95883542946E+03  0.50400001928E-02 0. -1.
       -1    1    3    3    0  502  0.22566171422E+03  0.66573918588E+03 -0.30402122127E+03  0.76587255852E+03  0.50400001928E-02 0.  1.
</event>
<event>
 5   0  0.5299877E-04  0.1757577E+04  0.7818609E-02  0.8729190E-01
        2   -1    0    0  501    0  0.00000000000E+00  0.00000000000E+00  0.10479984973E+04  0.10479984973E+04  0.25500000920E-02 0. -1.
       -2   -1    0    0    0  501  0.00000000000E+00  0.00000000000E+00 -0.73689937934E+03  0.73689937934E+03  0.25500000920E-02 0.  1.
    10030    2    1    2    0    0  0.00000000000E+00  0.00000000000E+00  0.31109911800E+03  0.17848978767E+04  0.17575772441E+04 0.  0.
        3    1    3    3  502    0  0.25006406941E+03 -0.84240861861E+03  0.16491861167E+03  0.89408191918E+03  0.10100000352E+00 0. -1.
       -3    1    3    3    0  502 -0.25006406941E+03  0.84240861861E+03  0.14618050634E+03  0.89081595751E+03  0.10100000352E+00 0.  1.
</event>
<event>
 5   0  0.2630135E-04  0.1694270E+04  0.7818609E-02  0.8764639E-01
        1   -1    0    0  501    0  0.00000000000E+00  0.00000000000E+00  0.11465040136E+04  0.11465040136E+04  0.50400001928E-02 0.  1.
       -1   -1    0    0    0  501  0.00000000000E+00  0.00000000000E+00 -0.62593529655E+03  0.62593529657E+03  0.50400001928E-02 0. -1.
    10030    2    1    2    0    0  0.00000000000E+00  0.00000000000E+00  0.52056871703E+03  0.17724393102E+04  0.16942695533E+04 0.  0.
        1    1    3    3  502    0  0.38396580217E+03 -0.28512660434E+03 -0.47119741665E+03  0.67138209927E+03  0.50400001928E-02 0. -1.
       -1    1    3    3    0  502 -0.38396580217E+03  0.28512660434E+03  0.99176613367E+03  0.11010572109E+04  0.50400001928E-02 0.  1.
</event>
<event>
 5   0  0.2630135E-04  0.1543503E+04  0.7818609E-02  0.8856028E-01
        1   -1    0    0  501    0  0.00000000000E+00  0.00000000000E+00  0.53940092346E+03  0.53940092348E+03  0.50400001928E-02 0. -1.
       -1   -1    0    0    0  501  0.00000000000E+00  0.00000000000E+00 -0.11041893646E+04  0.11041893646E+04  0.50400001928E-02 0.  1.
    10030    2    1    2    0    0  0.00000000000E+00  0.00000000000E+00 -0.56478844112E+03  0.16435902881E+04  0.15435034991E+04 0.  0.
        1    1    3    3  502    0 -0.76441492457E+03 -0.60624956180E+02 -0.18959259676E+03  0.78990563677E+03  0.50400001928E-02 0. -1.
       -1    1    3    3    0  502  0.76441492457E+03  0.60624956180E+02 -0.37519584436E+03  0.85368465130E+03  0.50400001928E-02 0.  1.
</event>
<event>
 5   0  0.5310003E-04  0.1698927E+04  0.7818609E-02  0.8761976E-01
        2   -1    0    0  501    0  0.00000000000E+00  0.00000000000E+00  0.68460840632E+03  0.68460840632E+03  0.25500000920E-02 0. -1.
       -2   -1    0    0    0  501  0.00000000000E+00  0.00000000000E+00 -0.10540165927E+04  0.10540165927E+04  0.25500000920E-02 0.  1.
    10030    2    1    2    0    0  0.00000000000E+00  0.00000000000E+00 -0.36940818641E+03  0.17386249990E+04  0.16989274496E+04 0.  0.
        1    1    3    3  502    0  0.44435006595E+02 -0.63881937989E+03  0.38648092399E+03  0.74795198681E+03  0.50400001928E-02 0. -1.
       -1    1    3    3    0  502 -0.44435006595E+02  0.63881937989E+03 -0.75588911040E+03  0.99067301224E+03  0.50400001928E-02 0.  1.
</event>
<event>
 5   0  0.2595644E-04  0.1715641E+04  0.7818609E-02  0.8752494E-01
       -1   -1    0    0    0  501  0.00000000000E+00  0.00000000000E+00  0.64712200158E+03  0.64712200160E+03  0.50400001928E-02 0.  1.
        1   -1    0    0  501    0  0.00000000000E+00  0.00000000000E+00 -0.11371209982E+04  0.11371209982E+04  0.50400001928E-02 0. -1.
    10030    2    1    2    0    0  0.00000000000E+00  0.00000000000E+00 -0.48999899663E+03  0.17842429998E+04  0.17156410072E+04 0.  0.
        2    1    3    3  502    0  0.10945961932E+03 -0.54407797272E+02  0.63801825144E+03  0.64962212542E+03  0.25500000920E-02 0.  1.
       -2    1    3    3    0  502 -0.10945961932E+03  0.54407797272E+02 -0.11280172481E+04  0.11346208744E+04  0.25500000920E-02 0. -1.
</event>
<event>
 5   0  0.2630135E-04  0.1710849E+04  0.7818609E-02  0.8755201E-01
        1   -1    0    0  501    0  0.00000000000E+00  0.00000000000E+00  0.84817796611E+03  0.84817796613E+03  0.50400001928E-02 0. -1.
       -1   -1    0    0    0  501  0.00000000000E+00  0.00000000000E+00 -0.86273258879E+03  0.86273258881E+03  0.50400001928E-02 0.  1.
    10030    2    1    2    0    0  0.00000000000E+00  0.00000000000E+00 -0.14554622679E+02  0.17109105549E+04  0.17108486461E+04 0.  0.
        1    1    3    3  502    0 -0.51538494870E+03 -0.67414570241E+03  0.10069278949E+03  0.85453678171E+03  0.50400001928E-02 0.  1.
       -1    1    3    3    0  502  0.51538494870E+03  0.67414570241E+03 -0.11524741217E+03  0.85637377322E+03  0.50400001928E-02 0. -1.
</event>
<event>
 5   0  0.5299877E-04  0.1704264E+04  0.7818609E-02  0.8758936E-01
        2   -1    0    0  501    0  0.00000000000E+00  0.00000000000E+00  0.14117346566E+04  0.14117346566E+04  0.25500000920E-02 0. -1.
       -2   -1    0    0    0  501  0.00000000000E+00  0.00000000000E+00 -0.51435247207E+03  0.51435247207E+03  0.25500000920E-02 0.  1.
    10030    2    1    2    0    0  0.00000000000E+00  0.00000000000E+00  0.89738218452E+03  0.19260871287E+04  0.17042643111E+04 0.  0.
        3    1    3    3  502    0 -0.78541119105E+03 -0.32085251667E+02  0.76889882823E+02  0.78981786931E+03  0.10100000352E+00 0.  1.
       -3    1    3    3    0  502  0.78541119105E+03  0.32085251667E+02  0.82049230170E+03  0.11362692594E+04  0.10100000352E+00 0. -1.
</event>
<event>
 5   0  0.2561518E-04  0.1688757E+04  0.7818609E-02  0.8767803E-01
       -1   -1    0    0    0  501  0.00000000000E+00  0.00000000000E+00  0.93686066718E+03  0.93686066719E+03  0.50400001928E-02 0.  1.
        1   -1    0    0  501    0  0.00000000000E+00  0.00000000000E+00 -0.76102544417E+03  0.76102544418E+03  0.50400001928E-02 0. -1.
    10030    2    1    2    0    0  0.00000000000E+00  0.00000000000E+00  0.17583522301E+03  0.16978861114E+04  0.16887567088E+04 0.  0.
        4    1    3    3  502    0 -0.46746225402E+03  0.62906424491E+03 -0.22799498081E+03  0.81622674995E+03  0.12699999809E+01 0. -1.
       -4    1    3    3    0  502  0.46746225402E+03 -0.62906424491E+03  0.40383020382E+03  0.88165936142E+03  0.12699999809E+01 0.  1.
</event>
<event>
 5   0  0.2561518E-04  0.1728919E+04  0.7818609E-02  0.8745041E-01
       -1   -1    0    0    0  501  0.00000000000E+00  0.00000000000E+00  0.10098207610E+04  0.10098207610E+04  0.50400001928E-02 0.  1.
        1   -1    0    0  501    0  0.00000000000E+00  0.00000000000E+00 -0.74002232217E+03  0.74002232219E+03  0.50400001928E-02 0. -1.
    10030    2    1    2    0    0  0.00000000000E+00  0.00000000000E+00  0.26979843886E+03  0.17498430832E+04  0.17289186269E+04 0.  0.
        4    1    3    3  502    0  0.19170732339E+03 -0.72304890088E+03 -0.30363082283E+03  0.80730706697E+03  0.12699999809E+01 0. -1.
       -4    1    3    3    0  502 -0.19170732339E+03  0.72304890088E+03  0.57342926169E+03  0.94253601627E+03  0.12699999809E+01 0.  1.
</event>
<event>
 5   0  0.2561518E-04  0.1718740E+04  0.7818609E-02  0.8750748E-01
        1   -1    0    0  501    0  0.00000000000E+00  0.00000000000E+00  0.10186271997E+04  0.10186271997E+04  0.50400001928E-02 0. -1.
       -1   -1    0    0    0  501  0.00000000000E+00  0.00000000000E+00 -0.72501152016E+03  0.72501152018E+03  0.50400001928E-02 0.  1.
    10030    2    1    2    0    0  0.00000000000E+00  0.00000000000E+00  0.29361567950E+03  0.17436387199E+04  0.17187396016E+04 0.  0.
        4    1    3    3  502    0 -0.29863181930E+03  0.79385091117E+03  0.28713967880E+03  0.89545018884E+03  0.12699999809E+01 0. -1.
       -4    1    3    3    0  502  0.29863181930E+03 -0.79385091117E+03  0.64760006994E+01  0.84818853101E+03  0.12699999809E+01 0.  1.
</event>
<event>
 5   0  0.5021349E-04  0.1741397E+04  0.7818609E-02  0.8738100E-01
        2   -1    0    0  501    0  0.00000000000E+00  0.00000000000E+00  0.65363688715E+03  0.65363688716E+03  0.25500000920E-02 0. -1.
       -2   -1    0    0    0  501  0.00000000000E+00  0.00000000000E+00 -0.11598431132E+04  0.11598431132E+04  0.25500000920E-02 0.  1.
    10030    2    1    2    0    0  0.00000000000E+00  0.00000000000E+00 -0.50620622606E+03  0.18134800004E+04  0.17413974183E+04 0.  0.
        2    1    3    3  502    0 -0.17226279420E+03  0.82853961920E+03 -0.46643346365E+03  0.96628802480E+03  0.25500000920E-02 0.  1.
       -2    1    3    3    0  502  0.17226279420E+03 -0.82853961920E+03 -0.39772762408E+02  0.84719197558E+03  0.25500000920E-02 0. -1.
</event>
<event>
 5   0  0.5198430E-04  0.1746153E+04  0.7818609E-02  0.8735471E-01
        2   -1    0    0  501    0  0.00000000000E+00  0.00000000000E+00  0.89609337196E+03  0.89609337196E+03  0.25500000920E-02 0. -1.
       -2   -1    0    0    0  501  0.00000000000E+00  0.00000000000E+00 -0.85065053595E+03  0.85065053595E+03  0.25500000920E-02 0.  1.
    10030    2    1    2    0    0  0.00000000000E+00  0.00000000000E+00  0.45442836007E+02  0.17467439079E+04  0.17461526933E+04 0.  0.
        4    1    3    3  502    0  0.28324972878E+03 -0.69919178881E+02 -0.80044333241E+03  0.85195671353E+03  0.12699999809E+01 0.  1.
       -4    1    3    3    0  502 -0.28324972878E+03  0.69919178881E+02  0.84588616841E+03  0.89478719439E+03  0.12699999809E+01 0. -1.
</event>
<event>
 5   0  0.5299877E-04  0.1721687E+04  0.7818609E-02  0.8749091E-01
       -2   -1    0    0    0  501  0.00000000000E+00  0.00000000000E+00  0.46287337134E+03  0.46287337134E+03  0.25500000920E-02 0.  1.
        2   -1    0    0  501    0  0.00000000000E+00  0.00000000000E+00 -0.16009810133E+04  0.16009810133E+04  0.25500000920E-02 0. -1.
    10030    2    1    2    0    0  0.00000000000E+00  0.00000000000E+00 -0.11381076420E+04  0.20638543847E+04  0.17216869391E+04 0.  0.
        3    1    3    3  502    0  0.33802098784E+03 -0.12529560751E+03 -0.15061388096E+04  0.15486805033E+04  0.10100000352E+00 0. -1.
       -3    1    3    3    0  502 -0.33802098784E+03  0.12529560751E+03  0.36803116760E+03  0.51517388133E+03  0.10100000352E+00 0.  1.
</event>
<event>
 5   0  0.2583422E-04  0.1639571E+04  0.7818609E-02  0.8796600E-01
       -1   -1    0    0    0  501  0.00000000000E+00  0.00000000000E+00  0.72439227996E+03  0.72439227998E+03  0.50400001928E-02 0.  1.
        1   -1    0    0  501    0  0.00000000000E+00  0.00000000000E+00 -0.92774037991E+03  0.92774037992E+03  0.50400001928E-02 0. -1.
    10030    2    1    2    0    0  0.00000000000E+00  0.00000000000E+00 -0.20334809995E+03  0.16521326599E+04  0.16395706377E+04 0.  0.
        3    1    3    3  502    0 -0.17229135697E+03 -0.16407954406E+03 -0.89218554800E+03  0.92336421347E+03  0.10100000352E+00 0. -1.
       -3    1    3    3    0  502  0.17229135697E+03  0.16407954406E+03  0.68883744805E+03  0.72876844643E+03  0.10100000352E+00 0.  1.
</event>
<event>
 5   0  0.5342255E-04  0.1665760E+04  0.7818609E-02  0.8781137E-01
        2   -1    0    0  501    0  0.00000000000E+00  0.00000000000E+00  0.13299334130E+04  0.13299334130E+04  0.25500000920E-02 0.  1.
       -2   -1    0    0    0  501  0.00000000000E+00  0.00000000000E+00 -0.52159673127E+03  0.52159673128E+03  0.25500000920E-02 0. -1.
    10030    2    1    2    0    0  0.00000000000E+00  0.00000000000E+00  0.80833668174E+03  0.18515301443E+04  0.16657597919E+04 0.  0.
        5    1    3    3  502    0 -0.25327743816E+03 -0.77294681286E+03  0.60322280412E+03  0.10126678022E+04  0.46999998093E+01 0.  1.
       -5    1    3    3    0  502  0.25327743816E+03  0.77294681286E+03  0.20511387762E+03  0.83886234209E+03  0.46999998093E+01 0. -1.
</event>
<event>
 5   0  0.5021349E-04  0.1697073E+04  0.7818609E-02  0.8763036E-01
        2   -1    0    0  501    0  0.00000000000E+00  0.00000000000E+00  0.12332168751E+04  0.12332168751E+04  0.25500000920E-02 0.  1.
       -2   -1    0    0    0  501  0.00000000000E+00  0.00000000000E+00 -0.58385032421E+03  0.58385032421E+03  0.25500000920E-02 0. -1.
    10030    2    1    2    0    0  0.00000000000E+00  0.00000000000E+00  0.64936655092E+03  0.18170671993E+04  0.16970728592E+04 0.  0.
        2    1    3    3  502    0 -0.95423410371E+02  0.69931848682E+03  0.82901008991E+03  0.10887652192E+04  0.25500000920E-02 0. -1.
       -2    1    3    3    0  502  0.95423410371E+02 -0.69931848682E+03 -0.17964353899E+03  0.72830198020E+03  0.25500000920E-02 0.  1.
</event>
<event>
 5   0  0.2583422E-04  0.1725603E+04  0.7818609E-02  0.8746895E-01
        1   -1    0    0  501    0  0.00000000000E+00  0.00000000000E+00  0.10151885631E+04  0.10151885631E+04  0.50400001928E-02 0. -1.
       -1   -1    0    0    0  501  0.00000000000E+00  0.00000000000E+00 -0.73328886724E+03  0.73328886725E+03  0.50400001928E-02 0.  1.
    10030    2    1    2    0    0  0.00000000000E+00  0.00000000000E+00  0.28189969584E+03  0.17484774303E+04  0.17256030499E+04 0.  0.
        3    1    3    3  502    0  0.29816542210E+02  0.10172925774E+03  0.10085647062E+04  0.10141206264E+04  0.10100000352E+00 0. -1.
       -3    1    3    3    0  502 -0.29816542210E+02 -0.10172925774E+03 -0.72666501035E+03  0.73435680397E+03  0.10100000352E+00 0.  1.
</event>
<event>
 5   0  0.5342255E-04  0.1908115E+04  0.7818609E-02  0.8650828E-01
        2   -1    0    0  501    0  0.00000000000E+00  0.00000000000E+00  0.68087309385E+03  0.68087309385E+03  0.25500000920E-02 0. -1.
       -2   -1    0    0    0  501  0.00000000000E+00  0.00000000000E+00 -0.13368501291E+04  0.13368501291E+04  0.25500000920E-02 0.  1.
    10030    2    1    2    0    0  0.00000000000E+00  0.00000000000E+00 -0.65597703525E+03  0.20177232229E+04  0.19081145494E+04 0.  0.
        5    1    3    3  502    0 -0.35480948819E+02  0.75622599239E+03 -0.94191302956E+03  0.12084530999E+04  0.46999998093E+01 0.  1.
       -5    1    3    3    0  502  0.35480948819E+02 -0.75622599239E+03  0.28593599431E+03  0.80927012310E+03  0.46999998093E+01 0. -1.
</event>
<event>
 5   0  0.2785059E-04  0.1704764E+04  0.7818609E-02  0.8758652E-01
       -1   -1    0    0    0  501  0.00000000000E+00  0.00000000000E+00  0.32253341254E+03  0.32253341258E+03  0.50400001928E-02 0.  1.
        1   -1    0    0  501    0  0.00000000000E+00  0.00000000000E+00 -0.22526511053E+04  0.22526511053E+04  0.50400001928E-02 0. -1.
    10030    2    1    2    0    0  0.00000000000E+00  0.00000000000E+00 -0.19301176927E+04  0.25751845178E+04  0.17047642046E+04 0.  0.
        5    1    3    3  502    0  0.36381723244E+03  0.71747667134E+03 -0.53941418454E+03  0.96856879210E+03  0.46999998093E+01 0.  1.
       -5    1    3    3    0  502 -0.36381723244E+03 -0.71747667134E+03 -0.13907035082E+04  0.16066157257E+04  0.46999998093E+01 0. -1.
</event>
<event>
 5   0  0.5342255E-04  0.1686498E+04  0.7818609E-02  0.8769103E-01
        2   -1    0    0  501    0  0.00000000000E+00  0.00000000000E+00  0.12357729995E+04  0.12357729995E+04  0.25500000920E-02 0.  1.
       -2   -1    0    0    0  501  0.00000000000E+00  0.00000000000E+00 -0.57540407485E+03  0.57540407486E+03  0.25500000920E-02 0. -1.
    10030    2    1    2    0    0  0.00000000000E+00  0.00000000000E+00  0.66036892462E+03  0.18111770743E+04  0.16864979330E+04 0.  0.
        5    1    3    3  502    0  0.11664720954E+03 -0.47724114374E+03 -0.40581350956E+03  0.63723808370E+03  0.46999998093E+01 0. -1.
       -5    1    3    3    0  502 -0.11664720954E+03  0.47724114374E+03  0.10661824342E+04  0.11739389906E+04  0.46999998093E+01 0.  1.
</event>
<event>
 5   0  0.5310003E-04  0.1660672E+04  0.7818609E-02  0.8784118E-01
        2   -1    0    0  501    0  0.00000000000E+00  0.00000000000E+00  0.16070041157E+04  0.16070041157E+04  0.25500000920E-02 0. -1.
       -2   -1    0    0    0  501  0.00000000000E+00  0.00000000000E+00 -0.42903307151E+03  0.42903307151E+03  0.25500000920E-02 0.  1.
    10030    2    1    2    0    0  0.00000000000E+00  0.00000000000E+00  0.11779710442E+04  0.20360371872E+04  0.16606720467E+04 0.  0.
        1    1    3    3  502    0  0.39334104717E+03  0.67387219168E+03  0.93713761932E+03  0.12194457051E+04  0.50400001928E-02 0.  1.
       -1    1    3    3    0  502 -0.39334104717E+03 -0.67387219168E+03  0.24083342487E+03  0.81659148211E+03  0.50400001928E-02 0. -1.
</event>
<event>
 5   0  0.5198430E-04  0.1717178E+04  0.7818609E-02  0.8751627E-01
       -2   -1    0    0    0  501  0.00000000000E+00  0.00000000000E+00  0.50251663528E+03  0.50251663528E+03  0.25500000920E-02 0. -1.
        2   -1    0    0  501    0  0.00000000000E+00  0.00000000000E+00 -0.14669667491E+04  0.14669667491E+04  0.25500000920E-02 0.  1.
    10030    2    1    2    0    0  0.00000000000E+00  0.00000000000E+00 -0.96445011378E+03  0.19694833843E+04  0.17171781443E+04 0.  0.
        4    1    3    3  502    0 -0.89576361765E+02  0.83467601560E+03 -0.68888139421E+03  0.10859406815E+04  0.12699999809E+01 0.  1.
       -4    1    3    3    0  502  0.89576361765E+02 -0.83467601560E+03 -0.27556871957E+03  0.88354270282E+03  0.12699999809E+01 0. -1.
</event>
<event>
 5   0  0.2583422E-04  0.1714638E+04  0.7818609E-02  0.8753060E-01
       -1   -1    0    0    0  501  0.00000000000E+00  0.00000000000E+00  0.81930367660E+03  0.81930367662E+03  0.50400001928E-02 0. -1.
        1   -1    0    0  501    0  0.00000000000E+00  0.00000000000E+00 -0.89709789476E+03  0.89709789478E+03  0.50400001928E-02 0.  1.
    10030    2    1    2    0    0  0.00000000000E+00  0.00000000000E+00 -0.77794218158E+02  0.17164015714E+04  0.17146376917E+04 0.  0.
        3    1    3    3  502    0 -0.57162718940E+03 -0.45858457221E+03  0.40646296378E+03  0.83801527711E+03  0.10100000352E+00 0. -1.
       -3    1    3    3    0  502  0.57162718940E+03  0.45858457221E+03 -0.48425718194E+03  0.87838629429E+03  0.10100000352E+00 0.  1.
</event>
<event>
 5   0  0.2561518E-04  0.1706548E+04  0.7818609E-02  0.8757639E-01
        1   -1    0    0  501    0  0.00000000000E+00  0.00000000000E+00  0.13777849336E+04  0.13777849336E+04  0.50400001928E-02 0.  1.
       -1   -1    0    0    0  501  0.00000000000E+00  0.00000000000E+00 -0.52843969151E+03  0.52843969153E+03  0.50400001928E-02 0. -1.
    10030    2    1    2    0    0  0.00000000000E+00  0.00000000000E+00  0.84934524213E+03  0.19062246252E+04  0.17065476792E+04 0.  0.
        4    1    3    3  502    0 -0.31223294518E+03 -0.21081884404E+03  0.12798507089E+04  0.13341489598E+04  0.12699999809E+01 0.  1.
       -4    1    3    3    0  502  0.31223294518E+03  0.21081884404E+03 -0.43050546678E+03  0.57207566534E+03  0.12699999809E+01 0. -1.
</event>
<event>
 5   0  0.5310003E-04  0.1685115E+04  0.7818609E-02  0.8769900E-01
       -2   -1    0    0    0  501  0.00000000000E+00  0.00000000000E+00  0.63105375027E+03  0.63105375028E+03  0.25500000920E-02 0. -1.
        2   -1    0    0  501    0  0.00000000000E+00  0.00000000000E+00 -0.11249489293E+04  0.11249489293E+04  0.25500000920E-02 0.  1.
    10030    2    1    2    0    0  0.00000000000E+00  0.00000000000E+00 -0.49389517901E+03  0.17560026796E+04  0.16851151186E+04 0.  0.
        1    1    3    3  502    0 -0.72737153904E+03  0.18180967352E+03 -0.64753947539E+03  0.99067223914E+03  0.50400001928E-02 0.  1.
       -1    1    3    3    0  502  0.72737153904E+03 -0.18180967352E+03  0.15364429638E+03  0.76533044042E+03  0.50400001928E-02 0. -1.
</event>
<event>
 5   0  0.2630135E-04  0.1666205E+04  0.7818609E-02  0.8780877E-01
       -1   -1    0    0    0  501  0.00000000000E+00  0.00000000000E+00  0.25913344906E+03  0.25913344911E+03  0.50400001928E-02 0.  1.
        1   -1    0    0  501    0  0.00000000000E+00  0.00000000000E+00 -0.26783883239E+04  0.26783883239E+04  0.50400001928E-02 0. -1.
    10030    2    1    2    0    0  0.00000000000E+00  0.00000000000E+00 -0.24192548748E+04  0.29375217730E+04  0.16662052747E+04 0.  0.
        1    1    3    3  502    0  0.35364797674E+03 -0.28644514523E+03  0.20616793023E+02  0.45556861707E+03  0.50400001928E-02 0.  1.
       -1    1    3    3    0  502 -0.35364797674E+03  0.28644514523E+03 -0.24398716678E+04  0.24819531559E+04  0.50400001928E-02 0. -1.
</event>
<event>
 5   0  0.5198430E-04  0.1454831E+04  0.7818609E-02  0.8915058E-01
       -2   -1    0    0    0  501  0.00000000000E+00  0.00000000000E+00  0.50060687028E+03  0.50060687029E+03  0.25500000920E-02 0.  1.
        2   -1    0    0  501    0  0.00000000000E+00  0.00000000000E+00 -0.10569832500E+04  0.10569832500E+04  0.25500000920E-02 0. -1.
    10030    2    1    2    0    0  0.00000000000E+00  0.00000000000E+00 -0.55637637976E+03  0.15575901203E+04  0.14548306798E+04 0.  0.
        4    1    3    3  502    0 -0.64794976923E+03  0.76173217707E+02  0.66233385371E+02  0.65576652612E+03  0.12699999809E+01 0.  1.
       -4    1    3    3    0  502  0.64794976923E+03 -0.76173217707E+02 -0.62260976513E+03  0.90182359421E+03  0.12699999809E+01 0. -1.
</event>
<event>
 5   0  0.5342255E-04  0.1710986E+04  0.7818609E-02  0.8755123E-01
       -2   -1    0    0    0  501  0.00000000000E+00  0.00000000000E+00  0.42978043978E+03  0.42978043979E+03  0.25500000920E-02 0. -1.
        2   -1    0    0  501    0  0.00000000000E+00  0.00000000000E+00 -0.17028884705E+04  0.17028884705E+04  0.25500000920E-02 0.  1.
    10030    2    1    2    0    0  0.00000000000E+00  0.00000000000E+00 -0.12731080307E+04  0.21326689103E+04  0.17109858629E+04 0.  0.
        5    1    3    3  502    0  0.67385890406E+03 -0.41997712198E+03 -0.23968060423E+03  0.82941876492E+03  0.46999998093E+01 0. -1.
       -5    1    3    3    0  502 -0.67385890406E+03  0.41997712198E+03 -0.10334274265E+04  0.13032501454E+04  0.46999998093E+01 0.  1.
</event>
<event>
 5   0  0.5342255E-04  0.1618046E+04  0.7818609E-02  0.8809538E-01
        2   -1    0    0  501    0  0.00000000000E+00  0.00000000000E+00  0.17893808491E+04  0.17893808491E+04  0.25500000920E-02 0. -1.
       -2   -1    0    0    0  501  0.00000000000E+00  0.00000000000E+00 -0.36577907260E+03  0.36577907261E+03  0.25500000920E-02 0.  1.
    10030    2    1    2    0    0  0.00000000000E+00  0.00000000000E+00  0.14236017765E+04  0.21551599217E+04  0.16180458183E+04 0.  0.
        5    1    3    3  502    0 -0.64354371187E+03  0.18535711404E+03  0.10727907609E+03  0.67826002313E+03  0.46999998093E+01 0.  1.
       -5    1    3    3    0  502  0.64354371187E+03 -0.18535711404E+03  0.13163227004E+04  0.14768998986E+04  0.46999998093E+01 0. -1.
</event>
<event>
 5   0  0.2561518E-04  0.1702893E+04  0.7818609E-02  0.8759716E-01
       -1   -1    0    0    0  501  0.00000000000E+00  0.00000000000E+00  0.68143089650E+03  0.68143089652E+03  0.50400001928E-02 0.  1.
        1   -1    0    0  501    0  0.00000000000E+00  0.00000000000E+00 -0.10638809620E+04  0.10638809620E+04  0.50400001928E-02 0. -1.
    10030    2    1    2    0    0  0.00000000000E+00  0.00000000000E+00 -0.38245006553E+03  0.17453118586E+04  0.17028932530E+04 0.  0.
        4    1    3    3  502    0  0.22007387047E+03  0.17460988395E+03  0.63256182038E+03  0.69213957375E+03  0.12699999809E+01 0.  1.
       -4    1    3    3    0  502 -0.22007387047E+03 -0.17460988395E+03 -0.10150118859E+04  0.10531722848E+04  0.12699999809E+01 0. -1.
</event>
<event>
 5   0  0.2561518E-04  0.1699978E+04  0.7818609E-02  0.8761377E-01
       -1   -1    0    0    0  501  0.00000000000E+00  0.00000000000E+00  0.84835311564E+03  0.84835311565E+03  0.50400001928E-02 0.  1.
        1   -1    0    0  501    0  0.00000000000E+00  0.00000000000E+00 -0.85162822006E+03  0.85162822008E+03  0.50400001928E-02 0. -1.
    10030    2    1    2    0    0  0.00000000000E+00  0.00000000000E+00 -0.32751044264E+01  0.16999813357E+04  0.16999781809E+04 0.  0.
        4    1    3    3  502    0 -0.75694954372E+03  0.38065372246E+03  0.66259354380E+02  0.84985986087E+03  0.12699999809E+01 0. -1.
       -4    1    3    3    0  502  0.75694954372E+03 -0.38065372246E+03 -0.69534458806E+02  0.85012147487E+03  0.12699999809E+01 0.  1.
</event>
<event>
 5   0  0.2630135E-04  0.1710195E+04  0.7818609E-02  0.8755571E-01
        1   -1    0    0  501    0  0.00000000000E+00  0.00000000000E+00  0.12510759668E+04  0.12510759669E+04  0.50400001928E-02 0. -1.
       -1   -1    0    0    0  501  0.00000000000E+00  0.00000000000E+00 -0.58445040966E+03  0.58445040969E+03  0.50400001928E-02 0.  1.
    10030    2    1    2    0    0  0.00000000000E+00  0.00000000000E+00  0.66662555718E+03  0.18355263765E+04  0.17101951484E+04 0.  0.
        1    1    3    3  502    0 -0.19800536020E+03  0.32373946632E+03 -0.48911928020E+03  0.61907272190E+03  0.50400001928E-02 0.  1.
       -1    1    3    3    0  502  0.19800536020E+03 -0.32373946632E+03  0.11557448374E+04  0.12164536546E+04  0.50400001928E-02 0. -1.
</event>
<event>
 5   0  0.5342255E-04  0.1683265E+04  0.7818609E-02  0.8770967E-01
       -2   -1    0    0    0  501  0.00000000000E+00  0.00000000000E+00  0.47075483829E+03  0.47075483830E+03  0.25500000920E-02 0. -1.
        2   -1    0    0  501    0  0.00000000000E+00  0.00000000000E+00 -0.15047016262E+04  0.15047016262E+04  0.25500000920E-02 0.  1.
    10030    2    1    2    0    0  0.00000000000E+00  0.00000000000E+00 -0.10339467879E+04  0.19754564645E+04  0.16832653632E+04 0.  0.
        5    1    3    3  502    0  0.78457072073E+03 -0.25008321452E+02 -0.16072319134E+03  0.80126816123E+03  0.46999998093E+01 0. -1.
       -5    1    3    3    0  502 -0.78457072073E+03  0.25008321452E+02 -0.87322359660E+03  0.11741883033E+04  0.46999998093E+01 0.  1.
</event>
<event>
 5   0  0.5198430E-04  0.1716139E+04  0.7818609E-02  0.8752213E-01
       -2   -1    0    0    0  501  0.00000000000E+00  0.00000000000E+00  0.13107967804E+04  0.13107967804E+04  0.25500000920E-02 0.  1.
        2   -1    0    0  501    0  0.00000000000E+00  0.00000000000E+00 -0.56170694197E+03  0.56170694198E+03  0.25500000920E-02 0. -1.
    10030    2    1    2    0    0  0.00000000000E+00  0.00000000000E+00  0.74908983842E+03  0.18725037224E+04  0.17161394478E+04 0.  0.
        4    1    3    3  502    0  0.48764702608E+03 -0.21385616301E+02  0.11445537727E+04  0.12442917336E+04  0.12699999809E+01 0.  1.
       -4    1    3    3    0  502 -0.48764702608E+03  0.21385616301E+02 -0.39546393433E+03  0.62821198880E+03  0.12699999809E+01 0. -1.
</event>
<event>
 5   0  0.5310003E-04  0.1701352E+04  0.7818609E-02  0.8760594E-01
        2   -1    0    0  501    0  0.00000000000E+00  0.00000000000E+00  0.11973351463E+04  0.11973351463E+04  0.25500000920E-02 0. -1.
       -2   -1    0    0    0  501  0.00000000000E+00  0.00000000000E+00 -0.60438329228E+03  0.60438329229E+03  0.25500000920E-02 0.  1.
    10030    2    1    2    0    0  0.00000000000E+00  0.00000000000E+00  0.59295185406E+03  0.18017184386E+04  0.17013516482E+04 0.  0.
        1    1    3    3  502    0 -0.40528756107E+03  0.12470531554E+03  0.10774351974E+04  0.11578756528E+04  0.50400001928E-02 0. -1.
       -1    1    3    3    0  502  0.40528756107E+03 -0.12470531554E+03 -0.48448334329E+03  0.64384278581E+03  0.50400001928E-02 0.  1.
</event>
<event>
 5   0  0.5310003E-04  0.1699823E+04  0.7818609E-02  0.8761465E-01
        2   -1    0    0  501    0  0.00000000000E+00  0.00000000000E+00  0.17063835682E+04  0.17063835682E+04  0.25500000920E-02 0.  1.
       -2   -1    0    0    0  501  0.00000000000E+00  0.00000000000E+00 -0.42332186359E+03  0.42332186360E+03  0.25500000920E-02 0. -1.
    10030    2    1    2    0    0  0.00000000000E+00  0.00000000000E+00  0.12830617046E+04  0.21297054318E+04  0.16998228992E+04 0.  0.
        1    1    3    3  502    0  0.71431477406E+03  0.19097823745E+02  0.12180535956E+04  0.14121844373E+04  0.50400001928E-02 0.  1.
       -1    1    3    3    0  502 -0.71431477406E+03 -0.19097823745E+02  0.65008109077E+02  0.71752099452E+03  0.50400001928E-02 0. -1.
</event>
<event>
 5   0  0.2595644E-04  0.1287176E+04  0.7818609E-02  0.9039797E-01
        1   -1    0    0  501    0  0.00000000000E+00  0.00000000000E+00  0.98268415513E+03  0.98268415514E+03  0.50400001928E-02 0.  1.
       -1   -1    0    0    0  501  0.00000000000E+00  0.00000000000E+00 -0.42150395324E+03  0.42150395327E+03  0.50400001928E-02 0. -1.
    10030    2    1    2    0    0  0.00000000000E+00  0.00000000000E+00  0.56118020189E+03  0.14041881084E+04  0.12871755998E+04 0.  0.
        2    1    3    3  502    0 -0.53519697372E+03  0.28593515944E+03  0.46589938966E+02  0.60857648533E+03  0.25500000920E-02 0. -1.
       -2    1    3    3    0  502  0.53519697372E+03 -0.28593515944E+03  0.51459026292E+03  0.79561162308E+03  0.25500000920E-02 0.  1.
</event>
<event>
 5   0  0.2785059E-04  0.1673460E+04  0.7818609E-02  0.8776647E-01
       -1   -1    0    0    0  501  0.00000000000E+00  0.00000000000E+00  0.46197548423E+03  0.46197548426E+03  0.50400001928E-02 0. -1.
        1   -1    0    0  501    0  0.00000000000E+00  0.00000000000E+00 -0.15154862594E+04  0.15154862594E+04  0.50400001928E-02 0.  1.
    10030    2    1    2    0    0  0.00000000000E+00  0.00000000000E+00 -0.10535107752E+04  0.19774617437E+04  0.16734604848E+04 0.  0.
        5    1    3    3  502    0  0.13841738040E+02 -0.57151693440E+03  0.19519184606E+03  0.60410690013E+03  0.46999998093E+01 0. -1.
       -5    1    3    3    0  502 -0.13841738040E+02  0.57151693440E+03 -0.12487026212E+04  0.13733548436E+04  0.46999998093E+01 0.  1.
</event>
<event>
 5   0  0.5342255E-04  0.1699744E+04  0.7818609E-02  0.8761510E-01
        2   -1    0    0  501    0  0.00000000000E+00  0.00000000000E+00  0.58004681303E+03  0.58004681303E+03  0.25500000920E-02 0. -1.
       -2   -1    0    0    0  501  0.00000000000E+00  0.00000000000E+00 -0.12452136895E+04  0.12452136895E+04  0.25500000920E-02 0.  1.
    10030    2    1    2    0    0  0.00000000000E+00  0.00000000000E+00 -0.66516687645E+03  0.18252605025E+04  0.16997437832E+04 0.  0.
        5    1    3    3  502    0  0.62366827714E+03 -0.55771506113E+03 -0.17239717720E+03  0.85425469623E+03  0.46999998093E+01 0. -1.
       -5    1    3    3    0  502 -0.62366827714E+03  0.55771506113E+03 -0.49276969925E+03  0.97100580628E+03  0.46999998093E+01 0.  1.
</event>
<event>
 5   0  0.2561518E-04  0.1691152E+04  0.7818609E-02  0.8766427E-01
       -1   -1    0    0    0  501  0.00000000000E+00  0.00000000000E+00  0.10195720072E+04  0.10195720072E+04  0.50400001928E-02 0. -1.
        1   -1    0    0  501    0  0.00000000000E+00  0.00000000000E+00 -0.70127346858E+03  0.70127346859E+03  0.50400001928E-02 0.  1.
    10030    2    1    2    0    0  0.00000000000E+00  0.00000000000E+00  0.31829853866E+03  0.17208454758E+04  0.16911520310E+04 0.  0.
        4    1    3    3  502    0 -0.80637550449E+03 -0.11539944554E+03  0.38993247950E+03  0.90310987025E+03  0.12699999809E+01 0. -1.
       -4    1    3    3    0  502  0.80637550449E+03  0.11539944554E+03 -0.71633940838E+02  0.81773560559E+03  0.12699999809E+01 0.  1.
</event>
<event>
 5   0  0.5021349E-04  0.1567438E+04  0.7818609E-02  0.8840806E-01
       -2   -1    0    0    0  501  0.00000000000E+00  0.00000000000E+00  0.34875009285E+03  0.34875009286E+03  0.25500000920E-02 0. -1.
        2   -1    0    0  501    0  0.00000000000E+00  0.00000000000E+00 -0.17611909211E+04  0.17611909211E+04  0.25500000920E-02 0.  1.
    10030    2    1    2    0    0  0.00000000000E+00  0.00000000000E+00 -0.14124408282E+04  0.21099410139E+04  0.15674380336E+04 0.  0.
        2    1    3    3  502    0 -0.67989571849E+03 -0.24204505747E+03 -0.29489352591E+03  0.77961925932E+03  0.25500000920E-02 0.  1.
       -2    1    3    3    0  502  0.67989571849E+03  0.24204505747E+03 -0.11175473023E+04  0.13303217546E+04  0.25500000920E-02 0. -1.
</event>
<event>
 5   0  0.2630135E-04  0.1624983E+04  0.7818609E-02  0.8805345E-01
       -1   -1    0    0    0  501  0.00000000000E+00  0.00000000000E+00  0.73448671110E+03  0.73448671112E+03  0.50400001928E-02 0. -1.
        1   -1    0    0  501    0  0.00000000000E+00  0.00000000000E+00 -0.89878095579E+03  0.89878095580E+03  0.50400001928E-02 0.  1.
    10030    2    1    2    0    0  0.00000000000E+00  0.00000000000E+00 -0.16429424469E+03  0.16332676669E+04  0.16249832839E+04 0.  0.
        1    1    3    3  502    0  0.20518926374E+03 -0.17366801022E+03  0.68849476134E+03  0.73911314976E+03  0.50400001928E-02 0. -1.
       -1    1    3    3    0  502 -0.20518926374E+03  0.17366801022E+03 -0.85278900603E+03  0.89415451716E+03  0.50400001928E-02 0.  1.
</event>
<event>
 5   0  0.5299877E-04  0.1724565E+04  0.7818609E-02  0.8747477E-01
        2   -1    0    0  501    0  0.00000000000E+00  0.00000000000E+00  0.22314647391E+04  0.22314647391E+04  0.25500000920E-02 0. -1.
       -2   -1    0    0    0  501  0.00000000000E+00  0.00000000000E+00 -0.33320311547E+03  0.33320311548E+03  0.25500000920E-02 0.  1.
    10030    2    1    2    0    0  0.00000000000E+00  0.00000000000E+00  0.18982616237E+04  0.25646678546E+04  0.17245648763E+04 0.  0.
        3    1    3    3  502    0  0.84326852253E+03  0.47462159862E+02  0.12074676137E+04  0.14735441989E+04  0.10100000352E+00 0. -1.
       -3    1    3    3    0  502 -0.84326852253E+03 -0.47462159862E+02  0.69079401001E+03  0.10911236558E+04  0.10100000352E+00 0.  1.
</event>
<event>
 5   0  0.5342255E-04  0.1644167E+04  0.7818609E-02  0.8793864E-01
        2   -1    0    0  501    0  0.00000000000E+00  0.00000000000E+00  0.18602883971E+04  0.18602883971E+04  0.25500000920E-02 0.  1.
       -2   -1    0    0    0  501  0.00000000000E+00  0.00000000000E+00 -0.36328863457E+03  0.36328863458E+03  0.25500000920E-02 0. -1.
    10030    2    1    2    0    0  0.00000000000E+00  0.00000000000E+00  0.14969997625E+04  0.22235770317E+04  0.16441674266E+04 0.  0.
        5    1    3    3  502    0  0.26262393671E+03 -0.14089352918E+03 -0.28763612054E+03  0.41422089100E+03  0.46999998093E+01 0. -1.
       -5    1    3    3    0  502 -0.26262393671E+03  0.14089352918E+03  0.17846358831E+04  0.18093561407E+04  0.46999998093E+01 0.  1.
</event>
<event>
 5   0  0.2630135E-04  0.1730590E+04  0.7818609E-02  0.8744107E-01
       -1   -1    0    0    0  501  0.00000000000E+00  0.00000000000E+00  0.88124557431E+03  0.88124557432E+03  0.50400001928E-02 0.  1.
        1   -1    0    0  501    0  0.00000000000E+00  0.00000000000E+00 -0.84963322130E+03  0.84963322132E+03  0.50400001928E-02 0. -1.
    10030    2    1    2    0    0  0.00000000000E+00  0.00000000000E+00  0.31612353009E+02  0.17308787956E+04  0.17305900914E+04 0.  0.
        1    1    3    3  502    0  0.34500509748E+03 -0.68727453666E+03  0.41255952248E+03  0.87268560527E+03  0.50400001928E-02 0. -1.
       -1    1    3    3    0  502 -0.34500509748E+03  0.68727453666E+03 -0.38094716948E+03  0.85819319037E+03  0.50400001928E-02 0.  1.
</event>
<event>
 5   0  0.2561518E-04  0.1650992E+04  0.7818609E-02  0.8789820E-01
        1   -1    0    0  501    0  0.00000000000E+00  0.00000000000E+00  0.20869293031E+04  0.20869293031E+04  0.50400001928E-02 0.  1.
       -1   -1    0    0    0  501  0.00000000000E+00  0.00000000000E+00 -0.32652943425E+03  0.32652943429E+03  0.50400001928E-02 0. -1.
    10030    2    1    2    0    0  0.00000000000E+00  0.00000000000E+00  0.17603998689E+04  0.24134587374E+04  0.16509922407E+04 0.  0.
        4    1    3    3  502    0 -0.20290445593E+03 -0.38011288879E+03 -0.14910028511E+03  0.45594795139E+03  0.12699999809E+01 0. -1.
       -4    1    3    3    0  502  0.20290445593E+03  0.38011288879E+03  0.19095001540E+04  0.19575107860E+04  0.12699999809E+01 0.  1.
</event>
<event>
 5   0  0.2785059E-04  0.1697122E+04  0.7818609E-02  0.8763007E-01
        1   -1    0    0  501    0  0.00000000000E+00  0.00000000000E+00  0.74307288950E+03  0.74307288951E+03  0.50400001928E-02 0.  1.
       -1   -1    0    0    0  501  0.00000000000E+00  0.00000000000E+00 -0.96902459223E+03  0.96902459225E+03  0.50400001928E-02 0. -1.
    10030    2    1    2    0    0  0.00000000000E+00  0.00000000000E+00 -0.22595170274E+03  0.17120974818E+04  0.16971221568E+04 0.  0.
        5    1    3    3  502    0 -0.18561551146E+03  0.25200177262E+03 -0.90865328152E+03  0.96105717182E+03  0.46999998093E+01 0. -1.
       -5    1    3    3    0  502  0.18561551146E+03 -0.25200177262E+03  0.68270157878E+03  0.75104030994E+03  0.46999998093E+01 0.  1.
</event>
<event>
 5   0  0.2785059E-04  0.1681420E+04  0.7818609E-02  0.8772033E-01
        1   -1    0    0  501    0  0.00000000000E+00  0.00000000000E+00  0.64984081017E+03  0.64984081019E+03  0.50400001928E-02 0. -1.
       -1   -1    0    0    0  501  0.00000000000E+00  0.00000000000E+00 -0.10876411654E+04  0.10876411654E+04  0.50400001928E-02 0.  1.
    10030    2    1    2    0    0  0.00000000000E+00  0.00000000000E+00 -0.43780035521E+03  0.17374819756E+04  0.16814203711E+04 0.  0.
        5    1    3    3  502    0 -0.76038475820E+03 -0.26885912006E+03  0.26290124422E+02  0.80695939649E+03  0.46999998093E+01 0. -1.
       -5    1    3    3    0  502  0.76038475820E+03  0.26885912006E+03 -0.46409047964E+03  0.93052257911E+03  0.46999998093E+01 0.  1.
</event>
<event>
 5   0  0.5342255E-04  0.1694895E+04  0.7818609E-02  0.8764281E-01
        2   -1    0    0  501    0  0.00000000000E+00  0.00000000000E+00  0.18594181173E+04  0.18594181173E+04  0.25500000920E-02 0. -1.
       -2   -1    0    0    0  501  0.00000000000E+00  0.00000000000E+00 -0.38623226018E+03  0.38623226019E+03  0.25500000920E-02 0.  1.
    10030    2    1    2    0    0  0.00000000000E+00  0.00000000000E+00  0.14731858571E+04  0.22456503775E+04  0.16948949962E+04 0.  0.
        5    1    3    3  502    0  0.48213297281E+02 -0.68547799378E+03  0.79518701928E+02  0.69177302343E+03  0.46999998093E+01 0.  1.
       -5    1    3    3    0  502 -0.48213297281E+02  0.68547799378E+03  0.13936671552E+04  0.15538773541E+04  0.46999998093E+01 0. -1.
</event>
<event>
 5   0  0.5342255E-04  0.1749234E+04  0.7818609E-02  0.8733772E-01
        2   -1    0    0  501    0  0.00000000000E+00  0.00000000000E+00  0.16952410623E+04  0.16952410623E+04  0.25500000920E-02 0. -1.
       -2   -1    0    0    0  501  0.00000000000E+00  0.00000000000E+00 -0.45123663703E+03  0.45123663704E+03  0.25500000920E-02 0.  1.
    10030    2    1    2    0    0  0.00000000000E+00  0.00000000000E+00  0.12440044253E+04  0.21464776993E+04  0.17492339762E+04 0.  0.
        5    1    3    3  502    0  0.38985536194E+03 -0.38299451969E+03  0.14599036196E+04  0.15588497920E+04  0.46999998093E+01 0. -1.
       -5    1    3    3    0  502 -0.38985536194E+03  0.38299451969E+03 -0.21589919439E+03  0.58762790734E+03  0.46999998093E+01 0.  1.
</event>
<event>
 5   0  0.5299877E-04  0.1681245E+04  0.7818609E-02  0.8772134E-01
       -2   -1    0    0    0  501  0.00000000000E+00  0.00000000000E+00  0.46193226883E+03  0.46193226884E+03  0.25500000920E-02 0. -1.
        2   -1    0    0  501    0  0.00000000000E+00  0.00000000000E+00 -0.15297609555E+04  0.15297609555E+04  0.25500000920E-02 0.  1.
    10030    2    1    2    0    0  0.00000000000E+00  0.00000000000E+00 -0.10678286867E+04  0.19916932244E+04  0.16812447162E+04 0.  0.
        3    1    3    3  502    0  0.56740975426E+03 -0.47806073216E+03 -0.65788549436E+02  0.74486511282E+03  0.10100000352E+00 0. -1.
       -3    1    3    3    0  502 -0.56740975426E+03  0.47806073216E+03 -0.10020401372E+04  0.12468281115E+04  0.10100000352E+00 0.  1.
</event>
<event>
 5   0  0.5342255E-04  0.2059963E+04  0.7818609E-02  0.8579088E-01
        2   -1    0    0  501    0  0.00000000000E+00  0.00000000000E+00  0.10978288564E+04  0.10978288564E+04  0.25500000920E-02 0. -1.
       -2   -1    0    0    0  501  0.00000000000E+00  0.00000000000E+00 -0.96632734403E+03  0.96632734403E+03  0.25500000920E-02 0.  1.
    10030    2    1    2    0    0  0.00000000000E+00  0.00000000000E+00  0.13150151239E+03  0.20641562005E+04  0.20599631482E+04 0.  0.
        5    1    3    3  502    0 -0.53784309511E+03  0.85188915803E+03 -0.14881034036E+03  0.10184090239E+04  0.46999998093E+01 0.  1.
       -5    1    3    3    0  502  0.53784309511E+03 -0.85188915803E+03  0.28031185275E+03  0.10457471766E+04  0.46999998093E+01 0. -1.
</event>
<event>
 5   0  0.2595644E-04  0.1690187E+04  0.7818609E-02  0.8766981E-01
       -1   -1    0    0    0  501  0.00000000000E+00  0.00000000000E+00  0.53390655020E+03  0.53390655022E+03  0.50400001928E-02 0.  1.
        1   -1    0    0  501    0  0.00000000000E+00  0.00000000000E+00 -0.13376556584E+04  0.13376556584E+04  0.50400001928E-02 0. -1.
    10030    2    1    2    0    0  0.00000000000E+00  0.00000000000E+00 -0.80374910819E+03  0.18715622086E+04  0.16901871115E+04 0.  0.
        2    1    3    3  502    0  0.46114442998E+03 -0.73009956505E+02  0.37813010314E+03  0.60080530454E+03  0.25500000920E-02 0.  1.
       -2    1    3    3    0  502 -0.46114442998E+03  0.73009956505E+02 -0.11818792113E+04  0.12707569041E+04  0.25500000920E-02 0. -1.
</event>
<event>
 5   0  0.5299877E-04  0.1617262E+04  0.7818609E-02  0.8810013E-01
       -2   -1    0    0    0  501  0.00000000000E+00  0.00000000000E+00  0.43811773085E+03  0.43811773086E+03  0.25500000920E-02 0.  1.
        2   -1    0    0  501    0  0.00000000000E+00  0.00000000000E+00 -0.14924840972E+04  0.14924840972E+04  0.25500000920E-02 0. -1.
    10030    2    1    2    0    0  0.00000000000E+00  0.00000000000E+00 -0.10543663664E+04  0.19306018281E+04  0.16172615695E+04 0.  0.
        3    1    3    3  502    0 -0.78893383698E+03  0.52571687973E+02 -0.72942863902E+03  0.10757539361E+04  0.10100000352E+00 0.  1.
       -3    1    3    3    0  502  0.78893383698E+03 -0.52571687973E+02 -0.32493772737E+03  0.85484789196E+03  0.10100000352E+00 0. -1.
</event>
<event>
 5   0  0.5021349E-04  0.1662639E+04  0.7818609E-02  0.8782964E-01
        2   -1    0    0  501    0  0.00000000000E+00  0.00000000000E+00  0.21627182487E+04  0.21627182487E+04  0.25500000920E-02 0. -1.
       -2   -1    0    0    0  501  0.00000000000E+00  0.00000000000E+00 -0.31954788972E+03  0.31954788973E+03  0.25500000920E-02 0.  1.
    10030    2    1    2    0    0  0.00000000000E+00  0.00000000000E+00  0.18431703590E+04  0.24822661384E+04  0.16626389295E+04 0.  0.
        2    1    3    3  502    0  0.27710461031E+03  0.57214944898E+03  0.17213339566E+04  0.18349748084E+04  0.25500000920E-02 0. -1.
       -2    1    3    3    0  502 -0.27710461031E+03 -0.57214944898E+03  0.12183640232E+03  0.64729133005E+03  0.25500000920E-02 0.  1.
</event>
<event>
 5   0  0.5299877E-04  0.1674624E+04  0.7818609E-02  0.8775971E-01
        2   -1    0    0  501    0  0.00000000000E+00  0.00000000000E+00  0.13798822494E+04  0.13798822494E+04  0.25500000920E-02 0.  1.
       -2   -1    0    0    0  501  0.00000000000E+00  0.00000000000E+00 -0.50808033879E+03  0.50808033879E+03  0.25500000920E-02 0. -1.
    10030    2    1    2    0    0  0.00000000000E+00  0.00000000000E+00  0.87180191058E+03  0.18879625882E+04  0.16746235885E+04 0.  0.
        3    1    3    3  502    0 -0.25034158675E+03  0.77136623133E+02 -0.46069374243E+03  0.52996198279E+03  0.10100000352E+00 0. -1.
       -3    1    3    3    0  502  0.25034158675E+03 -0.77136623133E+02  0.13324956530E+04  0.13580006054E+04  0.10100000352E+00 0.  1.
</event>
<event>
 5   0  0.2595644E-04  0.1698420E+04  0.7818609E-02  0.8762266E-01
        1   -1    0    0  501    0  0.00000000000E+00  0.00000000000E+00  0.54135682502E+03  0.54135682504E+03  0.50400001928E-02 0.  1.
       -1   -1    0    0    0  501  0.00000000000E+00  0.00000000000E+00 -0.13321300083E+04  0.13321300083E+04  0.50400001928E-02 0. -1.
    10030    2    1    2    0    0  0.00000000000E+00  0.00000000000E+00 -0.79077318324E+03  0.18734868333E+04  0.16984200562E+04 0.  0.
        2    1    3    3  502    0 -0.98928334566E+02  0.66505122373E+03  0.17680887172E+03  0.69522753304E+03  0.25500000920E-02 0.  1.
       -2    1    3    3    0  502  0.98928334566E+02 -0.66505122373E+03 -0.96758205496E+03  0.11782593003E+04  0.25500000920E-02 0. -1.
</event>
<event>
 5   0  0.5021349E-04  0.1697235E+04  0.7818609E-02  0.8762943E-01
       -2   -1    0    0    0  501  0.00000000000E+00  0.00000000000E+00  0.51608927109E+03  0.51608927110E+03  0.25500000920E-02 0. -1.
        2   -1    0    0  501    0  0.00000000000E+00  0.00000000000E+00 -0.13954020126E+04  0.13954020126E+04  0.25500000920E-02 0.  1.
    10030    2    1    2    0    0  0.00000000000E+00  0.00000000000E+00 -0.87931274148E+03  0.19114912837E+04  0.16972354080E+04 0.  0.
        2    1    3    3  502    0  0.26559266231E+03  0.64474912638E+03  0.10504148139E+03  0.70517700690E+03  0.25500000920E-02 0. -1.
       -2    1    3    3    0  502 -0.26559266231E+03 -0.64474912638E+03 -0.98435422288E+03  0.12063142768E+04  0.25500000920E-02 0.  1.
</event>
<event>
 5   0  0.2561518E-04  0.1634187E+04  0.7818609E-02  0.8799816E-01
        1   -1    0    0  501    0  0.00000000000E+00  0.00000000000E+00  0.14333618210E+04  0.14333618210E+04  0.50400001928E-02 0. -1.
       -1   -1    0    0    0  501  0.00000000000E+00  0.00000000000E+00 -0.46578744095E+03  0.46578744098E+03  0.50400001928E-02 0.  1.
    10030    2    1    2    0    0  0.00000000000E+00  0.00000000000E+00  0.96757438004E+03  0.18991492620E+04  0.16341871797E+04 0.  0.
        4    1    3    3  502    0 -0.58841619880E+03  0.51439065275E+03  0.20679616311E+03  0.80845385312E+03  0.12699999809E+01 0.  1.
       -4    1    3    3    0  502  0.58841619880E+03 -0.51439065275E+03  0.76077821693E+03  0.10906954089E+04  0.12699999809E+01 0. -1.
</event>
<event>
 5   0  0.2561518E-04  0.1748937E+04  0.7818609E-02  0.8733935E-01
        1   -1    0    0  501    0  0.00000000000E+00  0.00000000000E+00  0.64290112133E+03  0.64290112135E+03  0.50400001928E-02 0. -1.
       -1   -1    0    0    0  501  0.00000000000E+00  0.00000000000E+00 -0.11894450316E+04  0.11894450316E+04  0.50400001928E-02 0.  1.
    10030    2    1    2    0    0  0.00000000000E+00  0.00000000000E+00 -0.54654391030E+03  0.18323461530E+04  0.17489374427E+04 0.  0.
        4    1    3    3  502    0 -0.35265883111E+03 -0.10865932655E+03 -0.11038728454E+04  0.11639209476E+04  0.12699999809E+01 0.  1.
       -4    1    3    3    0  502  0.35265883111E+03  0.10865932655E+03  0.55732893513E+03  0.66842520542E+03  0.12699999809E+01 0. -1.
</event>
<event>
 5   0  0.5198430E-04  0.1704622E+04  0.7818609E-02  0.8758732E-01
        2   -1    0    0  501    0  0.00000000000E+00  0.00000000000E+00  0.93355304934E+03  0.93355304934E+03  0.25500000920E-02 0.  1.
       -2   -1    0    0    0  501  0.00000000000E+00  0.00000000000E+00 -0.77813924854E+03  0.77813924854E+03  0.25500000920E-02 0. -1.
    10030    2    1    2    0    0  0.00000000000E+00  0.00000000000E+00  0.15541380080E+03  0.17116922979E+04  0.17046222670E+04 0.  0.
        4    1    3    3  502    0  0.18827197317E+03  0.83025956333E+03  0.36851826701E+02  0.85213669585E+03  0.12699999809E+01 0. -1.
       -4    1    3    3    0  502 -0.18827197317E+03 -0.83025956333E+03  0.11856197410E+03  0.85955560203E+03  0.12699999809E+01 0.  1.
</event>
<event>
 5   0  0.2583422E-04  0.1730355E+04  0.7818609E-02  0.8744239E-01
       -1   -1    0    0    0  501  0.00000000000E+00  0.00000000000E+00  0.52545622485E+03  0.52545622487E+03  0.50400001928E-02 0. -1.
        1   -1    0    0  501    0  0.00000000000E+00  0.00000000000E+00 -0.14245374809E+04  0.14245374809E+04  0.50400001928E-02 0.  1.
    10030    2    1    2    0    0  0.00000000000E+00  0.00000000000E+00 -0.89908125601E+03  0.19499937057E+04  0.17303549773E+04 0.  0.
        3    1    3    3  502    0 -0.52980869249E+03  0.59410599057E+03 -0.83149087201E+03  0.11511021932E+04  0.10100000352E+00 0.  1.
       -3    1    3    3    0  502  0.52980869249E+03 -0.59410599057E+03 -0.67590384007E+02  0.79889151259E+03  0.10100000352E+00 0. -1.
</event>
<event>
 5   0  0.2595644E-04  0.1708172E+04  0.7818609E-02  0.8756717E-01
       -1   -1    0    0    0  501  0.00000000000E+00  0.00000000000E+00  0.77731424474E+03  0.77731424476E+03  0.50400001928E-02 0.  1.
        1   -1    0    0  501    0  0.00000000000E+00  0.00000000000E+00 -0.93844012828E+03  0.93844012829E+03  0.50400001928E-02 0. -1.
    10030    2    1    2    0    0  0.00000000000E+00  0.00000000000E+00 -0.16112588353E+03  0.17157543731E+04  0.17081719815E+04 0.  0.
        2    1    3    3  502    0  0.56525874660E+03  0.42350375275E+03 -0.56289236472E+03  0.90317257125E+03  0.25500000920E-02 0. -1.
       -2    1    3    3    0  502 -0.56525874660E+03 -0.42350375275E+03  0.40176648119E+03  0.81258180180E+03  0.25500000920E-02 0.  1.
</event>
<event>
 5   0  0.5310003E-04  0.1706282E+04  0.7818609E-02  0.8757789E-01
       -2   -1    0    0    0  501  0.00000000000E+00  0.00000000000E+00  0.93187558308E+03  0.93187558308E+03  0.25500000920E-02 0.  1.
        2   -1    0    0  501    0  0.00000000000E+00  0.00000000000E+00 -0.78105893275E+03  0.78105893275E+03  0.25500000920E-02 0. -1.
    10030    2    1    2    0    0  0.00000000000E+00  0.00000000000E+00  0.15081665033E+03  0.17129345158E+04  0.17062822139E+04 0.  0.
        1    1    3    3  502    0  0.13008761601E+02 -0.84897261939E+03 -0.81388012095E+01  0.84911128626E+03  0.50400001928E-02 0.  1.
       -1    1    3    3    0  502 -0.13008761601E+02  0.84897261939E+03  0.15895545154E+03  0.86382322957E+03  0.50400001928E-02 0. -1.
</event>
<event>
 5   0  0.5299877E-04  0.1671785E+04  0.7818609E-02  0.8777622E-01
        2   -1    0    0  501    0  0.00000000000E+00  0.00000000000E+00  0.19910747265E+04  0.19910747265E+04  0.25500000920E-02 0.  1.
       -2   -1    0    0    0  501  0.00000000000E+00  0.00000000000E+00 -0.35092433378E+03  0.35092433379E+03  0.25500000920E-02 0. -1.
    10030    2    1    2    0    0  0.00000000000E+00  0.00000000000E+00  0.16401503928E+04  0.23419990603E+04  0.16717853593E+04 0.  0.
        3    1    3    3  502    0 -0.46671776719E+03  0.37189223548E+03  0.16400335572E+04  0.17452333334E+04  0.10100000352E+00 0.  1.
       -3    1    3    3    0  502  0.46671776719E+03 -0.37189223548E+03  0.11683557912E+00  0.59676572696E+03  0.10100000352E+00 0. -1.
</event>
<event>
 5   0  0.5021349E-04  0.1716465E+04  0.7818609E-02  0.8752029E-01
       -2   -1    0    0    0  501  0.00000000000E+00  0.00000000000E+00  0.48319992661E+03  0.48319992661E+03  0.25500000920E-02 0. -1.
        2   -1    0    0  501    0  0.00000000000E+00  0.00000000000E+00 -0.15243445055E+04  0.15243445055E+04  0.25500000920E-02 0.  1.
    10030    2    1    2    0    0  0.00000000000E+00  0.00000000000E+00 -0.10411445789E+04  0.20075444321E+04  0.17164651505E+04 0.  0.
        2    1    3    3  502    0 -0.62934250820E+03  0.35608666632E+03  0.20089624734E+02  0.72337631948E+03  0.25500000920E-02 0.  1.
       -2    1    3    3    0  502  0.62934250820E+03 -0.35608666632E+03 -0.10612342037E+04  0.12841681127E+04  0.25500000920E-02 0. -1.
</event>
<event>
 5   0  0.2630135E-04  0.1675991E+04  0.7818609E-02  0.8775177E-01
        1   -1    0    0  501    0  0.00000000000E+00  0.00000000000E+00  0.14063087134E+04  0.14063087134E+04  0.50400001928E-02 0.  1.
       -1   -1    0    0    0  501  0.00000000000E+00  0.00000000000E+00 -0.49934753298E+03  0.49934753301E+03  0.50400001928E-02 0. -1.
    10030    2    1    2    0    0  0.00000000000E+00  0.00000000000E+00  0.90696118037E+03  0.19056562464E+04  0.16759913922E+04 0.  0.
        1    1    3    3  502    0  0.46492246732E+03  0.46274627722E+03 -0.13946811637E+03  0.67062535980E+03  0.50400001928E-02 0. -1.
       -1    1    3    3    0  502 -0.46492246732E+03 -0.46274627722E+03  0.10464292967E+04  0.12350308866E+04  0.50400001928E-02 0.  1.
</event>
<event>
 5   0  0.5198430E-04  0.1690195E+04  0.7818609E-02  0.8766977E-01
        2   -1    0    0  501    0  0.00000000000E+00  0.00000000000E+00  0.16254132029E+04  0.16254132030E+04  0.25500000920E-02 0. -1.
       -2   -1    0    0    0  501  0.00000000000E+00  0.00000000000E+00 -0.43938950897E+03  0.43938950898E+03  0.25500000920E-02 0.  1.
    10030    2    1    2    0    0  0.00000000000E+00  0.00000000000E+00  0.11860236940E+04  0.20648027119E+04  0.16901946741E+04 0.  0.
        4    1    3    3  502    0  0.43289040053E+03 -0.71071130237E+03  0.77290057127E+03  0.11357295277E+04  0.12699999809E+01 0. -1.
       -4    1    3    3    0  502 -0.43289040053E+03  0.71071130237E+03  0.41312312271E+03  0.92907318420E+03  0.12699999809E+01 0.  1.
</event>
<event>
 5   0  0.2583422E-04  0.1770584E+04  0.7818609E-02  0.8722101E-01
       -1   -1    0    0    0  501  0.00000000000E+00  0.00000000000E+00  0.34600131965E+03  0.34600131968E+03  0.50400001928E-02 0. -1.
        1   -1    0    0  501    0  0.00000000000E+00  0.00000000000E+00 -0.22651416953E+04  0.22651416953E+04  0.50400001928E-02 0.  1.
    10030    2    1    2    0    0  0.00000000000E+00  0.00000000000E+00 -0.19191403756E+04  0.26111430150E+04  0.17705841023E+04 0.  0.
        3    1    3    3  502    0 -0.70419778853E+03  0.17778536566E+03 -0.21305709442E+03  0.75689860437E+03  0.10100000352E+00 0. -1.
       -3    1    3    3    0  502  0.70419778853E+03 -0.17778536566E+03 -0.17060832812E+04  0.18542444106E+04  0.10100000352E+00 0.  1.
</event>
<event>
 5   0  0.5299877E-04  0.1702377E+04  0.7818609E-02  0.8760010E-01
        2   -1    0    0  501    0  0.00000000000E+00  0.00000000000E+00  0.10051862044E+04  0.10051862044E+04  0.25500000920E-02 0.  1.
       -2   -1    0    0    0  501  0.00000000000E+00  0.00000000000E+00 -0.72078397210E+03  0.72078397211E+03  0.25500000920E-02 0. -1.
    10030    2    1    2    0    0  0.00000000000E+00  0.00000000000E+00  0.28440223233E+03  0.17259701765E+04  0.17023772850E+04 0.  0.
        3    1    3    3  502    0  0.14121883609E+03  0.65187000369E+03  0.67834440171E+03  0.95132980554E+03  0.10100000352E+00 0.  1.
       -3    1    3    3    0  502 -0.14121883609E+03 -0.65187000369E+03 -0.39394216937E+03  0.77464037100E+03  0.10100000352E+00 0. -1.
</event>
<event>
 5   0  0.5299877E-04  0.1637530E+04  0.7818609E-02  0.8797818E-01
        2   -1    0    0  501    0  0.00000000000E+00  0.00000000000E+00  0.10379264750E+04  0.10379264750E+04  0.25500000920E-02 0.  1.
       -2   -1    0    0    0  501  0.00000000000E+00  0.00000000000E+00 -0.64588005447E+03  0.64588005448E+03  0.25500000920E-02 0. -1.
    10030    2    1    2    0    0  0.00000000000E+00  0.00000000000E+00  0.39204642056E+03  0.16838065295E+04  0.16375298571E+04 0.  0.
        3    1    3    3  502    0 -0.77606354435E+03 -0.12280526646E+03 -0.40745225775E+02  0.78677566177E+03  0.10100000352E+00 0. -1.
       -3    1    3    3    0  502  0.77606354435E+03  0.12280526646E+03  0.43279164634E+03  0.89703086774E+03  0.10100000352E+00 0.  1.
</event>
<event>
 5   0  0.2561518E-04  0.1317769E+04  0.7818609E-02  0.9015591E-01
        1   -1    0    0  501    0  0.00000000000E+00  0.00000000000E+00  0.11405426484E+04  0.11405426484E+04  0.50400001928E-02 0. -1.
       -1   -1    0    0    0  501  0.00000000000E+00  0.00000000000E+00 -0.38063379449E+03  0.38063379452E+03  0.50400001928E-02 0.  1.
    10030    2    1    2    0    0  0.00000000000E+00  0.00000000000E+00  0.75990885394E+03  0.15211764430E+04  0.13177694428E+04 0.  0.
        4    1    3    3  502    0 -0.14012048260E+03  0.63502338197E+03  0.50233270554E+03  0.82172270581E+03  0.12699999809E+01 0. -1.
       -4    1    3    3    0  502  0.14012048260E+03 -0.63502338197E+03  0.25757614841E+03  0.69945373716E+03  0.12699999809E+01 0.  1.
</event>
<event>
 5   0  0.2630135E-04  0.1710851E+04  0.7818609E-02  0.8755200E-01
       -1   -1    0    0    0  501  0.00000000000E+00  0.00000000000E+00  0.14317710614E+04  0.14317710614E+04  0.50400001928E-02 0. -1.
        1   -1    0    0  501    0  0.00000000000E+00  0.00000000000E+00 -0.51108211023E+03  0.51108211026E+03  0.50400001928E-02 0.  1.
    10030    2    1    2    0    0  0.00000000000E+00  0.00000000000E+00  0.92068895112E+03  0.19428531716E+04  0.17108507538E+04 0.  0.
        1    1    3    3  502    0 -0.38260602058E+03 -0.39211389701E+03  0.12064058575E+04  0.13249738745E+04  0.50400001928E-02 0. -1.
       -1    1    3    3    0  502  0.38260602058E+03  0.39211389701E+03 -0.28571690633E+03  0.61787929711E+03  0.50400001928E-02 0.  1.
</event>
<event>
 5   0  0.5310003E-04  0.1682966E+04  0.7818609E-02  0.8771140E-01
        2   -1    0    0  501    0  0.00000000000E+00  0.00000000000E+00  0.16003420867E+04  0.16003420867E+04  0.25500000920E-02 0.  1.
       -2   -1    0    0    0  501  0.00000000000E+00  0.00000000000E+00 -0.44246381429E+03  0.44246381429E+03  0.25500000920E-02 0. -1.
    10030    2    1    2    0    0  0.00000000000E+00  0.00000000000E+00  0.11578782724E+04  0.20428059010E+04  0.16829657915E+04 0.  0.
        1    1    3    3  502    0  0.36379181016E+03 -0.65334823531E+03  0.10472965339E+04  0.12868715661E+04  0.50400001928E-02 0.  1.
       -1    1    3    3    0  502 -0.36379181016E+03  0.65334823531E+03  0.11058173850E+03  0.75593433487E+03  0.50400001928E-02 0. -1.
</event>
<event>
 5   0  0.2561518E-04  0.1688217E+04  0.7818609E-02  0.8768113E-01
       -1   -1    0    0    0  501  0.00000000000E+00  0.00000000000E+00  0.10223706878E+04  0.10223706878E+04  0.50400001928E-02 0.  1.
        1   -1    0    0  501    0  0.00000000000E+00  0.00000000000E+00 -0.69692841453E+03  0.69692841454E+03  0.50400001928E-02 0. -1.
    10030    2    1    2    0    0  0.00000000000E+00  0.00000000000E+00  0.32544227325E+03  0.17192991023E+04  0.16882170269E+04 0.  0.
        4    1    3    3  502    0 -0.52594659605E+03 -0.16250266335E+03  0.81441727221E+03  0.98300765189E+03  0.12699999809E+01 0.  1.
       -4    1    3    3    0  502  0.52594659605E+03  0.16250266335E+03 -0.48897499896E+03  0.73629145045E+03  0.12699999809E+01 0. -1.
</event>
<event>
 5   0  0.5342255E-04  0.1668528E+04  0.7818609E-02  0.8779521E-01
        2   -1    0    0  501    0  0.00000000000E+00  0.00000000000E+00  0.21689753108E+04  0.21689753108E+04  0.25500000920E-02 0. -1.
       -2   -1    0    0    0  501  0.00000000000E+00  0.00000000000E+00 -0.32088710160E+03  0.32088710161E+03  0.25500000920E-02 0.  1.
    10030    2    1    2    0    0  0.00000000000E+00  0.00000000000E+00  0.18480882092E+04  0.24898624125E+04  0.16685277354E+04 0.  0.
        5    1    3    3  502    0  0.50625846258E+03  0.19211409394E+03  0.18710872198E+04  0.19478693308E+04  0.46999998093E+01 0. -1.
       -5    1    3    3    0  502 -0.50625846258E+03 -0.19211409394E+03 -0.22999010533E+02  0.54199308161E+03  0.46999998093E+01 0.  1.
</event>
<event>
 5   0  0.2595644E-04  0.1683285E+04  0.7818609E-02  0.8770956E-01
        1   -1    0    0  501    0  0.00000000000E+00  0.00000000000E+00  0.76064312418E+03  0.76064312419E+03  0.50400001928E-02 0. -1.
       -1   -1    0    0    0  501  0.00000000000E+00  0.00000000000E+00 -0.93126691799E+03  0.93126691800E+03  0.50400001928E-02 0.  1.
    10030    2    1    2    0    0  0.00000000000E+00  0.00000000000E+00 -0.17062379381E+03  0.16919100422E+04  0.16832846200E+04 0.  0.
        2    1    3    3  502    0 -0.78028197034E+03 -0.79693317243E+01  0.23167423353E+03  0.81398796918E+03  0.25500000920E-02 0. -1.
       -2    1    3    3    0  502  0.78028197034E+03  0.79693317243E+01 -0.40229802734E+03  0.87792207301E+03  0.25500000920E-02 0.  1.
</event>
<event>
 5   0  0.2785059E-04  0.1668819E+04  0.7818609E-02  0.8779350E-01
        1   -1    0    0  501    0  0.00000000000E+00  0.00000000000E+00  0.68091287953E+03  0.68091287955E+03  0.50400001928E-02 0.  1.
       -1   -1    0    0    0  501  0.00000000000E+00  0.00000000000E+00 -0.10225088855E+04  0.10225088855E+04  0.50400001928E-02 0. -1.
    10030    2    1    2    0    0  0.00000000000E+00  0.00000000000E+00 -0.34159600596E+03  0.17034217650E+04  0.16688193067E+04 0.  0.
        5    1    3    3  502    0  0.25665275363E+02  0.39144676398E+03  0.58090092679E+03  0.70096879541E+03  0.46999998093E+01 0.  1.
       -5    1    3    3    0  502 -0.25665275363E+02 -0.39144676398E+03 -0.92249693276E+03  0.10024529696E+04  0.46999998093E+01 0. -1.
</event>
<event>
 5   0  0.2630135E-04  0.1616330E+04  0.7818609E-02  0.8810579E-01
        1   -1    0    0  501    0  0.00000000000E+00  0.00000000000E+00  0.13196797717E+04  0.13196797717E+04  0.50400001928E-02 0. -1.
       -1   -1    0    0    0  501  0.00000000000E+00  0.00000000000E+00 -0.49491571990E+03  0.49491571992E+03  0.50400001928E-02 0.  1.
    10030    2    1    2    0    0  0.00000000000E+00  0.00000000000E+00  0.82476405182E+03  0.18145954917E+04  0.16163295014E+04 0.  0.
        1    1    3    3  502    0  0.41425674308E+03  0.34225701884E+03  0.10900675912E+04  0.12153171889E+04  0.50400001928E-02 0. -1.
       -1    1    3    3    0  502 -0.41425674308E+03 -0.34225701884E+03 -0.26530353940E+03  0.59927830277E+03  0.50400001928E-02 0.  1.
</event>
<event>
 5   0  0.5342255E-04  0.1632503E+04  0.7818609E-02  0.8800825E-01
        2   -1    0    0  501    0  0.00000000000E+00  0.00000000000E+00  0.10031593047E+04  0.10031593047E+04  0.25500000920E-02 0. -1.
       -2   -1    0    0    0  501  0.00000000000E+00  0.00000000000E+00 -0.66416817101E+03  0.66416817101E+03  0.25500000920E-02 0.  1.
    10030    2    1    2    0    0  0.00000000000E+00  0.00000000000E+00  0.33899113365E+03  0.16673274757E+04  0.16325029625E+04 0.  0.
        5    1    3    3  502    0  0.21663694445E+03 -0.67448060428E+03 -0.24460226956E+03  0.74947182170E+03  0.46999998093E+01 0. -1.
       -5    1    3    3    0  502 -0.21663694445E+03  0.67448060428E+03  0.58359340321E+03  0.91785565397E+03  0.46999998093E+01 0.  1.
</event>
<event>
 5   0  0.2595644E-04  0.1678591E+04  0.7818609E-02  0.8773670E-01
        1   -1    0    0  501    0  0.00000000000E+00  0.00000000000E+00  0.16358104682E+04  0.16358104682E+04  0.50400001928E-02 0.  1.
       -1   -1    0    0    0  501  0.00000000000E+00  0.00000000000E+00 -0.43062238643E+03  0.43062238646E+03  0.50400001928E-02 0. -1.
    10030    2    1    2    0    0  0.00000000000E+00  0.00000000000E+00  0.12051880817E+04  0.20664328546E+04  0.16785906083E+04 0.  0.
        2    1    3    3  502    0 -0.25466469583E+03 -0.47488389946E+03  0.13947336699E+04  0.14952092948E+04  0.25500000920E-02 0.  1.
       -2    1    3    3    0  502  0.25466469583E+03  0.47488389946E+03 -0.18954558820E+03  0.57122355981E+03  0.25500000920E-02 0. -1.
</event>
<event>
 5   0  0.2583422E-04  0.1716509E+04  0.7818609E-02  0.8752004E-01
        1   -1    0    0  501    0  0.00000000000E+00  0.00000000000E+00  0.85992874788E+03  0.85992874789E+03  0.50400001928E-02 0.  1.
       -1   -1    0    0    0  501  0.00000000000E+00  0.00000000000E+00 -0.85658337329E+03  0.85658337330E+03  0.50400001928E-02 0. -1.
    10030    2    1    2    0    0  0.00000000000E+00  0.00000000000E+00  0.33453745946E+01  0.17165121212E+04  0.17165088612E+04 0.  0.
        3    1    3    3  502    0  0.32909976998E+02 -0.41570658537E+03  0.75181118326E+03  0.85971803353E+03  0.10100000352E+00 0.  1.
       -3    1    3    3    0  502 -0.32909976998E+02  0.41570658537E+03 -0.74846580867E+03  0.85679408766E+03  0.10100000352E+00 0. -1.
</event>
<event>
 5   0  0.5299877E-04  0.1691167E+04  0.7818609E-02  0.8766418E-01
        2   -1    0    0  501    0  0.00000000000E+00  0.00000000000E+00  0.64895791817E+03  0.64895791817E+03  0.25500000920E-02 0. -1.
       -2   -1    0    0    0  501  0.00000000000E+00  0.00000000000E+00 -0.11017842218E+04  0.11017842218E+04  0.25500000920E-02 0.  1.
    10030    2    1    2    0    0  0.00000000000E+00  0.00000000000E+00 -0.45282630362E+03  0.17507421400E+04  0.16911671648E+04 0.  0.
        3    1    3    3  502    0 -0.10927421085E+03 -0.79710943451E+03 -0.49574591173E+03  0.94503350361E+03  0.10100000352E+00 0.  1.
       -3    1    3    3    0  502  0.10927421085E+03  0.79710943451E+03  0.42919608116E+02  0.80570863636E+03  0.10100000352E+00 0. -1.
</event>
<event>
 5   0  0.5342255E-04  0.1692622E+04  0.7818609E-02  0.8765583E-01
       -2   -1    0    0    0  501  0.00000000000E+00  0.00000000000E+00  0.11267710351E+04  0.11267710351E+04  0.25500000920E-02 0. -1.
        2   -1    0    0  501    0  0.00000000000E+00  0.00000000000E+00 -0.63565920261E+03  0.63565920262E+03  0.25500000920E-02 0.  1.
    10030    2    1    2    0    0  0.00000000000E+00  0.00000000000E+00  0.49111183252E+03  0.17624302378E+04  0.16926220815E+04 0.  0.
        5    1    3    3  502    0  0.55193804251E+02 -0.11393689937E+03 -0.62572981713E+03  0.63842608587E+03  0.46999998093E+01 0.  1.
       -5    1    3    3    0  502 -0.55193804251E+02  0.11393689937E+03  0.11168416497E+04  0.11240041519E+04  0.46999998093E+01 0. -1.
</event>
<event>
 5   0  0.5310003E-04  0.1696921E+04  0.7818609E-02  0.8763122E-01
        2   -1    0    0  501    0  0.00000000000E+00  0.00000000000E+00  0.63333276136E+03  0.63333276137E+03  0.25500000920E-02 0. -1.
       -2   -1    0    0    0  501  0.00000000000E+00  0.00000000000E+00 -0.11366621251E+04  0.11366621251E+04  0.25500000920E-02 0.  1.
    10030    2    1    2    0    0  0.00000000000E+00  0.00000000000E+00 -0.50332936371E+03  0.17699948864E+04  0.16969211678E+04 0.  0.
        1    1    3    3  502    0 -0.37016136460E+03  0.50266441425E+03  0.34770559872E+03  0.71455589887E+03  0.50400001928E-02 0. -1.
       -1    1    3    3    0  502  0.37016136460E+03 -0.50266441425E+03 -0.85103496243E+03  0.10554389876E+04  0.50400001928E-02 0.  1.
</event>
<event>
 5   0  0.2561518E-04  0.1672225E+04  0.7818609E-02  0.8777366E-01
       -1   -1    0    0    0  501  0.00000000000E+00  0.00000000000E+00  0.65451691326E+03  0.65451691328E+03  0.50400001928E-02 0. -1.
        1   -1    0    0  501    0  0.00000000000E+00  0.00000000000E+00 -0.10680913675E+04  0.10680913675E+04  0.50400001928E-02 0.  1.
    10030    2    1    2    0    0  0.00000000000E+00  0.00000000000E+00 -0.41357445425E+03  0.17226082808E+04  0.16722247038E+04 0.  0.
        4    1    3    3  502    0 -0.12274045345E+03 -0.76761815183E+03 -0.52392566832E+03  0.93744469957E+03  0.12699999809E+01 0.  1.
       -4    1    3    3    0  502  0.12274045345E+03  0.76761815183E+03  0.11035121407E+03  0.78516358122E+03  0.12699999809E+01 0. -1.
</event>
<event>
 5   0  0.2583422E-04  0.1691348E+04  0.7818609E-02  0.8766314E-01
       -1   -1    0    0    0  501  0.00000000000E+00  0.00000000000E+00  0.81840285532E+03  0.81840285534E+03  0.50400001928E-02 0. -1.
        1   -1    0    0  501    0  0.00000000000E+00  0.00000000000E+00 -0.87385372382E+03  0.87385372383E+03  0.50400001928E-02 0.  1.
    10030    2    1    2    0    0  0.00000000000E+00  0.00000000000E+00 -0.55450868497E+02  0.16922565792E+04  0.16913478444E+04 0.  0.
        3    1    3    3  502    0  0.76426760978E+03 -0.21429884788E+03  0.26421104063E+03  0.83656228684E+03  0.10100000352E+00 0.  1.
       -3    1    3    3    0  502 -0.76426760978E+03  0.21429884788E+03 -0.31966190913E+03  0.85569429233E+03  0.10100000352E+00 0. -1.
</event>
<event>
 5   0  0.2630135E-04  0.1621016E+04  0.7818609E-02  0.8807740E-01
        1   -1    0    0  501    0  0.00000000000E+00  0.00000000000E+00  0.13128470734E+04  0.13128470734E+04  0.50400001928E-02 0.  1.
       -1   -1    0    0    0  501  0.00000000000E+00  0.00000000000E+00 -0.50038073895E+03  0.50038073898E+03  0.50400001928E-02 0. -1.
    10030    2    1    2    0    0  0.00000000000E+00  0.00000000000E+00  0.81246633444E+03  0.18132278124E+04  0.16210162106E+04 0.  0.
        1    1    3    3  502    0 -0.56662442247E+03 -0.57220786579E+03  0.50898575668E+03  0.95265501539E+03  0.50400001928E-02 0.  1.
       -1    1    3    3    0  502  0.56662442247E+03  0.57220786579E+03  0.30348057777E+03  0.86057279699E+03  0.50400001928E-02 0. -1.
</event>
<event>
 5   0  0.5021349E-04  0.1695142E+04  0.7818609E-02  0.8764140E-01
        2   -1    0    0  501    0  0.00000000000E+00  0.00000000000E+00  0.18179325684E+04  0.18179325684E+04  0.25500000920E-02 0. -1.
       -2   -1    0    0    0  501  0.00000000000E+00  0.00000000000E+00 -0.39516129967E+03  0.39516129968E+03  0.25500000920E-02 0.  1.
    10030    2    1    2    0    0  0.00000000000E+00  0.00000000000E+00  0.14227712687E+04  0.22130938680E+04  0.16951419957E+04 0.  0.
        2    1    3    3  502    0  0.71428245765E+03  0.11931762581E+03  0.13643841901E+03  0.73692032631E+03  0.25500000920E-02 0.  1.
       -2    1    3    3    0  502 -0.71428245765E+03 -0.11931762581E+03  0.12863328497E+04  0.14761735417E+04  0.25500000920E-02 0. -1.
</event>
<event>
 5   0  0.2630135E-04  0.1678957E+04  0.7818609E-02  0.8773458E-01
        1   -1    0    0  501    0  0.00000000000E+00  0.00000000000E+00  0.15111128689E+04  0.15111128689E+04  0.50400001928E-02 0.  1.
       -1   -1    0    0    0  501  0.00000000000E+00  0.00000000000E+00 -0.46636128409E+03  0.46636128411E+03  0.50400001928E-02 0. -1.
    10030    2    1    2    0    0  0.00000000000E+00  0.00000000000E+00  0.10447515848E+04  0.19774741530E+04  0.16789574598E+04 0.  0.
        1    1    3    3  502    0 -0.82479145960E+03  0.14461229229E+03  0.59236193396E+03  0.10257125951E+04  0.50400001928E-02 0.  1.
       -1    1    3    3    0  502  0.82479145960E+03 -0.14461229229E+03  0.45238965084E+03  0.95176155791E+03  0.50400001928E-02 0. -1.
</event>
<event>
 5   0  0.1910750E-04  0.1688155E+04  0.7818609E-02  0.8768149E-01
       -4   -1    0    0    0  501  0.00000000000E+00  0.00000000000E+00  0.54205558743E+03  0.54205707519E+03  0.12699999809E+01 0. -1.
        4   -1    0    0  501    0  0.00000000000E+00  0.00000000000E+00 -0.13143758071E+04  0.13143764206E+04  0.12699999809E+01 0.  1.
    10030    2    1    2    0    0  0.00000000000E+00  0.00000000000E+00 -0.77232021962E+03  0.18564334958E+04  0.16881548515E+04 0.  0.
        5    1    3    3  502    0 -0.35595356388E+03 -0.14920641715E+03 -0.12116391052E+04  0.12716355240E+04  0.46999998093E+01 0.  1.
       -5    1    3    3    0  502  0.35595356388E+03  0.14920641715E+03  0.43931888562E+03  0.58479797180E+03  0.46999998093E+01 0. -1.
</event>
<event>
 5   0  0.2561518E-04  0.1713237E+04  0.7818609E-02  0.8753851E-01
        1   -1    0    0  501    0  0.00000000000E+00  0.00000000000E+00  0.74145043090E+03  0.74145043091E+03  0.50400001928E-02 0. -1.
       -1   -1    0    0    0  501  0.00000000000E+00  0.00000000000E+00 -0.98967511793E+03  0.98967511794E+03  0.50400001928E-02 0.  1.
    10030    2    1    2    0    0  0.00000000000E+00  0.00000000000E+00 -0.24822468703E+03  0.17311255489E+04  0.17132367527E+04 0.  0.
        4    1    3    3  502    0  0.81321756775E+02  0.35081504804E+02 -0.98503549287E+03  0.98900984587E+03  0.12699999809E+01 0.  1.
       -4    1    3    3    0  502 -0.81321756775E+02 -0.35081504804E+02  0.73681080584E+03  0.74211570298E+03  0.12699999809E+01 0. -1.
</event>
<event>
 5   0  0.5310003E-04  0.1670121E+04  0.7818609E-02  0.8778591E-01
       -2   -1    0    0    0  501  0.00000000000E+00  0.00000000000E+00  0.64064736822E+03  0.64064736823E+03  0.25500000920E-02 0. -1.
        2   -1    0    0  501    0  0.00000000000E+00  0.00000000000E+00 -0.10884712813E+04  0.10884712813E+04  0.25500000920E-02 0.  1.
    10030    2    1    2    0    0  0.00000000000E+00  0.00000000000E+00 -0.44782391306E+03  0.17291186495E+04  0.16701212671E+04 0.  0.
        1    1    3    3  502    0  0.24502194964E+03  0.68974392477E+03 -0.64003519371E+03  0.97233095537E+03  0.50400001928E-02 0.  1.
       -1    1    3    3    0  502 -0.24502194964E+03 -0.68974392477E+03  0.19221128065E+03  0.75678769413E+03  0.50400001928E-02 0. -1.
</event>
<event>
 5   0  0.5299877E-04  0.1711120E+04  0.7818609E-02  0.8755047E-01
        2   -1    0    0  501    0  0.00000000000E+00  0.00000000000E+00  0.99208759219E+03  0.99208759220E+03  0.25500000920E-02 0.  1.
       -2   -1    0    0    0  501  0.00000000000E+00  0.00000000000E+00 -0.73782124814E+03  0.73782124815E+03  0.25500000920E-02 0. -1.
    10030    2    1    2    0    0  0.00000000000E+00  0.00000000000E+00  0.25426634405E+03  0.17299088403E+04  0.17111204581E+04 0.  0.
        3    1    3    3  502    0  0.15073056667E+03  0.23454866034E+03  0.94487209844E+03  0.98514774040E+03  0.10100000352E+00 0.  1.
       -3    1    3    3    0  502 -0.15073056667E+03 -0.23454866034E+03 -0.69060575439E+03  0.74476109995E+03  0.10100000352E+00 0. -1.
</event>
<event>
 5   0  0.2595644E-04  0.1325473E+04  0.7818609E-02  0.9009605E-01
        1   -1    0    0  501    0  0.00000000000E+00  0.00000000000E+00  0.32592284010E+03  0.32592284014E+03  0.50400001928E-02 0. -1.
       -1   -1    0    0    0  501  0.00000000000E+00  0.00000000000E+00 -0.13476189409E+04  0.13476189409E+04  0.50400001928E-02 0.  1.
    10030    2    1    2    0    0  0.00000000000E+00  0.00000000000E+00 -0.10216961008E+04  0.16735417810E+04  0.13254731874E+04 0.  0.
        2    1    3    3  502    0 -0.63984802092E+03  0.24751623233E+02 -0.72660727939E+03  0.96849175071E+03  0.25500000920E-02 0.  1.
       -2    1    3    3    0  502  0.63984802092E+03 -0.24751623233E+02 -0.29508882139E+03  0.70505003031E+03  0.25500000920E-02 0. -1.
</event>
<event>
 5   0  0.1910750E-04  0.1718348E+04  0.7818609E-02  0.8750968E-01
       -3   -1    0    0    0  501  0.00000000000E+00  0.00000000000E+00  0.47399372032E+03  0.47399373108E+03  0.10100000352E+00 0.  1.
        3   -1    0    0  501    0  0.00000000000E+00  0.00000000000E+00 -0.15573630919E+04  0.15573630952E+04  0.10100000352E+00 0. -1.
    10030    2    1    2    0    0  0.00000000000E+00  0.00000000000E+00 -0.10833693716E+04  0.20313568262E+04  0.17183484397E+04 0.  0.
        3    1    3    3  502    0 -0.20562901532E+03  0.80638560142E+03 -0.79423299837E+03  0.11503682437E+04  0.10100000352E+00 0.  1.
       -3    1    3    3    0  502  0.20562901532E+03 -0.80638560142E+03 -0.28913637319E+03  0.88098858257E+03  0.10100000352E+00 0. -1.
</event>
<event>
 5   0  0.2785059E-04  0.1258341E+04  0.7818609E-02  0.9063270E-01
        1   -1    0    0  501    0  0.00000000000E+00  0.00000000000E+00  0.16542996821E+04  0.16542996821E+04  0.50400001928E-02 0. -1.
       -1   -1    0    0    0  501  0.00000000000E+00  0.00000000000E+00 -0.23928869212E+03  0.23928869217E+03  0.50400001928E-02 0.  1.
    10030    2    1    2    0    0  0.00000000000E+00  0.00000000000E+00  0.14150109900E+04  0.18935883743E+04  0.12583405061E+04 0.  0.
        5    1    3    3  502    0  0.10451135788E+03 -0.59171744269E+03  0.98815106625E+03  0.11565106033E+04  0.46999998093E+01 0. -1.
       -5    1    3    3    0  502 -0.10451135788E+03  0.59171744269E+03  0.42685992370E+03  0.73707777091E+03  0.46999998093E+01 0.  1.
</event>
<event>
 5   0  0.5342255E-04  0.1709447E+04  0.7818609E-02  0.8755995E-01
        2   -1    0    0  501    0  0.00000000000E+00  0.00000000000E+00  0.20863038272E+04  0.20863038272E+04  0.25500000920E-02 0.  1.
       -2   -1    0    0    0  501  0.00000000000E+00  0.00000000000E+00 -0.35016568727E+03  0.35016568728E+03  0.25500000920E-02 0. -1.
    10030    2    1    2    0    0  0.00000000000E+00  0.00000000000E+00  0.17361381399E+04  0.24364695145E+04  0.17094467099E+04 0.  0.
        5    1    3    3  502    0  0.58720400963E+03 -0.13607214451E+03  0.17317635606E+04  0.18336715347E+04  0.46999998093E+01 0.  1.
       -5    1    3    3    0  502 -0.58720400963E+03  0.13607214451E+03  0.43745793277E+01  0.60279797975E+03  0.46999998093E+01 0. -1.
</event>
<event>
 5   0  0.5310003E-04  0.1710580E+04  0.7818609E-02  0.8755353E-01
       -2   -1    0    0    0  501  0.00000000000E+00  0.00000000000E+00  0.47356217173E+03  0.47356217173E+03  0.25500000920E-02 0. -1.
        2   -1    0    0  501    0  0.00000000000E+00  0.00000000000E+00 -0.15447196908E+04  0.15447196908E+04  0.25500000920E-02 0.  1.
    10030    2    1    2    0    0  0.00000000000E+00  0.00000000000E+00 -0.10711575191E+04  0.20182818626E+04  0.17105797982E+04 0.  0.
        1    1    3    3  502    0  0.72317401299E+03 -0.16485407778E+03 -0.33105247114E+02  0.74246446207E+03  0.50400001928E-02 0. -1.
       -1    1    3    3    0  502 -0.72317401299E+03  0.16485407778E+03 -0.10380522720E+04  0.12758174005E+04  0.50400001928E-02 0.  1.
</event>
<event>
 5   0  0.2785059E-04  0.1697751E+04  0.7818609E-02  0.8762648E-01
       -1   -1    0    0    0  501  0.00000000000E+00  0.00000000000E+00  0.77449341605E+03  0.77449341607E+03  0.50400001928E-02 0. -1.
        1   -1    0    0  501    0  0.00000000000E+00  0.00000000000E+00 -0.93040128817E+03  0.93040128819E+03  0.50400001928E-02 0.  1.
    10030    2    1    2    0    0  0.00000000000E+00  0.00000000000E+00 -0.15590787212E+03  0.17048947043E+04  0.16977510677E+04 0.  0.
        5    1    3    3  502    0  0.51611059774E+03  0.37873179453E+02 -0.75366190438E+03  0.91423896380E+03  0.46999998093E+01 0.  1.
       -5    1    3    3    0  502 -0.51611059774E+03 -0.37873179453E+02  0.59775403226E+03  0.79065574045E+03  0.46999998093E+01 0. -1.
</event>
<event>
 5   0  0.2561518E-04  0.1711962E+04  0.7818609E-02  0.8754571E-01
       -1   -1    0    0    0  501  0.00000000000E+00  0.00000000000E+00  0.70357678494E+03  0.70357678496E+03  0.50400001928E-02 0.  1.
        1   -1    0    0  501    0  0.00000000000E+00  0.00000000000E+00 -0.10413975591E+04  0.10413975591E+04  0.50400001928E-02 0. -1.
    10030    2    1    2    0    0  0.00000000000E+00  0.00000000000E+00 -0.33782077412E+03  0.17449743440E+04  0.17119616193E+04 0.  0.
        4    1    3    3  502    0 -0.40500654859E+03  0.22050991605E+02  0.59940564886E+03  0.72374394326E+03  0.12699999809E+01 0.  1.
       -4    1    3    3    0  502  0.40500654859E+03 -0.22050991605E+02 -0.93722642297E+03  0.10212304008E+04  0.12699999809E+01 0. -1.
</event>
<event>
 5   0  0.5198430E-04  0.1699984E+04  0.7818609E-02  0.8761373E-01
       -2   -1    0    0    0  501  0.00000000000E+00  0.00000000000E+00  0.63656728409E+03  0.63656728409E+03  0.25500000920E-02 0. -1.
        2   -1    0    0  501    0  0.00000000000E+00  0.00000000000E+00 -0.11349732156E+04  0.11349732156E+04  0.25500000920E-02 0.  1.
    10030    2    1    2    0    0  0.00000000000E+00  0.00000000000E+00 -0.49840593150E+03  0.17715404997E+04  0.16999844910E+04 0.  0.
        4    1    3    3  502    0 -0.43991671651E+02  0.37909025165E+03  0.54226620923E+03  0.66309798721E+03  0.12699999809E+01 0. -1.
       -4    1    3    3    0  502  0.43991671651E+02 -0.37909025165E+03 -0.10406721407E+04  0.11084425125E+04  0.12699999809E+01 0.  1.
</event>
<event>
 5   0  0.5310003E-04  0.1669390E+04  0.7818609E-02  0.8779018E-01
       -2   -1    0    0    0  501  0.00000000000E+00  0.00000000000E+00  0.13240651331E+04  0.13240651332E+04  0.25500000920E-02 0.  1.
        2   -1    0    0  501    0  0.00000000000E+00  0.00000000000E+00 -0.52619434410E+03  0.52619434410E+03  0.25500000920E-02 0. -1.
    10030    2    1    2    0    0  0.00000000000E+00  0.00000000000E+00  0.79787078905E+03  0.18502594773E+04  0.16693898098E+04 0.  0.
        1    1    3    3  502    0 -0.87215618808E+02 -0.60840566369E+03  0.10248819448E+04  0.11950510519E+04  0.50400001928E-02 0.  1.
       -1    1    3    3    0  502  0.87215618808E+02  0.60840566369E+03 -0.22701115578E+03  0.65520842535E+03  0.50400001928E-02 0. -1.
</event>
<event>
 5   0  0.5342255E-04  0.1706375E+04  0.7818609E-02  0.8757737E-01
       -2   -1    0    0    0  501  0.00000000000E+00  0.00000000000E+00  0.43341761933E+03  0.43341761934E+03  0.25500000920E-02 0. -1.
        2   -1    0    0  501    0  0.00000000000E+00  0.00000000000E+00 -0.16795083490E+04  0.16795083490E+04  0.25500000920E-02 0.  1.
    10030    2    1    2    0    0  0.00000000000E+00  0.00000000000E+00 -0.12460907297E+04  0.21129259683E+04  0.17063745313E+04 0.  0.
        5    1    3    3  502    0  0.41298180940E+03  0.67434829581E+03 -0.22640396951E+03  0.82254510293E+03  0.46999998093E+01 0. -1.
       -5    1    3    3    0  502 -0.41298180940E+03 -0.67434829581E+03 -0.10196867601E+04  0.12903808654E+04  0.46999998093E+01 0.  1.
</event>
<event>
 5   0  0.5342255E-04  0.1711945E+04  0.7818609E-02  0.8754581E-01
        2   -1    0    0  501    0  0.00000000000E+00  0.00000000000E+00  0.12105172152E+04  0.12105172152E+04  0.25500000920E-02 0.  1.
       -2   -1    0    0    0  501  0.00000000000E+00  0.00000000000E+00 -0.60526956929E+03  0.60526956929E+03  0.25500000920E-02 0. -1.
    10030    2    1    2    0    0  0.00000000000E+00  0.00000000000E+00  0.60524764590E+03  0.18157867845E+04  0.17119453653E+04 0.  0.
        5    1    3    3  502    0  0.27684967260E+03 -0.15809407912E+03 -0.53993290327E+03  0.62704793206E+03  0.46999998093E+01 0. -1.
       -5    1    3    3    0  502 -0.27684967260E+03  0.15809407912E+03  0.11451805492E+04  0.11887388524E+04  0.46999998093E+01 0.  1.
</event>
<event>
 5   0  0.5342255E-04  0.1736880E+04  0.7818609E-02  0.8740605E-01
        2   -1    0    0  501    0  0.00000000000E+00  0.00000000000E+00  0.76508364871E+03  0.76508364871E+03  0.25500000920E-02 0.  1.
       -2   -1    0    0    0  501  0.00000000000E+00  0.00000000000E+00 -0.98575895578E+03  0.98575895579E+03  0.25500000920E-02 0. -1.
    10030    2    1    2    0    0  0.00000000000E+00  0.00000000000E+00 -0.22067530707E+03  0.17508426045E+04  0.17368800288E+04 0.  0.
        5    1    3    3  502    0  0.20350037147E+03 -0.31791070913E+03  0.67805338401E+03  0.77605289880E+03  0.46999998093E+01 0.  1.
       -5    1    3    3    0  502 -0.20350037147E+03  0.31791070913E+03 -0.89872869108E+03  0.97478970570E+03  0.46999998093E+01 0. -1.
</event>
<event>
 5   0  0.2785059E-04  0.1702896E+04  0.7818609E-02  0.8759715E-01
        1   -1    0    0  501    0  0.00000000000E+00  0.00000000000E+00  0.90246528824E+03  0.90246528826E+03  0.50400001928E-02 0. -1.
       -1   -1    0    0    0  501  0.00000000000E+00  0.00000000000E+00 -0.80331440532E+03  0.80331440533E+03  0.50400001928E-02 0.  1.
    10030    2    1    2    0    0  0.00000000000E+00  0.00000000000E+00  0.99150882924E+02  0.17057796936E+04  0.17028956120E+04 0.  0.
        5    1    3    3  502    0 -0.63844544389E+03  0.33951594811E+03  0.49984493334E+03  0.87906240462E+03  0.46999998093E+01 0. -1.
       -5    1    3    3    0  502  0.63844544389E+03 -0.33951594811E+03 -0.40069405042E+03  0.82671728897E+03  0.46999998093E+01 0.  1.
</event>
<event>
 5   0  0.5310003E-04  0.1683796E+04  0.7818609E-02  0.8770660E-01
       -2   -1    0    0    0  501  0.00000000000E+00  0.00000000000E+00  0.10085415561E+04  0.10085415561E+04  0.25500000920E-02 0.  1.
        2   -1    0    0  501    0  0.00000000000E+00  0.00000000000E+00 -0.70278959942E+03  0.70278959942E+03  0.25500000920E-02 0. -1.
    10030    2    1    2    0    0  0.00000000000E+00  0.00000000000E+00  0.30575195671E+03  0.17113311555E+04  0.16837963252E+04 0.  0.
        1    1    3    3  502    0 -0.29370984469E+03  0.75354582359E+03 -0.84819670206E+02  0.81319810477E+03  0.50400001928E-02 0.  1.
       -1    1    3    3    0  502  0.29370984469E+03 -0.75354582359E+03  0.39057162691E+03  0.89813305078E+03  0.50400001928E-02 0. -1.
</event>
<event>
 5   0  0.2595644E-04  0.1680591E+04  0.7818609E-02  0.8772512E-01
        1   -1    0    0  501    0  0.00000000000E+00  0.00000000000E+00  0.21306780410E+04  0.21306780410E+04  0.50400001928E-02 0. -1.
       -1   -1    0    0    0  501  0.00000000000E+00  0.00000000000E+00 -0.33139523678E+03  0.33139523682E+03  0.50400001928E-02 0.  1.
    10030    2    1    2    0    0  0.00000000000E+00  0.00000000000E+00  0.17992828042E+04  0.24620732778E+04  0.16805910317E+04 0.  0.
        2    1    3    3  502    0 -0.66996942956E+03  0.26804372673E+03  0.26885521237E+03  0.77005818041E+03  0.25500000920E-02 0.  1.
       -2    1    3    3    0  502  0.66996942956E+03 -0.26804372673E+03  0.15304275919E+04  0.16920150974E+04  0.25500000920E-02 0. -1.
</event>
<event>
 5   0  0.2595644E-04  0.1722625E+04  0.7818609E-02  0.8748565E-01
       -1   -1    0    0    0  501  0.00000000000E+00  0.00000000000E+00  0.42015292637E+03  0.42015292640E+03  0.50400001928E-02 0. -1.
        1   -1    0    0  501    0  0.00000000000E+00  0.00000000000E+00 -0.17656889555E+04  0.17656889555E+04  0.50400001928E-02 0.  1.
    10030    2    1    2    0    0  0.00000000000E+00  0.00000000000E+00 -0.13455360291E+04  0.21858418819E+04  0.17226251847E+04 0.  0.
        2    1    3    3  502    0 -0.64703048229E+03 -0.54609719927E+03 -0.47218205665E+03  0.96944648676E+03  0.25500000920E-02 0. -1.
       -2    1    3    3    0  502  0.64703048229E+03  0.54609719927E+03 -0.87335397244E+03  0.12163953951E+04  0.25500000920E-02 0.  1.
</event>
<event>
 5   0  0.2583422E-04  0.1690340E+04  0.7818609E-02  0.8766893E-01
        1   -1    0    0  501    0  0.00000000000E+00  0.00000000000E+00  0.16145794047E+04  0.16145794047E+04  0.50400001928E-02 0. -1.
       -1   -1    0    0    0  501  0.00000000000E+00  0.00000000000E+00 -0.44241384997E+03  0.44241385000E+03  0.50400001928E-02 0.  1.
    10030    2    1    2    0    0  0.00000000000E+00  0.00000000000E+00  0.11721655547E+04  0.20569932547E+04  0.16903399546E+04 0.  0.
        3    1    3    3  502    0  0.47415979959E+02 -0.37388123048E+02  0.16119511019E+04  0.16130816817E+04  0.10100000352E+00 0. -1.
       -3    1    3    3    0  502 -0.47415979959E+02  0.37388123048E+02 -0.43978554717E+03  0.44391157295E+03  0.10100000352E+00 0.  1.
</event>
<event>
 5   0  0.5310003E-04  0.1666030E+04  0.7818609E-02  0.8780979E-01
        2   -1    0    0  501    0  0.00000000000E+00  0.00000000000E+00  0.15435442465E+04  0.15435442465E+04  0.25500000920E-02 0. -1.
       -2   -1    0    0    0  501  0.00000000000E+00  0.00000000000E+00 -0.44955905494E+03  0.44955905495E+03  0.25500000920E-02 0.  1.
    10030    2    1    2    0    0  0.00000000000E+00  0.00000000000E+00  0.10939851916E+04  0.19931033015E+04  0.16660303631E+04 0.  0.
        1    1    3    3  502    0 -0.45669230447E+03 -0.55194053445E+03  0.10555449628E+04  0.12756885917E+04  0.50400001928E-02 0.  1.
       -1    1    3    3    0  502  0.45669230447E+03  0.55194053445E+03  0.38440228762E+02  0.71741470974E+03  0.50400001928E-02 0. -1.
</event>
<event>
 5   0  0.2561518E-04  0.1690126E+04  0.7818609E-02  0.8767016E-01
       -1   -1    0    0    0  501  0.00000000000E+00  0.00000000000E+00  0.44697711312E+03  0.44697711315E+03  0.50400001928E-02 0.  1.
        1   -1    0    0  501    0  0.00000000000E+00  0.00000000000E+00 -0.15976918732E+04  0.15976918732E+04  0.50400001928E-02 0. -1.
    10030    2    1    2    0    0  0.00000000000E+00  0.00000000000E+00 -0.11507147601E+04  0.20446689864E+04  0.16901262689E+04 0.  0.
        4    1    3    3  502    0  0.24426748402E+02  0.53393542690E+03  0.21650935204E+03  0.57668155733E+03  0.12699999809E+01 0.  1.
       -4    1    3    3    0  502 -0.24426748402E+02 -0.53393542690E+03 -0.13672241122E+04  0.14679874291E+04  0.12699999809E+01 0. -1.
</event>
<event>
 5   0  0.2561518E-04  0.1714998E+04  0.7818609E-02  0.8752857E-01
        1   -1    0    0  501    0  0.00000000000E+00  0.00000000000E+00  0.99988582358E+03  0.99988582359E+03  0.50400001928E-02 0. -1.
       -1   -1    0    0    0  501  0.00000000000E+00  0.00000000000E+00 -0.73538821103E+03  0.73538821105E+03  0.50400001928E-02 0.  1.
    10030    2    1    2    0    0  0.00000000000E+00  0.00000000000E+00  0.26449761255E+03  0.17352740346E+04  0.17149976642E+04 0.  0.
        4    1    3    3  502    0  0.52668470425E+03 -0.56942194259E+03  0.50217287334E+03  0.92402236662E+03  0.12699999809E+01 0. -1.
       -4    1    3    3    0  502 -0.52668470425E+03  0.56942194259E+03 -0.23767526079E+03  0.81125166803E+03  0.12699999809E+01 0.  1.
</event>
<event>
 5   0  0.2785059E-04  0.1677374E+04  0.7818609E-02  0.8774375E-01
       -1   -1    0    0    0  501  0.00000000000E+00  0.00000000000E+00  0.74534367995E+03  0.74534367996E+03  0.50400001928E-02 0.  1.
        1   -1    0    0  501    0  0.00000000000E+00  0.00000000000E+00 -0.94371996451E+03  0.94371996453E+03  0.50400001928E-02 0. -1.
    10030    2    1    2    0    0  0.00000000000E+00  0.00000000000E+00 -0.19837628457E+03  0.16890636445E+04  0.16773737940E+04 0.  0.
        5    1    3    3  502    0  0.10794781610E+03 -0.43774456418E+03 -0.81129446629E+03  0.92816692222E+03  0.46999998093E+01 0. -1.
       -5    1    3    3    0  502 -0.10794781610E+03  0.43774456418E+03  0.61291818172E+03  0.76089672227E+03  0.46999998093E+01 0.  1.
</event>
<event>
 5   0  0.5021349E-04  0.1540843E+04  0.7818609E-02  0.8857738E-01
        2   -1    0    0  501    0  0.00000000000E+00  0.00000000000E+00  0.18984576528E+04  0.18984576528E+04  0.25500000920E-02 0.  1.
       -2   -1    0    0    0  501  0.00000000000E+00  0.00000000000E+00 -0.31264815264E+03  0.31264815265E+03  0.25500000920E-02 0. -1.
    10030    2    1    2    0    0  0.00000000000E+00  0.00000000000E+00  0.15858095001E+04  0.22111058054E+04  0.15408429875E+04 0.  0.
        2    1    3    3  502    0  0.36714524861E+03 -0.89346993557E+02  0.17563543635E+04  0.17965408898E+04  0.25500000920E-02 0.  1.
       -2    1    3    3    0  502 -0.36714524861E+03  0.89346993557E+02 -0.17054486331E+03  0.41456491560E+03  0.25500000920E-02 0. -1.
</event>
<event>
 5   0  0.5198430E-04  0.1701443E+04  0.7818609E-02  0.8760542E-01
        2   -1    0    0  501    0  0.00000000000E+00  0.00000000000E+00  0.11430054484E+04  0.11430054484E+04  0.25500000920E-02 0.  1.
       -2   -1    0    0    0  501  0.00000000000E+00  0.00000000000E+00 -0.63317894862E+03  0.63317894863E+03  0.25500000920E-02 0. -1.
    10030    2    1    2    0    0  0.00000000000E+00  0.00000000000E+00  0.50982649979E+03  0.17761843970E+04  0.17014429031E+04 0.  0.
        4    1    3    3  502    0  0.44321353354E+03 -0.31320828960E+03  0.93881593324E+03  0.10843959786E+04  0.12699999809E+01 0.  1.
       -4    1    3    3    0  502 -0.44321353354E+03  0.31320828960E+03 -0.42898943345E+03  0.69178841845E+03  0.12699999809E+01 0. -1.
</event>
<event>
 5   0  0.5342255E-04  0.1694766E+04  0.7818609E-02  0.8764355E-01
       -2   -1    0    0    0  501  0.00000000000E+00  0.00000000000E+00  0.34750973362E+03  0.34750973363E+03  0.25500000920E-02 0. -1.
        2   -1    0    0  501    0  0.00000000000E+00  0.00000000000E+00 -0.20662948539E+04  0.20662948539E+04  0.25500000920E-02 0.  1.
    10030    2    1    2    0    0  0.00000000000E+00  0.00000000000E+00 -0.17187851202E+04  0.24138045875E+04  0.16947655581E+04 0.  0.
        5    1    3    3  502    0  0.38655548841E+03  0.33706170082E+03  0.10133015052E+03  0.52280553286E+03  0.46999998093E+01 0. -1.
       -5    1    3    3    0  502 -0.38655548841E+03 -0.33706170082E+03 -0.18201152708E+04  0.18909990546E+04  0.46999998093E+01 0.  1.
</event>
<event>
 5   0  0.5299877E-04  0.1756361E+04  0.7818609E-02  0.8729857E-01
       -2   -1    0    0    0  501  0.00000000000E+00  0.00000000000E+00  0.10335633611E+04  0.10335633611E+04  0.25500000920E-02 0.  1.
        2   -1    0    0  501    0  0.00000000000E+00  0.00000000000E+00 -0.74615724931E+03  0.74615724932E+03  0.25500000920E-02 0. -1.
    10030    2    1    2    0    0  0.00000000000E+00  0.00000000000E+00  0.28740611182E+03  0.17797206105E+04  0.17563607768E+04 0.  0.
        3    1    3    3  502    0 -0.76139261818E+03  0.14478182768E+03  0.56213624889E+03  0.95743285361E+03  0.10100000352E+00 0.  1.
       -3    1    3    3    0  502  0.76139261818E+03 -0.14478182768E+03 -0.27473013707E+03  0.82228775685E+03  0.10100000352E+00 0. -1.
</event>
<event>
 5   0  0.5342255E-04  0.1698448E+04  0.7818609E-02  0.8762250E-01
       -2   -1    0    0    0  501  0.00000000000E+00  0.00000000000E+00  0.16688781097E+04  0.16688781097E+04  0.25500000920E-02 0.  1.
        2   -1    0    0  501    0  0.00000000000E+00  0.00000000000E+00 -0.43213543237E+03  0.43213543238E+03  0.25500000920E-02 0. -1.
    10030    2    1    2    0    0  0.00000000000E+00  0.00000000000E+00  0.12367426773E+04  0.21010135421E+04  0.16984479545E+04 0.  0.
        5    1    3    3  502    0  0.55487812182E+03 -0.24278221914E+03  0.13547112247E+04  0.14839466056E+04  0.46999998093E+01 0.  1.
       -5    1    3    3    0  502 -0.55487812182E+03  0.24278221914E+03 -0.11796854731E+03  0.61706693653E+03  0.46999998093E+01 0. -1.
</event>
<event>
 5   0  0.5021349E-04  0.1682626E+04  0.7818609E-02  0.8771336E-01
       -2   -1    0    0    0  501  0.00000000000E+00  0.00000000000E+00  0.77568733098E+03  0.77568733099E+03  0.25500000920E-02 0. -1.
        2   -1    0    0  501    0  0.00000000000E+00  0.00000000000E+00 -0.91249039162E+03  0.91249039162E+03  0.25500000920E-02 0.  1.
    10030    2    1    2    0    0  0.00000000000E+00  0.00000000000E+00 -0.13680306064E+03  0.16881777226E+04  0.16826256107E+04 0.  0.
        2    1    3    3  502    0 -0.45575469832E+03 -0.49717889520E+03 -0.57296056364E+03  0.88497627446E+03  0.25500000920E-02 0.  1.
       -2    1    3    3    0  502  0.45575469832E+03  0.49717889520E+03  0.43615750300E+03  0.80320144814E+03  0.25500000920E-02 0. -1.
</event>
<event>
 5   0  0.2630135E-04  0.1707997E+04  0.7818609E-02  0.8756816E-01
        1   -1    0    0  501    0  0.00000000000E+00  0.00000000000E+00  0.14409590207E+04  0.14409590207E+04  0.50400001928E-02 0. -1.
       -1   -1    0    0    0  501  0.00000000000E+00  0.00000000000E+00 -0.50613058211E+03  0.50613058213E+03  0.50400001928E-02 0.  1.
    10030    2    1    2    0    0  0.00000000000E+00  0.00000000000E+00  0.93482843856E+03  0.19470896028E+04  0.17079969882E+04 0.  0.
        1    1    3    3  502    0  0.36455128512E+03  0.70853367152E+03  0.81766186915E+03  0.11417042241E+04  0.50400001928E-02 0. -1.
       -1    1    3    3    0  502 -0.36455128512E+03 -0.70853367152E+03  0.11716656942E+03  0.80538537867E+03  0.50400001928E-02 0.  1.
</event>
<event>
 5   0  0.2561518E-04  0.1740244E+04  0.7818609E-02  0.8738739E-01
       -1   -1    0    0    0  501  0.00000000000E+00  0.00000000000E+00  0.50401727608E+03  0.50401727610E+03  0.50400001928E-02 0. -1.
        1   -1    0    0  501    0  0.00000000000E+00  0.00000000000E+00 -0.15021553852E+04  0.15021553852E+04  0.50400001928E-02 0.  1.
    10030    2    1    2    0    0  0.00000000000E+00  0.00000000000E+00 -0.99813810911E+03  0.20061726613E+04  0.17402439663E+04 0.  0.
        4    1    3    3  502    0 -0.47385609715E+03 -0.11310233923E+03  0.33205815272E+03  0.58957270089E+03  0.12699999809E+01 0. -1.
       -4    1    3    3    0  502  0.47385609715E+03  0.11310233923E+03 -0.13301962618E+04  0.14165999604E+04  0.12699999809E+01 0.  1.
</event>
<event>
 5   0  0.5198430E-04  0.1688825E+04  0.7818609E-02  0.8767763E-01
       -2   -1    0    0    0  501  0.00000000000E+00  0.00000000000E+00  0.74731786717E+03  0.74731786718E+03  0.25500000920E-02 0. -1.
        2   -1    0    0  501    0  0.00000000000E+00  0.00000000000E+00 -0.95412237416E+03  0.95412237416E+03  0.25500000920E-02 0.  1.
    10030    2    1    2    0    0  0.00000000000E+00  0.00000000000E+00 -0.20680450699E+03  0.17014402413E+04  0.16888252695E+04 0.  0.
        4    1    3    3  502    0  0.61055912474E+03 -0.76144191012E+02  0.47923471554E+03  0.77990249910E+03  0.12699999809E+01 0. -1.
       -4    1    3    3    0  502 -0.61055912474E+03  0.76144191012E+02 -0.68603922253E+03  0.92153774224E+03  0.12699999809E+01 0.  1.
</event>
<event>
 5   0  0.5198430E-04  0.1715343E+04  0.7818609E-02  0.8752662E-01
        2   -1    0    0  501    0  0.00000000000E+00  0.00000000000E+00  0.16017027569E+04  0.16017027569E+04  0.25500000920E-02 0. -1.
       -2   -1    0    0    0  501  0.00000000000E+00  0.00000000000E+00 -0.45926165724E+03  0.45926165725E+03  0.25500000920E-02 0.  1.
    10030    2    1    2    0    0  0.00000000000E+00  0.00000000000E+00  0.11424410996E+04  0.20609644141E+04  0.17153433039E+04 0.  0.
        4    1    3    3  502    0 -0.59944145478E+03 -0.37863416359E+03 -0.86205543590E+01  0.70906263080E+03  0.12699999809E+01 0. -1.
       -4    1    3    3    0  502  0.59944145478E+03  0.37863416359E+03  0.11510616540E+04  0.13519017833E+04  0.12699999809E+01 0.  1.
</event>
<event>
 5   0  0.2595644E-04  0.1719683E+04  0.7818609E-02  0.8750218E-01
        1   -1    0    0  501    0  0.00000000000E+00  0.00000000000E+00  0.15966486367E+04  0.15966486367E+04  0.50400001928E-02 0. -1.
       -1   -1    0    0    0  501  0.00000000000E+00  0.00000000000E+00 -0.46304934303E+03  0.46304934306E+03  0.50400001928E-02 0.  1.
    10030    2    1    2    0    0  0.00000000000E+00  0.00000000000E+00  0.11335992937E+04  0.20596979798E+04  0.17196826478E+04 0.  0.
        2    1    3    3  502    0 -0.50725884059E+03  0.74981787245E+02  0.13934808399E+04  0.14848308492E+04  0.25500000920E-02 0. -1.
       -2    1    3    3    0  502  0.50725884059E+03 -0.74981787245E+02 -0.25988154616E+03  0.57486713057E+03  0.25500000920E-02 0.  1.
</event>
<event>
 5   0  0.2595644E-04  0.1678908E+04  0.7818609E-02  0.8773486E-01
        1   -1    0    0  501    0  0.00000000000E+00  0.00000000000E+00  0.14702217905E+04  0.14702217905E+04  0.50400001928E-02 0. -1.
       -1   -1    0    0    0  501  0.00000000000E+00  0.00000000000E+00 -0.47930396377E+03  0.47930396380E+03  0.50400001928E-02 0.  1.
    10030    2    1    2    0    0  0.00000000000E+00  0.00000000000E+00  0.99091782671E+03  0.19495257543E+04  0.16789081355E+04 0.  0.
        2    1    3    3  502    0 -0.38857188885E+03  0.15309827644E+02 -0.36840515263E+03  0.53567234399E+03  0.25500000920E-02 0.  1.
       -2    1    3    3    0  502  0.38857188885E+03 -0.15309827644E+02  0.13593229793E+04  0.14138534103E+04  0.25500000920E-02 0. -1.
</event>
<event>
 5   0  0.5021349E-04  0.1704497E+04  0.7818609E-02  0.8758804E-01
       -2   -1    0    0    0  501  0.00000000000E+00  0.00000000000E+00  0.89683279692E+03  0.89683279693E+03  0.25500000920E-02 0. -1.
        2   -1    0    0  501    0  0.00000000000E+00  0.00000000000E+00 -0.80988084586E+03  0.80988084586E+03  0.25500000920E-02 0.  1.
    10030    2    1    2    0    0  0.00000000000E+00  0.00000000000E+00  0.86951951064E+02  0.17067136428E+04  0.17044972328E+04 0.  0.
        2    1    3    3  502    0  0.73515759379E+03 -0.24697554763E+02 -0.38750332992E+03  0.83139971591E+03  0.25500000920E-02 0.  1.
       -2    1    3    3    0  502 -0.73515759379E+03  0.24697554763E+02  0.47445528099E+03  0.87531392687E+03  0.25500000920E-02 0. -1.
</event>
<event>
 5   0  0.5299877E-04  0.1699518E+04  0.7818609E-02  0.8761639E-01
        2   -1    0    0  501    0  0.00000000000E+00  0.00000000000E+00  0.16424015672E+04  0.16424015672E+04  0.25500000920E-02 0.  1.
       -2   -1    0    0    0  501  0.00000000000E+00  0.00000000000E+00 -0.43965511677E+03  0.43965511678E+03  0.25500000920E-02 0. -1.
    10030    2    1    2    0    0  0.00000000000E+00  0.00000000000E+00  0.12027464504E+04  0.20820566840E+04  0.16995178761E+04 0.  0.
        3    1    3    3  502    0  0.36820162619E+03 -0.44338344898E+03  0.13663698811E+04  0.14829457113E+04  0.10100000352E+00 0.  1.
       -3    1    3    3    0  502 -0.36820162619E+03  0.44338344898E+03 -0.16362343068E+03  0.59911097272E+03  0.10100000352E+00 0. -1.
</event>
<event>
 5   0  0.5021349E-04  0.1693141E+04  0.7818609E-02  0.8765286E-01
        2   -1    0    0  501    0  0.00000000000E+00  0.00000000000E+00  0.13516169934E+04  0.13516169934E+04  0.25500000920E-02 0.  1.
       -2   -1    0    0    0  501  0.00000000000E+00  0.00000000000E+00 -0.53023992107E+03  0.53023992108E+03  0.25500000920E-02 0. -1.
    10030    2    1    2    0    0  0.00000000000E+00  0.00000000000E+00  0.82137707232E+03  0.18818569145E+04  0.16931406178E+04 0.  0.
        2    1    3    3  502    0  0.10114403555E+03 -0.78985724027E+03  0.73007930791E+03  0.10803334540E+04  0.25500000920E-02 0. -1.
       -2    1    3    3    0  502 -0.10114403555E+03  0.78985724027E+03  0.91297764414E+02  0.80152346050E+03  0.25500000920E-02 0.  1.
</event>
<event>
 5   0  0.5310003E-04  0.1671595E+04  0.7818609E-02  0.8777733E-01
       -2   -1    0    0    0  501  0.00000000000E+00  0.00000000000E+00  0.12054917521E+04  0.12054917521E+04  0.25500000920E-02 0. -1.
        2   -1    0    0  501    0  0.00000000000E+00  0.00000000000E+00 -0.57947917373E+03  0.57947917373E+03  0.25500000920E-02 0.  1.
    10030    2    1    2    0    0  0.00000000000E+00  0.00000000000E+00  0.62601257834E+03  0.17849709258E+04  0.16715948844E+04 0.  0.
        1    1    3    3  502    0  0.70985761313E+02  0.56285118607E+03  0.96840816701E+03  0.11223434474E+04  0.50400001928E-02 0. -1.
       -1    1    3    3    0  502 -0.70985761313E+02 -0.56285118607E+03 -0.34239558867E+03  0.66262747840E+03  0.50400001928E-02 0.  1.
</event>
<event>
 5   0  0.2583422E-04  0.1679226E+04  0.7818609E-02  0.8773302E-01
       -1   -1    0    0    0  501  0.00000000000E+00  0.00000000000E+00  0.67349454502E+03  0.67349454504E+03  0.50400001928E-02 0. -1.
        1   -1    0    0  501    0  0.00000000000E+00  0.00000000000E+00 -0.10467053411E+04  0.10467053411E+04  0.50400001928E-02 0.  1.
    10030    2    1    2    0    0  0.00000000000E+00  0.00000000000E+00 -0.37321079603E+03  0.17201998861E+04  0.16792264141E+04 0.  0.
        3    1    3    3  502    0  0.87779693677E+00  0.69777513275E+03 -0.66496785150E+03  0.96388441223E+03  0.10100000352E+00 0.  1.
       -3    1    3    3    0  502 -0.87779693677E+00 -0.69777513275E+03  0.29175705547E+03  0.75631547388E+03  0.10100000352E+00 0. -1.
</event>
<event>
 5   0  0.5342255E-04  0.1700494E+04  0.7818609E-02  0.8761083E-01
       -2   -1    0    0    0  501  0.00000000000E+00  0.00000000000E+00  0.52402658236E+03  0.52402658237E+03  0.25500000920E-02 0.  1.
        2   -1    0    0  501    0  0.00000000000E+00  0.00000000000E+00 -0.13795484011E+04  0.13795484011E+04  0.25500000920E-02 0. -1.
    10030    2    1    2    0    0  0.00000000000E+00  0.00000000000E+00 -0.85552181871E+03  0.19035749834E+04  0.17004940856E+04 0.  0.
        5    1    3    3  502    0  0.24972585750E+03 -0.32086180818E+03  0.40812977422E+03  0.57611397002E+03  0.46999998093E+01 0.  1.
       -5    1    3    3    0  502 -0.24972585750E+03  0.32086180818E+03 -0.12636515929E+04  0.13274610134E+04  0.46999998093E+01 0. -1.
</event>
<event>
 5   0  0.5198430E-04  0.1714608E+04  0.7818609E-02  0.8753076E-01
       -2   -1    0    0    0  501  0.00000000000E+00  0.00000000000E+00  0.10902763911E+04  0.10902763912E+04  0.25500000920E-02 0.  1.
        2   -1    0    0  501    0  0.00000000000E+00  0.00000000000E+00 -0.67411374829E+03  0.67411374830E+03  0.25500000920E-02 0. -1.
    10030    2    1    2    0    0  0.00000000000E+00  0.00000000000E+00  0.41616264285E+03  0.17643901394E+04  0.17146081823E+04 0.  0.
        4    1    3    3  502    0  0.14193047096E+03 -0.68768311932E+03  0.71421163626E+03  0.10015748626E+04  0.12699999809E+01 0.  1.
       -4    1    3    3    0  502 -0.14193047096E+03  0.68768311932E+03 -0.29804899340E+03  0.76281527682E+03  0.12699999809E+01 0. -1.
</event>
<event>
 5   0  0.5021349E-04  0.1687272E+04  0.7818609E-02  0.8768657E-01
       -2   -1    0    0    0  501  0.00000000000E+00  0.00000000000E+00  0.67315100738E+03  0.67315100738E+03  0.25500000920E-02 0. -1.
        2   -1    0    0  501    0  0.00000000000E+00  0.00000000000E+00 -0.10572988028E+04  0.10572988028E+04  0.25500000920E-02 0.  1.
    10030    2    1    2    0    0  0.00000000000E+00  0.00000000000E+00 -0.38414779544E+03  0.17304498102E+04  0.16872720637E+04 0.  0.
        2    1    3    3  502    0  0.71105685964E+03  0.40428758884E+03  0.19782972295E+02  0.81819415675E+03  0.25500000920E-02 0. -1.
       -2    1    3    3    0  502 -0.71105685964E+03 -0.40428758884E+03 -0.40393076773E+03  0.91225565346E+03  0.25500000920E-02 0.  1.
</event>
<event>
 5   0  0.2583422E-04  0.1654342E+04  0.7818609E-02  0.8787842E-01
        1   -1    0    0  501    0  0.00000000000E+00  0.00000000000E+00  0.15415766012E+04  0.15415766012E+04  0.50400001928E-02 0. -1.
       -1   -1    0    0    0  501  0.00000000000E+00  0.00000000000E+00 -0.44383890618E+03  0.44383890621E+03  0.50400001928E-02 0.  1.
    10030    2    1    2    0    0  0.00000000000E+00  0.00000000000E+00  0.10977376950E+04  0.19854155074E+04  0.16543417694E+04 0.  0.
        3    1    3    3  502    0 -0.69267038650E+03  0.52867088604E+02  0.10877559541E+04  0.12906588315E+04  0.10100000352E+00 0. -1.
       -3    1    3    3    0  502  0.69267038650E+03 -0.52867088604E+02  0.99817409081E+01  0.69475667592E+03  0.10100000352E+00 0.  1.
</event>
<event>
 5   0  0.2785059E-04  0.1615691E+04  0.7818609E-02  0.8810966E-01
        1   -1    0    0  501    0  0.00000000000E+00  0.00000000000E+00  0.10532768964E+04  0.10532768965E+04  0.50400001928E-02 0. -1.
       -1   -1    0    0    0  501  0.00000000000E+00  0.00000000000E+00 -0.61960344586E+03  0.61960344588E+03  0.50400001928E-02 0.  1.
    10030    2    1    2    0    0  0.00000000000E+00  0.00000000000E+00  0.43367345058E+03  0.16728803423E+04  0.16156905576E+04 0.  0.
        5    1    3    3  502    0  0.65470480088E+03 -0.10659976476E+03  0.69423201066E+03  0.96019896937E+03  0.46999998093E+01 0. -1.
       -5    1    3    3    0  502 -0.65470480088E+03  0.10659976476E+03 -0.26055856008E+03  0.71268137297E+03  0.46999998093E+01 0.  1.
</event>
<event>
 5   0  0.5310003E-04  0.1701485E+04  0.7818609E-02  0.8760518E-01
       -2   -1    0    0    0  501  0.00000000000E+00  0.00000000000E+00  0.95341554220E+03  0.95341554221E+03  0.25500000920E-02 0.  1.
        2   -1    0    0  501    0  0.00000000000E+00  0.00000000000E+00 -0.75912615275E+03  0.75912615275E+03  0.25500000920E-02 0. -1.
    10030    2    1    2    0    0  0.00000000000E+00  0.00000000000E+00  0.19428938946E+03  0.17125416950E+04  0.17014848486E+04 0.  0.
        1    1    3    3  502    0 -0.39057694280E+03 -0.13582164287E+03 -0.65116825309E+03  0.77137407318E+03  0.50400001928E-02 0. -1.
       -1    1    3    3    0  502  0.39057694280E+03  0.13582164287E+03  0.84545764254E+03  0.94116762178E+03  0.50400001928E-02 0.  1.
</event>
<event>
 5   0  0.5342255E-04  0.1700199E+04  0.7818609E-02  0.8761251E-01
       -2   -1    0    0    0  501  0.00000000000E+00  0.00000000000E+00  0.84491447003E+03  0.84491447003E+03  0.25500000920E-02 0.  1.
        2   -1    0    0  501    0  0.00000000000E+00  0.00000000000E+00 -0.85531666943E+03  0.85531666943E+03  0.25500000920E-02 0. -1.
    10030    2    1    2    0    0  0.00000000000E+00  0.00000000000E+00 -0.10402199401E+02  0.17002311395E+04  0.17001993183E+04 0.  0.
        5    1    3    3  502    0  0.75897507880E+03  0.36713076819E+03  0.10351693791E+03  0.84945042093E+03  0.46999998093E+01 0.  1.
       -5    1    3    3    0  502 -0.75897507880E+03 -0.36713076819E+03 -0.11391913731E+03  0.85078071854E+03  0.46999998093E+01 0. -1.
</event>
<event>
 5   0  0.5342255E-04  0.1692678E+04  0.7818609E-02  0.8765551E-01
        2   -1    0    0  501    0  0.00000000000E+00  0.00000000000E+00  0.14098722947E+04  0.14098722947E+04  0.25500000920E-02 0. -1.
       -2   -1    0    0    0  501  0.00000000000E+00  0.00000000000E+00 -0.50805288049E+03  0.50805288049E+03  0.25500000920E-02 0.  1.
    10030    2    1    2    0    0  0.00000000000E+00  0.00000000000E+00  0.90181941417E+03  0.19179251752E+04  0.16926779734E+04 0.  0.
        5    1    3    3  502    0 -0.74155237819E+03 -0.45872553896E+02  0.91013698892E+03  0.11748938886E+04  0.46999998093E+01 0. -1.
       -5    1    3    3    0  502  0.74155237819E+03  0.45872553896E+02 -0.83175747510E+01  0.74303128659E+03  0.46999998093E+01 0.  1.
</event>
<event>
 5   0  0.2561518E-04  0.1698317E+04  0.7818609E-02  0.8762325E-01
       -1   -1    0    0    0  501  0.00000000000E+00  0.00000000000E+00  0.76821341387E+03  0.76821341389E+03  0.50400001928E-02 0. -1.
        1   -1    0    0  501    0  0.00000000000E+00  0.00000000000E+00 -0.93863227000E+03  0.93863227001E+03  0.50400001928E-02 0.  1.
    10030    2    1    2    0    0  0.00000000000E+00  0.00000000000E+00 -0.17041885613E+03  0.17068456839E+04  0.16983166966E+04 0.  0.
        4    1    3    3  502    0  0.12211439812E+03 -0.51180598510E+03  0.58462926515E+03  0.78654324940E+03  0.12699999809E+01 0. -1.
       -4    1    3    3    0  502 -0.12211439812E+03  0.51180598510E+03 -0.75504812127E+03  0.92030243450E+03  0.12699999809E+01 0.  1.
</event>
<event>
 5   0  0.2561518E-04  0.1698831E+04  0.7818609E-02  0.8762031E-01
       -1   -1    0    0    0  501  0.00000000000E+00  0.00000000000E+00  0.78417055384E+03  0.78417055386E+03  0.50400001928E-02 0.  1.
        1   -1    0    0  501    0  0.00000000000E+00  0.00000000000E+00 -0.92008898812E+03  0.92008898813E+03  0.50400001928E-02 0. -1.
    10030    2    1    2    0    0  0.00000000000E+00  0.00000000000E+00 -0.13591843428E+03  0.17042595420E+04  0.16988309997E+04 0.  0.
        4    1    3    3  502    0 -0.70946370164E+03 -0.24701635894E+03  0.32972807855E+03  0.82041333742E+03  0.12699999809E+01 0.  1.
       -4    1    3    3    0  502  0.70946370164E+03  0.24701635894E+03 -0.46564651283E+03  0.88384620457E+03  0.12699999809E+01 0. -1.
</event>
<event>
 5   0  0.2595644E-04  0.1697091E+04  0.7818609E-02  0.8763025E-01
        1   -1    0    0  501    0  0.00000000000E+00  0.00000000000E+00  0.12971769220E+04  0.12971769220E+04  0.50400001928E-02 0. -1.
       -1   -1    0    0    0  501  0.00000000000E+00  0.00000000000E+00 -0.55507402444E+03  0.55507402447E+03  0.50400001928E-02 0.  1.
    10030    2    1    2    0    0  0.00000000000E+00  0.00000000000E+00  0.74210289753E+03  0.18522509464E+04  0.16970907041E+04 0.  0.
        2    1    3    3  502    0 -0.82128532196E+03  0.19436376501E+03  0.27501601823E+03  0.88764895286E+03  0.25500000920E-02 0.  1.
       -2    1    3    3    0  502  0.82128532196E+03 -0.19436376501E+03  0.46708687930E+03  0.96460199359E+03  0.25500000920E-02 0. -1.
</event>
<event>
 5   0  0.5310003E-04  0.1645656E+04  0.7818609E-02  0.8792980E-01
        2   -1    0    0  501    0  0.00000000000E+00  0.00000000000E+00  0.24009978380E+04  0.24009978380E+04  0.25500000920E-02 0.  1.
       -2   -1    0    0    0  501  0.00000000000E+00  0.00000000000E+00 -0.28198537923E+03  0.28198537924E+03  0.25500000920E-02 0. -1.
    10030    2    1    2    0    0  0.00000000000E+00  0.00000000000E+00  0.21190124588E+04  0.26829832172E+04  0.16456564476E+04 0.  0.
        1    1    3    3  502    0  0.22195943954E+03 -0.50189898398E+03  0.59961893564E+02  0.55205435568E+03  0.50400001928E-02 0. -1.
       -1    1    3    3    0  502 -0.22195943954E+03  0.50189898398E+03  0.20590505652E+04  0.21309288616E+04  0.50400001928E-02 0.  1.
</event>
<event>
 5   0  0.5342255E-04  0.1692974E+04  0.7818609E-02  0.8765382E-01
       -2   -1    0    0    0  501  0.00000000000E+00  0.00000000000E+00  0.41174808573E+03  0.41174808574E+03  0.25500000920E-02 0. -1.
        2   -1    0    0  501    0  0.00000000000E+00  0.00000000000E+00 -0.17402393622E+04  0.17402393622E+04  0.25500000920E-02 0.  1.
    10030    2    1    2    0    0  0.00000000000E+00  0.00000000000E+00 -0.13284912764E+04  0.21519874479E+04  0.16929739822E+04 0.  0.
        5    1    3    3  502    0  0.30882389887E+03  0.57584717337E+03  0.19741934543E+02  0.65374612930E+03  0.46999998093E+01 0. -1.
       -5    1    3    3    0  502 -0.30882389887E+03 -0.57584717337E+03 -0.13482332110E+04  0.14982413186E+04  0.46999998093E+01 0.  1.
</event>
<event>
 5   0  0.5299877E-04  0.1691528E+04  0.7818609E-02  0.8766211E-01
       -2   -1    0    0    0  501  0.00000000000E+00  0.00000000000E+00  0.79436869282E+03  0.79436869282E+03  0.25500000920E-02 0.  1.
        2   -1    0    0  501    0  0.00000000000E+00  0.00000000000E+00 -0.90048455732E+03  0.90048455733E+03  0.25500000920E-02 0. -1.
    10030    2    1    2    0    0  0.00000000000E+00  0.00000000000E+00 -0.10611586450E+03  0.16948532502E+04  0.16915279965E+04 0.  0.
        3    1    3    3  502    0 -0.59248454591E+03  0.61386169688E+02 -0.65466355753E+03  0.88509354462E+03  0.10100000352E+00 0.  1.
       -3    1    3    3    0  502  0.59248454591E+03 -0.61386169688E+02  0.54854769303E+03  0.80975970553E+03  0.10100000352E+00 0. -1.
</event>
<event>
 5   0  0.2561518E-04  0.1599086E+04  0.7818609E-02  0.8821109E-01
        1   -1    0    0  501    0  0.00000000000E+00  0.00000000000E+00  0.69789952669E+03  0.69789952671E+03  0.50400001928E-02 0. -1.
       -1   -1    0    0    0  501  0.00000000000E+00  0.00000000000E+00 -0.91599058240E+03  0.91599058241E+03  0.50400001928E-02 0.  1.
    10030    2    1    2    0    0  0.00000000000E+00  0.00000000000E+00 -0.21809105571E+03  0.16138901091E+04  0.15990864816E+04 0.  0.
        4    1    3    3  502    0  0.53739641849E+02 -0.26600660821E+03  0.64999420176E+03  0.70437315390E+03  0.12699999809E+01 0. -1.
       -4    1    3    3    0  502 -0.53739641849E+02  0.26600660821E+03 -0.86808525746E+03  0.90951695522E+03  0.12699999809E+01 0.  1.
</event>
<event>
 5   0  0.5310003E-04  0.1695074E+04  0.7818609E-02  0.8764179E-01
        2   -1    0    0  501    0  0.00000000000E+00  0.00000000000E+00  0.14329976292E+04  0.14329976292E+04  0.25500000920E-02 0. -1.
       -2   -1    0    0    0  501  0.00000000000E+00  0.00000000000E+00 -0.50126992773E+03  0.50126992773E+03  0.25500000920E-02 0.  1.
    10030    2    1    2    0    0  0.00000000000E+00  0.00000000000E+00  0.93172770146E+03  0.19342675569E+04  0.16950735890E+04 0.  0.
        1    1    3    3  502    0 -0.12632722059E+03 -0.79733521152E+03  0.76038688123E+03  0.11090041548E+04  0.50400001928E-02 0. -1.
       -1    1    3    3    0  502  0.12632722059E+03  0.79733521152E+03  0.17134082023E+03  0.82526340212E+03  0.50400001928E-02 0.  1.
</event>
<event>
 5   0  0.2561518E-04  0.1688483E+04  0.7818609E-02  0.8767960E-01
        1   -1    0    0  501    0  0.00000000000E+00  0.00000000000E+00  0.72926213999E+03  0.72926214000E+03  0.50400001928E-02 0.  1.
       -1   -1    0    0    0  501  0.00000000000E+00  0.00000000000E+00 -0.97734899016E+03  0.97734899017E+03  0.50400001928E-02 0. -1.
    10030    2    1    2    0    0  0.00000000000E+00  0.00000000000E+00 -0.24808685018E+03  0.17066111302E+04  0.16884828884E+04 0.  0.
        4    1    3    3  502    0  0.36440126260E+03  0.74139081211E+03  0.51875201036E+02  0.82773260528E+03  0.12699999809E+01 0.  1.
       -4    1    3    3    0  502 -0.36440126260E+03 -0.74139081211E+03 -0.29996205121E+03  0.87887852490E+03  0.12699999809E+01 0. -1.
</event>
<event>
 5   0  0.5299877E-04  0.1630590E+04  0.7818609E-02  0.8801972E-01
        2   -1    0    0  501    0  0.00000000000E+00  0.00000000000E+00  0.80071549099E+03  0.80071549099E+03  0.25500000920E-02 0.  1.
       -2   -1    0    0    0  501  0.00000000000E+00  0.00000000000E+00 -0.83014042294E+03  0.83014042294E+03  0.25500000920E-02 0. -1.
    10030    2    1    2    0    0  0.00000000000E+00  0.00000000000E+00 -0.29424931954E+02  0.16308559139E+04  0.16305904407E+04 0.  0.
        3    1    3    3  502    0 -0.24300907322E+02  0.81274769514E+03 -0.74362230357E+02  0.81650419567E+03  0.10100000352E+00 0. -1.
       -3    1    3    3    0  502  0.24300907322E+02 -0.81274769514E+03  0.44937298403E+02  0.81435171826E+03  0.10100000352E+00 0.  1.
</event>
<event>
 5   0  0.5198430E-04  0.1693223E+04  0.7818609E-02  0.8765239E-01
       -2   -1    0    0    0  501  0.00000000000E+00  0.00000000000E+00  0.36907147175E+03  0.36907147176E+03  0.25500000920E-02 0. -1.
        2   -1    0    0  501    0  0.00000000000E+00  0.00000000000E+00 -0.19420383068E+04  0.19420383068E+04  0.25500000920E-02 0.  1.
    10030    2    1    2    0    0  0.00000000000E+00  0.00000000000E+00 -0.15729668350E+04  0.23111097785E+04  0.16932228868E+04 0.  0.
        4    1    3    3  502    0 -0.21306162867E+03  0.20988860661E+03 -0.18675299274E+04  0.18913270810E+04  0.12699999809E+01 0.  1.
       -4    1    3    3    0  502  0.21306162867E+03 -0.20988860661E+03  0.29456309241E+03  0.41978269748E+03  0.12699999809E+01 0. -1.
</event>
<event>
 5   0  0.2630135E-04  0.1721880E+04  0.7818609E-02  0.8748983E-01
       -1   -1    0    0    0  501  0.00000000000E+00  0.00000000000E+00  0.70868270224E+03  0.70868270225E+03  0.50400001928E-02 0. -1.
        1   -1    0    0  501    0  0.00000000000E+00  0.00000000000E+00 -0.10459096956E+04  0.10459096956E+04  0.50400001928E-02 0.  1.
    10030    2    1    2    0    0  0.00000000000E+00  0.00000000000E+00 -0.33722699333E+03  0.17545923978E+04  0.17218804945E+04 0.  0.
        1    1    3    3  502    0  0.20904165398E+03  0.44296180231E+03 -0.89009309523E+03  0.10159622481E+04  0.50400001928E-02 0.  1.
       -1    1    3    3    0  502 -0.20904165398E+03 -0.44296180231E+03  0.55286610190E+03  0.73863014971E+03  0.50400001928E-02 0. -1.
</event>
<event>
 5   0  0.5310003E-04  0.1720361E+04  0.7818609E-02  0.8749836E-01
       -2   -1    0    0    0  501  0.00000000000E+00  0.00000000000E+00  0.47585845456E+03  0.47585845457E+03  0.25500000920E-02 0.  1.
        2   -1    0    0  501    0  0.00000000000E+00  0.00000000000E+00 -0.15548960476E+04  0.15548960476E+04  0.25500000920E-02 0. -1.
    10030    2    1    2    0    0  0.00000000000E+00  0.00000000000E+00 -0.10790375930E+04  0.20307545022E+04  0.17203609275E+04 0.  0.
        1    1    3    3  502    0 -0.20041878391E+03 -0.63934464545E+03 -0.11762707617E+04  0.13537142126E+04  0.50400001928E-02 0. -1.
       -1    1    3    3    0  502  0.20041878391E+03  0.63934464545E+03  0.97233168628E+02  0.67704028958E+03  0.50400001928E-02 0.  1.
</event>
<event>
 5   0  0.2785059E-04  0.1709478E+04  0.7818609E-02  0.8755977E-01
        1   -1    0    0  501    0  0.00000000000E+00  0.00000000000E+00  0.18699711556E+04  0.18699711556E+04  0.50400001928E-02 0.  1.
       -1   -1    0    0    0  501  0.00000000000E+00  0.00000000000E+00 -0.39069006967E+03  0.39069006971E+03  0.50400001928E-02 0. -1.
    10030    2    1    2    0    0  0.00000000000E+00  0.00000000000E+00  0.14792810859E+04  0.22606612253E+04  0.17094784715E+04 0.  0.
        5    1    3    3  502    0 -0.16085410873E+03  0.31457847045E+03 -0.28958138358E+03  0.45685131726E+03  0.46999998093E+01 0. -1.
       -5    1    3    3    0  502  0.16085410873E+03 -0.31457847045E+03  0.17688624695E+04  0.18038099080E+04  0.46999998093E+01 0.  1.
</event>
<event>
 5   0  0.2785059E-04  0.1763898E+04  0.7818609E-02  0.8725737E-01
       -1   -1    0    0    0  501  0.00000000000E+00  0.00000000000E+00  0.32336431937E+03  0.32336431941E+03  0.50400001928E-02 0. -1.
        1   -1    0    0  501    0  0.00000000000E+00  0.00000000000E+00 -0.24054409731E+04  0.24054409731E+04  0.50400001928E-02 0.  1.
    10030    2    1    2    0    0  0.00000000000E+00  0.00000000000E+00 -0.20820766537E+04  0.27288052925E+04  0.17638977103E+04 0.  0.
        5    1    3    3  502    0 -0.75823593300E+03  0.27941270934E+03 -0.15875993194E+04  0.17814283262E+04  0.46999998093E+01 0.  1.
       -5    1    3    3    0  502  0.75823593300E+03 -0.27941270934E+03 -0.49447733433E+03  0.94737696636E+03  0.46999998093E+01 0. -1.
</event>
<event>
 5   0  0.2561518E-04  0.1707237E+04  0.7818609E-02  0.8757247E-01
       -1   -1    0    0    0  501  0.00000000000E+00  0.00000000000E+00  0.10306328381E+04  0.10306328381E+04  0.50400001928E-02 0.  1.
        1   -1    0    0  501    0  0.00000000000E+00  0.00000000000E+00 -0.70700723659E+03  0.70700723660E+03  0.50400001928E-02 0. -1.
    10030    2    1    2    0    0  0.00000000000E+00  0.00000000000E+00  0.32362560147E+03  0.17376400747E+04  0.17072373881E+04 0.  0.
        4    1    3    3  502    0 -0.64585885478E+03  0.13806369881E+03 -0.38862100755E+03  0.76630486468E+03  0.12699999809E+01 0. -1.
       -4    1    3    3    0  502  0.64585885478E+03 -0.13806369881E+03  0.71224660902E+03  0.97133520999E+03  0.12699999809E+01 0.  1.
</event>
<event>
 5   0  0.2583422E-04  0.1721605E+04  0.7818609E-02  0.8749137E-01
        1   -1    0    0  501    0  0.00000000000E+00  0.00000000000E+00  0.11099870818E+04  0.11099870818E+04  0.50400001928E-02 0.  1.
       -1   -1    0    0    0  501  0.00000000000E+00  0.00000000000E+00 -0.66755793465E+03  0.66755793467E+03  0.50400001928E-02 0. -1.
    10030    2    1    2    0    0  0.00000000000E+00  0.00000000000E+00  0.44242914712E+03  0.17775450165E+04  0.17216046978E+04 0.  0.
        3    1    3    3  502    0  0.47208851395E+03 -0.70916096676E+03  0.34852491938E+03  0.92045992385E+03  0.10100000352E+00 0. -1.
       -3    1    3    3    0  502 -0.47208851395E+03  0.70916096676E+03  0.93904227739E+02  0.85708509261E+03  0.10100000352E+00 0.  1.
</event>
<event>
 5   0  0.2583422E-04  0.1701297E+04  0.7818609E-02  0.8760625E-01
        1   -1    0    0  501    0  0.00000000000E+00  0.00000000000E+00  0.19129372946E+04  0.19129372946E+04  0.50400001928E-02 0. -1.
       -1   -1    0    0    0  501  0.00000000000E+00  0.00000000000E+00 -0.37826784492E+03  0.37826784496E+03  0.50400001928E-02 0.  1.
    10030    2    1    2    0    0  0.00000000000E+00  0.00000000000E+00  0.15346694496E+04  0.22912051395E+04  0.17012967618E+04 0.  0.
        3    1    3    3  502    0 -0.33655574823E+03  0.77986942709E+03  0.82958506467E+03  0.11872983975E+04  0.10100000352E+00 0.  1.
       -3    1    3    3    0  502  0.33655574823E+03 -0.77986942709E+03  0.70508438496E+03  0.11039067420E+04  0.10100000352E+00 0. -1.
</event>
<event>
 5   0  0.2561518E-04  0.1701570E+04  0.7818609E-02  0.8760470E-01
        1   -1    0    0  501    0  0.00000000000E+00  0.00000000000E+00  0.62682811649E+03  0.62682811651E+03  0.50400001928E-02 0. -1.
       -1   -1    0    0    0  501  0.00000000000E+00  0.00000000000E+00 -0.11547578722E+04  0.11547578723E+04  0.50400001928E-02 0.  1.
    10030    2    1    2    0    0  0.00000000000E+00  0.00000000000E+00 -0.52792975575E+03  0.17815859888E+04  0.17015695132E+04 0.  0.
        4    1    3    3  502    0 -0.64081879397E+03 -0.12670073736E+03 -0.83469564309E+03  0.10599152009E+04  0.12699999809E+01 0.  1.
       -4    1    3    3    0  502  0.64081879397E+03  0.12670073736E+03  0.30676588734E+03  0.72167078789E+03  0.12699999809E+01 0. -1.
</event>
<event>
 5   0  0.2583422E-04  0.1772281E+04  0.7818609E-02  0.8721181E-01
        1   -1    0    0  501    0  0.00000000000E+00  0.00000000000E+00  0.79530851137E+03  0.79530851138E+03  0.50400001928E-02 0. -1.
       -1   -1    0    0    0  501  0.00000000000E+00  0.00000000000E+00 -0.98734588784E+03  0.98734588785E+03  0.50400001928E-02 0.  1.
    10030    2    1    2    0    0  0.00000000000E+00  0.00000000000E+00 -0.19203737647E+03  0.17826543992E+04  0.17722805515E+04 0.  0.
        3    1    3    3  502    0 -0.66492152045E+03  0.57982557254E+03 -0.17972995751E+03  0.90034503983E+03  0.10100000352E+00 0.  1.
       -3    1    3    3    0  502  0.66492152045E+03 -0.57982557254E+03 -0.12307418957E+02  0.88230935940E+03  0.10100000352E+00 0. -1.
</event>
<event>
 5   0  0.2630135E-04  0.1695139E+04  0.7818609E-02  0.8764142E-01
        1   -1    0    0  501    0  0.00000000000E+00  0.00000000000E+00  0.95781317231E+03  0.95781317233E+03  0.50400001928E-02 0. -1.
       -1   -1    0    0    0  501  0.00000000000E+00  0.00000000000E+00 -0.75001480145E+03  0.75001480146E+03  0.50400001928E-02 0.  1.
    10030    2    1    2    0    0  0.00000000000E+00  0.00000000000E+00  0.20779837087E+03  0.17078279738E+04  0.16951389988E+04 0.  0.
        1    1    3    3  502    0  0.63452091736E+03  0.53815919317E+03 -0.58995813652E+02  0.83409389029E+03  0.50400001928E-02 0.  1.
       -1    1    3    3    0  502 -0.63452091736E+03 -0.53815919317E+03  0.26679418452E+03  0.87373408350E+03  0.50400001928E-02 0. -1.
</event>
<event>
 5   0  0.2785059E-04  0.1647147E+04  0.7818609E-02  0.8792096E-01
       -1   -1    0    0    0  501  0.00000000000E+00  0.00000000000E+00  0.13507129833E+04  0.13507129833E+04  0.50400001928E-02 0. -1.
        1   -1    0    0  501    0  0.00000000000E+00  0.00000000000E+00 -0.50215965250E+03  0.50215965253E+03  0.50400001928E-02 0.  1.
    10030    2    1    2    0    0  0.00000000000E+00  0.00000000000E+00  0.84855333075E+03  0.18528726358E+04  0.16471473065E+04 0.  0.
        5    1    3    3  502    0 -0.55043632860E+03 -0.32952996958E+02  0.11123845877E+04  0.12415665962E+04  0.46999998093E+01 0. -1.
       -5    1    3    3    0  502  0.55043632860E+03  0.32952996958E+02 -0.26383125697E+03  0.61130603956E+03  0.46999998093E+01 0.  1.
</event>
<event>
 5   0  0.5299877E-04  0.1293794E+04  0.7818609E-02  0.9034501E-01
       -2   -1    0    0    0  501  0.00000000000E+00  0.00000000000E+00  0.17342351459E+04  0.17342351459E+04  0.25500000920E-02 0. -1.
        2   -1    0    0  501    0  0.00000000000E+00  0.00000000000E+00 -0.24130288642E+03  0.24130288643E+03  0.25500000920E-02 0.  1.
    10030    2    1    2    0    0  0.00000000000E+00  0.00000000000E+00  0.14929322595E+04  0.19755380324E+04  0.12937943368E+04 0.  0.
        3    1    3    3  502    0 -0.19746645815E+03 -0.61599936681E+03  0.75450456832E+03  0.99384373813E+03  0.10100000352E+00 0. -1.
       -3    1    3    3    0  502  0.19746645815E+03  0.61599936681E+03  0.73842769119E+03  0.98169429423E+03  0.10100000352E+00 0.  1.
</event>
<event>
 5   0  0.5021349E-04  0.1677533E+04  0.7818609E-02  0.8774283E-01
        2   -1    0    0  501    0  0.00000000000E+00  0.00000000000E+00  0.21947862094E+04  0.21947862094E+04  0.25500000920E-02 0.  1.
       -2   -1    0    0    0  501  0.00000000000E+00  0.00000000000E+00 -0.32054553835E+03  0.32054553836E+03  0.25500000920E-02 0. -1.
    10030    2    1    2    0    0  0.00000000000E+00  0.00000000000E+00  0.18742406710E+04  0.25153317478E+04  0.16775326251E+04 0.  0.
        2    1    3    3  502    0  0.10498594368E+03  0.12316403683E+03  0.21711535726E+04  0.21771769024E+04  0.25500000920E-02 0.  1.
       -2    1    3    3    0  502 -0.10498594368E+03 -0.12316403683E+03 -0.29691290156E+03  0.33815484539E+03  0.25500000920E-02 0. -1.
</event>
<event>
 5   0  0.2785059E-04  0.1653971E+04  0.7818609E-02  0.8788061E-01
        1   -1    0    0  501    0  0.00000000000E+00  0.00000000000E+00  0.17230924897E+04  0.17230924897E+04  0.50400001928E-02 0. -1.
       -1   -1    0    0    0  501  0.00000000000E+00  0.00000000000E+00 -0.39690534753E+03  0.39690534757E+03  0.50400001928E-02 0.  1.
    10030    2    1    2    0    0  0.00000000000E+00  0.00000000000E+00  0.13261871422E+04  0.21199978373E+04  0.16539705239E+04 0.  0.
        5    1    3    3  502    0  0.61960669662E+03  0.54543249352E+03  0.72684075116E+03  0.10998766436E+04  0.46999998093E+01 0.  1.
       -5    1    3    3    0  502 -0.61960669662E+03 -0.54543249352E+03  0.59934639101E+03  0.10201211937E+04  0.46999998093E+01 0. -1.
</event>
<event>
 5   0  0.5299877E-04  0.1928457E+04  0.7818609E-02  0.8640820E-01
       -2   -1    0    0    0  501  0.00000000000E+00  0.00000000000E+00  0.10684991167E+04  0.10684991167E+04  0.25500000920E-02 0. -1.
        2   -1    0    0  501    0  0.00000000000E+00  0.00000000000E+00 -0.87013337876E+03  0.87013337876E+03  0.25500000920E-02 0.  1.
    10030    2    1    2    0    0  0.00000000000E+00  0.00000000000E+00  0.19836573792E+03  0.19386324954E+04  0.19284571518E+04 0.  0.
        3    1    3    3  502    0 -0.26847769846E+03 -0.44863599593E+03 -0.71526612954E+03  0.88597978402E+03  0.10100000352E+00 0.  1.
       -3    1    3    3    0  502  0.26847769846E+03  0.44863599593E+03  0.91363186746E+03  0.10526527114E+04  0.10100000352E+00 0. -1.
</event>
<event>
 5   0  0.5310003E-04  0.1680943E+04  0.7818609E-02  0.8772308E-01
       -2   -1    0    0    0  501  0.00000000000E+00  0.00000000000E+00  0.58399076964E+03  0.58399076964E+03  0.25500000920E-02 0.  1.
        2   -1    0    0  501    0  0.00000000000E+00  0.00000000000E+00 -0.12095954104E+04  0.12095954104E+04  0.25500000920E-02 0. -1.
    10030    2    1    2    0    0  0.00000000000E+00  0.00000000000E+00 -0.62560464077E+03  0.17935861801E+04  0.16809432527E+04 0.  0.
        1    1    3    3  502    0 -0.56131492725E+03  0.57189172345E+03 -0.58328077494E+03  0.99113624358E+03  0.50400001928E-02 0.  1.
       -1    1    3    3    0  502  0.56131492725E+03 -0.57189172345E+03 -0.42323865831E+02  0.80244993647E+03  0.50400001928E-02 0. -1.
</event>
<event>
 5   0  0.5198430E-04  0.1710230E+04  0.7818609E-02  0.8755551E-01
       -2   -1    0    0    0  501  0.00000000000E+00  0.00000000000E+00  0.29263932920E+03  0.29263932921E+03  0.25500000920E-02 0.  1.
        2   -1    0    0  501    0  0.00000000000E+00  0.00000000000E+00 -0.24987135303E+04  0.24987135303E+04  0.25500000920E-02 0. -1.
    10030    2    1    2    0    0  0.00000000000E+00  0.00000000000E+00 -0.22060742011E+04  0.27913528595E+04  0.17102302200E+04 0.  0.
        4    1    3    3  502    0 -0.45430362107E+01  0.30608497196E+03  0.20014229781E+03  0.36574198763E+03  0.12699999809E+01 0.  1.
       -4    1    3    3    0  502  0.45430362107E+01 -0.30608497196E+03 -0.24062164989E+04  0.24256108719E+04  0.12699999809E+01 0. -1.
</event>
<event>
 5   0  0.5021349E-04  0.1693296E+04  0.7818609E-02  0.8765197E-01
       -2   -1    0    0    0  501  0.00000000000E+00  0.00000000000E+00  0.73131397897E+03  0.73131397898E+03  0.25500000920E-02 0. -1.
        2   -1    0    0  501    0  0.00000000000E+00  0.00000000000E+00 -0.98017061900E+03  0.98017061900E+03  0.25500000920E-02 0.  1.
    10030    2    1    2    0    0  0.00000000000E+00  0.00000000000E+00 -0.24885664002E+03  0.17114845980E+04  0.16932955743E+04 0.  0.
        2    1    3    3  502    0  0.10245093211E+03 -0.65448723747E+03 -0.65731334054E+03  0.93322589182E+03  0.25500000920E-02 0. -1.
       -2    1    3    3    0  502 -0.10245093211E+03  0.65448723747E+03  0.40845670052E+03  0.77825870616E+03  0.25500000920E-02 0.  1.
</event>
<event>
 5   0  0.2785059E-04  0.1661671E+04  0.7818609E-02  0.8783532E-01
       -1   -1    0    0    0  501  0.00000000000E+00  0.00000000000E+00  0.11838591213E+04  0.11838591213E+04  0.50400001928E-02 0. -1.
        1   -1    0    0  501    0  0.00000000000E+00  0.00000000000E+00 -0.58308260516E+03  0.58308260518E+03  0.50400001928E-02 0.  1.
    10030    2    1    2    0    0  0.00000000000E+00  0.00000000000E+00  0.60077651615E+03  0.17669417265E+04  0.16616710392E+04 0.  0.
        5    1    3    3  502    0  0.14665510006E+03 -0.47086355697E+03 -0.41058452100E+03  0.64173354793E+03  0.46999998093E+01 0.  1.
       -5    1    3    3    0  502 -0.14665510006E+03  0.47086355697E+03  0.10113610371E+04  0.11252081786E+04  0.46999998093E+01 0. -1.
</event>
<event>
 5   0  0.5021349E-04  0.1680064E+04  0.7818609E-02  0.8772817E-01
       -2   -1    0    0    0  501  0.00000000000E+00  0.00000000000E+00  0.57528184226E+03  0.57528184226E+03  0.25500000920E-02 0. -1.
        2   -1    0    0  501    0  0.00000000000E+00  0.00000000000E+00 -0.12266227555E+04  0.12266227555E+04  0.25500000920E-02 0.  1.
    10030    2    1    2    0    0  0.00000000000E+00  0.00000000000E+00 -0.65134091321E+03  0.18019045977E+04  0.16800640446E+04 0.  0.
        2    1    3    3  502    0  0.27148859342E+03 -0.46552849140E+03 -0.10167862581E+04  0.11507724047E+04  0.25500000920E-02 0.  1.
       -2    1    3    3    0  502 -0.27148859342E+03  0.46552849140E+03  0.36544534494E+03  0.65113219303E+03  0.25500000920E-02 0. -1.
</event>
<event>
 5   0  0.2785059E-04  0.1691443E+04  0.7818609E-02  0.8766260E-01
        1   -1    0    0  501    0  0.00000000000E+00  0.00000000000E+00  0.80834351519E+03  0.80834351520E+03  0.50400001928E-02 0. -1.
       -1   -1    0    0    0  501  0.00000000000E+00  0.00000000000E+00 -0.88482770817E+03  0.88482770819E+03  0.50400001928E-02 0.  1.
    10030    2    1    2    0    0  0.00000000000E+00  0.00000000000E+00 -0.76484192987E+02  0.16931712234E+04  0.16914428633E+04 0.  0.
        5    1    3    3  502    0 -0.24070223666E+02 -0.30502901136E+03 -0.82746422027E+03  0.88223647582E+03  0.46999998093E+01 0.  1.
       -5    1    3    3    0  502  0.24070223666E+02  0.30502901136E+03  0.75098002728E+03  0.81093474757E+03  0.46999998093E+01 0. -1.
</event>
<event>
 5   0  0.2595644E-04  0.1694547E+04  0.7818609E-02  0.8764480E-01
       -1   -1    0    0    0  501  0.00000000000E+00  0.00000000000E+00  0.54025258955E+03  0.54025258958E+03  0.50400001928E-02 0.  1.
        1   -1    0    0  501    0  0.00000000000E+00  0.00000000000E+00 -0.13287719651E+04  0.13287719652E+04  0.50400001928E-02 0. -1.
    10030    2    1    2    0    0  0.00000000000E+00  0.00000000000E+00 -0.78851937560E+03  0.18690245547E+04  0.16945471314E+04 0.  0.
        2    1    3    3  502    0  0.46597591099E+01 -0.63813611313E+02 -0.13261034823E+04  0.13276461638E+04  0.25500000920E-02 0. -1.
       -2    1    3    3    0  502 -0.46597591099E+01  0.63813611313E+02  0.53758410675E+03  0.54137839094E+03  0.25500000920E-02 0.  1.
</event>
<event>
 5   0  0.2595644E-04  0.1759553E+04  0.7818609E-02  0.8728110E-01
       -1   -1    0    0    0  501  0.00000000000E+00  0.00000000000E+00  0.60222071671E+03  0.60222071674E+03  0.50400001928E-02 0.  1.
        1   -1    0    0  501    0  0.00000000000E+00  0.00000000000E+00 -0.12852537035E+04  0.12852537035E+04  0.50400001928E-02 0. -1.
    10030    2    1    2    0    0  0.00000000000E+00  0.00000000000E+00 -0.68303298675E+03  0.18874744202E+04  0.17595526778E+04 0.  0.
        2    1    3    3  502    0 -0.57988259367E+03  0.41420781511E+03  0.21191261815E+03  0.74346411769E+03  0.25500000920E-02 0. -1.
       -2    1    3    3    0  502  0.57988259367E+03 -0.41420781511E+03 -0.89494560490E+03  0.11440103025E+04  0.25500000920E-02 0.  1.
</event>
<event>
 5   0  0.2561518E-04  0.1726381E+04  0.7818609E-02  0.8746460E-01
        1   -1    0    0  501    0  0.00000000000E+00  0.00000000000E+00  0.92291912195E+03  0.92291912196E+03  0.50400001928E-02 0.  1.
       -1   -1    0    0    0  501  0.00000000000E+00  0.00000000000E+00 -0.80732707030E+03  0.80732707031E+03  0.50400001928E-02 0. -1.
    10030    2    1    2    0    0  0.00000000000E+00  0.00000000000E+00  0.11559205165E+03  0.17302461923E+04  0.17263807122E+04 0.  0.
        4    1    3    3  502    0 -0.37273196307E+03  0.47462476184E+03  0.67634741334E+03  0.90644647789E+03  0.12699999809E+01 0.  1.
       -4    1    3    3    0  502  0.37273196307E+03 -0.47462476184E+03 -0.56075536170E+03  0.82379971438E+03  0.12699999809E+01 0. -1.
</event>
<event>
 5   0  0.5310003E-04  0.1693965E+04  0.7818609E-02  0.8764814E-01
        2   -1    0    0  501    0  0.00000000000E+00  0.00000000000E+00  0.84706343724E+03  0.84706343725E+03  0.25500000920E-02 0. -1.
       -2   -1    0    0    0  501  0.00000000000E+00  0.00000000000E+00 -0.84690145269E+03  0.84690145270E+03  0.25500000920E-02 0.  1.
    10030    2    1    2    0    0  0.00000000000E+00  0.00000000000E+00  0.16198455083E+00  0.16939648899E+04  0.16939648822E+04 0.  0.
        1    1    3    3  502    0 -0.82974660904E+03 -0.14159420807E+02  0.16948976228E+03  0.84699864460E+03  0.50400001928E-02 0. -1.
       -1    1    3    3    0  502  0.82974660904E+03  0.14159420807E+02 -0.16932777773E+03  0.84696624534E+03  0.50400001928E-02 0.  1.
</event>
<event>
 5   0  0.5198430E-04  0.1660076E+04  0.7818609E-02  0.8784468E-01
        2   -1    0    0  501    0  0.00000000000E+00  0.00000000000E+00  0.14093827707E+04  0.14093827707E+04  0.25500000920E-02 0. -1.
       -2   -1    0    0    0  501  0.00000000000E+00  0.00000000000E+00 -0.48884005536E+03  0.48884005537E+03  0.25500000920E-02 0.  1.
    10030    2    1    2    0    0  0.00000000000E+00  0.00000000000E+00  0.92054271535E+03  0.18982228261E+04  0.16600756027E+04 0.  0.
        4    1    3    3  502    0  0.34697272442E+03  0.58171366404E+03 -0.88325583553E+02  0.68306945476E+03  0.12699999809E+01 0.  1.
       -4    1    3    3    0  502 -0.34697272442E+03 -0.58171366404E+03  0.10088682989E+04  0.12151533713E+04  0.12699999809E+01 0. -1.
</event>
<event>
 5   0  0.2583422E-04  0.1667828E+04  0.7818609E-02  0.8779929E-01
       -1   -1    0    0    0  501  0.00000000000E+00  0.00000000000E+00  0.85765351243E+03  0.85765351245E+03  0.50400001928E-02 0.  1.
        1   -1    0    0  501    0  0.00000000000E+00  0.00000000000E+00 -0.81083164771E+03  0.81083164772E+03  0.50400001928E-02 0. -1.
    10030    2    1    2    0    0  0.00000000000E+00  0.00000000000E+00  0.46821864724E+02  0.16684851602E+04  0.16678280615E+04 0.  0.
        3    1    3    3  502    0 -0.50975399917E+03 -0.57901754409E+03  0.34024084733E+03  0.84313361956E+03  0.10100000352E+00 0.  1.
       -3    1    3    3    0  502  0.50975399917E+03  0.57901754409E+03 -0.29341898260E+03  0.82535154061E+03  0.10100000352E+00 0. -1.
</event>
<event>
 5   0  0.5299877E-04  0.1675548E+04  0.7818609E-02  0.8775434E-01
        2   -1    0    0  501    0  0.00000000000E+00  0.00000000000E+00  0.16888573673E+04  0.16888573673E+04  0.25500000920E-02 0.  1.
       -2   -1    0    0    0  501  0.00000000000E+00  0.00000000000E+00 -0.41558604590E+03  0.41558604591E+03  0.25500000920E-02 0. -1.
    10030    2    1    2    0    0  0.00000000000E+00  0.00000000000E+00  0.12732713214E+04  0.21044434132E+04  0.16755483346E+04 0.  0.
        3    1    3    3  502    0 -0.38170920493E+03  0.74255247186E+03  0.72346559263E+03  0.11047572424E+04  0.10100000352E+00 0.  1.
       -3    1    3    3    0  502  0.38170920493E+03 -0.74255247186E+03  0.54980572873E+03  0.99968617083E+03  0.10100000352E+00 0. -1.
</event>
<event>
 5   0  0.2583422E-04  0.1695377E+04  0.7818609E-02  0.8764006E-01
       -1   -1    0    0    0  501  0.00000000000E+00  0.00000000000E+00  0.87251896685E+03  0.87251896686E+03  0.50400001928E-02 0. -1.
        1   -1    0    0  501    0  0.00000000000E+00  0.00000000000E+00 -0.82356442449E+03  0.82356442451E+03  0.50400001928E-02 0.  1.
    10030    2    1    2    0    0  0.00000000000E+00  0.00000000000E+00  0.48954542357E+02  0.16960833914E+04  0.16953767497E+04 0.  0.
        3    1    3    3  502    0  0.61936255625E+02 -0.81761886478E+03  0.23959913441E+03  0.85425081985E+03  0.10100000352E+00 0.  1.
       -3    1    3    3    0  502 -0.61936255625E+02  0.81761886478E+03 -0.19064459205E+03  0.84183257152E+03  0.10100000352E+00 0. -1.
</event>
<event>
 5   0  0.2595644E-04  0.1694077E+04  0.7818609E-02  0.8764750E-01
        1   -1    0    0  501    0  0.00000000000E+00  0.00000000000E+00  0.15365555388E+04  0.15365555388E+04  0.50400001928E-02 0.  1.
       -1   -1    0    0    0  501  0.00000000000E+00  0.00000000000E+00 -0.46693651032E+03  0.46693651035E+03  0.50400001928E-02 0. -1.
    10030    2    1    2    0    0  0.00000000000E+00  0.00000000000E+00  0.10696190285E+04  0.20034920492E+04  0.16940765995E+04 0.  0.
        2    1    3    3  502    0 -0.44492467956E+03 -0.54965874293E+03  0.10862206555E+04  0.12961319442E+04  0.25500000920E-02 0.  1.
       -2    1    3    3    0  502  0.44492467956E+03  0.54965874293E+03 -0.16601627028E+02  0.70736010503E+03  0.25500000920E-02 0. -1.
</event>
<event>
 5   0  0.5021349E-04  0.1707429E+04  0.7818609E-02  0.8757139E-01
       -2   -1    0    0    0  501  0.00000000000E+00  0.00000000000E+00  0.53704879952E+03  0.53704879953E+03  0.25500000920E-02 0.  1.
        2   -1    0    0  501    0  0.00000000000E+00  0.00000000000E+00 -0.13570984458E+04  0.13570984458E+04  0.25500000920E-02 0. -1.
    10030    2    1    2    0    0  0.00000000000E+00  0.00000000000E+00 -0.82004964632E+03  0.18941472454E+04  0.17074285826E+04 0.  0.
        2    1    3    3  502    0 -0.38475465475E+03 -0.79047388426E+02 -0.12509021280E+04  0.13111219500E+04  0.25500000920E-02 0. -1.
       -2    1    3    3    0  502  0.38475465475E+03  0.79047388426E+02  0.43085248172E+03  0.58302529532E+03  0.25500000920E-02 0.  1.
</event>
<event>
 5   0  0.2785059E-04  0.1686395E+04  0.7818609E-02  0.8769162E-01
       -1   -1    0    0    0  501  0.00000000000E+00  0.00000000000E+00  0.73656275184E+03  0.73656275185E+03  0.50400001928E-02 0.  1.
        1   -1    0    0  501    0  0.00000000000E+00  0.00000000000E+00 -0.96526963792E+03  0.96526963794E+03  0.50400001928E-02 0. -1.
    10030    2    1    2    0    0  0.00000000000E+00  0.00000000000E+00 -0.22870688609E+03  0.17018323898E+04  0.16863945692E+04 0.  0.
        5    1    3    3  502    0 -0.72226965786E+03 -0.96819303162E+02 -0.54239685612E+03  0.90844035339E+03  0.46999998093E+01 0. -1.
       -5    1    3    3    0  502  0.72226965786E+03  0.96819303162E+02  0.31368997003E+03  0.79339203640E+03  0.46999998093E+01 0.  1.
</event>
<event>
 5   0  0.2630135E-04  0.1695533E+04  0.7818609E-02  0.8763916E-01
        1   -1    0    0  501    0  0.00000000000E+00  0.00000000000E+00  0.18087397638E+04  0.18087397638E+04  0.50400001928E-02 0. -1.
       -1   -1    0    0    0  501  0.00000000000E+00  0.00000000000E+00 -0.39735296326E+03  0.39735296329E+03  0.50400001928E-02 0.  1.
    10030    2    1    2    0    0  0.00000000000E+00  0.00000000000E+00  0.14113868006E+04  0.22060927271E+04  0.16955330784E+04 0.  0.
        1    1    3    3  502    0 -0.95349100618E+02  0.11582654899E+03 -0.37994394676E+03  0.40849068918E+03  0.50400001928E-02 0.  1.
       -1    1    3    3    0  502  0.95349100618E+02 -0.11582654899E+03  0.17913307473E+04  0.17976020379E+04  0.50400001928E-02 0. -1.
</event>
<event>
 5   0  0.5198430E-04  0.1706129E+04  0.7818609E-02  0.8757877E-01
        2   -1    0    0  501    0  0.00000000000E+00  0.00000000000E+00  0.18582537373E+04  0.18582537373E+04  0.25500000920E-02 0. -1.
       -2   -1    0    0    0  501  0.00000000000E+00  0.00000000000E+00 -0.39161430994E+03  0.39161430995E+03  0.25500000920E-02 0.  1.
    10030    2    1    2    0    0  0.00000000000E+00  0.00000000000E+00  0.14666394273E+04  0.22498680472E+04  0.17061286646E+04 0.  0.
        4    1    3    3  502    0  0.18447388943E+03  0.39846651541E+03 -0.23114427705E+03  0.49622119009E+03  0.12699999809E+01 0.  1.
       -4    1    3    3    0  502 -0.18447388943E+03 -0.39846651541E+03  0.16977837044E+04  0.17536468571E+04  0.12699999809E+01 0. -1.
</event>
<event>
 5   0  0.2630135E-04  0.1706439E+04  0.7818609E-02  0.8757701E-01
       -1   -1    0    0    0  501  0.00000000000E+00  0.00000000000E+00  0.62840807478E+03  0.62840807480E+03  0.50400001928E-02 0. -1.
        1   -1    0    0  501    0  0.00000000000E+00  0.00000000000E+00 -0.11584560800E+04  0.11584560800E+04  0.50400001928E-02 0.  1.
    10030    2    1    2    0    0  0.00000000000E+00  0.00000000000E+00 -0.53004800519E+03  0.17868641548E+04  0.17064385778E+04 0.  0.
        1    1    3    3  502    0 -0.41036403282E+03 -0.68153672763E+03  0.57879929556E+02  0.79764718818E+03  0.50400001928E-02 0. -1.
       -1    1    3    3    0  502  0.41036403282E+03  0.68153672763E+03 -0.58792793475E+03  0.98921696661E+03  0.50400001928E-02 0.  1.
</event>
<event>
 5   0  0.5198430E-04  0.1714532E+04  0.7818609E-02  0.8753119E-01
       -2   -1    0    0    0  501  0.00000000000E+00  0.00000000000E+00  0.54641105511E+03  0.54641105512E+03  0.25500000920E-02 0.  1.
        2   -1    0    0  501    0  0.00000000000E+00  0.00000000000E+00 -0.13449671509E+04  0.13449671509E+04  0.25500000920E-02 0. -1.
    10030    2    1    2    0    0  0.00000000000E+00  0.00000000000E+00 -0.79855609576E+03  0.18913782060E+04  0.17145319128E+04 0.  0.
        4    1    3    3  502    0  0.62903270513E+03 -0.44850790376E+03 -0.80917020587E+03  0.11187490866E+04  0.12699999809E+01 0.  1.
       -4    1    3    3    0  502 -0.62903270513E+03  0.44850790376E+03  0.10614110114E+02  0.77262911937E+03  0.12699999809E+01 0. -1.
</event>
<event>
 5   0  0.5342255E-04  0.1736085E+04  0.7818609E-02  0.8741047E-01
       -2   -1    0    0    0  501  0.00000000000E+00  0.00000000000E+00  0.52703094584E+03  0.52703094585E+03  0.25500000920E-02 0.  1.
        2   -1    0    0  501    0  0.00000000000E+00  0.00000000000E+00 -0.14297026600E+04  0.14297026600E+04  0.25500000920E-02 0. -1.
    10030    2    1    2    0    0  0.00000000000E+00  0.00000000000E+00 -0.90267171411E+03  0.19567336058E+04  0.17360847274E+04 0.  0.
        5    1    3    3  502    0 -0.64348433289E+03 -0.47489119697E+02 -0.11057778810E+04  0.12802711100E+04  0.46999998093E+01 0. -1.
       -5    1    3    3    0  502  0.64348433289E+03  0.47489119697E+02  0.20310616685E+03  0.67646249577E+03  0.46999998093E+01 0.  1.
</event>
<event>
 5   0  0.2561518E-04  0.1748527E+04  0.7818609E-02  0.8734162E-01
       -1   -1    0    0    0  501  0.00000000000E+00  0.00000000000E+00  0.33144461175E+03  0.33144461178E+03  0.50400001928E-02 0. -1.
        1   -1    0    0  501    0  0.00000000000E+00  0.00000000000E+00 -0.23060756986E+04  0.23060756986E+04  0.50400001928E-02 0.  1.
    10030    2    1    2    0    0  0.00000000000E+00  0.00000000000E+00 -0.19746310868E+04  0.26375203103E+04  0.17485266536E+04 0.  0.
        4    1    3    3  502    0  0.27183297843E+03 -0.10758620496E+03 -0.22301573061E+04  0.22492379115E+04  0.12699999809E+01 0.  1.
       -4    1    3    3    0  502 -0.27183297843E+03  0.10758620496E+03  0.25552621925E+03  0.38828239889E+03  0.12699999809E+01 0. -1.
</event>
<event>
 5   0  0.5342255E-04  0.1693442E+04  0.7818609E-02  0.8765114E-01
       -2   -1    0    0    0  501  0.00000000000E+00  0.00000000000E+00  0.99043503043E+03  0.99043503044E+03  0.25500000920E-02 0.  1.
        2   -1    0    0  501    0  0.00000000000E+00  0.00000000000E+00 -0.72385998928E+03  0.72385998929E+03  0.25500000920E-02 0. -1.
    10030    2    1    2    0    0  0.00000000000E+00  0.00000000000E+00  0.26657504115E+03  0.17142950197E+04  0.16934418095E+04 0.  0.
        5    1    3    3  502    0  0.10635159307E+02  0.31127867391E+03 -0.66374940861E+03  0.73320726051E+03  0.46999998093E+01 0. -1.
       -5    1    3    3    0  502 -0.10635159307E+02 -0.31127867391E+03  0.93032444976E+03  0.98108775921E+03  0.46999998093E+01 0.  1.
</event>
<event>
 5   0  0.2595644E-04  0.1712283E+04  0.7818609E-02  0.8754390E-01
       -1   -1    0    0    0  501  0.00000000000E+00  0.00000000000E+00  0.59731082909E+03  0.59731082911E+03  0.50400001928E-02 0. -1.
        1   -1    0    0  501    0  0.00000000000E+00  0.00000000000E+00 -0.12271300748E+04  0.12271300748E+04  0.50400001928E-02 0.  1.
    10030    2    1    2    0    0  0.00000000000E+00  0.00000000000E+00 -0.62981924574E+03  0.18244409039E+04  0.17122827832E+04 0.  0.
        2    1    3    3  502    0 -0.68309563151E+03 -0.19402797428E+02 -0.86442571065E+03  0.11019201058E+04  0.25500000920E-02 0.  1.
       -2    1    3    3    0  502  0.68309563151E+03  0.19402797428E+02  0.23460646492E+03  0.72252079813E+03  0.25500000920E-02 0. -1.
</event>
<event>
 5   0  0.5021349E-04  0.1699754E+04  0.7818609E-02  0.8761505E-01
       -2   -1    0    0    0  501  0.00000000000E+00  0.00000000000E+00  0.68827634565E+03  0.68827634566E+03  0.25500000920E-02 0. -1.
        2   -1    0    0  501    0  0.00000000000E+00  0.00000000000E+00 -0.10494194483E+04  0.10494194483E+04  0.25500000920E-02 0.  1.
    10030    2    1    2    0    0  0.00000000000E+00  0.00000000000E+00 -0.36114310264E+03  0.17376957940E+04  0.16997536091E+04 0.  0.
        2    1    3    3  502    0 -0.72891805983E+03  0.43669346834E+03 -0.19730330506E+03  0.87232523603E+03  0.25500000920E-02 0. -1.
       -2    1    3    3    0  502  0.72891805983E+03 -0.43669346834E+03 -0.16383979759E+03  0.86537055792E+03  0.25500000920E-02 0.  1.
</event>
<event>
 5   0  0.2583422E-04  0.1695663E+04  0.7818609E-02  0.8763842E-01
       -1   -1    0    0    0  501  0.00000000000E+00  0.00000000000E+00  0.12980129890E+04  0.12980129890E+04  0.50400001928E-02 0.  1.
        1   -1    0    0  501    0  0.00000000000E+00  0.00000000000E+00 -0.55378351846E+03  0.55378351848E+03  0.50400001928E-02 0. -1.
    10030    2    1    2    0    0  0.00000000000E+00  0.00000000000E+00  0.74422947055E+03  0.18517965075E+04  0.16956629383E+04 0.  0.
        3    1    3    3  502    0 -0.23430369755E+02 -0.75961577742E+03 -0.38328113537E+02  0.76094294531E+03  0.10100000352E+00 0. -1.
       -3    1    3    3    0  502  0.23430369755E+02  0.75961577742E+03  0.78255758408E+03  0.10908535622E+04  0.10100000352E+00 0.  1.
</event>
</LesHouchesEvents>
