<LesHouchesEvents version="3.0">
<header>
<!--
#*********************************************************************
#                                                                    *
#                        MadGraph5_aMC@NLO                           *
#                                                                    *
#                           Going Beyond                             *
#                                                                    *
#                   http://madgraph.hep.uiuc.edu                     *
#                   http://madgraph.phys.ucl.ac.be                   *
#                   http://amcatnlo.cern.ch                          *
#                                                                    *
#                     The MadGraph5_aMC@NLO team                     *
#                                                                    *
#....................................................................*
#                                                                    *
# This file contains all the information necessary to reproduce      *
# the events generated:                                              *
#                                                                    *
# 1. software version                                                *
# 2. proc_card          : code generation info including model       *
# 3. param_card         : model primary parameters in the LH format  *
# 4. run_card           : running parameters (collider and cuts)     *
# 5. pythia_card        : present only if pythia has been run        *
# 6. pgs_card           : present only if pgs has been run           *
# 7. delphes_cards      : present only if delphes has been run       *
#                                                                    *
#                                                                    *
#*********************************************************************
-->
<MGVersion>
#5.2.2.3
</MGVersion>
<MG5ProcCard>
#************************************************************
#*                     MadGraph5_aMC@NLO                    *
#*                                                          *
#*                *                       *                 *
#*                  *        * *        *                   *
#*                    * * * * 5 * * * *                     *
#*                  *        * *        *                   *
#*                *                       *                 *
#*                                                          *
#*                                                          *
#*         VERSION 2.2.3                 2015-02-10         *
#*                                                          *
#*    The MadGraph5_aMC@NLO Development Team - Find us at   *
#*    https://server06.fynu.ucl.ac.be/projects/madgraph     *
#*                                                          *
#************************************************************
#*                                                          *
#*               Command File for MadGraph5_aMC@NLO         *
#*                                                          *
#*     run as ./bin/mg5_aMC  filename                       *
#*                                                          *
#************************************************************
set group_subprocesses Auto
set ignore_six_quark_processes False
set loop_optimized_output True
set gauge unitary
set complex_mass_scheme False
import model sm
define p = g u c d s u~ c~ d~ s~
define j = g u c d s u~ c~ d~ s~
define l+ = e+ mu+
define l- = e- mu-
define vl = ve vm vt
define vl~ = ve~ vm~ vt~
import model Zprime_UFO
generate p p > zph, zph > j j
add process p p > zph, zph > b b~
output Dijet_signal
</MG5ProcCard>
<MGProcCard>
#*********************************************************************
#                        MadGraph/MadEvent                           *
#                   http://madgraph.hep.uiuc.edu                     *
#                                                                    *
#                          proc_card.dat                             *
#*********************************************************************
#                                                                    *
#            This Files is generated by MADGRAPH 5                   *
#                                                                    *
# WARNING: This Files is generated for MADEVENT (compatibility issue)*
#          This files is NOT a valid MG4 proc_card.dat               *
#          Running this in MG4 will NEVER reproduce the result of MG5*
#                                                                    *
#*********************************************************************
#*********************************************************************
# Process(es) requested : mg2 input                                  *
#*********************************************************************
# Begin PROCESS # This is TAG. Do not modify this line
p p > zph , zph > j j           #Process
# Be carefull the coupling are here in MG5 convention
          
end_coup           # End the couplings input

done               # this tells MG there are no more procs
# End PROCESS  # This is TAG. Do not modify this line
#*********************************************************************
# Model information                                                  *
#*********************************************************************
# Begin MODEL  # This is TAG. Do not modify this line
Zprime_UFO
# End   MODEL  # This is TAG. Do not modify this line
#*********************************************************************
# Start multiparticle definitions                                    *
#*********************************************************************
# Begin MULTIPARTICLES # This is TAG. Do not modify this line

# End  MULTIPARTICLES # This is TAG. Do not modify this line
</MGProcCard>
<MGRunCard>
#*********************************************************************
#                       MadGraph5_aMC@NLO                            *
#                                                                    *
#                     run_card.dat MadEvent                          *
#                                                                    *
#  This file is used to set the parameters of the run.               *
#                                                                    *
#  Some notation/conventions:                                        *
#                                                                    *
#   Lines starting with a '# ' are info or comments                  *
#                                                                    *
#   mind the format:   value    = variable     ! comment             *
#*********************************************************************
#
#*******************                                                 
# Running parameters
#*******************                                                 
#                                                                    
#*********************************************************************
# Tag name for the run (one word)                                    *
#*********************************************************************
  tag_1     = run_tag ! name of the run 
#*********************************************************************
# Run to generate the grid pack                                      *
#*********************************************************************
  .false.     = gridpack  !True = setting up the grid pack
#*********************************************************************
# Number of events and rnd seed                                      *
# Warning: Do not generate more than 1M events in a single run       *
# If you want to run Pythia, avoid more than 50k events in a run.    *
#*********************************************************************
  2000 = nevents ! Number of unweighted events requested 
 1380 = iseed   ! rnd seed (0=assigned automatically=default))
#*********************************************************************
# Collider type and energy                                           *
# lpp: 0=No PDF, 1=proton, -1=antiproton, 2=photon from proton,      *
#                                         3=photon from electron     *
#*********************************************************************
        1     = lpp1    ! beam 1 type 
        1     = lpp2    ! beam 2 type
     4000     = ebeam1  ! beam 1 total energy in GeV
     4000     = ebeam2  ! beam 2 total energy in GeV
#*********************************************************************
# Beam polarization from -100 (left-handed) to 100 (right-handed)    *
#*********************************************************************
        0     = polbeam1 ! beam polarization for beam 1
        0     = polbeam2 ! beam polarization for beam 2
#*********************************************************************
# PDF CHOICE: this automatically fixes also alpha_s and its evol.    *
#*********************************************************************
 'nn23lo1'    = pdlabel     ! PDF set                                     
 230000    = lhaid     ! if pdlabel=lhapdf, this is the lhapdf number
#*********************************************************************
# Renormalization and factorization scales                           *
#*********************************************************************
 F        = fixed_ren_scale  ! if .true. use fixed ren scale
 F        = fixed_fac_scale  ! if .true. use fixed fac scale
 91.1880  = scale            ! fixed ren scale
 91.1880  = dsqrt_q2fact1    ! fixed fact scale for pdf1
 91.1880  = dsqrt_q2fact2    ! fixed fact scale for pdf2
 1        = scalefact        ! scale factor for event-by-event scales
#*********************************************************************
# Matching - Warning! ickkw > 1 is still beta
#*********************************************************************
 0        = ickkw            ! 0 no matching, 1 MLM, 2 CKKW matching
 1        = highestmult      ! for ickkw=2, highest mult group
 1        = ktscheme         ! for ickkw=1, 1 Durham kT, 2 Pythia pTE
 1        = alpsfact         ! scale factor for QCD emission vx
 F        = chcluster        ! cluster only according to channel diag
 T        = pdfwgt           ! for ickkw=1, perform pdf reweighting
 5        = asrwgtflavor     ! highest quark flavor for a_s reweight
 T        = clusinfo         ! include clustering tag in output
 3.0      = lhe_version       ! Change the way clustering information pass to shower.        
#*********************************************************************
#**********************************************************
#
#**********************************************************
# Automatic ptj and mjj cuts if xqcut > 0
# (turn off for VBF and single top processes)
#**********************************************************
   T  = auto_ptj_mjj  ! Automatic setting of ptj and mjj
#**********************************************************
#                                                                    
#**********************************
# BW cutoff (M+/-bwcutoff*Gamma)
#**********************************
  15  = bwcutoff      ! (M+/-bwcutoff*Gamma)
#**********************************************************
# Apply pt/E/eta/dr/mij cuts on decay products or not
# (note that etmiss/ptll/ptheavy/ht/sorted cuts always apply)
#**********************************************************
   T  = cut_decays    ! Cut decay products 
#*************************************************************
# Number of helicities to sum per event (0 = all helicities)
# 0 gives more stable result, but longer run time (needed for
# long decay chains e.g.).
# Use >=2 if most helicities contribute, e.g. pure QCD.
#*************************************************************
   0  = nhel          ! Number of helicities used per event
#*******************                                                 
# Standard Cuts
#*******************                                                 
#                                                                    
#*********************************************************************
# Minimum and maximum pt's (for max, -1 means no cut)                *
#*********************************************************************
 20  = ptj       ! minimum pt for the jets 
  0  = ptb       ! minimum pt for the b 
 10  = pta       ! minimum pt for the photons 
 10  = ptl       ! minimum pt for the charged leptons 
  0  = misset    ! minimum missing Et (sum of neutrino's momenta)
  0  = ptheavy   ! minimum pt for one heavy final state
 1.0 = ptonium   ! minimum pt for the quarkonium states
 -1  = ptjmax    ! maximum pt for the jets
 -1  = ptbmax    ! maximum pt for the b
 -1  = ptamax    ! maximum pt for the photons
 -1  = ptlmax    ! maximum pt for the charged leptons
 -1  = missetmax ! maximum missing Et (sum of neutrino's momenta)
#*********************************************************************
# Minimum and maximum E's (in the center of mass frame)              *
#*********************************************************************
  0  = ej     ! minimum E for the jets 
  0  = eb     ! minimum E for the b 
  0  = ea     ! minimum E for the photons 
  0  = el     ! minimum E for the charged leptons 
 -1   = ejmax ! maximum E for the jets
 -1   = ebmax ! maximum E for the b
 -1   = eamax ! maximum E for the photons
 -1   = elmax ! maximum E for the charged leptons
#*********************************************************************
# Maximum and minimum absolute rapidity (for max, -1 means no cut)   *
#*********************************************************************
   5  = etaj    ! max rap for the jets 
  -1  = etab    ! max rap for the b
 2.5  = etaa    ! max rap for the photons 
 2.5  = etal    ! max rap for the charged leptons 
 0.6  = etaonium ! max rap for the quarkonium states
   0  = etajmin ! min rap for the jets
   0  = etabmin ! min rap for the b
   0  = etaamin ! min rap for the photons
   0  = etalmin ! main rap for the charged leptons
#*********************************************************************
# Minimum and maximum DeltaR distance                                *
#*********************************************************************
 0.4 = drjj    ! min distance between jets 
 0   = drbb    ! min distance between b's 
 0.4 = drll    ! min distance between leptons 
 0.4 = draa    ! min distance between gammas 
 0   = drbj    ! min distance between b and jet 
 0.4 = draj    ! min distance between gamma and jet 
 0.4 = drjl    ! min distance between jet and lepton 
 0   = drab    ! min distance between gamma and b 
 0   = drbl    ! min distance between b and lepton 
 0.4 = dral    ! min distance between gamma and lepton 
 -1  = drjjmax ! max distance between jets
 -1  = drbbmax ! max distance between b's
 -1  = drllmax ! max distance between leptons
 -1  = draamax ! max distance between gammas
 -1  = drbjmax ! max distance between b and jet
 -1  = drajmax ! max distance between gamma and jet
 -1  = drjlmax ! max distance between jet and lepton
 -1  = drabmax ! max distance between gamma and b
 -1  = drblmax ! max distance between b and lepton
 -1  = dralmax ! maxdistance between gamma and lepton
#*********************************************************************
# Minimum and maximum invariant mass for pairs                       *
# WARNING: for four lepton final state mmll cut require to have      *
#          different lepton masses for each flavor!                  *           
#*********************************************************************
 0   = mmjj    ! min invariant mass of a jet pair 
 0   = mmbb    ! min invariant mass of a b pair 
 0   = mmaa    ! min invariant mass of gamma gamma pair
 0   = mmll    ! min invariant mass of l+l- (same flavour) lepton pair
 -1  = mmjjmax ! max invariant mass of a jet pair
 -1  = mmbbmax ! max invariant mass of a b pair
 -1  = mmaamax ! max invariant mass of gamma gamma pair
 -1  = mmllmax ! max invariant mass of l+l- (same flavour) lepton pair
#*********************************************************************
# Minimum and maximum invariant mass for all letpons                 *
#*********************************************************************
 0   = mmnl    ! min invariant mass for all letpons (l+- and vl) 
 -1  = mmnlmax ! max invariant mass for all letpons (l+- and vl) 
#*********************************************************************
# Minimum and maximum pt for 4-momenta sum of leptons                *
#*********************************************************************
 0   = ptllmin  ! Minimum pt for 4-momenta sum of leptons(l and vl)
 -1  = ptllmax  ! Maximum pt for 4-momenta sum of leptons(l and vl)
#*********************************************************************
# Inclusive cuts                                                     *
#*********************************************************************
 0  = xptj ! minimum pt for at least one jet  
 0  = xptb ! minimum pt for at least one b 
 0  = xpta ! minimum pt for at least one photon 
 0  = xptl ! minimum pt for at least one charged lepton 
#*********************************************************************
# Control the pt's of the jets sorted by pt                          *
#*********************************************************************
 0   = ptj1min ! minimum pt for the leading jet in pt
 0   = ptj2min ! minimum pt for the second jet in pt
 0   = ptj3min ! minimum pt for the third jet in pt
 0   = ptj4min ! minimum pt for the fourth jet in pt
 -1  = ptj1max ! maximum pt for the leading jet in pt 
 -1  = ptj2max ! maximum pt for the second jet in pt
 -1  = ptj3max ! maximum pt for the third jet in pt
 -1  = ptj4max ! maximum pt for the fourth jet in pt
 0   = cutuse  ! reject event if fails any (0) / all (1) jet pt cuts
#*********************************************************************
# Control the pt's of leptons sorted by pt                           *
#*********************************************************************
 0   = ptl1min ! minimum pt for the leading lepton in pt
 0   = ptl2min ! minimum pt for the second lepton in pt
 0   = ptl3min ! minimum pt for the third lepton in pt
 0   = ptl4min ! minimum pt for the fourth lepton in pt
 -1  = ptl1max ! maximum pt for the leading lepton in pt 
 -1  = ptl2max ! maximum pt for the second lepton in pt
 -1  = ptl3max ! maximum pt for the third lepton in pt
 -1  = ptl4max ! maximum pt for the fourth lepton in pt
#*********************************************************************
# Control the Ht(k)=Sum of k leading jets                            *
#*********************************************************************
 0   = htjmin ! minimum jet HT=Sum(jet pt)
 -1  = htjmax ! maximum jet HT=Sum(jet pt)
 0   = ihtmin  !inclusive Ht for all partons (including b)
 -1  = ihtmax  !inclusive Ht for all partons (including b)
 0   = ht2min ! minimum Ht for the two leading jets
 0   = ht3min ! minimum Ht for the three leading jets
 0   = ht4min ! minimum Ht for the four leading jets
 -1  = ht2max ! maximum Ht for the two leading jets
 -1  = ht3max ! maximum Ht for the three leading jets
 -1  = ht4max ! maximum Ht for the four leading jets
#***********************************************************************
# Photon-isolation cuts, according to hep-ph/9801442                   *
# When ptgmin=0, all the other parameters are ignored                  *
# When ptgmin>0, pta and draj are not going to be used                 *
#***********************************************************************
   0 = ptgmin ! Min photon transverse momentum
 0.4 = R0gamma ! Radius of isolation code
 1.0 = xn ! n parameter of eq.(3.4) in hep-ph/9801442
 1.0 = epsgamma ! epsilon_gamma parameter of eq.(3.4) in hep-ph/9801442
 .true. = isoEM ! isolate photons from EM energy (photons and leptons)
#*********************************************************************
# WBF cuts                                                           *
#*********************************************************************
 0   = xetamin ! minimum rapidity for two jets in the WBF case  
 0   = deltaeta ! minimum rapidity for two jets in the WBF case 
#*********************************************************************
# KT DURHAM CUT                                                      *
#*********************************************************************
 -1    =  ktdurham        
 0.4  =  dparameter 
#*********************************************************************
# maximal pdg code for quark to be considered as a light jet         *
# (otherwise b cuts are applied)                                     *
#*********************************************************************
 4 = maxjetflavor    ! Maximum jet pdg code
#*********************************************************************
# Jet measure cuts                                                   *
#*********************************************************************
 0   = xqcut   ! minimum kt jet measure between partons
#*********************************************************************
#
#*********************************************************************
# Store info for systematics studies                                 *
# WARNING: If use_syst is T, matched Pythia output is                *
#          meaningful ONLY if plotted taking matchscale              *
#          reweighting into account!                                 *
#*********************************************************************
   F  = use_syst      ! Enable systematics studies
#
#**************************************
# Parameter of the systematics study
#  will be used by SysCalc (if installed)
#**************************************                                  
#
0.5 1 2 = sys_scalefact  # factorization/renormalization scale factor
0.5 1 2 = sys_alpsfact  # \alpha_s emission scale factors
30 50 = sys_matchscale # variation of merging scale
# PDF sets and number of members (0 or none for all members).
CT10nlo.LHgrid = sys_pdf # matching scales
# MSTW2008nlo68cl.LHgrid 1  = sys_pdf
</MGRunCard>
<slha>
######################################################################
## PARAM_CARD AUTOMATICALY GENERATED BY MG5 FOLLOWING UFO MODEL   ####
######################################################################
##                                                                  ##
##  Width set on Auto will be computed following the information    ##
##        present in the decay.py files of the model.               ##
##        See  arXiv:1402.1178 for more details.                    ##
##                                                                  ##
######################################################################

###################################
## INFORMATION FOR CKMBLOCK
###################################
Block ckmblock 
    1 2.277360e-01 # cabi 

###################################
## INFORMATION FOR FRBLOCK
###################################
Block frblock 
    1 6.000000e-01 # gz 

###################################
## INFORMATION FOR MASS
###################################
Block mass 
    1 5.040000e-03 # MD 
    2 2.550000e-03 # MU 
    3 1.010000e-01 # MS 
    4 1.270000e+00 # MC 
    5 4.700000e+00 # MB 
    6 1.720000e+02 # MT 
   11 5.110000e-04 # Me 
   13 1.056600e-01 # MM 
   15 1.777000e+00 # MTA 
   23 9.118760e+01 # MZ 
   25 1.200000e+02 # MH 
  10030 3.100000e+03 # MZph 
  10031 3.000000e+02 # MZpl 
## Dependent parameters, given by model restrictions.
## Those values should be edited following the 
## analytical expression. MG5 ignores those values 
## but they are important for interfacing the output of MG5
## to external program such as Pythia.
  12 0.000000 # ve : 0.0 
  14 0.000000 # vm : 0.0 
  16 0.000000 # vt : 0.0 
  21 0.000000 # g : 0.0 
  22 0.000000 # a : 0.0 
  24 79.824360 # w+ : cmath.sqrt(MZ__exp__2/2. + cmath.sqrt(MZ__exp__4/4. - (aEW*cmath.pi*MZ__exp__2)/(Gf*sqrt__2))) 

###################################
## INFORMATION FOR SMINPUTS
###################################
Block sminputs 
    1 1.279000e+02 # aEWM1 
    2 1.166370e-05 # Gf 
    3 1.184000e-01 # aS 

###################################
## INFORMATION FOR YUKAWA
###################################
Block yukawa 
    1 5.040000e-03 # ymdo 
    2 2.550000e-03 # ymup 
    3 1.010000e-01 # yms 
    4 1.270000e+00 # ymc 
    5 4.700000e+00 # ymb 
    6 1.720000e+02 # ymt 
   11 5.110000e-04 # yme 
   13 1.056600e-01 # ymm 
   15 1.777000e+00 # ymtau 

###################################
## INFORMATION FOR DECAY
###################################
DECAY   6 1.508336e+00 # WT 
DECAY  23 2.495200e+00 # WZ 
DECAY  24 2.085000e+00 # WW 
DECAY  25 5.753088e-03 # WH 
## Dependent parameters, given by model restrictions.
## Those values should be edited following the 
## analytical expression. MG5 ignores those values 
## but they are important for interfacing the output of MG5
## to external program such as Pythia.
DECAY  1 0.000000 # d : 0.0 
DECAY  2 0.000000 # u : 0.0 
DECAY  3 0.000000 # s : 0.0 
DECAY  4 0.000000 # c : 0.0 
DECAY  5 0.000000 # b : 0.0 
DECAY  11 0.000000 # e- : 0.0 
DECAY  12 0.000000 # ve : 0.0 
DECAY  13 0.000000 # mu- : 0.0 
DECAY  14 0.000000 # vm : 0.0 
DECAY  15 0.000000 # ta- : 0.0 
DECAY  16 0.000000 # vt : 0.0 
DECAY  21 0.000000 # g : 0.0 
DECAY  22 0.000000 # a : 0.0 
DECAY  10030 0.308725 # zph : (gz__exp__2*MZph*(5 + cmath.sqrt(1 - (4*MT__exp__2)/MZph__exp__2)))/(144.*cmath.pi) 
DECAY  10031 0.132629 # zpl : (5*gz__exp__2*MZpl)/(144.*cmath.pi) 
#===========================================================
# QUANTUM NUMBERS OF NEW STATE(S) (NON SM PDG CODE)
#===========================================================

Block QNUMBERS 10030  # zph 
        1 0  # 3 times electric charge
        2 3  # number of spin states (2S+1)
        3 1  # colour rep (1: singlet, 3: triplet, 8: octet)
        4 0  # Particle/Antiparticle distinction (0=own anti)
Block QNUMBERS 10031  # zpl 
        1 0  # 3 times electric charge
        2 3  # number of spin states (2S+1)
        3 1  # colour rep (1: singlet, 3: triplet, 8: octet)
        4 0  # Particle/Antiparticle distinction (0=own anti)
</slha>
## END BANNER##
<MGGenerationInfo>
#  Number of Events        :         3913
#  Integrated weight (pb)  :  0.31219E-03
#  Max wgt                 :  0.12583E-06
#  Average wgt             :  0.79783E-07
</MGGenerationInfo>
</header>
<init>
     2212     2212  0.40000000000E+04  0.40000000000E+04 0 0  247000  247000 2   1
  0.31232227368E-03  0.61405006042E-06  0.12582620000E-06   0
</init>
<event>
 5   0  0.1258262E-06  0.3112367E+04  0.7818609E-02  0.8212352E-01
        2   -1    0    0  501    0  0.00000000000E+00  0.00000000000E+00  0.30420184884E+04  0.30420184884E+04  0.25500000920E-02 0. -1.
       -2   -1    0    0    0  501  0.00000000000E+00  0.00000000000E+00 -0.79608564648E+03  0.79608564648E+03  0.25500000920E-02 0.  1.
    10030    2    1    2    0    0  0.00000000000E+00  0.00000000000E+00  0.22459328419E+04  0.38381041349E+04  0.31123671088E+04 0.  0.
        1    1    3    3  502    0  0.86991927302E+03 -0.12194344377E+04  0.60279401405E+03  0.16146642106E+04  0.50400001928E-02 0.  1.
       -1    1    3    3    0  502 -0.86991927302E+03  0.12194344377E+04  0.16431388279E+04  0.22234399243E+04  0.50400001928E-02 0. -1.
</event>
<event>
 5   0  0.1258262E-06  0.3086528E+04  0.7818609E-02  0.8219445E-01
       -2   -1    0    0    0  501  0.00000000000E+00  0.00000000000E+00  0.12373367285E+04  0.12373367285E+04  0.25500000920E-02 0.  1.
        2   -1    0    0  501    0  0.00000000000E+00  0.00000000000E+00 -0.19248306132E+04  0.19248306132E+04  0.25500000920E-02 0. -1.
    10030    2    1    2    0    0  0.00000000000E+00  0.00000000000E+00 -0.68749388468E+03  0.31621673417E+04  0.30865278964E+04 0.  0.
        1    1    3    3  502    0 -0.11861811453E+04  0.38002776907E+03 -0.12772385136E+04  0.17840361643E+04  0.50400001928E-02 0. -1.
       -1    1    3    3    0  502  0.11861811453E+04 -0.38002776907E+03  0.58974462892E+03  0.13781311774E+04  0.50400001928E-02 0.  1.
</event>
<event>
 5   0  0.1193123E-06  0.3242438E+04  0.7818609E-02  0.8177699E-01
        2   -1    0    0  501    0  0.00000000000E+00  0.00000000000E+00  0.16851314691E+04  0.16851314691E+04  0.25500000920E-02 0.  1.
       -2   -1    0    0    0  501  0.00000000000E+00  0.00000000000E+00 -0.15597301842E+04  0.15597301842E+04  0.25500000920E-02 0. -1.
    10030    2    1    2    0    0  0.00000000000E+00  0.00000000000E+00  0.12540128490E+03  0.32448616533E+04  0.32424376118E+04 0.  0.
        3    1    3    3  502    0  0.14640443340E+04 -0.68593113088E+03  0.18288654652E+03  0.16270755445E+04  0.10100000352E+00 0.  1.
       -3    1    3    3    0  502 -0.14640443340E+04  0.68593113088E+03 -0.57485261618E+02  0.16177861088E+04  0.10100000352E+00 0. -1.
</event>
<event>
 5   0  0.1258262E-06  0.3087755E+04  0.7818609E-02  0.8219106E-01
        2   -1    0    0  501    0  0.00000000000E+00  0.00000000000E+00  0.17329820368E+04  0.17329820368E+04  0.25500000920E-02 0. -1.
       -2   -1    0    0    0  501  0.00000000000E+00  0.00000000000E+00 -0.13754085573E+04  0.13754085573E+04  0.25500000920E-02 0.  1.
    10030    2    1    2    0    0  0.00000000000E+00  0.00000000000E+00  0.35757347950E+03  0.31083905941E+04  0.30877553809E+04 0.  0.
        1    1    3    3  502    0 -0.13763888173E+04  0.69761787611E+03  0.22852793693E+03  0.15599172720E+04  0.50400001928E-02 0. -1.
       -1    1    3    3    0  502  0.13763888173E+04 -0.69761787611E+03  0.12904554256E+03  0.15484733222E+04  0.50400001928E-02 0.  1.
</event>
<event>
 5   0  0.1193123E-06  0.3151269E+04  0.7818609E-02  0.8201807E-01
        2   -1    0    0  501    0  0.00000000000E+00  0.00000000000E+00  0.17299057401E+04  0.17299057401E+04  0.25500000920E-02 0.  1.
       -2   -1    0    0    0  501  0.00000000000E+00  0.00000000000E+00 -0.14351206530E+04  0.14351206530E+04  0.25500000920E-02 0. -1.
    10030    2    1    2    0    0  0.00000000000E+00  0.00000000000E+00  0.29478508710E+03  0.31650263930E+04  0.31512686050E+04 0.  0.
        3    1    3    3  502    0 -0.81942801127E+03  0.66827921060E+03 -0.10258529103E+04  0.14732391431E+04  0.10100000352E+00 0. -1.
       -3    1    3    3    0  502  0.81942801127E+03 -0.66827921060E+03  0.13206379974E+04  0.16917872500E+04  0.10100000352E+00 0.  1.
</event>
<event>
 5   0  0.4330395E-07  0.3069419E+04  0.7818609E-02  0.8224181E-01
        1   -1    0    0  501    0  0.00000000000E+00  0.00000000000E+00  0.15248629789E+04  0.15248629789E+04  0.50400001928E-02 0. -1.
       -1   -1    0    0    0  501  0.00000000000E+00  0.00000000000E+00 -0.15446194406E+04  0.15446194406E+04  0.50400001928E-02 0.  1.
    10030    2    1    2    0    0  0.00000000000E+00  0.00000000000E+00 -0.19756461693E+02  0.30694824195E+04  0.30694188385E+04 0.  0.
        1    1    3    3  502    0  0.13914402365E+03  0.94802799182E+03 -0.12087420311E+04  0.15424575943E+04  0.50400001928E-02 0.  1.
       -1    1    3    3    0  502 -0.13914402365E+03 -0.94802799182E+03  0.11889855694E+04  0.15270248252E+04  0.50400001928E-02 0. -1.
</event>
<event>
 5   0  0.4173905E-07  0.3087209E+04  0.7818609E-02  0.8219257E-01
       -1   -1    0    0    0  501  0.00000000000E+00  0.00000000000E+00  0.12717622917E+04  0.12717622917E+04  0.50400001928E-02 0. -1.
        1   -1    0    0  501    0  0.00000000000E+00  0.00000000000E+00 -0.18735539653E+04  0.18735539653E+04  0.50400001928E-02 0.  1.
    10030    2    1    2    0    0  0.00000000000E+00  0.00000000000E+00 -0.60179167363E+03  0.31453162571E+04  0.30872092800E+04 0.  0.
        3    1    3    3  502    0 -0.16726278785E+03 -0.46263804982E+03 -0.17915490017E+04  0.18578639996E+04  0.10100000352E+00 0.  1.
       -3    1    3    3    0  502  0.16726278785E+03  0.46263804982E+03  0.11897573281E+04  0.12874522575E+04  0.10100000352E+00 0. -1.
</event>
<event>
 5   0  0.1258262E-06  0.3051506E+04  0.7818609E-02  0.8229174E-01
       -2   -1    0    0    0  501  0.00000000000E+00  0.00000000000E+00  0.13832904023E+04  0.13832904023E+04  0.25500000920E-02 0.  1.
        2   -1    0    0  501    0  0.00000000000E+00  0.00000000000E+00 -0.16828871098E+04  0.16828871098E+04  0.25500000920E-02 0. -1.
    10030    2    1    2    0    0  0.00000000000E+00  0.00000000000E+00 -0.29959670750E+03  0.30661775120E+04  0.30515055871E+04 0.  0.
        1    1    3    3  502    0 -0.81258846587E+03  0.99598581196E+03  0.67612323774E+03  0.14523878219E+04  0.50400001928E-02 0.  1.
       -1    1    3    3    0  502  0.81258846587E+03 -0.99598581196E+03 -0.97571994525E+03  0.16137896902E+04  0.50400001928E-02 0. -1.
</event>
<event>
 5   0  0.4134019E-07  0.3083808E+04  0.7818609E-02  0.8220196E-01
        1   -1    0    0  501    0  0.00000000000E+00  0.00000000000E+00  0.18191629865E+04  0.18191629865E+04  0.50400001928E-02 0.  1.
       -1   -1    0    0    0  501  0.00000000000E+00  0.00000000000E+00 -0.13069018111E+04  0.13069018111E+04  0.50400001928E-02 0. -1.
    10030    2    1    2    0    0  0.00000000000E+00  0.00000000000E+00  0.51226117539E+03  0.31260647976E+04  0.30838076475E+04 0.  0.
        2    1    3    3  502    0  0.35299676539E+02  0.25190471825E+02  0.18185446683E+04  0.18190616641E+04  0.25500000920E-02 0.  1.
       -2    1    3    3    0  502 -0.35299676539E+02 -0.25190471825E+02 -0.13062834929E+04  0.13070031335E+04  0.25500000920E-02 0. -1.
</event>
<event>
 5   0  0.1258262E-06  0.3104960E+04  0.7818609E-02  0.8214378E-01
       -2   -1    0    0    0  501  0.00000000000E+00  0.00000000000E+00  0.12987175793E+04  0.12987175793E+04  0.25500000920E-02 0. -1.
        2   -1    0    0  501    0  0.00000000000E+00  0.00000000000E+00 -0.18558256596E+04  0.18558256596E+04  0.25500000920E-02 0.  1.
    10030    2    1    2    0    0  0.00000000000E+00  0.00000000000E+00 -0.55710808037E+03  0.31545432389E+04  0.31049595219E+04 0.  0.
        1    1    3    3  502    0 -0.67791439828E+03 -0.48355827991E+02 -0.16966546029E+04  0.18277152566E+04  0.50400001928E-02 0.  1.
       -1    1    3    3    0  502  0.67791439828E+03  0.48355827991E+02  0.11395465226E+04  0.13268279823E+04  0.50400001928E-02 0. -1.
</event>
<event>
 5   0  0.4134019E-07  0.3100859E+04  0.7818609E-02  0.8215502E-01
       -1   -1    0    0    0  501  0.00000000000E+00  0.00000000000E+00  0.12890249538E+04  0.12890249538E+04  0.50400001928E-02 0. -1.
        1   -1    0    0  501    0  0.00000000000E+00  0.00000000000E+00 -0.18648445785E+04  0.18648445785E+04  0.50400001928E-02 0.  1.
    10030    2    1    2    0    0  0.00000000000E+00  0.00000000000E+00 -0.57581962469E+03  0.31538695323E+04  0.31008587177E+04 0.  0.
        2    1    3    3  502    0 -0.57831815265E+03  0.97953255353E+03  0.78361627347E+03  0.13813002473E+04  0.25500000920E-02 0. -1.
       -2    1    3    3    0  502  0.57831815265E+03 -0.97953255353E+03 -0.13594358982E+04  0.17725692851E+04  0.25500000920E-02 0.  1.
</event>
<event>
 5   0  0.1200286E-06  0.3078003E+04  0.7818609E-02  0.8221801E-01
       -2   -1    0    0    0  501  0.00000000000E+00  0.00000000000E+00  0.15939784039E+04  0.15939784039E+04  0.25500000920E-02 0. -1.
        2   -1    0    0  501    0  0.00000000000E+00  0.00000000000E+00 -0.14859207494E+04  0.14859207494E+04  0.25500000920E-02 0.  1.
    10030    2    1    2    0    0  0.00000000000E+00  0.00000000000E+00  0.10805765453E+03  0.30798991532E+04  0.30780029788E+04 0.  0.
        5    1    3    3  502    0  0.42135909967E+01 -0.14237093272E+04 -0.53074328490E+03  0.15194329624E+04  0.46999998093E+01 0.  1.
       -5    1    3    3    0  502 -0.42135909967E+01  0.14237093272E+04  0.63880093943E+03  0.15604661909E+04  0.46999998093E+01 0. -1.
</event>
<event>
 5   0  0.3935852E-07  0.3090534E+04  0.7818609E-02  0.8218341E-01
        1   -1    0    0  501    0  0.00000000000E+00  0.00000000000E+00  0.16812627911E+04  0.16812627911E+04  0.50400001928E-02 0. -1.
       -1   -1    0    0    0  501  0.00000000000E+00  0.00000000000E+00 -0.14202718752E+04  0.14202718752E+04  0.50400001928E-02 0.  1.
    10030    2    1    2    0    0  0.00000000000E+00  0.00000000000E+00  0.26099091590E+03  0.31015346663E+04  0.30905341007E+04 0.  0.
        5    1    3    3  502    0 -0.82484276112E+03  0.53711301386E+03  0.13259416770E+04  0.16513628889E+04  0.46999998093E+01 0. -1.
       -5    1    3    3    0  502  0.82484276112E+03 -0.53711301386E+03 -0.10649507611E+04  0.14501717773E+04  0.46999998093E+01 0.  1.
</event>
<event>
 5   0  0.4330395E-07  0.3051326E+04  0.7818609E-02  0.8229224E-01
       -1   -1    0    0    0  501  0.00000000000E+00  0.00000000000E+00  0.12400362147E+04  0.12400362147E+04  0.50400001928E-02 0.  1.
        1   -1    0    0  501    0  0.00000000000E+00  0.00000000000E+00 -0.18770806934E+04  0.18770806934E+04  0.50400001928E-02 0. -1.
    10030    2    1    2    0    0  0.00000000000E+00  0.00000000000E+00 -0.63704447869E+03  0.31171169082E+04  0.30513262938E+04 0.  0.
        1    1    3    3  502    0 -0.85980203983E+02 -0.88413313270E+03  0.94861084157E+03  0.12995947524E+04  0.50400001928E-02 0.  1.
       -1    1    3    3    0  502  0.85980203983E+02  0.88413313270E+03 -0.15856553203E+04  0.18175221557E+04  0.50400001928E-02 0. -1.
</event>
<event>
 5   0  0.4173905E-07  0.3100498E+04  0.7818609E-02  0.8215601E-01
        1   -1    0    0  501    0  0.00000000000E+00  0.00000000000E+00  0.15261105076E+04  0.15261105076E+04  0.50400001928E-02 0. -1.
       -1   -1    0    0    0  501  0.00000000000E+00  0.00000000000E+00 -0.15747688587E+04  0.15747688587E+04  0.50400001928E-02 0.  1.
    10030    2    1    2    0    0  0.00000000000E+00  0.00000000000E+00 -0.48658351074E+02  0.31008793663E+04  0.31004975745E+04 0.  0.
        3    1    3    3  502    0  0.10989575043E+04 -0.10291135240E+04  0.34516056294E+03  0.15446417274E+04  0.10100000352E+00 0. -1.
       -3    1    3    3    0  502 -0.10989575043E+04  0.10291135240E+04 -0.39381891401E+03  0.15562376389E+04  0.10100000352E+00 0.  1.
</event>
<event>
 5   0  0.4173905E-07  0.3105170E+04  0.7818609E-02  0.8214320E-01
        1   -1    0    0  501    0  0.00000000000E+00  0.00000000000E+00  0.13569418010E+04  0.13569418010E+04  0.50400001928E-02 0.  1.
       -1   -1    0    0    0  501  0.00000000000E+00  0.00000000000E+00 -0.17764364264E+04  0.17764364264E+04  0.50400001928E-02 0. -1.
    10030    2    1    2    0    0  0.00000000000E+00  0.00000000000E+00 -0.41949462538E+03  0.31333782275E+04  0.31051704262E+04 0.  0.
        3    1    3    3  502    0 -0.74972644503E+03 -0.13570736543E+04 -0.29284947025E+03  0.15778147762E+04  0.10100000352E+00 0. -1.
       -3    1    3    3    0  502  0.74972644503E+03  0.13570736543E+04 -0.12664515513E+03  0.15555634513E+04  0.10100000352E+00 0.  1.
</event>
<event>
 5   0  0.1258262E-06  0.3019663E+04  0.7818609E-02  0.8238138E-01
       -2   -1    0    0    0  501  0.00000000000E+00  0.00000000000E+00  0.86244030782E+03  0.86244030782E+03  0.25500000920E-02 0.  1.
        2   -1    0    0  501    0  0.00000000000E+00  0.00000000000E+00 -0.26431872738E+04  0.26431872738E+04  0.25500000920E-02 0. -1.
    10030    2    1    2    0    0  0.00000000000E+00  0.00000000000E+00 -0.17807469660E+04  0.35056275817E+04  0.30196630581E+04 0.  0.
        1    1    3    3  502    0 -0.31816435817E+03 -0.63167353247E+03  0.65822251774E+03  0.96617642970E+03  0.50400001928E-02 0.  1.
       -1    1    3    3    0  502  0.31816435817E+03  0.63167353247E+03 -0.24389694838E+04  0.25394511520E+04  0.50400001928E-02 0. -1.
</event>
<event>
 5   0  0.4219337E-07  0.3127837E+04  0.7818609E-02  0.8208140E-01
       -1   -1    0    0    0  501  0.00000000000E+00  0.00000000000E+00  0.92425418415E+03  0.92425418416E+03  0.50400001928E-02 0.  1.
        1   -1    0    0  501    0  0.00000000000E+00  0.00000000000E+00 -0.26462865571E+04  0.26462865571E+04  0.50400001928E-02 0. -1.
    10030    2    1    2    0    0  0.00000000000E+00  0.00000000000E+00 -0.17220323730E+04  0.35705407413E+04  0.31278372227E+04 0.  0.
        4    1    3    3  502    0 -0.94848370869E+03 -0.10384886967E+04 -0.80285505845E+02  0.14087325843E+04  0.12699999809E+01 0.  1.
       -4    1    3    3    0  502  0.94848370869E+03  0.10384886967E+04 -0.16417468671E+04  0.21618081570E+04  0.12699999809E+01 0. -1.
</event>
<event>
 5   0  0.4330395E-07  0.3118093E+04  0.7818609E-02  0.8210790E-01
        1   -1    0    0  501    0  0.00000000000E+00  0.00000000000E+00  0.11852113537E+04  0.11852113538E+04  0.50400001928E-02 0.  1.
       -1   -1    0    0    0  501  0.00000000000E+00  0.00000000000E+00 -0.20507948181E+04  0.20507948181E+04  0.50400001928E-02 0. -1.
    10030    2    1    2    0    0  0.00000000000E+00  0.00000000000E+00 -0.86558346436E+03  0.32360061719E+04  0.31180925597E+04 0.  0.
        1    1    3    3  502    0  0.10743710610E+04  0.29222500515E+02 -0.16048798370E+04  0.19315192007E+04  0.50400001928E-02 0. -1.
       -1    1    3    3    0  502 -0.10743710610E+04 -0.29222500515E+02  0.73929637266E+03  0.13044869712E+04  0.50400001928E-02 0.  1.
</event>
<event>
 5   0  0.1176002E-06  0.3117407E+04  0.7818609E-02  0.8210977E-01
       -2   -1    0    0    0  501  0.00000000000E+00  0.00000000000E+00  0.11271748923E+04  0.11271748923E+04  0.25500000920E-02 0.  1.
        2   -1    0    0  501    0  0.00000000000E+00  0.00000000000E+00 -0.21554382629E+04  0.21554382629E+04  0.25500000920E-02 0. -1.
    10030    2    1    2    0    0  0.00000000000E+00  0.00000000000E+00 -0.10282633706E+04  0.32826131552E+04  0.31174065451E+04 0.  0.
        2    1    3    3  502    0 -0.47543705338E+03  0.14825173974E+04 -0.59333528839E+03  0.16661167395E+04  0.25500000920E-02 0.  1.
       -2    1    3    3    0  502  0.47543705338E+03 -0.14825173974E+04 -0.43492808218E+03  0.16164964157E+04  0.25500000920E-02 0. -1.
</event>
<event>
 5   0  0.4173905E-07  0.3110341E+04  0.7818609E-02  0.8212906E-01
       -1   -1    0    0    0  501  0.00000000000E+00  0.00000000000E+00  0.87326858400E+03  0.87326858402E+03  0.50400001928E-02 0. -1.
        1   -1    0    0  501    0  0.00000000000E+00  0.00000000000E+00 -0.27695439181E+04  0.27695439181E+04  0.50400001928E-02 0.  1.
    10030    2    1    2    0    0  0.00000000000E+00  0.00000000000E+00 -0.18962753341E+04  0.36428125021E+04  0.31103412647E+04 0.  0.
        3    1    3    3  502    0  0.49981027721E+03 -0.82530835339E+03 -0.23766156102E+04  0.25650040858E+04  0.10100000352E+00 0.  1.
       -3    1    3    3    0  502 -0.49981027721E+03  0.82530835339E+03  0.48034027605E+03  0.10778084164E+04  0.10100000352E+00 0. -1.
</event>
<event>
 5   0  0.1193123E-06  0.3138394E+04  0.7818609E-02  0.8205279E-01
       -2   -1    0    0    0  501  0.00000000000E+00  0.00000000000E+00  0.99568991823E+03  0.99568991824E+03  0.25500000920E-02 0.  1.
        2   -1    0    0  501    0  0.00000000000E+00  0.00000000000E+00 -0.24730381682E+04  0.24730381682E+04  0.25500000920E-02 0. -1.
    10030    2    1    2    0    0  0.00000000000E+00  0.00000000000E+00 -0.14773482499E+04  0.34687280864E+04  0.31383939660E+04 0.  0.
        3    1    3    3  502    0 -0.49777393311E+03 -0.70098953311E+03 -0.21895571420E+04  0.23523022132E+04  0.10100000352E+00 0. -1.
       -3    1    3    3    0  502  0.49777393311E+03  0.70098953311E+03  0.71220889212E+03  0.11164258731E+04  0.10100000352E+00 0.  1.
</event>
<event>
 5   0  0.4330395E-07  0.3096944E+04  0.7818609E-02  0.8216577E-01
        1   -1    0    0  501    0  0.00000000000E+00  0.00000000000E+00  0.18614173782E+04  0.18614173782E+04  0.50400001928E-02 0.  1.
       -1   -1    0    0    0  501  0.00000000000E+00  0.00000000000E+00 -0.12881393812E+04  0.12881393812E+04  0.50400001928E-02 0. -1.
    10030    2    1    2    0    0  0.00000000000E+00  0.00000000000E+00  0.57327799706E+03  0.31495567594E+04  0.30969436739E+04 0.  0.
        1    1    3    3  502    0 -0.67769279327E+03  0.55254774714E+03 -0.10130345756E+04  0.13382135802E+04  0.50400001928E-02 0. -1.
       -1    1    3    3    0  502  0.67769279327E+03 -0.55254774714E+03  0.15863125726E+04  0.18113431792E+04  0.50400001928E-02 0.  1.
</event>
<event>
 5   0  0.1176002E-06  0.3091373E+04  0.7818609E-02  0.8218109E-01
        2   -1    0    0  501    0  0.00000000000E+00  0.00000000000E+00  0.17823662161E+04  0.17823662161E+04  0.25500000920E-02 0. -1.
       -2   -1    0    0    0  501  0.00000000000E+00  0.00000000000E+00 -0.13404354129E+04  0.13404354129E+04  0.25500000920E-02 0.  1.
    10030    2    1    2    0    0  0.00000000000E+00  0.00000000000E+00  0.44193080322E+03  0.31228016290E+04  0.30913730249E+04 0.  0.
        2    1    3    3  502    0  0.30086462643E+03 -0.11074586272E+04  0.12669452639E+04  0.17094251771E+04  0.25500000920E-02 0. -1.
       -2    1    3    3    0  502 -0.30086462643E+03  0.11074586272E+04 -0.82501446068E+03  0.14133764519E+04  0.25500000920E-02 0.  1.
</event>
<event>
 5   0  0.4134019E-07  0.3104023E+04  0.7818609E-02  0.8214635E-01
       -1   -1    0    0    0  501  0.00000000000E+00  0.00000000000E+00  0.14372243577E+04  0.14372243577E+04  0.50400001928E-02 0.  1.
        1   -1    0    0  501    0  0.00000000000E+00  0.00000000000E+00 -0.16759668430E+04  0.16759668430E+04  0.50400001928E-02 0. -1.
    10030    2    1    2    0    0  0.00000000000E+00  0.00000000000E+00 -0.23874248534E+03  0.31131912007E+04  0.31040234339E+04 0.  0.
        2    1    3    3  502    0 -0.70403674199E+03  0.13177569439E+04  0.30209516103E+03  0.15242744449E+04  0.25500000920E-02 0.  1.
       -2    1    3    3    0  502  0.70403674199E+03 -0.13177569439E+04 -0.54083764637E+03  0.15889167558E+04  0.25500000920E-02 0. -1.
</event>
<event>
 5   0  0.1193123E-06  0.3106926E+04  0.7818609E-02  0.8213840E-01
        2   -1    0    0  501    0  0.00000000000E+00  0.00000000000E+00  0.14841843760E+04  0.14841843760E+04  0.25500000920E-02 0.  1.
       -2   -1    0    0    0  501  0.00000000000E+00  0.00000000000E+00 -0.16259756644E+04  0.16259756644E+04  0.25500000920E-02 0. -1.
    10030    2    1    2    0    0  0.00000000000E+00  0.00000000000E+00 -0.14179128842E+03  0.31101600405E+04  0.31069262476E+04 0.  0.
        3    1    3    3  502    0 -0.14236820095E+04 -0.61655578859E+03  0.81559248971E+01  0.15514760823E+04  0.10100000352E+00 0.  1.
       -3    1    3    3    0  502  0.14236820095E+04  0.61655578859E+03 -0.14994721332E+03  0.15586839582E+04  0.10100000352E+00 0. -1.
</event>
<event>
 5   0  0.1200286E-06  0.3105541E+04  0.7818609E-02  0.8214219E-01
       -2   -1    0    0    0  501  0.00000000000E+00  0.00000000000E+00  0.88317023441E+03  0.88317023441E+03  0.25500000920E-02 0. -1.
        2   -1    0    0  501    0  0.00000000000E+00  0.00000000000E+00 -0.27300473202E+04  0.27300473202E+04  0.25500000920E-02 0.  1.
    10030    2    1    2    0    0  0.00000000000E+00  0.00000000000E+00 -0.18468770858E+04  0.36132175546E+04  0.31055411971E+04 0.  0.
        5    1    3    3  502    0  0.11895997241E+04  0.61464582366E+01  0.23764192470E+03  0.12131286234E+04  0.46999998093E+01 0. -1.
       -5    1    3    3    0  502 -0.11895997241E+04 -0.61464582366E+01 -0.20845190105E+04  0.24000889312E+04  0.46999998093E+01 0.  1.
</event>
<event>
 5   0  0.4134019E-07  0.3109510E+04  0.7818609E-02  0.8213133E-01
       -1   -1    0    0    0  501  0.00000000000E+00  0.00000000000E+00  0.17192300695E+04  0.17192300695E+04  0.50400001928E-02 0. -1.
        1   -1    0    0  501    0  0.00000000000E+00  0.00000000000E+00 -0.14060149019E+04  0.14060149019E+04  0.50400001928E-02 0.  1.
    10030    2    1    2    0    0  0.00000000000E+00  0.00000000000E+00  0.31321516764E+03  0.31252449714E+04  0.31095099919E+04 0.  0.
        2    1    3    3  502    0  0.85722100855E+02 -0.12989713977E+04  0.10109609187E+04  0.16482466289E+04  0.25500000920E-02 0. -1.
       -2    1    3    3    0  502 -0.85722100855E+02  0.12989713977E+04 -0.69774575105E+03  0.14769983425E+04  0.25500000920E-02 0.  1.
</event>
<event>
 5   0  0.1193123E-06  0.3098467E+04  0.7818609E-02  0.8216159E-01
       -2   -1    0    0    0  501  0.00000000000E+00  0.00000000000E+00  0.13172150589E+04  0.13172150589E+04  0.25500000920E-02 0.  1.
        2   -1    0    0  501    0  0.00000000000E+00  0.00000000000E+00 -0.18221198592E+04  0.18221198592E+04  0.25500000920E-02 0. -1.
    10030    2    1    2    0    0  0.00000000000E+00  0.00000000000E+00 -0.50490480031E+03  0.31393349180E+04  0.30984665353E+04 0.  0.
        3    1    3    3  502    0  0.56997056858E+03 -0.66437072243E+03 -0.15475408516E+04  0.17779588306E+04  0.10100000352E+00 0.  1.
       -3    1    3    3    0  502 -0.56997056858E+03  0.66437072243E+03  0.10426360512E+04  0.13613760874E+04  0.10100000352E+00 0. -1.
</event>
<event>
 5   0  0.1258262E-06  0.3113601E+04  0.7818609E-02  0.8212015E-01
       -2   -1    0    0    0  501  0.00000000000E+00  0.00000000000E+00  0.16598556170E+04  0.16598556170E+04  0.25500000920E-02 0.  1.
        2   -1    0    0  501    0  0.00000000000E+00  0.00000000000E+00 -0.14601436502E+04  0.14601436502E+04  0.25500000920E-02 0. -1.
    10030    2    1    2    0    0  0.00000000000E+00  0.00000000000E+00  0.19971196680E+03  0.31199992672E+04  0.31136008989E+04 0.  0.
        1    1    3    3  502    0  0.21765153246E+03  0.69347068189E+03  0.14794036166E+04  0.16483048374E+04  0.50400001928E-02 0.  1.
       -1    1    3    3    0  502 -0.21765153246E+03 -0.69347068189E+03 -0.12796916498E+04  0.14716944298E+04  0.50400001928E-02 0. -1.
</event>
<event>
 5   0  0.3935852E-07  0.3105397E+04  0.7818609E-02  0.8214258E-01
        1   -1    0    0  501    0  0.00000000000E+00  0.00000000000E+00  0.19000821918E+04  0.19000821918E+04  0.50400001928E-02 0.  1.
       -1   -1    0    0    0  501  0.00000000000E+00  0.00000000000E+00 -0.12688251812E+04  0.12688251812E+04  0.50400001928E-02 0. -1.
    10030    2    1    2    0    0  0.00000000000E+00  0.00000000000E+00  0.63125701057E+03  0.31689073731E+04  0.31053966777E+04 0.  0.
        5    1    3    3  502    0  0.31410634521E+03 -0.13098093423E+04  0.11038154847E+04  0.17414631847E+04  0.46999998093E+01 0.  1.
       -5    1    3    3    0  502 -0.31410634521E+03  0.13098093423E+04 -0.47255847417E+03  0.14274441883E+04  0.46999998093E+01 0. -1.
</event>
<event>
 5   0  0.1193123E-06  0.3181978E+04  0.7818609E-02  0.8193593E-01
       -2   -1    0    0    0  501  0.00000000000E+00  0.00000000000E+00  0.13581303951E+04  0.13581303951E+04  0.25500000920E-02 0.  1.
        2   -1    0    0  501    0  0.00000000000E+00  0.00000000000E+00 -0.18637722782E+04  0.18637722782E+04  0.25500000920E-02 0. -1.
    10030    2    1    2    0    0  0.00000000000E+00  0.00000000000E+00 -0.50564188306E+03  0.32219026733E+04  0.31819778633E+04 0.  0.
        3    1    3    3  502    0  0.15164407857E+04 -0.28311018184E+03  0.14129506358E+03  0.15490992017E+04  0.10100000352E+00 0. -1.
       -3    1    3    3    0  502 -0.15164407857E+04  0.28311018184E+03 -0.64693694664E+03  0.16728034716E+04  0.10100000352E+00 0.  1.
</event>
<event>
 5   0  0.4219337E-07  0.3097490E+04  0.7818609E-02  0.8216427E-01
       -1   -1    0    0    0  501  0.00000000000E+00  0.00000000000E+00  0.22849327260E+04  0.22849327260E+04  0.50400001928E-02 0.  1.
        1   -1    0    0  501    0  0.00000000000E+00  0.00000000000E+00 -0.10497511637E+04  0.10497511637E+04  0.50400001928E-02 0. -1.
    10030    2    1    2    0    0  0.00000000000E+00  0.00000000000E+00  0.12351815623E+04  0.33346838897E+04  0.30974898147E+04 0.  0.
        4    1    3    3  502    0  0.91855566399E+03 -0.89804427175E+02  0.19565330210E+04  0.21632920326E+04  0.12699999809E+01 0.  1.
       -4    1    3    3    0  502 -0.91855566399E+03  0.89804427175E+02 -0.72135145874E+03  0.11713918571E+04  0.12699999809E+01 0. -1.
</event>
<event>
 5   0  0.4330395E-07  0.3140055E+04  0.7818609E-02  0.8204830E-01
       -1   -1    0    0    0  501  0.00000000000E+00  0.00000000000E+00  0.17211914173E+04  0.17211914173E+04  0.50400001928E-02 0.  1.
        1   -1    0    0  501    0  0.00000000000E+00  0.00000000000E+00 -0.14321392356E+04  0.14321392356E+04  0.50400001928E-02 0. -1.
    10030    2    1    2    0    0  0.00000000000E+00  0.00000000000E+00  0.28905218174E+03  0.31533306529E+04  0.31400546242E+04 0.  0.
        1    1    3    3  502    0  0.13648875056E+04 -0.76019984187E+03 -0.11579063901E+02  0.15623558421E+04  0.50400001928E-02 0.  1.
       -1    1    3    3    0  502 -0.13648875056E+04  0.76019984187E+03  0.30063124564E+03  0.15909748108E+04  0.50400001928E-02 0. -1.
</event>
<event>
 5   0  0.4173905E-07  0.3281025E+04  0.7818609E-02  0.8167740E-01
        1   -1    0    0  501    0  0.00000000000E+00  0.00000000000E+00  0.23481407448E+04  0.23481407448E+04  0.50400001928E-02 0. -1.
       -1   -1    0    0    0  501  0.00000000000E+00  0.00000000000E+00 -0.11461326597E+04  0.11461326597E+04  0.50400001928E-02 0.  1.
    10030    2    1    2    0    0  0.00000000000E+00  0.00000000000E+00  0.12020080851E+04  0.34942734045E+04  0.32810247162E+04 0.  0.
        3    1    3    3  502    0  0.92798354046E+03 -0.86563676987E+03  0.17081888368E+04  0.21280013114E+04  0.10100000352E+00 0. -1.
       -3    1    3    3    0  502 -0.92798354046E+03  0.86563676987E+03 -0.50618075176E+03  0.13662720931E+04  0.10100000352E+00 0.  1.
</event>
<event>
 5   0  0.1237580E-06  0.3104518E+04  0.7818609E-02  0.8214499E-01
        2   -1    0    0  501    0  0.00000000000E+00  0.00000000000E+00  0.16969269155E+04  0.16969269155E+04  0.25500000920E-02 0.  1.
       -2   -1    0    0    0  501  0.00000000000E+00  0.00000000000E+00 -0.14199241779E+04  0.14199241779E+04  0.25500000920E-02 0. -1.
    10030    2    1    2    0    0  0.00000000000E+00  0.00000000000E+00  0.27700273759E+03  0.31168510934E+04  0.31045177116E+04 0.  0.
        4    1    3    3  502    0 -0.14364369571E+04  0.17597512592E+03 -0.42514465907E+03  0.15083328448E+04  0.12699999809E+01 0. -1.
       -4    1    3    3    0  502  0.14364369571E+04 -0.17597512592E+03  0.70214739666E+03  0.16085182486E+04  0.12699999809E+01 0.  1.
</event>
<event>
 5   0  0.1237580E-06  0.3095666E+04  0.7818609E-02  0.8216928E-01
        2   -1    0    0  501    0  0.00000000000E+00  0.00000000000E+00  0.17800144924E+04  0.17800144924E+04  0.25500000920E-02 0. -1.
       -2   -1    0    0    0  501  0.00000000000E+00  0.00000000000E+00 -0.13459369269E+04  0.13459369269E+04  0.25500000920E-02 0.  1.
    10030    2    1    2    0    0  0.00000000000E+00  0.00000000000E+00  0.43407756549E+03  0.31259514192E+04  0.30956661549E+04 0.  0.
        4    1    3    3  502    0 -0.10216338824E+04  0.82936762451E+02 -0.95412303742E+03  0.14003452002E+04  0.12699999809E+01 0.  1.
       -4    1    3    3    0  502  0.10216338824E+04 -0.82936762451E+02  0.13882006029E+04  0.17256062190E+04  0.12699999809E+01 0. -1.
</event>
<event>
 5   0  0.4134019E-07  0.3104991E+04  0.7818609E-02  0.8214369E-01
       -1   -1    0    0    0  501  0.00000000000E+00  0.00000000000E+00  0.18196438056E+04  0.18196438056E+04  0.50400001928E-02 0.  1.
        1   -1    0    0  501    0  0.00000000000E+00  0.00000000000E+00 -0.13245683309E+04  0.13245683309E+04  0.50400001928E-02 0. -1.
    10030    2    1    2    0    0  0.00000000000E+00  0.00000000000E+00  0.49507547462E+03  0.31442121365E+04  0.31049911810E+04 0.  0.
        2    1    3    3  502    0  0.16048866281E+03  0.13198376124E+04 -0.56415746183E+03  0.14442996835E+04  0.25500000920E-02 0. -1.
       -2    1    3    3    0  502 -0.16048866281E+03 -0.13198376124E+04  0.10592329365E+04  0.16999124530E+04  0.25500000920E-02 0.  1.
</event>
<event>
 5   0  0.3935852E-07  0.3089419E+04  0.7818609E-02  0.8218648E-01
        1   -1    0    0  501    0  0.00000000000E+00  0.00000000000E+00  0.14907582711E+04  0.14907582711E+04  0.50400001928E-02 0.  1.
       -1   -1    0    0    0  501  0.00000000000E+00  0.00000000000E+00 -0.16006129391E+04  0.16006129391E+04  0.50400001928E-02 0. -1.
    10030    2    1    2    0    0  0.00000000000E+00  0.00000000000E+00 -0.10985466803E+03  0.30913712103E+04  0.30894187012E+04 0.  0.
        5    1    3    3  502    0 -0.64455972464E+03 -0.12243394363E+04 -0.74212231003E+03  0.15701056993E+04  0.46999998093E+01 0. -1.
       -5    1    3    3    0  502  0.64455972464E+03  0.12243394363E+04  0.63226764200E+03  0.15212655110E+04  0.46999998093E+01 0.  1.
</event>
<event>
 5   0  0.3935852E-07  0.3104437E+04  0.7818609E-02  0.8214521E-01
       -1   -1    0    0    0  501  0.00000000000E+00  0.00000000000E+00  0.12327771831E+04  0.12327771831E+04  0.50400001928E-02 0. -1.
        1   -1    0    0  501    0  0.00000000000E+00  0.00000000000E+00 -0.19544346885E+04  0.19544346885E+04  0.50400001928E-02 0.  1.
    10030    2    1    2    0    0  0.00000000000E+00  0.00000000000E+00 -0.72165750544E+03  0.31872118716E+04  0.31044371405E+04 0.  0.
        5    1    3    3  502    0 -0.96642031154E+03 -0.66216106945E+03  0.68462255349E+03  0.13568919011E+04  0.46999998093E+01 0. -1.
       -5    1    3    3    0  502  0.96642031154E+03  0.66216106945E+03 -0.14062800589E+04  0.18303199706E+04  0.46999998093E+01 0.  1.
</event>
<event>
 5   0  0.1176002E-06  0.3099753E+04  0.7818609E-02  0.8215806E-01
       -2   -1    0    0    0  501  0.00000000000E+00  0.00000000000E+00  0.19430563780E+04  0.19430563780E+04  0.25500000920E-02 0.  1.
        2   -1    0    0  501    0  0.00000000000E+00  0.00000000000E+00 -0.12362571867E+04  0.12362571867E+04  0.25500000920E-02 0. -1.
    10030    2    1    2    0    0  0.00000000000E+00  0.00000000000E+00  0.70679919129E+03  0.31793135647E+04  0.30997531589E+04 0.  0.
        2    1    3    3  502    0  0.55167857572E+03 -0.11611164478E+04 -0.53460314662E+03  0.13922432189E+04  0.25500000920E-02 0. -1.
       -2    1    3    3    0  502 -0.55167857572E+03  0.11611164478E+04  0.12414023379E+04  0.17870703458E+04  0.25500000920E-02 0.  1.
</event>
<event>
 5   0  0.1193123E-06  0.3098234E+04  0.7818609E-02  0.8216223E-01
        2   -1    0    0  501    0  0.00000000000E+00  0.00000000000E+00  0.17017209120E+04  0.17017209120E+04  0.25500000920E-02 0. -1.
       -2   -1    0    0    0  501  0.00000000000E+00  0.00000000000E+00 -0.14101977254E+04  0.14101977254E+04  0.25500000920E-02 0.  1.
    10030    2    1    2    0    0  0.00000000000E+00  0.00000000000E+00  0.29152318668E+03  0.31119186374E+04  0.30982336641E+04 0.  0.
        3    1    3    3  502    0  0.90294362155E+03  0.70609746799E+03 -0.90089787958E+03  0.14579087138E+04  0.10100000352E+00 0.  1.
       -3    1    3    3    0  502 -0.90294362155E+03 -0.70609746799E+03  0.11924210663E+04  0.16540099236E+04  0.10100000352E+00 0. -1.
</event>
<event>
 5   0  0.1258262E-06  0.3101442E+04  0.7818609E-02  0.8215342E-01
        2   -1    0    0  501    0  0.00000000000E+00  0.00000000000E+00  0.19871560602E+04  0.19871560602E+04  0.25500000920E-02 0.  1.
       -2   -1    0    0    0  501  0.00000000000E+00  0.00000000000E+00 -0.12101389394E+04  0.12101389394E+04  0.25500000920E-02 0. -1.
    10030    2    1    2    0    0  0.00000000000E+00  0.00000000000E+00  0.77701712077E+03  0.31972949996E+04  0.31014415533E+04 0.  0.
        1    1    3    3  502    0  0.27767685932E+03  0.14362259227E+04 -0.14206825893E+03  0.14697049804E+04  0.50400001928E-02 0.  1.
       -1    1    3    3    0  502 -0.27767685932E+03 -0.14362259227E+04  0.91908537970E+03  0.17275900192E+04  0.50400001928E-02 0. -1.
</event>
<event>
 5   0  0.1176002E-06  0.3101773E+04  0.7818609E-02  0.8215251E-01
       -2   -1    0    0    0  501  0.00000000000E+00  0.00000000000E+00  0.11822042645E+04  0.11822042645E+04  0.25500000920E-02 0. -1.
        2   -1    0    0  501    0  0.00000000000E+00  0.00000000000E+00 -0.20345464413E+04  0.20345464413E+04  0.25500000920E-02 0.  1.
    10030    2    1    2    0    0  0.00000000000E+00  0.00000000000E+00 -0.85234217680E+03  0.32167507058E+04  0.31017733503E+04 0.  0.
        2    1    3    3  502    0  0.10271417914E+03 -0.76422365309E+02  0.11767147568E+04  0.11836588189E+04  0.25500000920E-02 0. -1.
       -2    1    3    3    0  502 -0.10271417914E+03  0.76422365309E+02 -0.20290569336E+04  0.20330918869E+04  0.25500000920E-02 0.  1.
</event>
<event>
 5   0  0.1193123E-06  0.3102795E+04  0.7818609E-02  0.8214971E-01
        2   -1    0    0  501    0  0.00000000000E+00  0.00000000000E+00  0.22535240998E+04  0.22535240998E+04  0.25500000920E-02 0.  1.
       -2   -1    0    0    0  501  0.00000000000E+00  0.00000000000E+00 -0.10680315517E+04  0.10680315517E+04  0.25500000920E-02 0. -1.
    10030    2    1    2    0    0  0.00000000000E+00  0.00000000000E+00  0.11854925481E+04  0.33215556515E+04  0.31027954113E+04 0.  0.
        3    1    3    3  502    0  0.14646976684E+04 -0.49357604512E+03  0.73588297457E+03  0.17118645783E+04  0.10100000352E+00 0.  1.
       -3    1    3    3    0  502 -0.14646976684E+04  0.49357604512E+03  0.44960957355E+03  0.16096910731E+04  0.10100000352E+00 0. -1.
</event>
<event>
 5   0  0.3935852E-07  0.3092165E+04  0.7818609E-02  0.8217891E-01
       -1   -1    0    0    0  501  0.00000000000E+00  0.00000000000E+00  0.14769958278E+04  0.14769958278E+04  0.50400001928E-02 0.  1.
        1   -1    0    0  501    0  0.00000000000E+00  0.00000000000E+00 -0.16184009199E+04  0.16184009199E+04  0.50400001928E-02 0. -1.
    10030    2    1    2    0    0  0.00000000000E+00  0.00000000000E+00 -0.14140509205E+03  0.30953967477E+04  0.30921652002E+04 0.  0.
        5    1    3    3  502    0 -0.11860535742E+04 -0.38216996952E+03 -0.98684877792E+03  0.15895501146E+04  0.46999998093E+01 0. -1.
       -5    1    3    3    0  502  0.11860535742E+04  0.38216996952E+03  0.84544368586E+03  0.15058466331E+04  0.46999998093E+01 0.  1.
</event>
<event>
 5   0  0.1200286E-06  0.3095575E+04  0.7818609E-02  0.8216953E-01
        2   -1    0    0  501    0  0.00000000000E+00  0.00000000000E+00  0.19338821754E+04  0.19338821754E+04  0.25500000920E-02 0. -1.
       -2   -1    0    0    0  501  0.00000000000E+00  0.00000000000E+00 -0.12387759929E+04  0.12387759929E+04  0.25500000920E-02 0.  1.
    10030    2    1    2    0    0  0.00000000000E+00  0.00000000000E+00  0.69510618247E+03  0.31726581683E+04  0.30955754308E+04 0.  0.
        5    1    3    3  502    0 -0.14300288692E+03  0.50199136451E+03 -0.11458438390E+04  0.12591367476E+04  0.46999998093E+01 0.  1.
       -5    1    3    3    0  502  0.14300288692E+03 -0.50199136451E+03  0.18409500215E+04  0.19135214207E+04  0.46999998093E+01 0. -1.
</event>
<event>
 5   0  0.3935852E-07  0.2990491E+04  0.7818609E-02  0.8246451E-01
       -1   -1    0    0    0  501  0.00000000000E+00  0.00000000000E+00  0.12819506662E+04  0.12819506662E+04  0.50400001928E-02 0.  1.
        1   -1    0    0  501    0  0.00000000000E+00  0.00000000000E+00 -0.17440290719E+04  0.17440290719E+04  0.50400001928E-02 0. -1.
    10030    2    1    2    0    0  0.00000000000E+00  0.00000000000E+00 -0.46207840576E+03  0.30259797381E+04  0.29904910838E+04 0.  0.
        5    1    3    3  502    0 -0.66495939691E+03 -0.42614159655E+03  0.10536613509E+04  0.13168112971E+04  0.46999998093E+01 0.  1.
       -5    1    3    3    0  502  0.66495939691E+03  0.42614159655E+03 -0.15157397566E+04  0.17091684410E+04  0.46999998093E+01 0. -1.
</event>
<event>
 5   0  0.4173905E-07  0.3081637E+04  0.7818609E-02  0.8220796E-01
       -1   -1    0    0    0  501  0.00000000000E+00  0.00000000000E+00  0.13663762333E+04  0.13663762333E+04  0.50400001928E-02 0.  1.
        1   -1    0    0  501    0  0.00000000000E+00  0.00000000000E+00 -0.17375312015E+04  0.17375312015E+04  0.50400001928E-02 0. -1.
    10030    2    1    2    0    0  0.00000000000E+00  0.00000000000E+00 -0.37115496821E+03  0.31039074349E+04  0.30816367978E+04 0.  0.
        3    1    3    3  502    0  0.10070864445E+04  0.48452216618E+03 -0.12539677318E+04  0.16797082838E+04  0.10100000352E+00 0. -1.
       -3    1    3    3    0  502 -0.10070864445E+04 -0.48452216618E+03  0.88281276355E+03  0.14241991511E+04  0.10100000352E+00 0.  1.
</event>
<event>
 5   0  0.1193123E-06  0.3092345E+04  0.7818609E-02  0.8217842E-01
       -2   -1    0    0    0  501  0.00000000000E+00  0.00000000000E+00  0.87648197801E+03  0.87648197802E+03  0.25500000920E-02 0.  1.
        2   -1    0    0  501    0  0.00000000000E+00  0.00000000000E+00 -0.27275517802E+04  0.27275517802E+04  0.25500000920E-02 0. -1.
    10030    2    1    2    0    0  0.00000000000E+00  0.00000000000E+00 -0.18510698022E+04  0.36040337583E+04  0.30923453749E+04 0.  0.
        3    1    3    3  502    0  0.87321170575E+02 -0.13953323639E+04 -0.15590798962E+03  0.14067283690E+04  0.10100000352E+00 0.  1.
       -3    1    3    3    0  502 -0.87321170575E+02  0.13953323639E+04 -0.16951618126E+04  0.21973053893E+04  0.10100000352E+00 0. -1.
</event>
<event>
 5   0  0.4330395E-07  0.3094165E+04  0.7818609E-02  0.8217341E-01
        1   -1    0    0  501    0  0.00000000000E+00  0.00000000000E+00  0.17611790358E+04  0.17611790358E+04  0.50400001928E-02 0.  1.
       -1   -1    0    0    0  501  0.00000000000E+00  0.00000000000E+00 -0.13590122878E+04  0.13590122878E+04  0.50400001928E-02 0. -1.
    10030    2    1    2    0    0  0.00000000000E+00  0.00000000000E+00  0.40216674799E+03  0.31201913237E+04  0.30941647990E+04 0.  0.
        1    1    3    3  502    0  0.11479324443E+03 -0.14309377969E+04  0.78273970264E+03  0.16350663319E+04  0.50400001928E-02 0.  1.
       -1    1    3    3    0  502 -0.11479324443E+03  0.14309377969E+04 -0.38057295465E+03  0.14851249918E+04  0.50400001928E-02 0. -1.
</event>
<event>
 5   0  0.4173905E-07  0.3099069E+04  0.7818609E-02  0.8215993E-01
       -1   -1    0    0    0  501  0.00000000000E+00  0.00000000000E+00  0.14261355601E+04  0.14261355601E+04  0.50400001928E-02 0.  1.
        1   -1    0    0  501    0  0.00000000000E+00  0.00000000000E+00 -0.16836110369E+04  0.16836110369E+04  0.50400001928E-02 0. -1.
    10030    2    1    2    0    0  0.00000000000E+00  0.00000000000E+00 -0.25747547683E+03  0.31097465971E+04  0.30990692598E+04 0.  0.
        3    1    3    3  502    0 -0.92902509447E+03 -0.21974356964E+03  0.10959929653E+04  0.14534701417E+04  0.10100000352E+00 0.  1.
       -3    1    3    3    0  502  0.92902509447E+03  0.21974356964E+03 -0.13534684421E+04  0.16562764554E+04  0.10100000352E+00 0. -1.
</event>
<event>
 5   0  0.4219337E-07  0.3106925E+04  0.7818609E-02  0.8213840E-01
       -1   -1    0    0    0  501  0.00000000000E+00  0.00000000000E+00  0.15320262043E+04  0.15320262043E+04  0.50400001928E-02 0. -1.
        1   -1    0    0  501    0  0.00000000000E+00  0.00000000000E+00 -0.15751989656E+04  0.15751989656E+04  0.50400001928E-02 0.  1.
    10030    2    1    2    0    0  0.00000000000E+00  0.00000000000E+00 -0.43172761220E+02  0.31072251699E+04  0.31069252275E+04 0.  0.
        4    1    3    3  502    0  0.14500407378E+03 -0.98180197409E+03 -0.12168097772E+04  0.15702193938E+04  0.12699999809E+01 0.  1.
       -4    1    3    3    0  502 -0.14500407378E+03  0.98180197409E+03  0.11736370160E+04  0.15370057761E+04  0.12699999809E+01 0. -1.
</event>
<event>
 5   0  0.3935852E-07  0.3112650E+04  0.7818609E-02  0.8212275E-01
       -1   -1    0    0    0  501  0.00000000000E+00  0.00000000000E+00  0.15972683180E+04  0.15972683181E+04  0.50400001928E-02 0. -1.
        1   -1    0    0  501    0  0.00000000000E+00  0.00000000000E+00 -0.15164313230E+04  0.15164313230E+04  0.50400001928E-02 0.  1.
    10030    2    1    2    0    0  0.00000000000E+00  0.00000000000E+00  0.80836995073E+02  0.31136996410E+04  0.31126501305E+04 0.  0.
        5    1    3    3  502    0 -0.14232969675E+04 -0.38796479415E+03  0.53640285857E+03  0.15697264271E+04  0.46999998093E+01 0. -1.
       -5    1    3    3    0  502  0.14232969675E+04  0.38796479415E+03 -0.45556586350E+03  0.15439732139E+04  0.46999998093E+01 0.  1.
</event>
<event>
 5   0  0.1237580E-06  0.3139241E+04  0.7818609E-02  0.8205050E-01
        2   -1    0    0  501    0  0.00000000000E+00  0.00000000000E+00  0.16634365390E+04  0.16634365390E+04  0.25500000920E-02 0. -1.
       -2   -1    0    0    0  501  0.00000000000E+00  0.00000000000E+00 -0.14810953823E+04  0.14810953823E+04  0.25500000920E-02 0.  1.
    10030    2    1    2    0    0  0.00000000000E+00  0.00000000000E+00  0.18234115670E+03  0.31445319213E+04  0.31392407851E+04 0.  0.
        4    1    3    3  502    0  0.58966845837E+03  0.19561109835E+03  0.15350347836E+04  0.16559909397E+04  0.12699999809E+01 0. -1.
       -4    1    3    3    0  502 -0.58966845837E+03 -0.19561109835E+03 -0.13526936269E+04  0.14885409816E+04  0.12699999809E+01 0.  1.
</event>
<event>
 5   0  0.1258262E-06  0.3096555E+04  0.7818609E-02  0.8216684E-01
       -2   -1    0    0    0  501  0.00000000000E+00  0.00000000000E+00  0.16969351244E+04  0.16969351244E+04  0.25500000920E-02 0. -1.
        2   -1    0    0  501    0  0.00000000000E+00  0.00000000000E+00 -0.14126431441E+04  0.14126431441E+04  0.25500000920E-02 0.  1.
    10030    2    1    2    0    0  0.00000000000E+00  0.00000000000E+00  0.28429198031E+03  0.31095782685E+04  0.30965553568E+04 0.  0.
        1    1    3    3  502    0  0.38700923720E+03  0.64877717413E+03 -0.12150094917E+04  0.14307117237E+04  0.50400001928E-02 0.  1.
       -1    1    3    3    0  502 -0.38700923720E+03 -0.64877717413E+03  0.14993014720E+04  0.16788665448E+04  0.50400001928E-02 0. -1.
</event>
<event>
 5   0  0.4219337E-07  0.3089815E+04  0.7818609E-02  0.8218539E-01
        1   -1    0    0  501    0  0.00000000000E+00  0.00000000000E+00  0.10158826218E+04  0.10158826218E+04  0.50400001928E-02 0.  1.
       -1   -1    0    0    0  501  0.00000000000E+00  0.00000000000E+00 -0.23494246670E+04  0.23494246670E+04  0.50400001928E-02 0. -1.
    10030    2    1    2    0    0  0.00000000000E+00  0.00000000000E+00 -0.13335420452E+04  0.33653072888E+04  0.30898153281E+04 0.  0.
        4    1    3    3  502    0 -0.13083061062E+04  0.56612272067E+03 -0.13153281916E+04  0.19396519448E+04  0.12699999809E+01 0. -1.
       -4    1    3    3    0  502  0.13083061062E+04 -0.56612272067E+03 -0.18213853530E+02  0.14256553440E+04  0.12699999809E+01 0.  1.
</event>
<event>
 5   0  0.1176002E-06  0.3094027E+04  0.7818609E-02  0.8217379E-01
       -2   -1    0    0    0  501  0.00000000000E+00  0.00000000000E+00  0.13872996540E+04  0.13872996540E+04  0.25500000920E-02 0.  1.
        2   -1    0    0  501    0  0.00000000000E+00  0.00000000000E+00 -0.17251144077E+04  0.17251144077E+04  0.25500000920E-02 0. -1.
    10030    2    1    2    0    0  0.00000000000E+00  0.00000000000E+00 -0.33781475367E+03  0.31124140617E+04  0.30940269042E+04 0.  0.
        2    1    3    3  502    0 -0.12903363637E+03  0.11733983920E+04  0.83690320279E+03  0.14470385056E+04  0.25500000920E-02 0.  1.
       -2    1    3    3    0  502  0.12903363637E+03 -0.11733983920E+04 -0.11747179565E+04  0.16653755561E+04  0.25500000920E-02 0. -1.
</event>
<event>
 5   0  0.3935852E-07  0.3082109E+04  0.7818609E-02  0.8220665E-01
       -1   -1    0    0    0  501  0.00000000000E+00  0.00000000000E+00  0.13823513575E+04  0.13823513575E+04  0.50400001928E-02 0. -1.
        1   -1    0    0  501    0  0.00000000000E+00  0.00000000000E+00 -0.17179780135E+04  0.17179780135E+04  0.50400001928E-02 0.  1.
    10030    2    1    2    0    0  0.00000000000E+00  0.00000000000E+00 -0.33562665602E+03  0.31003293711E+04  0.30821091734E+04 0.  0.
        5    1    3    3  502    0  0.11541344246E+04 -0.10096338325E+04 -0.32182100006E+03  0.15668368109E+04  0.46999998093E+01 0.  1.
       -5    1    3    3    0  502 -0.11541344246E+04  0.10096338325E+04 -0.13805655958E+02  0.15334925602E+04  0.46999998093E+01 0. -1.
</event>
<event>
 5   0  0.1176002E-06  0.3106134E+04  0.7818609E-02  0.8214057E-01
       -2   -1    0    0    0  501  0.00000000000E+00  0.00000000000E+00  0.11990733094E+04  0.11990733094E+04  0.25500000920E-02 0.  1.
        2   -1    0    0  501    0  0.00000000000E+00  0.00000000000E+00 -0.20115674038E+04  0.20115674038E+04  0.25500000920E-02 0. -1.
    10030    2    1    2    0    0  0.00000000000E+00  0.00000000000E+00 -0.81249409439E+03  0.32106407131E+04  0.31061337922E+04 0.  0.
        2    1    3    3  502    0 -0.96512848639E+02 -0.12221695045E+04 -0.13917419652E+04  0.18547125722E+04  0.25500000920E-02 0. -1.
       -2    1    3    3    0  502  0.96512848639E+02  0.12221695045E+04  0.57924787080E+03  0.13559281410E+04  0.25500000920E-02 0.  1.
</event>
<event>
 5   0  0.4219337E-07  0.3099462E+04  0.7818609E-02  0.8215886E-01
       -1   -1    0    0    0  501  0.00000000000E+00  0.00000000000E+00  0.16735692484E+04  0.16735692484E+04  0.50400001928E-02 0. -1.
        1   -1    0    0  501    0  0.00000000000E+00  0.00000000000E+00 -0.14350560648E+04  0.14350560649E+04  0.50400001928E-02 0.  1.
    10030    2    1    2    0    0  0.00000000000E+00  0.00000000000E+00  0.23851318358E+03  0.31086253133E+04  0.30994616951E+04 0.  0.
        4    1    3    3  502    0 -0.54295599134E+03  0.51138560912E+03  0.14817085649E+04  0.16588484964E+04  0.12699999809E+01 0. -1.
       -4    1    3    3    0  502  0.54295599134E+03 -0.51138560912E+03 -0.12431953813E+04  0.14497768169E+04  0.12699999809E+01 0.  1.
</event>
<event>
 5   0  0.4219337E-07  0.3100503E+04  0.7818609E-02  0.8215600E-01
       -1   -1    0    0    0  501  0.00000000000E+00  0.00000000000E+00  0.16452422416E+04  0.16452422416E+04  0.50400001928E-02 0. -1.
        1   -1    0    0  501    0  0.00000000000E+00  0.00000000000E+00 -0.14607448273E+04  0.14607448273E+04  0.50400001928E-02 0.  1.
    10030    2    1    2    0    0  0.00000000000E+00  0.00000000000E+00  0.18449741433E+03  0.31059870690E+04  0.31005026007E+04 0.  0.
        4    1    3    3  502    0 -0.10694450873E+04  0.70436972697E+03 -0.78304050969E+03  0.15010008527E+04  0.12699999809E+01 0.  1.
       -4    1    3    3    0  502  0.10694450873E+04 -0.70436972697E+03  0.96753792401E+03  0.16049862163E+04  0.12699999809E+01 0. -1.
</event>
<event>
 5   0  0.4219337E-07  0.3102824E+04  0.7818609E-02  0.8214963E-01
       -1   -1    0    0    0  501  0.00000000000E+00  0.00000000000E+00  0.13449802711E+04  0.13449802711E+04  0.50400001928E-02 0.  1.
        1   -1    0    0  501    0  0.00000000000E+00  0.00000000000E+00 -0.17895271696E+04  0.17895271697E+04  0.50400001928E-02 0. -1.
    10030    2    1    2    0    0  0.00000000000E+00  0.00000000000E+00 -0.44454689851E+03  0.31345074408E+04  0.31028237062E+04 0.  0.
        4    1    3    3  502    0 -0.39958859285E+03  0.61707365654E+03  0.11578489786E+04  0.13715198909E+04  0.12699999809E+01 0.  1.
       -4    1    3    3    0  502  0.39958859285E+03 -0.61707365654E+03 -0.16023958771E+04  0.17629875499E+04  0.12699999809E+01 0. -1.
</event>
<event>
 5   0  0.1176002E-06  0.3101388E+04  0.7818609E-02  0.8215357E-01
       -2   -1    0    0    0  501  0.00000000000E+00  0.00000000000E+00  0.10030178789E+04  0.10030178789E+04  0.25500000920E-02 0. -1.
        2   -1    0    0  501    0  0.00000000000E+00  0.00000000000E+00 -0.23974173141E+04  0.23974173141E+04  0.25500000920E-02 0.  1.
    10030    2    1    2    0    0  0.00000000000E+00  0.00000000000E+00 -0.13943994352E+04  0.34004351931E+04  0.31013883532E+04 0.  0.
        2    1    3    3  502    0  0.97609492780E+03 -0.86879811167E+03  0.21821936572E+03  0.13248362761E+04  0.25500000920E-02 0.  1.
       -2    1    3    3    0  502 -0.97609492780E+03  0.86879811167E+03 -0.16126188009E+04  0.20755989169E+04  0.25500000920E-02 0. -1.
</event>
<event>
 5   0  0.3902375E-07  0.3071828E+04  0.7818609E-02  0.8223512E-01
        3   -1    0    0  501    0  0.00000000000E+00  0.00000000000E+00  0.17431195503E+04  0.17431195532E+04  0.10100000352E+00 0. -1.
       -3   -1    0    0    0  501  0.00000000000E+00  0.00000000000E+00 -0.13533392195E+04  0.13533392233E+04  0.10100000352E+00 0.  1.
    10030    2    1    2    0    0  0.00000000000E+00  0.00000000000E+00  0.38978033077E+03  0.30964587765E+04  0.30718281606E+04 0.  0.
        4    1    3    3  502    0  0.15533891419E+03  0.10701377730E+04  0.12943721174E+04  0.16866315017E+04  0.12699999809E+01 0. -1.
       -4    1    3    3    0  502 -0.15533891419E+03 -0.10701377730E+04 -0.90459178658E+03  0.14098272748E+04  0.12699999809E+01 0.  1.
</event>
<event>
 5   0  0.1200286E-06  0.3100089E+04  0.7818609E-02  0.8215713E-01
        2   -1    0    0  501    0  0.00000000000E+00  0.00000000000E+00  0.13370314419E+04  0.13370314419E+04  0.25500000920E-02 0.  1.
       -2   -1    0    0    0  501  0.00000000000E+00  0.00000000000E+00 -0.17969944710E+04  0.17969944710E+04  0.25500000920E-02 0. -1.
    10030    2    1    2    0    0  0.00000000000E+00  0.00000000000E+00 -0.45996302913E+03  0.31340259129E+04  0.31000891010E+04 0.  0.
        5    1    3    3  502    0 -0.11389983217E+04 -0.97136260758E+03  0.17660716751E+03  0.15073402648E+04  0.46999998093E+01 0. -1.
       -5    1    3    3    0  502  0.11389983217E+04  0.97136260758E+03 -0.63657019664E+03  0.16266856480E+04  0.46999998093E+01 0.  1.
</event>
<event>
 5   0  0.1200286E-06  0.3104227E+04  0.7818609E-02  0.8214579E-01
        2   -1    0    0  501    0  0.00000000000E+00  0.00000000000E+00  0.15701784663E+04  0.15701784663E+04  0.25500000920E-02 0.  1.
       -2   -1    0    0    0  501  0.00000000000E+00  0.00000000000E+00 -0.15342561682E+04  0.15342561682E+04  0.25500000920E-02 0. -1.
    10030    2    1    2    0    0  0.00000000000E+00  0.00000000000E+00  0.35922298102E+02  0.31044346346E+04  0.31042267940E+04 0.  0.
        5    1    3    3  502    0  0.92119834618E+03  0.57866613245E+02  0.12658743999E+04  0.15666572772E+04  0.46999998093E+01 0.  1.
       -5    1    3    3    0  502 -0.92119834618E+03 -0.57866613245E+02 -0.12299521018E+04  0.15377773573E+04  0.46999998093E+01 0. -1.
</event>
<event>
 5   0  0.1237580E-06  0.3105733E+04  0.7818609E-02  0.8214166E-01
       -2   -1    0    0    0  501  0.00000000000E+00  0.00000000000E+00  0.90264633142E+03  0.90264633142E+03  0.25500000920E-02 0.  1.
        2   -1    0    0  501    0  0.00000000000E+00  0.00000000000E+00 -0.26714711622E+04  0.26714711622E+04  0.25500000920E-02 0. -1.
    10030    2    1    2    0    0  0.00000000000E+00  0.00000000000E+00 -0.17688248308E+04  0.35741174936E+04  0.31057325346E+04 0.  0.
        4    1    3    3  502    0  0.14660120464E+04  0.42640005782E+03 -0.12106911536E+04  0.19485335542E+04  0.12699999809E+01 0. -1.
       -4    1    3    3    0  502 -0.14660120464E+04 -0.42640005782E+03 -0.55813367714E+03  0.16255839394E+04  0.12699999809E+01 0.  1.
</event>
<event>
 5   0  0.4219337E-07  0.3096860E+04  0.7818609E-02  0.8216600E-01
       -1   -1    0    0    0  501  0.00000000000E+00  0.00000000000E+00  0.19259495976E+04  0.19259495976E+04  0.50400001928E-02 0. -1.
        1   -1    0    0  501    0  0.00000000000E+00  0.00000000000E+00 -0.12449104170E+04  0.12449104170E+04  0.50400001928E-02 0.  1.
    10030    2    1    2    0    0  0.00000000000E+00  0.00000000000E+00  0.68103918067E+03  0.31708600146E+04  0.30968595168E+04 0.  0.
        4    1    3    3  502    0  0.11399976204E+04 -0.31869681136E+03 -0.68156741954E+03  0.13659055576E+04  0.12699999809E+01 0.  1.
       -4    1    3    3    0  502 -0.11399976204E+04  0.31869681136E+03  0.13626066002E+04  0.18049544570E+04  0.12699999809E+01 0. -1.
</event>
<event>
 5   0  0.4134019E-07  0.3018195E+04  0.7818609E-02  0.8238554E-01
       -1   -1    0    0    0  501  0.00000000000E+00  0.00000000000E+00  0.94904812469E+03  0.94904812470E+03  0.50400001928E-02 0.  1.
        1   -1    0    0  501    0  0.00000000000E+00  0.00000000000E+00 -0.23996410114E+04  0.23996410114E+04  0.50400001928E-02 0. -1.
    10030    2    1    2    0    0  0.00000000000E+00  0.00000000000E+00 -0.14505928867E+04  0.33486891361E+04  0.30181946934E+04 0.  0.
        2    1    3    3  502    0 -0.10612092531E+04 -0.10684267986E+04 -0.83442247457E+03  0.17216160341E+04  0.25500000920E-02 0. -1.
       -2    1    3    3    0  502  0.10612092531E+04  0.10684267986E+04 -0.61617041217E+03  0.16270731021E+04  0.25500000920E-02 0.  1.
</event>
<event>
 5   0  0.1176002E-06  0.3100578E+04  0.7818609E-02  0.8215579E-01
       -2   -1    0    0    0  501  0.00000000000E+00  0.00000000000E+00  0.12841020513E+04  0.12841020513E+04  0.25500000920E-02 0.  1.
        2   -1    0    0  501    0  0.00000000000E+00  0.00000000000E+00 -0.18716555530E+04  0.18716555530E+04  0.25500000920E-02 0. -1.
    10030    2    1    2    0    0  0.00000000000E+00  0.00000000000E+00 -0.58755350168E+03  0.31557576042E+04  0.31005784846E+04 0.  0.
        2    1    3    3  502    0  0.88141174094E+03 -0.28981022845E+03  0.97030838785E+03  0.13425256024E+04  0.25500000920E-02 0.  1.
       -2    1    3    3    0  502 -0.88141174094E+03  0.28981022845E+03 -0.15578618895E+04  0.18132320018E+04  0.25500000920E-02 0. -1.
</event>
<event>
 5   0  0.4134019E-07  0.3095046E+04  0.7818609E-02  0.8217099E-01
       -1   -1    0    0    0  501  0.00000000000E+00  0.00000000000E+00  0.12960312680E+04  0.12960312680E+04  0.50400001928E-02 0. -1.
        1   -1    0    0  501    0  0.00000000000E+00  0.00000000000E+00 -0.18478159204E+04  0.18478159205E+04  0.50400001928E-02 0.  1.
    10030    2    1    2    0    0  0.00000000000E+00  0.00000000000E+00 -0.55178465249E+03  0.31438471884E+04  0.30950458545E+04 0.  0.
        2    1    3    3  502    0 -0.50794741637E+03 -0.80810518459E+03  0.96142041164E+03  0.13547596743E+04  0.25500000920E-02 0. -1.
       -2    1    3    3    0  502  0.50794741637E+03  0.80810518459E+03 -0.15132050641E+04  0.17890875141E+04  0.25500000920E-02 0.  1.
</event>
<event>
 5   0  0.1193123E-06  0.3123003E+04  0.7818609E-02  0.8209453E-01
       -2   -1    0    0    0  501  0.00000000000E+00  0.00000000000E+00  0.96194209984E+03  0.96194209985E+03  0.25500000920E-02 0.  1.
        2   -1    0    0  501    0  0.00000000000E+00  0.00000000000E+00 -0.25347551728E+04  0.25347551728E+04  0.25500000920E-02 0. -1.
    10030    2    1    2    0    0  0.00000000000E+00  0.00000000000E+00 -0.15728130730E+04  0.34966972727E+04  0.31230034989E+04 0.  0.
        3    1    3    3  502    0 -0.47160556037E+03 -0.67298989266E+03  0.70023702839E+03  0.10796569392E+04  0.10100000352E+00 0.  1.
       -3    1    3    3    0  502  0.47160556037E+03  0.67298989266E+03 -0.22730501014E+04  0.24170403335E+04  0.10100000352E+00 0. -1.
</event>
<event>
 5   0  0.1200286E-06  0.3086994E+04  0.7818609E-02  0.8219316E-01
       -2   -1    0    0    0  501  0.00000000000E+00  0.00000000000E+00  0.13595274182E+04  0.13595274182E+04  0.25500000920E-02 0. -1.
        2   -1    0    0  501    0  0.00000000000E+00  0.00000000000E+00 -0.17523613437E+04  0.17523613437E+04  0.25500000920E-02 0.  1.
    10030    2    1    2    0    0  0.00000000000E+00  0.00000000000E+00 -0.39283392553E+03  0.31118887619E+04  0.30869941972E+04 0.  0.
        5    1    3    3  502    0 -0.90795556154E+03 -0.10312255462E+04 -0.90533190995E+03  0.16454353181E+04  0.46999998093E+01 0.  1.
       -5    1    3    3    0  502  0.90795556154E+03  0.10312255462E+04  0.51249798442E+03  0.14664534438E+04  0.46999998093E+01 0. -1.
</event>
<event>
 5   0  0.3935852E-07  0.3079981E+04  0.7818609E-02  0.8221253E-01
        1   -1    0    0  501    0  0.00000000000E+00  0.00000000000E+00  0.13281564542E+04  0.13281564542E+04  0.50400001928E-02 0.  1.
       -1   -1    0    0    0  501  0.00000000000E+00  0.00000000000E+00 -0.17856114377E+04  0.17856114377E+04  0.50400001928E-02 0. -1.
    10030    2    1    2    0    0  0.00000000000E+00  0.00000000000E+00 -0.45745498358E+03  0.31137678919E+04  0.30799813997E+04 0.  0.
        5    1    3    3  502    0  0.51622893736E+03 -0.34757090684E+03  0.11953594087E+04  0.13476661519E+04  0.46999998093E+01 0.  1.
       -5    1    3    3    0  502 -0.51622893736E+03  0.34757090684E+03 -0.16528143922E+04  0.17661017400E+04  0.46999998093E+01 0. -1.
</event>
<event>
 5   0  0.4173905E-07  0.3096306E+04  0.7818609E-02  0.8216753E-01
       -1   -1    0    0    0  501  0.00000000000E+00  0.00000000000E+00  0.96764118328E+03  0.96764118329E+03  0.50400001928E-02 0.  1.
        1   -1    0    0  501    0  0.00000000000E+00  0.00000000000E+00 -0.24769276914E+04  0.24769276914E+04  0.50400001928E-02 0. -1.
    10030    2    1    2    0    0  0.00000000000E+00  0.00000000000E+00 -0.15092865081E+04  0.34445688747E+04  0.30963056969E+04 0.  0.
        3    1    3    3  502    0  0.13219563747E+04  0.42215322511E+03 -0.15181261207E+04  0.20568152398E+04  0.10100000352E+00 0. -1.
       -3    1    3    3    0  502 -0.13219563747E+04 -0.42215322511E+03  0.88396126572E+01  0.13877536348E+04  0.10100000352E+00 0.  1.
</event>
<event>
 5   0  0.1193123E-06  0.3098245E+04  0.7818609E-02  0.8216220E-01
       -2   -1    0    0    0  501  0.00000000000E+00  0.00000000000E+00  0.97308768460E+03  0.97308768460E+03  0.25500000920E-02 0. -1.
        2   -1    0    0  501    0  0.00000000000E+00  0.00000000000E+00 -0.24661505575E+04  0.24661505575E+04  0.25500000920E-02 0.  1.
    10030    2    1    2    0    0  0.00000000000E+00  0.00000000000E+00 -0.14930628729E+04  0.34392382421E+04  0.30982451393E+04 0.  0.
        3    1    3    3  502    0 -0.36817887354E+03 -0.24295952869E+03 -0.23949597055E+04  0.24352447549E+04  0.10100000352E+00 0.  1.
       -3    1    3    3    0  502  0.36817887354E+03  0.24295952869E+03  0.90189683255E+03  0.10039934872E+04  0.10100000352E+00 0. -1.
</event>
<event>
 5   0  0.1258262E-06  0.3088046E+04  0.7818609E-02  0.8219026E-01
        2   -1    0    0  501    0  0.00000000000E+00  0.00000000000E+00  0.12864150079E+04  0.12864150079E+04  0.25500000920E-02 0. -1.
       -2   -1    0    0    0  501  0.00000000000E+00  0.00000000000E+00 -0.18532176369E+04  0.18532176369E+04  0.25500000920E-02 0.  1.
    10030    2    1    2    0    0  0.00000000000E+00  0.00000000000E+00 -0.56680262906E+03  0.31396326448E+04  0.30880459718E+04 0.  0.
        1    1    3    3  502    0  0.11604397418E+04  0.70963484368E+03  0.45942347342E+03  0.14357130401E+04  0.50400001928E-02 0. -1.
       -1    1    3    3    0  502 -0.11604397418E+04 -0.70963484368E+03 -0.10262261025E+04  0.17039196046E+04  0.50400001928E-02 0.  1.
</event>
<event>
 5   0  0.1258262E-06  0.3101621E+04  0.7818609E-02  0.8215293E-01
        2   -1    0    0  501    0  0.00000000000E+00  0.00000000000E+00  0.20424514086E+04  0.20424514086E+04  0.25500000920E-02 0.  1.
       -2   -1    0    0    0  501  0.00000000000E+00  0.00000000000E+00 -0.11775128327E+04  0.11775128327E+04  0.25500000920E-02 0. -1.
    10030    2    1    2    0    0  0.00000000000E+00  0.00000000000E+00  0.86493857585E+03  0.32199642413E+04  0.31016207013E+04 0.  0.
        1    1    3    3  502    0  0.49870527786E+03 -0.22427026983E+03 -0.10741115380E+04  0.12052882246E+04  0.50400001928E-02 0. -1.
       -1    1    3    3    0  502 -0.49870527786E+03  0.22427026983E+03  0.19390501139E+04  0.20146760167E+04  0.50400001928E-02 0.  1.
</event>
<event>
 5   0  0.1176002E-06  0.3049455E+04  0.7818609E-02  0.8229748E-01
       -2   -1    0    0    0  501  0.00000000000E+00  0.00000000000E+00  0.12240113691E+04  0.12240113691E+04  0.25500000920E-02 0.  1.
        2   -1    0    0  501    0  0.00000000000E+00  0.00000000000E+00 -0.18993239722E+04  0.18993239722E+04  0.25500000920E-02 0. -1.
    10030    2    1    2    0    0  0.00000000000E+00  0.00000000000E+00 -0.67531260316E+03  0.31233353413E+04  0.30494551222E+04 0.  0.
        2    1    3    3  502    0 -0.25162214389E+02  0.23681613723E+03 -0.18801573533E+04  0.18951798577E+04  0.25500000920E-02 0. -1.
       -2    1    3    3    0  502  0.25162214389E+02 -0.23681613723E+03  0.12048447502E+04  0.12281554836E+04  0.25500000920E-02 0.  1.
</event>
<event>
 5   0  0.4330395E-07  0.3082528E+04  0.7818609E-02  0.8220549E-01
       -1   -1    0    0    0  501  0.00000000000E+00  0.00000000000E+00  0.13657945736E+04  0.13657945736E+04  0.50400001928E-02 0. -1.
        1   -1    0    0  501    0  0.00000000000E+00  0.00000000000E+00 -0.17392768990E+04  0.17392768990E+04  0.50400001928E-02 0.  1.
    10030    2    1    2    0    0  0.00000000000E+00  0.00000000000E+00 -0.37348232544E+03  0.31050714727E+04  0.30825281512E+04 0.  0.
        1    1    3    3  502    0  0.13738680035E+03 -0.13577781870E+04 -0.90826032836E+03  0.16393210674E+04  0.50400001928E-02 0.  1.
       -1    1    3    3    0  502 -0.13738680035E+03  0.13577781870E+04  0.53477800292E+03  0.14657504052E+04  0.50400001928E-02 0. -1.
</event>
<event>
 5   0  0.1258262E-06  0.3134371E+04  0.7818609E-02  0.8206368E-01
       -2   -1    0    0    0  501  0.00000000000E+00  0.00000000000E+00  0.14517042844E+04  0.14517042844E+04  0.25500000920E-02 0.  1.
        2   -1    0    0  501    0  0.00000000000E+00  0.00000000000E+00 -0.16918533207E+04  0.16918533207E+04  0.25500000920E-02 0. -1.
    10030    2    1    2    0    0  0.00000000000E+00  0.00000000000E+00 -0.24014903624E+03  0.31435576051E+04  0.31343712060E+04 0.  0.
        1    1    3    3  502    0 -0.75530854209E+03 -0.83141803558E+03  0.97597968590E+03  0.14880468040E+04  0.50400001928E-02 0.  1.
       -1    1    3    3    0  502  0.75530854209E+03  0.83141803558E+03 -0.12161287221E+04  0.16555108011E+04  0.50400001928E-02 0. -1.
</event>
<event>
 5   0  0.1237580E-06  0.3100295E+04  0.7818609E-02  0.8215657E-01
       -2   -1    0    0    0  501  0.00000000000E+00  0.00000000000E+00  0.12617995214E+04  0.12617995214E+04  0.25500000920E-02 0.  1.
        2   -1    0    0  501    0  0.00000000000E+00  0.00000000000E+00 -0.19043890833E+04  0.19043890833E+04  0.25500000920E-02 0. -1.
    10030    2    1    2    0    0  0.00000000000E+00  0.00000000000E+00 -0.64258956188E+03  0.31661886047E+04  0.31002949756E+04 0.  0.
        4    1    3    3  502    0  0.83147660424E+03  0.12950686818E+04 -0.51070749066E+03  0.16215363048E+04  0.12699999809E+01 0. -1.
       -4    1    3    3    0  502 -0.83147660424E+03 -0.12950686818E+04 -0.13188207123E+03  0.15446522999E+04  0.12699999809E+01 0.  1.
</event>
<event>
 5   0  0.1193123E-06  0.3097622E+04  0.7818609E-02  0.8216391E-01
        2   -1    0    0  501    0  0.00000000000E+00  0.00000000000E+00  0.18499075199E+04  0.18499075199E+04  0.25500000920E-02 0.  1.
       -2   -1    0    0    0  501  0.00000000000E+00  0.00000000000E+00 -0.12967217221E+04  0.12967217221E+04  0.25500000920E-02 0. -1.
    10030    2    1    2    0    0  0.00000000000E+00  0.00000000000E+00  0.55318579779E+03  0.31466292421E+04  0.30976218394E+04 0.  0.
        3    1    3    3  502    0 -0.18899499393E+03  0.13414158059E+04 -0.48608491050E+03  0.14392338317E+04  0.10100000352E+00 0.  1.
       -3    1    3    3    0  502  0.18899499393E+03 -0.13414158059E+04  0.10392707083E+04  0.17073954103E+04  0.10100000352E+00 0. -1.
</event>
<event>
 5   0  0.3935852E-07  0.3102106E+04  0.7818609E-02  0.8215160E-01
        1   -1    0    0  501    0  0.00000000000E+00  0.00000000000E+00  0.12928986399E+04  0.12928986399E+04  0.50400001928E-02 0.  1.
       -1   -1    0    0    0  501  0.00000000000E+00  0.00000000000E+00 -0.18607535958E+04  0.18607535958E+04  0.50400001928E-02 0. -1.
    10030    2    1    2    0    0  0.00000000000E+00  0.00000000000E+00 -0.56785495591E+03  0.31536522358E+04  0.31021062479E+04 0.  0.
        5    1    3    3  502    0  0.15098208728E+04  0.29246986026E+02  0.75973768629E+02  0.15120213483E+04  0.46999998093E+01 0. -1.
       -5    1    3    3    0  502 -0.15098208728E+04 -0.29246986026E+02 -0.64382872454E+03  0.16416308875E+04  0.46999998093E+01 0.  1.
</event>
<event>
 5   0  0.4134019E-07  0.3100531E+04  0.7818609E-02  0.8215592E-01
       -1   -1    0    0    0  501  0.00000000000E+00  0.00000000000E+00  0.12582292830E+04  0.12582292830E+04  0.50400001928E-02 0. -1.
        1   -1    0    0  501    0  0.00000000000E+00  0.00000000000E+00 -0.19100838400E+04  0.19100838400E+04  0.50400001928E-02 0.  1.
    10030    2    1    2    0    0  0.00000000000E+00  0.00000000000E+00 -0.65185455704E+03  0.31683131231E+04  0.31005311936E+04 0.  0.
        2    1    3    3  502    0  0.10078885064E+04  0.28518117050E+03 -0.14937838153E+04  0.18244335089E+04  0.25500000920E-02 0.  1.
       -2    1    3    3    0  502 -0.10078885064E+04 -0.28518117050E+03  0.84192925830E+03  0.13438796142E+04  0.25500000920E-02 0. -1.
</event>
<event>
 5   0  0.1258262E-06  0.3100147E+04  0.7818609E-02  0.8215698E-01
        2   -1    0    0  501    0  0.00000000000E+00  0.00000000000E+00  0.17470972813E+04  0.17470972813E+04  0.25500000920E-02 0.  1.
       -2   -1    0    0    0  501  0.00000000000E+00  0.00000000000E+00 -0.13752682866E+04  0.13752682866E+04  0.25500000920E-02 0. -1.
    10030    2    1    2    0    0  0.00000000000E+00  0.00000000000E+00  0.37182899470E+03  0.31223655679E+04  0.31001467608E+04 0.  0.
        1    1    3    3  502    0  0.12620601660E+02  0.90778734291E+03 -0.10794698565E+04  0.14104936408E+04  0.50400001928E-02 0. -1.
       -1    1    3    3    0  502 -0.12620601660E+02 -0.90778734291E+03  0.14512988512E+04  0.17118719272E+04  0.50400001928E-02 0.  1.
</event>
<event>
 5   0  0.1237580E-06  0.3101273E+04  0.7818609E-02  0.8215389E-01
        2   -1    0    0  501    0  0.00000000000E+00  0.00000000000E+00  0.24029902549E+04  0.24029902549E+04  0.25500000920E-02 0. -1.
       -2   -1    0    0    0  501  0.00000000000E+00  0.00000000000E+00 -0.10006173305E+04  0.10006173306E+04  0.25500000920E-02 0.  1.
    10030    2    1    2    0    0  0.00000000000E+00  0.00000000000E+00  0.14023729243E+04  0.34036075855E+04  0.31012730897E+04 0.  0.
        4    1    3    3  502    0 -0.61670315706E+03  0.86172601366E+03  0.19436164406E+04  0.22137165554E+04  0.12699999809E+01 0. -1.
       -4    1    3    3    0  502  0.61670315706E+03 -0.86172601366E+03 -0.54124351628E+03  0.11898910300E+04  0.12699999809E+01 0.  1.
</event>
<event>
 5   0  0.1193123E-06  0.3105292E+04  0.7818609E-02  0.8214287E-01
       -2   -1    0    0    0  501  0.00000000000E+00  0.00000000000E+00  0.90704987041E+03  0.90704987042E+03  0.25500000920E-02 0. -1.
        2   -1    0    0  501    0  0.00000000000E+00  0.00000000000E+00 -0.26577483519E+04  0.26577483519E+04  0.25500000920E-02 0.  1.
    10030    2    1    2    0    0  0.00000000000E+00  0.00000000000E+00 -0.17506984815E+04  0.35647982223E+04  0.31052924488E+04 0.  0.
        3    1    3    3  502    0 -0.11830899680E+04 -0.71815416410E+03 -0.67462663101E+02  0.13856401036E+04  0.10100000352E+00 0. -1.
       -3    1    3    3    0  502  0.11830899680E+04  0.71815416410E+03 -0.16832358184E+04  0.21791581187E+04  0.10100000352E+00 0.  1.
</event>
<event>
 5   0  0.4173905E-07  0.3095865E+04  0.7818609E-02  0.8216874E-01
       -1   -1    0    0    0  501  0.00000000000E+00  0.00000000000E+00  0.87703080739E+03  0.87703080741E+03  0.50400001928E-02 0. -1.
        1   -1    0    0  501    0  0.00000000000E+00  0.00000000000E+00 -0.27320525706E+04  0.27320525706E+04  0.50400001928E-02 0.  1.
    10030    2    1    2    0    0  0.00000000000E+00  0.00000000000E+00 -0.18550217632E+04  0.36090833780E+04  0.30958645138E+04 0.  0.
        3    1    3    3  502    0 -0.51929921385E+03 -0.12557044647E+04 -0.63240274025E+02  0.13603178741E+04  0.10100000352E+00 0.  1.
       -3    1    3    3    0  502  0.51929921385E+03  0.12557044647E+04 -0.17917814892E+04  0.22487655039E+04  0.10100000352E+00 0. -1.
</event>
<event>
 5   0  0.1176002E-06  0.3100609E+04  0.7818609E-02  0.8215571E-01
        2   -1    0    0  501    0  0.00000000000E+00  0.00000000000E+00  0.28217605607E+04  0.28217605607E+04  0.25500000920E-02 0. -1.
       -2   -1    0    0    0  501  0.00000000000E+00  0.00000000000E+00 -0.85175309360E+03  0.85175309361E+03  0.25500000920E-02 0.  1.
    10030    2    1    2    0    0  0.00000000000E+00  0.00000000000E+00  0.19700074671E+04  0.36735136543E+04  0.31006085125E+04 0.  0.
        2    1    3    3  502    0  0.55874977413E+03 -0.13176429475E+04  0.27903574215E+03  0.14581650087E+04  0.25500000920E-02 0.  1.
       -2    1    3    3    0  502 -0.55874977413E+03  0.13176429475E+04  0.16909717250E+04  0.22153486456E+04  0.25500000920E-02 0. -1.
</event>
<event>
 5   0  0.4330395E-07  0.3108927E+04  0.7818609E-02  0.8213292E-01
       -1   -1    0    0    0  501  0.00000000000E+00  0.00000000000E+00  0.14129026665E+04  0.14129026665E+04  0.50400001928E-02 0.  1.
        1   -1    0    0  501    0  0.00000000000E+00  0.00000000000E+00 -0.17102070634E+04  0.17102070634E+04  0.50400001928E-02 0. -1.
    10030    2    1    2    0    0  0.00000000000E+00  0.00000000000E+00 -0.29730439692E+03  0.31231097300E+04  0.31089265802E+04 0.  0.
        1    1    3    3  502    0  0.51850887531E+03  0.11575739664E+03  0.13188699281E+04  0.14218541120E+04  0.50400001928E-02 0.  1.
       -1    1    3    3    0  502 -0.51850887531E+03 -0.11575739664E+03 -0.16161743250E+04  0.17012556179E+04  0.50400001928E-02 0. -1.
</event>
<event>
 5   0  0.4134019E-07  0.3112821E+04  0.7818609E-02  0.8212228E-01
       -1   -1    0    0    0  501  0.00000000000E+00  0.00000000000E+00  0.12280375466E+04  0.12280375466E+04  0.50400001928E-02 0. -1.
        1   -1    0    0  501    0  0.00000000000E+00  0.00000000000E+00 -0.19725887196E+04  0.19725887196E+04  0.50400001928E-02 0.  1.
    10030    2    1    2    0    0  0.00000000000E+00  0.00000000000E+00 -0.74455117307E+03  0.32006262662E+04  0.31128205934E+04 0.  0.
        2    1    3    3  502    0 -0.10057220513E+04  0.98660957971E+03 -0.10524003941E+04  0.17585283326E+04  0.25500000920E-02 0.  1.
       -2    1    3    3    0  502  0.10057220513E+04 -0.98660957971E+03  0.30784922101E+03  0.14420979336E+04  0.25500000920E-02 0. -1.
</event>
<event>
 5   0  0.1200286E-06  0.3099149E+04  0.7818609E-02  0.8215972E-01
       -2   -1    0    0    0  501  0.00000000000E+00  0.00000000000E+00  0.17790604946E+04  0.17790604946E+04  0.25500000920E-02 0. -1.
        2   -1    0    0  501    0  0.00000000000E+00  0.00000000000E+00 -0.13496903542E+04  0.13496903542E+04  0.25500000920E-02 0.  1.
    10030    2    1    2    0    0  0.00000000000E+00  0.00000000000E+00  0.42937014036E+03  0.31287508488E+04  0.30991487793E+04 0.  0.
        5    1    3    3  502    0  0.87237670936E+03  0.10700928071E+04  0.92498123797E+03  0.16618520149E+04  0.46999998093E+01 0. -1.
       -5    1    3    3    0  502 -0.87237670936E+03 -0.10700928071E+04 -0.49561109762E+03  0.14668988339E+04  0.46999998093E+01 0.  1.
</event>
<event>
 5   0  0.4330395E-07  0.3092879E+04  0.7818609E-02  0.8217695E-01
       -1   -1    0    0    0  501  0.00000000000E+00  0.00000000000E+00  0.10332230112E+04  0.10332230112E+04  0.50400001928E-02 0.  1.
        1   -1    0    0  501    0  0.00000000000E+00  0.00000000000E+00 -0.23145777817E+04  0.23145777817E+04  0.50400001928E-02 0. -1.
    10030    2    1    2    0    0  0.00000000000E+00  0.00000000000E+00 -0.12813547705E+04  0.33478007929E+04  0.30928789341E+04 0.  0.
        1    1    3    3  502    0  0.14113176990E+04  0.25304376223E+03 -0.12677598203E+04  0.19139132046E+04  0.50400001928E-02 0. -1.
       -1    1    3    3    0  502 -0.14113176990E+04 -0.25304376223E+03 -0.13594950264E+02  0.14338875882E+04  0.50400001928E-02 0.  1.
</event>
<event>
 5   0  0.1237580E-06  0.3108269E+04  0.7818609E-02  0.8213472E-01
        2   -1    0    0  501    0  0.00000000000E+00  0.00000000000E+00  0.20441118914E+04  0.20441118914E+04  0.25500000920E-02 0.  1.
       -2   -1    0    0    0  501  0.00000000000E+00  0.00000000000E+00 -0.11816057083E+04  0.11816057083E+04  0.25500000920E-02 0. -1.
    10030    2    1    2    0    0  0.00000000000E+00  0.00000000000E+00  0.86250618310E+03  0.32257175998E+04  0.31082691514E+04 0.  0.
        4    1    3    3  502    0  0.42803806362E+03 -0.14136893277E+04 -0.70329913591E+02  0.14787433884E+04  0.12699999809E+01 0. -1.
       -4    1    3    3    0  502 -0.42803806362E+03  0.14136893277E+04  0.93283609669E+03  0.17469742114E+04  0.12699999809E+01 0.  1.
</event>
<event>
 5   0  0.3902375E-07  0.3101210E+04  0.7818609E-02  0.8215406E-01
       -3   -1    0    0    0  501  0.00000000000E+00  0.00000000000E+00  0.15107703760E+04  0.15107703793E+04  0.10100000352E+00 0.  1.
        3   -1    0    0  501    0  0.00000000000E+00  0.00000000000E+00 -0.15914902894E+04  0.15914902926E+04  0.10100000352E+00 0. -1.
    10030    2    1    2    0    0  0.00000000000E+00  0.00000000000E+00 -0.80719913477E+02  0.31022606720E+04  0.31012103399E+04 0.  0.
        1    1    3    3  502    0 -0.85310481813E+03  0.90188415148E+03 -0.96975671772E+03  0.15753129673E+04  0.50400001928E-02 0. -1.
       -1    1    3    3    0  502  0.85310481813E+03 -0.90188415148E+03  0.88903680424E+03  0.15269477046E+04  0.50400001928E-02 0.  1.
</event>
<event>
 5   0  0.1193123E-06  0.3089234E+04  0.7818609E-02  0.8218699E-01
       -2   -1    0    0    0  501  0.00000000000E+00  0.00000000000E+00  0.16751402314E+04  0.16751402314E+04  0.25500000920E-02 0. -1.
        2   -1    0    0  501    0  0.00000000000E+00  0.00000000000E+00 -0.14242635920E+04  0.14242635920E+04  0.25500000920E-02 0.  1.
    10030    2    1    2    0    0  0.00000000000E+00  0.00000000000E+00  0.25087663941E+03  0.30994038235E+04  0.30892337194E+04 0.  0.
        3    1    3    3  502    0 -0.89339261897E+03 -0.78598914724E+03 -0.86264495184E+03  0.14697229788E+04  0.10100000352E+00 0.  1.
       -3    1    3    3    0  502  0.89339261897E+03  0.78598914724E+03  0.11135215913E+04  0.16296808447E+04  0.10100000352E+00 0. -1.
</event>
<event>
 5   0  0.1200286E-06  0.3103219E+04  0.7818609E-02  0.8214855E-01
       -2   -1    0    0    0  501  0.00000000000E+00  0.00000000000E+00  0.12296417675E+04  0.12296417676E+04  0.25500000920E-02 0. -1.
        2   -1    0    0  501    0  0.00000000000E+00  0.00000000000E+00 -0.19578802323E+04  0.19578802323E+04  0.25500000920E-02 0.  1.
    10030    2    1    2    0    0  0.00000000000E+00  0.00000000000E+00 -0.72823846472E+03  0.31875219998E+04  0.31032185289E+04 0.  0.
        5    1    3    3  502    0 -0.17722061037E+03 -0.94361300305E+03  0.88786842052E+03  0.13077251494E+04  0.46999998093E+01 0. -1.
       -5    1    3    3    0  502  0.17722061037E+03  0.94361300305E+03 -0.16161068852E+04  0.18797968504E+04  0.46999998093E+01 0.  1.
</event>
<event>
 5   0  0.4173905E-07  0.3081503E+04  0.7818609E-02  0.8220833E-01
        1   -1    0    0  501    0  0.00000000000E+00  0.00000000000E+00  0.13292716900E+04  0.13292716900E+04  0.50400001928E-02 0. -1.
       -1   -1    0    0    0  501  0.00000000000E+00  0.00000000000E+00 -0.17858767268E+04  0.17858767268E+04  0.50400001928E-02 0.  1.
    10030    2    1    2    0    0  0.00000000000E+00  0.00000000000E+00 -0.45660503675E+03  0.31151484168E+04  0.30815031233E+04 0.  0.
        3    1    3    3  502    0 -0.14049294434E+03  0.14162919563E+04  0.36830572074E+03  0.14701259425E+04  0.10100000352E+00 0. -1.
       -3    1    3    3    0  502  0.14049294434E+03 -0.14162919563E+04 -0.82491075749E+03  0.16450224743E+04  0.10100000352E+00 0.  1.
</event>
<event>
 5   0  0.1176002E-06  0.3096517E+04  0.7818609E-02  0.8216694E-01
        2   -1    0    0  501    0  0.00000000000E+00  0.00000000000E+00  0.15779758191E+04  0.15779758191E+04  0.25500000920E-02 0. -1.
       -2   -1    0    0    0  501  0.00000000000E+00  0.00000000000E+00 -0.15191009005E+04  0.15191009005E+04  0.25500000920E-02 0.  1.
    10030    2    1    2    0    0  0.00000000000E+00  0.00000000000E+00  0.58874918572E+02  0.30970767197E+04  0.30965170678E+04 0.  0.
        2    1    3    3  502    0  0.12893597218E+04 -0.74467648246E+03  0.45391130261E+03  0.15566075377E+04  0.25500000920E-02 0.  1.
       -2    1    3    3    0  502 -0.12893597218E+04  0.74467648246E+03 -0.39503638404E+03  0.15404691819E+04  0.25500000920E-02 0. -1.
</event>
<event>
 5   0  0.1237580E-06  0.3111818E+04  0.7818609E-02  0.8212502E-01
       -2   -1    0    0    0  501  0.00000000000E+00  0.00000000000E+00  0.12577812392E+04  0.12577812392E+04  0.25500000920E-02 0.  1.
        2   -1    0    0  501    0  0.00000000000E+00  0.00000000000E+00 -0.19247014640E+04  0.19247014640E+04  0.25500000920E-02 0. -1.
    10030    2    1    2    0    0  0.00000000000E+00  0.00000000000E+00 -0.66692022482E+03  0.31824827032E+04  0.31118183703E+04 0.  0.
        4    1    3    3  502    0 -0.12929883578E+04 -0.68221508589E+03  0.21118895470E+03  0.14771048386E+04  0.12699999809E+01 0. -1.
       -4    1    3    3    0  502  0.12929883578E+04  0.68221508589E+03 -0.87810917952E+03  0.17053778646E+04  0.12699999809E+01 0.  1.
</event>
<event>
 5   0  0.1237580E-06  0.3104302E+04  0.7818609E-02  0.8214558E-01
        2   -1    0    0  501    0  0.00000000000E+00  0.00000000000E+00  0.23116690609E+04  0.23116690609E+04  0.25500000920E-02 0.  1.
       -2   -1    0    0    0  501  0.00000000000E+00  0.00000000000E+00 -0.10421788588E+04  0.10421788588E+04  0.25500000920E-02 0. -1.
    10030    2    1    2    0    0  0.00000000000E+00  0.00000000000E+00  0.12694902020E+04  0.33538479197E+04  0.31043019337E+04 0.  0.
        4    1    3    3  502    0  0.12153908041E+04 -0.88545812769E+03  0.10503223184E+04  0.18342272182E+04  0.12699999809E+01 0. -1.
       -4    1    3    3    0  502 -0.12153908041E+04  0.88545812769E+03  0.21916788367E+03  0.15196207016E+04  0.12699999809E+01 0.  1.
</event>
<event>
 5   0  0.4219337E-07  0.3099807E+04  0.7818609E-02  0.8215791E-01
       -1   -1    0    0    0  501  0.00000000000E+00  0.00000000000E+00  0.23332533443E+04  0.23332533443E+04  0.50400001928E-02 0. -1.
        1   -1    0    0  501    0  0.00000000000E+00  0.00000000000E+00 -0.10295498110E+04  0.10295498110E+04  0.50400001928E-02 0.  1.
    10030    2    1    2    0    0  0.00000000000E+00  0.00000000000E+00  0.13037035333E+04  0.33628031553E+04  0.30998067937E+04 0.  0.
        4    1    3    3  502    0 -0.81948650967E+02  0.11609941145E+04  0.17622009895E+04  0.21118657286E+04  0.12699999809E+01 0. -1.
       -4    1    3    3    0  502  0.81948650967E+02 -0.11609941145E+04 -0.45849745621E+03  0.12509374267E+04  0.12699999809E+01 0.  1.
</event>
<event>
 5   0  0.3935852E-07  0.3098046E+04  0.7818609E-02  0.8216274E-01
        1   -1    0    0  501    0  0.00000000000E+00  0.00000000000E+00  0.15246885823E+04  0.15246885823E+04  0.50400001928E-02 0. -1.
       -1   -1    0    0    0  501  0.00000000000E+00  0.00000000000E+00 -0.15737453432E+04  0.15737453432E+04  0.50400001928E-02 0.  1.
    10030    2    1    2    0    0  0.00000000000E+00  0.00000000000E+00 -0.49056760940E+02  0.30984339255E+04  0.30980455492E+04 0.  0.
        5    1    3    3  502    0 -0.43711517803E+03 -0.10821299713E+04 -0.10431719015E+04  0.15653449012E+04  0.46999998093E+01 0.  1.
       -5    1    3    3    0  502  0.43711517803E+03  0.10821299713E+04  0.99411514059E+03  0.15330890243E+04  0.46999998093E+01 0. -1.
</event>
<event>
 5   0  0.4330395E-07  0.3111755E+04  0.7818609E-02  0.8212519E-01
       -1   -1    0    0    0  501  0.00000000000E+00  0.00000000000E+00  0.26021384578E+04  0.26021384578E+04  0.50400001928E-02 0. -1.
        1   -1    0    0  501    0  0.00000000000E+00  0.00000000000E+00 -0.93029417961E+03  0.93029417963E+03  0.50400001928E-02 0.  1.
    10030    2    1    2    0    0  0.00000000000E+00  0.00000000000E+00  0.16718442782E+04  0.35324326375E+04  0.31117546574E+04 0.  0.
        1    1    3    3  502    0  0.14174844918E+04 -0.62603798725E+03  0.99472063148E+03  0.18413731237E+04  0.50400001928E-02 0. -1.
       -1    1    3    3    0  502 -0.14174844918E+04  0.62603798725E+03  0.67712364675E+03  0.16910595138E+04  0.50400001928E-02 0.  1.
</event>
<event>
 5   0  0.4219337E-07  0.3099722E+04  0.7818609E-02  0.8215814E-01
        1   -1    0    0  501    0  0.00000000000E+00  0.00000000000E+00  0.14864749413E+04  0.14864749413E+04  0.50400001928E-02 0. -1.
       -1   -1    0    0    0  501  0.00000000000E+00  0.00000000000E+00 -0.16159500830E+04  0.16159500830E+04  0.50400001928E-02 0.  1.
    10030    2    1    2    0    0  0.00000000000E+00  0.00000000000E+00 -0.12947514169E+03  0.31024250242E+04  0.30997221196E+04 0.  0.
        4    1    3    3  502    0  0.35834003046E+03 -0.66857519175E+03  0.12879835244E+04  0.14947586884E+04  0.12699999809E+01 0. -1.
       -4    1    3    3    0  502 -0.35834003046E+03  0.66857519175E+03 -0.14174586661E+04  0.16076663359E+04  0.12699999809E+01 0.  1.
</event>
<event>
 5   0  0.4330395E-07  0.3101985E+04  0.7818609E-02  0.8215193E-01
       -1   -1    0    0    0  501  0.00000000000E+00  0.00000000000E+00  0.12847980306E+04  0.12847980306E+04  0.50400001928E-02 0.  1.
        1   -1    0    0  501    0  0.00000000000E+00  0.00000000000E+00 -0.18723397044E+04  0.18723397044E+04  0.50400001928E-02 0. -1.
    10030    2    1    2    0    0  0.00000000000E+00  0.00000000000E+00 -0.58754167384E+03  0.31571377350E+04  0.31019854061E+04 0.  0.
        1    1    3    3  502    0 -0.28888555933E+03  0.11962674091E+04  0.66697641311E+03  0.13997743090E+04  0.50400001928E-02 0.  1.
       -1    1    3    3    0  502  0.28888555933E+03 -0.11962674091E+04 -0.12545180870E+04  0.17573634260E+04  0.50400001928E-02 0. -1.
</event>
<event>
 5   0  0.1176002E-06  0.3092360E+04  0.7818609E-02  0.8217838E-01
       -2   -1    0    0    0  501  0.00000000000E+00  0.00000000000E+00  0.10507127962E+04  0.10507127962E+04  0.25500000920E-02 0.  1.
        2   -1    0    0  501    0  0.00000000000E+00  0.00000000000E+00 -0.22752871758E+04  0.22752871758E+04  0.25500000920E-02 0. -1.
    10030    2    1    2    0    0  0.00000000000E+00  0.00000000000E+00 -0.12245743796E+04  0.33259999720E+04  0.30923604904E+04 0.  0.
        2    1    3    3  502    0  0.49681568337E+03 -0.17893530769E+03 -0.21752965193E+04  0.22384723841E+04  0.25500000920E-02 0. -1.
       -2    1    3    3    0  502 -0.49681568337E+03  0.17893530769E+03  0.95072213966E+03  0.10875275879E+04  0.25500000920E-02 0.  1.
</event>
<event>
 5   0  0.4219337E-07  0.3159697E+04  0.7818609E-02  0.8199543E-01
        1   -1    0    0  501    0  0.00000000000E+00  0.00000000000E+00  0.13905328151E+04  0.13905328151E+04  0.50400001928E-02 0.  1.
       -1   -1    0    0    0  501  0.00000000000E+00  0.00000000000E+00 -0.17949382631E+04  0.17949382631E+04  0.50400001928E-02 0. -1.
    10030    2    1    2    0    0  0.00000000000E+00  0.00000000000E+00 -0.40440544798E+03  0.31854710783E+04  0.31596965399E+04 0.  0.
        4    1    3    3  502    0  0.70571052031E+03  0.85552717300E+03  0.93212649044E+03  0.14487289219E+04  0.12699999809E+01 0.  1.
       -4    1    3    3    0  502 -0.70571052031E+03 -0.85552717300E+03 -0.13365319384E+04  0.17367421563E+04  0.12699999809E+01 0. -1.
</event>
<event>
 5   0  0.1176002E-06  0.3093172E+04  0.7818609E-02  0.8217614E-01
        2   -1    0    0  501    0  0.00000000000E+00  0.00000000000E+00  0.23571458128E+04  0.23571458128E+04  0.25500000920E-02 0. -1.
       -2   -1    0    0    0  501  0.00000000000E+00  0.00000000000E+00 -0.10147560281E+04  0.10147560281E+04  0.25500000920E-02 0.  1.
    10030    2    1    2    0    0  0.00000000000E+00  0.00000000000E+00  0.13423897847E+04  0.33719018409E+04  0.30931717849E+04 0.  0.
        2    1    3    3  502    0  0.38051879421E+03 -0.98739692183E+03 -0.55835252769E+03  0.11964550887E+04  0.25500000920E-02 0.  1.
       -2    1    3    3    0  502 -0.38051879421E+03  0.98739692183E+03  0.19007423123E+04  0.21754467523E+04  0.25500000920E-02 0. -1.
</event>
<event>
 5   0  0.4330395E-07  0.3105300E+04  0.7818609E-02  0.8214285E-01
        1   -1    0    0  501    0  0.00000000000E+00  0.00000000000E+00  0.10718756043E+04  0.10718756043E+04  0.50400001928E-02 0. -1.
       -1   -1    0    0    0  501  0.00000000000E+00  0.00000000000E+00 -0.22490691891E+04  0.22490691891E+04  0.50400001928E-02 0.  1.
    10030    2    1    2    0    0  0.00000000000E+00  0.00000000000E+00 -0.11771935847E+04  0.33209447934E+04  0.31053002407E+04 0.  0.
        1    1    3    3  502    0  0.17095247074E+03  0.15213375394E+04 -0.31171663889E+03  0.15623251643E+04  0.50400001928E-02 0.  1.
       -1    1    3    3    0  502 -0.17095247074E+03 -0.15213375394E+04 -0.86547694584E+03  0.17586196291E+04  0.50400001928E-02 0. -1.
</event>
<event>
 5   0  0.4173905E-07  0.3100388E+04  0.7818609E-02  0.8215631E-01
       -1   -1    0    0    0  501  0.00000000000E+00  0.00000000000E+00  0.25088313137E+04  0.25088313137E+04  0.50400001928E-02 0. -1.
        1   -1    0    0  501    0  0.00000000000E+00  0.00000000000E+00 -0.95785685343E+03  0.95785685344E+03  0.50400001928E-02 0.  1.
    10030    2    1    2    0    0  0.00000000000E+00  0.00000000000E+00  0.15509744603E+04  0.34666881672E+04  0.31003878905E+04 0.  0.
        3    1    3    3  502    0  0.12857632861E+03  0.10098737995E+04  0.20826786945E+04  0.23181733149E+04  0.10100000352E+00 0. -1.
       -3    1    3    3    0  502 -0.12857632861E+03 -0.10098737995E+04 -0.53170423419E+03  0.11485148523E+04  0.10100000352E+00 0.  1.
</event>
<event>
 5   0  0.1176002E-06  0.3091527E+04  0.7818609E-02  0.8218067E-01
       -2   -1    0    0    0  501  0.00000000000E+00  0.00000000000E+00  0.14565891095E+04  0.14565891095E+04  0.25500000920E-02 0.  1.
        2   -1    0    0  501    0  0.00000000000E+00  0.00000000000E+00 -0.16403971242E+04  0.16403971242E+04  0.25500000920E-02 0. -1.
    10030    2    1    2    0    0  0.00000000000E+00  0.00000000000E+00 -0.18380801477E+03  0.30969862337E+04  0.30915268631E+04 0.  0.
        2    1    3    3  502    0 -0.41225345256E+02  0.94856718584E+03  0.11300473079E+04  0.14759695638E+04  0.25500000920E-02 0.  1.
       -2    1    3    3    0  502  0.41225345256E+02 -0.94856718584E+03 -0.13138553227E+04  0.16210166699E+04  0.25500000920E-02 0. -1.
</event>
<event>
 5   0  0.1193123E-06  0.3105662E+04  0.7818609E-02  0.8214186E-01
        2   -1    0    0  501    0  0.00000000000E+00  0.00000000000E+00  0.12403383314E+04  0.12403383314E+04  0.25500000920E-02 0.  1.
       -2   -1    0    0    0  501  0.00000000000E+00  0.00000000000E+00 -0.19440532275E+04  0.19440532275E+04  0.25500000920E-02 0. -1.
    10030    2    1    2    0    0  0.00000000000E+00  0.00000000000E+00 -0.70371489611E+03  0.31843915589E+04  0.31056617564E+04 0.  0.
        3    1    3    3  502    0  0.44476660224E+03 -0.15617391091E+03  0.11652024911E+04  0.12569425112E+04  0.10100000352E+00 0.  1.
       -3    1    3    3    0  502 -0.44476660224E+03  0.15617391091E+03 -0.18689173872E+04  0.19274490477E+04  0.10100000352E+00 0. -1.
</event>
<event>
 5   0  0.1200286E-06  0.3095812E+04  0.7818609E-02  0.8216888E-01
        2   -1    0    0  501    0  0.00000000000E+00  0.00000000000E+00  0.18288864672E+04  0.18288864672E+04  0.25500000920E-02 0.  1.
       -2   -1    0    0    0  501  0.00000000000E+00  0.00000000000E+00 -0.13100935873E+04  0.13100935873E+04  0.25500000920E-02 0. -1.
    10030    2    1    2    0    0  0.00000000000E+00  0.00000000000E+00  0.51879287987E+03  0.31389800545E+04  0.30958116433E+04 0.  0.
        5    1    3    3  502    0 -0.14267563932E+03  0.29466736664E+03  0.17933719906E+04  0.18230168353E+04  0.46999998093E+01 0.  1.
       -5    1    3    3    0  502  0.14267563932E+03 -0.29466736664E+03 -0.12745791107E+04  0.13159632193E+04  0.46999998093E+01 0. -1.
</event>
<event>
 5   0  0.4219337E-07  0.3093615E+04  0.7818609E-02  0.8217492E-01
        1   -1    0    0  501    0  0.00000000000E+00  0.00000000000E+00  0.20936508676E+04  0.20936508676E+04  0.50400001928E-02 0. -1.
       -1   -1    0    0    0  501  0.00000000000E+00  0.00000000000E+00 -0.11427949164E+04  0.11427949164E+04  0.50400001928E-02 0.  1.
    10030    2    1    2    0    0  0.00000000000E+00  0.00000000000E+00  0.95085595116E+03  0.32364457840E+04  0.30936150816E+04 0.  0.
        4    1    3    3  502    0  0.62075324683E+03 -0.60884714295E+03 -0.86292606331E+03  0.12250193633E+04  0.12699999809E+01 0.  1.
       -4    1    3    3    0  502 -0.62075324683E+03  0.60884714295E+03  0.18137820145E+04  0.20114264207E+04  0.12699999809E+01 0. -1.
</event>
<event>
 5   0  0.4330395E-07  0.3098241E+04  0.7818609E-02  0.8216221E-01
        1   -1    0    0  501    0  0.00000000000E+00  0.00000000000E+00  0.21917634553E+04  0.21917634554E+04  0.50400001928E-02 0. -1.
       -1   -1    0    0    0  501  0.00000000000E+00  0.00000000000E+00 -0.10949057193E+04  0.10949057193E+04  0.50400001928E-02 0.  1.
    10030    2    1    2    0    0  0.00000000000E+00  0.00000000000E+00  0.10968577360E+04  0.32866691747E+04  0.30982410123E+04 0.  0.
        1    1    3    3  502    0  0.10490561061E+04  0.35674217909E+03 -0.59999673452E+03  0.12600713383E+04  0.50400001928E-02 0.  1.
       -1    1    3    3    0  502 -0.10490561061E+04 -0.35674217909E+03  0.16968544706E+04  0.20265978364E+04  0.50400001928E-02 0. -1.
</event>
<event>
 5   0  0.3935852E-07  0.3101328E+04  0.7818609E-02  0.8215374E-01
       -1   -1    0    0    0  501  0.00000000000E+00  0.00000000000E+00  0.11632456686E+04  0.11632456686E+04  0.50400001928E-02 0. -1.
        1   -1    0    0  501    0  0.00000000000E+00  0.00000000000E+00 -0.20671111645E+04  0.20671111645E+04  0.50400001928E-02 0.  1.
    10030    2    1    2    0    0  0.00000000000E+00  0.00000000000E+00 -0.90386549587E+03  0.32303568331E+04  0.31013275277E+04 0.  0.
        5    1    3    3  502    0 -0.23653492080E+03  0.41487411427E+03  0.10847311194E+04  0.11852143227E+04  0.46999998093E+01 0. -1.
       -5    1    3    3    0  502  0.23653492080E+03 -0.41487411427E+03 -0.19885966152E+04  0.20451425103E+04  0.46999998093E+01 0.  1.
</event>
<event>
 5   0  0.1193123E-06  0.3105489E+04  0.7818609E-02  0.8214233E-01
       -2   -1    0    0    0  501  0.00000000000E+00  0.00000000000E+00  0.13334648139E+04  0.13334648139E+04  0.25500000920E-02 0.  1.
        2   -1    0    0  501    0  0.00000000000E+00  0.00000000000E+00 -0.18080830183E+04  0.18080830183E+04  0.25500000920E-02 0. -1.
    10030    2    1    2    0    0  0.00000000000E+00  0.00000000000E+00 -0.47461820436E+03  0.31415478322E+04  0.31054887444E+04 0.  0.
        3    1    3    3  502    0 -0.18014365997E+03  0.99016133564E+03 -0.14334701283E+04  0.17514873187E+04  0.10100000352E+00 0. -1.
       -3    1    3    3    0  502  0.18014365997E+03 -0.99016133564E+03  0.95885192391E+03  0.13900605134E+04  0.10100000352E+00 0.  1.
</event>
<event>
 5   0  0.1176002E-06  0.3110161E+04  0.7818609E-02  0.8212955E-01
       -2   -1    0    0    0  501  0.00000000000E+00  0.00000000000E+00  0.14892264275E+04  0.14892264275E+04  0.25500000920E-02 0.  1.
        2   -1    0    0  501    0  0.00000000000E+00  0.00000000000E+00 -0.16238471303E+04  0.16238471303E+04  0.25500000920E-02 0. -1.
    10030    2    1    2    0    0  0.00000000000E+00  0.00000000000E+00 -0.13462070275E+03  0.31130735578E+04  0.31101614496E+04 0.  0.
        2    1    3    3  502    0 -0.68309738539E+02  0.54680657390E+03 -0.15228426166E+04  0.16194793251E+04  0.25500000920E-02 0. -1.
       -2    1    3    3    0  502  0.68309738539E+02 -0.54680657390E+03  0.13882219139E+04  0.14935942326E+04  0.25500000920E-02 0.  1.
</event>
<event>
 5   0  0.4134019E-07  0.3080199E+04  0.7818609E-02  0.8221193E-01
        1   -1    0    0  501    0  0.00000000000E+00  0.00000000000E+00  0.10136869004E+04  0.10136869004E+04  0.50400001928E-02 0.  1.
       -1   -1    0    0    0  501  0.00000000000E+00  0.00000000000E+00 -0.23398801084E+04  0.23398801084E+04  0.50400001928E-02 0. -1.
    10030    2    1    2    0    0  0.00000000000E+00  0.00000000000E+00 -0.13261932081E+04  0.33535670088E+04  0.30801985744E+04 0.  0.
        2    1    3    3  502    0 -0.12579162167E+04  0.69052047770E+03 -0.54238801839E+02  0.14360061232E+04  0.25500000920E-02 0.  1.
       -2    1    3    3    0  502  0.12579162167E+04 -0.69052047770E+03 -0.12719544062E+04  0.19175608856E+04  0.25500000920E-02 0. -1.
</event>
<event>
 5   0  0.4134019E-07  0.3096774E+04  0.7818609E-02  0.8216624E-01
        1   -1    0    0  501    0  0.00000000000E+00  0.00000000000E+00  0.15993560802E+04  0.15993560802E+04  0.50400001928E-02 0.  1.
       -1   -1    0    0    0  501  0.00000000000E+00  0.00000000000E+00 -0.14990422279E+04  0.14990422279E+04  0.50400001928E-02 0. -1.
    10030    2    1    2    0    0  0.00000000000E+00  0.00000000000E+00  0.10031385230E+03  0.30983983081E+04  0.30967740000E+04 0.  0.
        2    1    3    3  502    0 -0.77306690257E+03  0.25070734722E+01 -0.12921367045E+04  0.15057410084E+04  0.25500000920E-02 0. -1.
       -2    1    3    3    0  502  0.77306690257E+03 -0.25070734722E+01  0.13924505568E+04  0.15926572997E+04  0.25500000920E-02 0.  1.
</event>
<event>
 5   0  0.1258262E-06  0.3086411E+04  0.7818609E-02  0.8219477E-01
        2   -1    0    0  501    0  0.00000000000E+00  0.00000000000E+00  0.25847711563E+04  0.25847711563E+04  0.25500000920E-02 0.  1.
       -2   -1    0    0    0  501  0.00000000000E+00  0.00000000000E+00 -0.92135136944E+03  0.92135136945E+03  0.25500000920E-02 0. -1.
    10030    2    1    2    0    0  0.00000000000E+00  0.00000000000E+00  0.16634197869E+04  0.35061225258E+04  0.30864105006E+04 0.  0.
        1    1    3    3  502    0  0.18998769386E+03 -0.12867024005E+04  0.17751839794E+04  0.22006763852E+04  0.50400001928E-02 0.  1.
       -1    1    3    3    0  502 -0.18998769386E+03  0.12867024005E+04 -0.11176419255E+03  0.13054461406E+04  0.50400001928E-02 0. -1.
</event>
<event>
 5   0  0.4173905E-07  0.3099262E+04  0.7818609E-02  0.8215940E-01
       -1   -1    0    0    0  501  0.00000000000E+00  0.00000000000E+00  0.15109696575E+04  0.15109696575E+04  0.50400001928E-02 0.  1.
        1   -1    0    0  501    0  0.00000000000E+00  0.00000000000E+00 -0.15892817760E+04  0.15892817760E+04  0.50400001928E-02 0. -1.
    10030    2    1    2    0    0  0.00000000000E+00  0.00000000000E+00 -0.78312118473E+02  0.31002514335E+04  0.30992621966E+04 0.  0.
        3    1    3    3  502    0  0.49024670755E+03 -0.11302753895E+04 -0.97939875368E+03  0.15738761766E+04  0.10100000352E+00 0. -1.
       -3    1    3    3    0  502 -0.49024670755E+03  0.11302753895E+04  0.90108663521E+03  0.15263752569E+04  0.10100000352E+00 0.  1.
</event>
<event>
 5   0  0.1258262E-06  0.3087591E+04  0.7818609E-02  0.8219152E-01
       -2   -1    0    0    0  501  0.00000000000E+00  0.00000000000E+00  0.83888708460E+03  0.83888708461E+03  0.25500000920E-02 0. -1.
        2   -1    0    0  501    0  0.00000000000E+00  0.00000000000E+00 -0.28410318299E+04  0.28410318299E+04  0.25500000920E-02 0.  1.
    10030    2    1    2    0    0  0.00000000000E+00  0.00000000000E+00 -0.20021447453E+04  0.36799189145E+04  0.30875912353E+04 0.  0.
        1    1    3    3  502    0 -0.14945214035E+04  0.28569628413E+03 -0.13120683335E+04  0.20091639814E+04  0.50400001928E-02 0. -1.
       -1    1    3    3    0  502  0.14945214035E+04 -0.28569628413E+03 -0.69007641175E+03  0.16707549331E+04  0.50400001928E-02 0.  1.
</event>
<event>
 5   0  0.4134019E-07  0.3074822E+04  0.7818609E-02  0.8222682E-01
        1   -1    0    0  501    0  0.00000000000E+00  0.00000000000E+00  0.18248027919E+04  0.18248027919E+04  0.50400001928E-02 0. -1.
       -1   -1    0    0    0  501  0.00000000000E+00  0.00000000000E+00 -0.12952812603E+04  0.12952812603E+04  0.50400001928E-02 0.  1.
    10030    2    1    2    0    0  0.00000000000E+00  0.00000000000E+00  0.52952153163E+03  0.31200840522E+04  0.30748221803E+04 0.  0.
        2    1    3    3  502    0 -0.22033820015E+03 -0.34774043616E+03  0.17678351980E+04  0.18151346012E+04  0.25500000920E-02 0. -1.
       -2    1    3    3    0  502  0.22033820015E+03  0.34774043616E+03 -0.12383136663E+04  0.13049494510E+04  0.25500000920E-02 0.  1.
</event>
<event>
 5   0  0.4219337E-07  0.3103025E+04  0.7818609E-02  0.8214908E-01
        1   -1    0    0  501    0  0.00000000000E+00  0.00000000000E+00  0.17162852574E+04  0.17162852574E+04  0.50400001928E-02 0.  1.
       -1   -1    0    0    0  501  0.00000000000E+00  0.00000000000E+00 -0.14025588962E+04  0.14025588962E+04  0.50400001928E-02 0. -1.
    10030    2    1    2    0    0  0.00000000000E+00  0.00000000000E+00  0.31372636121E+03  0.31188441536E+04  0.31030250764E+04 0.  0.
        4    1    3    3  502    0 -0.21840637080E+03 -0.82140046777E+03 -0.11477483381E+04  0.14281904396E+04  0.12699999809E+01 0. -1.
       -4    1    3    3    0  502  0.21840637080E+03  0.82140046777E+03  0.14614746993E+04  0.16906537140E+04  0.12699999809E+01 0.  1.
</event>
<event>
 5   0  0.1237580E-06  0.3097314E+04  0.7818609E-02  0.8216476E-01
        2   -1    0    0  501    0  0.00000000000E+00  0.00000000000E+00  0.11581947769E+04  0.11581947769E+04  0.25500000920E-02 0. -1.
       -2   -1    0    0    0  501  0.00000000000E+00  0.00000000000E+00 -0.20707553150E+04  0.20707553150E+04  0.25500000920E-02 0.  1.
    10030    2    1    2    0    0  0.00000000000E+00  0.00000000000E+00 -0.91256053815E+03  0.32289500919E+04  0.30973136683E+04 0.  0.
        4    1    3    3  502    0 -0.12805465188E+04  0.23944011994E+03 -0.13292491757E+04  0.18611920755E+04  0.12699999809E+01 0.  1.
       -4    1    3    3    0  502  0.12805465188E+04 -0.23944011994E+03  0.41668863758E+03  0.13677580164E+04  0.12699999809E+01 0. -1.
</event>
<event>
 5   0  0.1176002E-06  0.3075668E+04  0.7818609E-02  0.8222447E-01
        2   -1    0    0  501    0  0.00000000000E+00  0.00000000000E+00  0.25357360623E+04  0.25357360623E+04  0.25500000920E-02 0. -1.
       -2   -1    0    0    0  501  0.00000000000E+00  0.00000000000E+00 -0.93264192633E+03  0.93264192634E+03  0.25500000920E-02 0.  1.
    10030    2    1    2    0    0  0.00000000000E+00  0.00000000000E+00  0.16030941360E+04  0.34683779886E+04  0.30756682304E+04 0.  0.
        2    1    3    3  502    0 -0.49125160702E+03 -0.14529476928E+04  0.92787082414E+03  0.17925761924E+04  0.25500000920E-02 0. -1.
       -2    1    3    3    0  502  0.49125160702E+03  0.14529476928E+04  0.67522331184E+03  0.16758017962E+04  0.25500000920E-02 0.  1.
</event>
<event>
 5   0  0.3935852E-07  0.3097431E+04  0.7818609E-02  0.8216443E-01
        1   -1    0    0  501    0  0.00000000000E+00  0.00000000000E+00  0.19951904500E+04  0.19951904500E+04  0.50400001928E-02 0. -1.
       -1   -1    0    0    0  501  0.00000000000E+00  0.00000000000E+00 -0.12021505402E+04  0.12021505402E+04  0.50400001928E-02 0.  1.
    10030    2    1    2    0    0  0.00000000000E+00  0.00000000000E+00  0.79303990977E+03  0.31973409902E+04  0.30974307271E+04 0.  0.
        5    1    3    3  502    0  0.76077694204E+03 -0.12705228458E+04  0.86444886478E+03  0.17147314037E+04  0.46999998093E+01 0. -1.
       -5    1    3    3    0  502 -0.76077694204E+03  0.12705228458E+04 -0.71408955004E+02  0.14826095865E+04  0.46999998093E+01 0.  1.
</event>
<event>
 5   0  0.1200286E-06  0.3053477E+04  0.7818609E-02  0.8228623E-01
        2   -1    0    0  501    0  0.00000000000E+00  0.00000000000E+00  0.12702505575E+04  0.12702505575E+04  0.25500000920E-02 0. -1.
       -2   -1    0    0    0  501  0.00000000000E+00  0.00000000000E+00 -0.18350167390E+04  0.18350167390E+04  0.25500000920E-02 0.  1.
    10030    2    1    2    0    0  0.00000000000E+00  0.00000000000E+00 -0.56476618154E+03  0.31052672965E+04  0.30534773854E+04 0.  0.
        5    1    3    3  502    0  0.74364183789E+02 -0.94570874988E+03 -0.14989225605E+04  0.17738900766E+04  0.46999998093E+01 0.  1.
       -5    1    3    3    0  502 -0.74364183789E+02  0.94570874988E+03  0.93415637896E+03  0.13313772199E+04  0.46999998093E+01 0. -1.
</event>
<event>
 5   0  0.1176002E-06  0.3093845E+04  0.7818609E-02  0.8217429E-01
       -2   -1    0    0    0  501  0.00000000000E+00  0.00000000000E+00  0.16242473665E+04  0.16242473665E+04  0.25500000920E-02 0.  1.
        2   -1    0    0  501    0  0.00000000000E+00  0.00000000000E+00 -0.14732783695E+04  0.14732783695E+04  0.25500000920E-02 0. -1.
    10030    2    1    2    0    0  0.00000000000E+00  0.00000000000E+00  0.15096899701E+03  0.30975257360E+04  0.30938445415E+04 0.  0.
        2    1    3    3  502    0 -0.55501989235E+02 -0.63677371082E+03 -0.13348815407E+04  0.14800236340E+04  0.25500000920E-02 0. -1.
       -2    1    3    3    0  502  0.55501989235E+02  0.63677371082E+03  0.14858505377E+04  0.16175021020E+04  0.25500000920E-02 0.  1.
</event>
<event>
 5   0  0.4134019E-07  0.3097515E+04  0.7818609E-02  0.8216420E-01
        1   -1    0    0  501    0  0.00000000000E+00  0.00000000000E+00  0.18191509713E+04  0.18191509713E+04  0.50400001928E-02 0. -1.
       -1   -1    0    0    0  501  0.00000000000E+00  0.00000000000E+00 -0.13185549257E+04  0.13185549257E+04  0.50400001928E-02 0.  1.
    10030    2    1    2    0    0  0.00000000000E+00  0.00000000000E+00  0.50059604560E+03  0.31377058970E+04  0.30975154391E+04 0.  0.
        2    1    3    3  502    0  0.85607358185E+03  0.26775870902E+02 -0.10568212082E+04  0.13603124608E+04  0.25500000920E-02 0.  1.
       -2    1    3    3    0  502 -0.85607358185E+03 -0.26775870902E+02  0.15574172538E+04  0.17773934362E+04  0.25500000920E-02 0. -1.
</event>
<event>
 5   0  0.4173905E-07  0.3101005E+04  0.7818609E-02  0.8215462E-01
       -1   -1    0    0    0  501  0.00000000000E+00  0.00000000000E+00  0.18903812452E+04  0.18903812452E+04  0.50400001928E-02 0. -1.
        1   -1    0    0  501    0  0.00000000000E+00  0.00000000000E+00 -0.12717321498E+04  0.12717321498E+04  0.50400001928E-02 0.  1.
    10030    2    1    2    0    0  0.00000000000E+00  0.00000000000E+00  0.61864909547E+03  0.31621133950E+04  0.31010053885E+04 0.  0.
        3    1    3    3  502    0  0.80283427896E+03 -0.12183256346E+04  0.84425564097E+03  0.16857128548E+04  0.10100000352E+00 0.  1.
       -3    1    3    3    0  502 -0.80283427896E+03  0.12183256346E+04 -0.22560654550E+03  0.14764005402E+04  0.10100000352E+00 0. -1.
</event>
<event>
 5   0  0.1258262E-06  0.3101557E+04  0.7818609E-02  0.8215311E-01
       -2   -1    0    0    0  501  0.00000000000E+00  0.00000000000E+00  0.11269362795E+04  0.11269362795E+04  0.25500000920E-02 0.  1.
        2   -1    0    0  501    0  0.00000000000E+00  0.00000000000E+00 -0.21340286391E+04  0.21340286391E+04  0.25500000920E-02 0. -1.
    10030    2    1    2    0    0  0.00000000000E+00  0.00000000000E+00 -0.10070923596E+04  0.32609649186E+04  0.31015572185E+04 0.  0.
        1    1    3    3  502    0  0.10368319815E+04 -0.10971021651E+04 -0.12995190427E+03  0.15151043581E+04  0.50400001928E-02 0.  1.
       -1    1    3    3    0  502 -0.10368319815E+04  0.10971021651E+04 -0.87714045529E+03  0.17458605605E+04  0.50400001928E-02 0. -1.
</event>
<event>
 5   0  0.4173905E-07  0.3109369E+04  0.7818609E-02  0.8213171E-01
       -1   -1    0    0    0  501  0.00000000000E+00  0.00000000000E+00  0.12840709201E+04  0.12840709201E+04  0.50400001928E-02 0. -1.
        1   -1    0    0  501    0  0.00000000000E+00  0.00000000000E+00 -0.18823287506E+04  0.18823287507E+04  0.50400001928E-02 0.  1.
    10030    2    1    2    0    0  0.00000000000E+00  0.00000000000E+00 -0.59825783053E+03  0.31663996708E+04  0.31093688175E+04 0.  0.
        3    1    3    3  502    0 -0.22625038687E+03 -0.14823963315E+04  0.11870830221E+03  0.15042538989E+04  0.10100000352E+00 0. -1.
       -3    1    3    3    0  502  0.22625038687E+03  0.14823963315E+04 -0.71696613275E+03  0.16621457719E+04  0.10100000352E+00 0.  1.
</event>
<event>
 5   0  0.1176002E-06  0.3104369E+04  0.7818609E-02  0.8214540E-01
        2   -1    0    0  501    0  0.00000000000E+00  0.00000000000E+00  0.21908830764E+04  0.21908830764E+04  0.25500000920E-02 0. -1.
       -2   -1    0    0    0  501  0.00000000000E+00  0.00000000000E+00 -0.10996827484E+04  0.10996827484E+04  0.25500000920E-02 0.  1.
    10030    2    1    2    0    0  0.00000000000E+00  0.00000000000E+00  0.10912003280E+04  0.32905658247E+04  0.31043687428E+04 0.  0.
        2    1    3    3  502    0  0.13306495337E+04 -0.44308643237E+03 -0.15936364751E+03  0.14115064790E+04  0.25500000920E-02 0. -1.
       -2    1    3    3    0  502 -0.13306495337E+04  0.44308643237E+03  0.12505639755E+04  0.18790593458E+04  0.25500000920E-02 0.  1.
</event>
<event>
 5   0  0.1193123E-06  0.3112001E+04  0.7818609E-02  0.8212452E-01
       -2   -1    0    0    0  501  0.00000000000E+00  0.00000000000E+00  0.98946145403E+03  0.98946145403E+03  0.25500000920E-02 0. -1.
        2   -1    0    0  501    0  0.00000000000E+00  0.00000000000E+00 -0.24469252351E+04  0.24469252351E+04  0.25500000920E-02 0.  1.
    10030    2    1    2    0    0  0.00000000000E+00  0.00000000000E+00 -0.14574637811E+04  0.34363866891E+04  0.31120014146E+04 0.  0.
        3    1    3    3  502    0  0.62293450473E+03 -0.12131365088E+04  0.98628665721E+02  0.13672875375E+04  0.10100000352E+00 0. -1.
       -3    1    3    3    0  502 -0.62293450473E+03  0.12131365088E+04 -0.15560924468E+04  0.20690991517E+04  0.10100000352E+00 0.  1.
</event>
<event>
 5   0  0.1258262E-06  0.3092768E+04  0.7818609E-02  0.8217726E-01
       -2   -1    0    0    0  501  0.00000000000E+00  0.00000000000E+00  0.10683213589E+04  0.10683213589E+04  0.25500000920E-02 0. -1.
        2   -1    0    0  501    0  0.00000000000E+00  0.00000000000E+00 -0.22383741150E+04  0.22383741150E+04  0.25500000920E-02 0.  1.
    10030    2    1    2    0    0  0.00000000000E+00  0.00000000000E+00 -0.11700527561E+04  0.33066954738E+04  0.30927676125E+04 0.  0.
        1    1    3    3  502    0  0.73954492839E+03 -0.12385184404E+04 -0.11807454697E+04  0.18641390754E+04  0.50400001928E-02 0.  1.
       -1    1    3    3    0  502 -0.73954492839E+03  0.12385184404E+04  0.10692713596E+02  0.14425563984E+04  0.50400001928E-02 0. -1.
</event>
<event>
 5   0  0.1200286E-06  0.3103678E+04  0.7818609E-02  0.8214729E-01
       -2   -1    0    0    0  501  0.00000000000E+00  0.00000000000E+00  0.13580699175E+04  0.13580699175E+04  0.25500000920E-02 0. -1.
        2   -1    0    0  501    0  0.00000000000E+00  0.00000000000E+00 -0.17732549278E+04  0.17732549278E+04  0.25500000920E-02 0.  1.
    10030    2    1    2    0    0  0.00000000000E+00  0.00000000000E+00 -0.41518501035E+03  0.31313248453E+04  0.31036779302E+04 0.  0.
        5    1    3    3  502    0  0.48646330813E+03  0.10427843795E+04  0.84290110040E+03  0.14263765868E+04  0.46999998093E+01 0. -1.
       -5    1    3    3    0  502 -0.48646330813E+03 -0.10427843795E+04 -0.12580861107E+04  0.17049482586E+04  0.46999998093E+01 0.  1.
</event>
<event>
 5   0  0.4219337E-07  0.3105782E+04  0.7818609E-02  0.8214153E-01
        1   -1    0    0  501    0  0.00000000000E+00  0.00000000000E+00  0.81102161499E+03  0.81102161500E+03  0.50400001928E-02 0.  1.
       -1   -1    0    0    0  501  0.00000000000E+00  0.00000000000E+00 -0.29733739842E+04  0.29733739842E+04  0.50400001928E-02 0. -1.
    10030    2    1    2    0    0  0.00000000000E+00  0.00000000000E+00 -0.21623523692E+04  0.37843955992E+04  0.31057820726E+04 0.  0.
        4    1    3    3  502    0 -0.11909342017E+04 -0.76579519432E+03 -0.18582529443E+04  0.23362089312E+04  0.12699999809E+01 0. -1.
       -4    1    3    3    0  502  0.11909342017E+04  0.76579519432E+03 -0.30409942494E+03  0.14481866680E+04  0.12699999809E+01 0.  1.
</event>
<event>
 5   0  0.3935852E-07  0.3127899E+04  0.7818609E-02  0.8208123E-01
       -1   -1    0    0    0  501  0.00000000000E+00  0.00000000000E+00  0.14317416259E+04  0.14317416259E+04  0.50400001928E-02 0.  1.
        1   -1    0    0  501    0  0.00000000000E+00  0.00000000000E+00 -0.17083653256E+04  0.17083653256E+04  0.50400001928E-02 0. -1.
    10030    2    1    2    0    0  0.00000000000E+00  0.00000000000E+00 -0.27662369972E+03  0.31401069515E+04  0.31278988148E+04 0.  0.
        5    1    3    3  502    0  0.53113310012E+03  0.24986377760E+03  0.13169601883E+04  0.14418531496E+04  0.46999998093E+01 0.  1.
       -5    1    3    3    0  502 -0.53113310012E+03 -0.24986377760E+03 -0.15935838881E+04  0.16982538019E+04  0.46999998093E+01 0. -1.
</event>
<event>
 5   0  0.1237580E-06  0.3088784E+04  0.7818609E-02  0.8218823E-01
       -2   -1    0    0    0  501  0.00000000000E+00  0.00000000000E+00  0.13609682786E+04  0.13609682786E+04  0.25500000920E-02 0. -1.
        2   -1    0    0  501    0  0.00000000000E+00  0.00000000000E+00 -0.17525369202E+04  0.17525369202E+04  0.25500000920E-02 0.  1.
    10030    2    1    2    0    0  0.00000000000E+00  0.00000000000E+00 -0.39156864154E+03  0.31135051988E+04  0.30887843275E+04 0.  0.
        4    1    3    3  502    0 -0.63715310202E+03 -0.12519482338E+04 -0.84264226819E+03  0.16381044108E+04  0.12699999809E+01 0.  1.
       -4    1    3    3    0  502  0.63715310202E+03  0.12519482338E+04  0.45107362665E+03  0.14754007880E+04  0.12699999809E+01 0. -1.
</event>
<event>
 5   0  0.4219337E-07  0.3097579E+04  0.7818609E-02  0.8216403E-01
        1   -1    0    0  501    0  0.00000000000E+00  0.00000000000E+00  0.26090396394E+04  0.26090396394E+04  0.50400001928E-02 0.  1.
       -1   -1    0    0    0  501  0.00000000000E+00  0.00000000000E+00 -0.91939910077E+03  0.91939910079E+03  0.50400001928E-02 0. -1.
    10030    2    1    2    0    0  0.00000000000E+00  0.00000000000E+00  0.16896405386E+04  0.35284387401E+04  0.30975788599E+04 0.  0.
        4    1    3    3  502    0  0.12174938828E+04 -0.81159099693E+03  0.14231576564E+04  0.20411640377E+04  0.12699999809E+01 0.  1.
       -4    1    3    3    0  502 -0.12174938828E+04  0.81159099693E+03  0.26648288217E+03  0.14872747024E+04  0.12699999809E+01 0. -1.
</event>
<event>
 5   0  0.4173905E-07  0.3093094E+04  0.7818609E-02  0.8217636E-01
        1   -1    0    0  501    0  0.00000000000E+00  0.00000000000E+00  0.24453972056E+04  0.24453972056E+04  0.50400001928E-02 0. -1.
       -1   -1    0    0    0  501  0.00000000000E+00  0.00000000000E+00 -0.97808560369E+03  0.97808560371E+03  0.50400001928E-02 0.  1.
    10030    2    1    2    0    0  0.00000000000E+00  0.00000000000E+00  0.14673116019E+04  0.34234828093E+04  0.30930941157E+04 0.  0.
        3    1    3    3  502    0  0.10804457152E+04 -0.24581303273E+03  0.19277961893E+04  0.22235523713E+04  0.10100000352E+00 0. -1.
       -3    1    3    3    0  502 -0.10804457152E+04  0.24581303273E+03 -0.46048458739E+03  0.11999304380E+04  0.10100000352E+00 0.  1.
</event>
<event>
 5   0  0.1258262E-06  0.3090821E+04  0.7818609E-02  0.8218261E-01
        2   -1    0    0  501    0  0.00000000000E+00  0.00000000000E+00  0.17886232010E+04  0.17886232010E+04  0.25500000920E-02 0. -1.
       -2   -1    0    0    0  501  0.00000000000E+00  0.00000000000E+00 -0.13352694108E+04  0.13352694108E+04  0.25500000920E-02 0.  1.
    10030    2    1    2    0    0  0.00000000000E+00  0.00000000000E+00  0.45335379020E+03  0.31238926118E+04  0.30908211516E+04 0.  0.
        1    1    3    3  502    0 -0.46087008619E+03  0.93679075078E+03  0.13783053178E+04  0.17290759660E+04  0.50400001928E-02 0. -1.
       -1    1    3    3    0  502  0.46087008619E+03 -0.93679075078E+03 -0.92495152759E+03  0.13948166458E+04  0.50400001928E-02 0.  1.
</event>
<event>
 5   0  0.3935852E-07  0.3124468E+04  0.7818609E-02  0.8209055E-01
        1   -1    0    0  501    0  0.00000000000E+00  0.00000000000E+00  0.13902177333E+04  0.13902177333E+04  0.50400001928E-02 0.  1.
       -1   -1    0    0    0  501  0.00000000000E+00  0.00000000000E+00 -0.17555340986E+04  0.17555340986E+04  0.50400001928E-02 0. -1.
    10030    2    1    2    0    0  0.00000000000E+00  0.00000000000E+00 -0.36531636539E+03  0.31457518319E+04  0.31244677212E+04 0.  0.
        5    1    3    3  502    0 -0.18522372385E+03 -0.88684613859E+02 -0.17418781611E+04  0.17539482337E+04  0.46999998093E+01 0. -1.
       -5    1    3    3    0  502  0.18522372385E+03  0.88684613859E+02  0.13765617957E+04  0.13918035982E+04  0.46999998093E+01 0.  1.
</event>
<event>
 5   0  0.1237580E-06  0.3091998E+04  0.7818609E-02  0.8217937E-01
       -2   -1    0    0    0  501  0.00000000000E+00  0.00000000000E+00  0.13939523359E+04  0.13939523359E+04  0.25500000920E-02 0. -1.
        2   -1    0    0  501    0  0.00000000000E+00  0.00000000000E+00 -0.17146308103E+04  0.17146308103E+04  0.25500000920E-02 0.  1.
    10030    2    1    2    0    0  0.00000000000E+00  0.00000000000E+00 -0.32067847441E+03  0.31085831462E+04  0.30919984627E+04 0.  0.
        4    1    3    3  502    0  0.10042705719E+04  0.75667713260E+03 -0.10646036198E+04  0.16475746249E+04  0.12699999809E+01 0.  1.
       -4    1    3    3    0  502 -0.10042705719E+04 -0.75667713260E+03  0.74392514534E+03  0.14610085213E+04  0.12699999809E+01 0. -1.
</event>
<event>
 5   0  0.1258262E-06  0.3100819E+04  0.7818609E-02  0.8215513E-01
       -2   -1    0    0    0  501  0.00000000000E+00  0.00000000000E+00  0.15064082178E+04  0.15064082178E+04  0.25500000920E-02 0. -1.
        2   -1    0    0  501    0  0.00000000000E+00  0.00000000000E+00 -0.15956960110E+04  0.15956960110E+04  0.25500000920E-02 0.  1.
    10030    2    1    2    0    0  0.00000000000E+00  0.00000000000E+00 -0.89287793122E+02  0.31021042288E+04  0.31008189783E+04 0.  0.
        1    1    3    3  502    0 -0.10209130257E+04 -0.11630372952E+04 -0.13875960332E+03  0.15537610446E+04  0.50400001928E-02 0. -1.
       -1    1    3    3    0  502  0.10209130257E+04  0.11630372952E+04  0.49471810199E+02  0.15483431842E+04  0.50400001928E-02 0.  1.
</event>
<event>
 5   0  0.1193123E-06  0.3100805E+04  0.7818609E-02  0.8215517E-01
       -2   -1    0    0    0  501  0.00000000000E+00  0.00000000000E+00  0.13866335023E+04  0.13866335023E+04  0.25500000920E-02 0. -1.
        2   -1    0    0  501    0  0.00000000000E+00  0.00000000000E+00 -0.17335129843E+04  0.17335129843E+04  0.25500000920E-02 0.  1.
    10030    2    1    2    0    0  0.00000000000E+00  0.00000000000E+00 -0.34687948202E+03  0.31201464866E+04  0.31008045283E+04 0.  0.
        3    1    3    3  502    0  0.43922135400E+03  0.79786519344E+03  0.10890750269E+04  0.14197142984E+04  0.10100000352E+00 0. -1.
       -3    1    3    3    0  502 -0.43922135400E+03 -0.79786519344E+03 -0.14359545089E+04  0.17004321882E+04  0.10100000352E+00 0.  1.
</event>
<event>
 5   0  0.1176002E-06  0.3096269E+04  0.7818609E-02  0.8216762E-01
       -2   -1    0    0    0  501  0.00000000000E+00  0.00000000000E+00  0.93321362612E+03  0.93321362612E+03  0.25500000920E-02 0.  1.
        2   -1    0    0  501    0  0.00000000000E+00  0.00000000000E+00 -0.25682447322E+04  0.25682447322E+04  0.25500000920E-02 0. -1.
    10030    2    1    2    0    0  0.00000000000E+00  0.00000000000E+00 -0.16350311061E+04  0.35014583583E+04  0.30962693548E+04 0.  0.
        2    1    3    3  502    0  0.21347640302E+03  0.11692778616E+04 -0.19392604884E+04  0.22745360261E+04  0.25500000920E-02 0. -1.
       -2    1    3    3    0  502 -0.21347640302E+03 -0.11692778616E+04  0.30422938234E+03  0.12269223322E+04  0.25500000920E-02 0.  1.
</event>
<event>
 5   0  0.1258262E-06  0.3109869E+04  0.7818609E-02  0.8213035E-01
        2   -1    0    0  501    0  0.00000000000E+00  0.00000000000E+00  0.18441865222E+04  0.18441865222E+04  0.25500000920E-02 0.  1.
       -2   -1    0    0    0  501  0.00000000000E+00  0.00000000000E+00 -0.13110505577E+04  0.13110505577E+04  0.25500000920E-02 0. -1.
    10030    2    1    2    0    0  0.00000000000E+00  0.00000000000E+00  0.53313596447E+03  0.31552370799E+04  0.31098693017E+04 0.  0.
        1    1    3    3  502    0  0.55716818376E+03 -0.81553542676E+03  0.14850405528E+04  0.17835021337E+04  0.50400001928E-02 0.  1.
       -1    1    3    3    0  502 -0.55716818376E+03  0.81553542676E+03 -0.95190458833E+03  0.13717349462E+04  0.50400001928E-02 0. -1.
</event>
<event>
 5   0  0.1200286E-06  0.3094247E+04  0.7818609E-02  0.8217319E-01
       -2   -1    0    0    0  501  0.00000000000E+00  0.00000000000E+00  0.16146619034E+04  0.16146619034E+04  0.25500000920E-02 0.  1.
        2   -1    0    0  501    0  0.00000000000E+00  0.00000000000E+00 -0.14824098828E+04  0.14824098828E+04  0.25500000920E-02 0. -1.
    10030    2    1    2    0    0  0.00000000000E+00  0.00000000000E+00  0.13225202055E+03  0.30970717862E+04  0.30942467665E+04 0.  0.
        5    1    3    3  502    0 -0.26956336497E+03 -0.14908513943E+04 -0.24763488580E+03  0.15351375881E+04  0.46999998093E+01 0. -1.
       -5    1    3    3    0  502  0.26956336497E+03  0.14908513943E+04  0.37988690635E+03  0.15619341981E+04  0.46999998093E+01 0.  1.
</event>
<event>
 5   0  0.1176002E-06  0.3094208E+04  0.7818609E-02  0.8217329E-01
        2   -1    0    0  501    0  0.00000000000E+00  0.00000000000E+00  0.24078406568E+04  0.24078406568E+04  0.25500000920E-02 0. -1.
       -2   -1    0    0    0  501  0.00000000000E+00  0.00000000000E+00 -0.99405705864E+03  0.99405705864E+03  0.25500000920E-02 0.  1.
    10030    2    1    2    0    0  0.00000000000E+00  0.00000000000E+00  0.14137835982E+04  0.34018977155E+04  0.30942081385E+04 0.  0.
        2    1    3    3  502    0 -0.67375201806E+03  0.96472511074E+03  0.18112110511E+04  0.21598893011E+04  0.25500000920E-02 0. -1.
       -2    1    3    3    0  502  0.67375201806E+03 -0.96472511074E+03 -0.39742745293E+03  0.12420084144E+04  0.25500000920E-02 0.  1.
</event>
<event>
 5   0  0.4173905E-07  0.3119923E+04  0.7818609E-02  0.8210291E-01
       -1   -1    0    0    0  501  0.00000000000E+00  0.00000000000E+00  0.17375302827E+04  0.17375302828E+04  0.50400001928E-02 0.  1.
        1   -1    0    0  501    0  0.00000000000E+00  0.00000000000E+00 -0.14005399166E+04  0.14005399166E+04  0.50400001928E-02 0. -1.
    10030    2    1    2    0    0  0.00000000000E+00  0.00000000000E+00  0.33699036615E+03  0.31380701994E+04  0.31199234076E+04 0.  0.
        3    1    3    3  502    0 -0.13301878129E+04 -0.41809016314E+03 -0.53505992735E+03  0.14934818841E+04  0.10100000352E+00 0. -1.
       -3    1    3    3    0  502  0.13301878129E+04  0.41809016314E+03  0.87205029350E+03  0.16445883153E+04  0.10100000352E+00 0.  1.
</event>
<event>
 5   0  0.4330395E-07  0.3111089E+04  0.7818609E-02  0.8212701E-01
       -1   -1    0    0    0  501  0.00000000000E+00  0.00000000000E+00  0.18665455885E+04  0.18665455885E+04  0.50400001928E-02 0.  1.
        1   -1    0    0  501    0  0.00000000000E+00  0.00000000000E+00 -0.12963622508E+04  0.12963622508E+04  0.50400001928E-02 0. -1.
    10030    2    1    2    0    0  0.00000000000E+00  0.00000000000E+00  0.57018333768E+03  0.31629078393E+04  0.31110893528E+04 0.  0.
        1    1    3    3  502    0 -0.14948438193E+04  0.19358380552E+03 -0.10560927634E+03  0.15110215263E+04  0.50400001928E-02 0.  1.
       -1    1    3    3    0  502  0.14948438193E+04 -0.19358380552E+03  0.67579261403E+03  0.16518863130E+04  0.50400001928E-02 0. -1.
</event>
<event>
 5   0  0.1176002E-06  0.3088128E+04  0.7818609E-02  0.8219004E-01
       -2   -1    0    0    0  501  0.00000000000E+00  0.00000000000E+00  0.13511757786E+04  0.13511757786E+04  0.25500000920E-02 0.  1.
        2   -1    0    0  501    0  0.00000000000E+00  0.00000000000E+00 -0.17644885689E+04  0.17644885689E+04  0.25500000920E-02 0. -1.
    10030    2    1    2    0    0  0.00000000000E+00  0.00000000000E+00 -0.41331279030E+03  0.31156643474E+04  0.30881283755E+04 0.  0.
        2    1    3    3  502    0 -0.40756921607E+02 -0.14041895109E+04 -0.85324915671E+03  0.16436068364E+04  0.25500000920E-02 0. -1.
       -2    1    3    3    0  502  0.40756921607E+02  0.14041895109E+04  0.43993636641E+03  0.14720575110E+04  0.25500000920E-02 0.  1.
</event>
<event>
 5   0  0.1200286E-06  0.3103395E+04  0.7818609E-02  0.8214807E-01
        2   -1    0    0  501    0  0.00000000000E+00  0.00000000000E+00  0.31298798260E+04  0.31298798260E+04  0.25500000920E-02 0.  1.
       -2   -1    0    0    0  501  0.00000000000E+00  0.00000000000E+00 -0.76928378722E+03  0.76928378722E+03  0.25500000920E-02 0. -1.
    10030    2    1    2    0    0  0.00000000000E+00  0.00000000000E+00  0.23605960388E+04  0.38991636132E+04  0.31033954347E+04 0.  0.
        5    1    3    3  502    0 -0.11971334061E+04 -0.77951374842E+03  0.41918039776E+03  0.14887929245E+04  0.46999998093E+01 0. -1.
       -5    1    3    3    0  502  0.11971334061E+04  0.77951374842E+03  0.19414156410E+04  0.24103706888E+04  0.46999998093E+01 0.  1.
</event>
<event>
 5   0  0.1200286E-06  0.3079209E+04  0.7818609E-02  0.8221467E-01
        2   -1    0    0  501    0  0.00000000000E+00  0.00000000000E+00  0.23131561131E+04  0.23131561131E+04  0.25500000920E-02 0.  1.
       -2   -1    0    0    0  501  0.00000000000E+00  0.00000000000E+00 -0.10247392864E+04  0.10247392864E+04  0.25500000920E-02 0. -1.
    10030    2    1    2    0    0  0.00000000000E+00  0.00000000000E+00  0.12884168267E+04  0.33378953995E+04  0.30792089534E+04 0.  0.
        5    1    3    3  502    0 -0.58602611019E+03 -0.13614467027E+04  0.19281703422E+03  0.14947120876E+04  0.46999998093E+01 0. -1.
       -5    1    3    3    0  502  0.58602611019E+03  0.13614467027E+04  0.10955997924E+04  0.18431833119E+04  0.46999998093E+01 0.  1.
</event>
<event>
 5   0  0.4219337E-07  0.3137653E+04  0.7818609E-02  0.8205480E-01
       -1   -1    0    0    0  501  0.00000000000E+00  0.00000000000E+00  0.14900666544E+04  0.14900666544E+04  0.50400001928E-02 0. -1.
        1   -1    0    0  501    0  0.00000000000E+00  0.00000000000E+00 -0.16517488861E+04  0.16517488861E+04  0.50400001928E-02 0.  1.
    10030    2    1    2    0    0  0.00000000000E+00  0.00000000000E+00 -0.16168223169E+03  0.31418155406E+04  0.31376525855E+04 0.  0.
        4    1    3    3  502    0 -0.14839270922E+04  0.32415821911E+03 -0.47391277680E+03  0.15911357889E+04  0.12699999809E+01 0.  1.
       -4    1    3    3    0  502  0.14839270922E+04 -0.32415821911E+03  0.31223054511E+03  0.15506797516E+04  0.12699999809E+01 0. -1.
</event>
<event>
 5   0  0.3935852E-07  0.3100074E+04  0.7818609E-02  0.8215718E-01
        1   -1    0    0  501    0  0.00000000000E+00  0.00000000000E+00  0.12136662538E+04  0.12136662538E+04  0.50400001928E-02 0.  1.
       -1   -1    0    0    0  501  0.00000000000E+00  0.00000000000E+00 -0.19796339179E+04  0.19796339179E+04  0.50400001928E-02 0. -1.
    10030    2    1    2    0    0  0.00000000000E+00  0.00000000000E+00 -0.76596766411E+03  0.31933001717E+04  0.31000741159E+04 0.  0.
        5    1    3    3  502    0  0.45064785063E+03  0.84667770258E+03 -0.16372405271E+04  0.18975050068E+04  0.46999998093E+01 0. -1.
       -5    1    3    3    0  502 -0.45064785063E+03 -0.84667770258E+03  0.87127286302E+03  0.12957951648E+04  0.46999998093E+01 0.  1.
</event>
<event>
 5   0  0.1258262E-06  0.3134809E+04  0.7818609E-02  0.8206249E-01
       -2   -1    0    0    0  501  0.00000000000E+00  0.00000000000E+00  0.28964544424E+04  0.28964544424E+04  0.25500000920E-02 0. -1.
        2   -1    0    0  501    0  0.00000000000E+00  0.00000000000E+00 -0.84819479797E+03  0.84819479797E+03  0.25500000920E-02 0.  1.
    10030    2    1    2    0    0  0.00000000000E+00  0.00000000000E+00  0.20482596444E+04  0.37446492404E+04  0.31348094619E+04 0.  0.
        1    1    3    3  502    0  0.12960706105E+04 -0.23253368853E+02  0.20766919723E+04  0.24480582702E+04  0.50400001928E-02 0. -1.
       -1    1    3    3    0  502 -0.12960706105E+04  0.23253368853E+02 -0.28432327835E+02  0.12965909702E+04  0.50400001928E-02 0.  1.
</event>
<event>
 5   0  0.1237580E-06  0.3077217E+04  0.7818609E-02  0.8222018E-01
       -2   -1    0    0    0  501  0.00000000000E+00  0.00000000000E+00  0.86966727599E+03  0.86966727599E+03  0.25500000920E-02 0.  1.
        2   -1    0    0  501    0  0.00000000000E+00  0.00000000000E+00 -0.27220940802E+04  0.27220940802E+04  0.25500000920E-02 0. -1.
    10030    2    1    2    0    0  0.00000000000E+00  0.00000000000E+00 -0.18524268042E+04  0.35917613562E+04  0.30772170178E+04 0.  0.
        4    1    3    3  502    0  0.23699256460E+03  0.51606025171E+03 -0.25952968282E+04  0.26566992488E+04  0.12699999809E+01 0. -1.
       -4    1    3    3    0  502 -0.23699256460E+03 -0.51606025171E+03  0.74287002406E+03  0.93506210736E+03  0.12699999809E+01 0.  1.
</event>
<event>
 5   0  0.1176002E-06  0.3088590E+04  0.7818609E-02  0.8218876E-01
       -2   -1    0    0    0  501  0.00000000000E+00  0.00000000000E+00  0.15726433131E+04  0.15726433131E+04  0.25500000920E-02 0.  1.
        2   -1    0    0  501    0  0.00000000000E+00  0.00000000000E+00 -0.15164575494E+04  0.15164575494E+04  0.25500000920E-02 0. -1.
    10030    2    1    2    0    0  0.00000000000E+00  0.00000000000E+00  0.56185763634E+02  0.30891008625E+04  0.30885898560E+04 0.  0.
        2    1    3    3  502    0 -0.15408031281E+04  0.11593804718E+02  0.13125125181E+03  0.15464267157E+04  0.25500000920E-02 0.  1.
       -2    1    3    3    0  502  0.15408031281E+04 -0.11593804718E+02 -0.75065488173E+02  0.15426741468E+04  0.25500000920E-02 0. -1.
</event>
<event>
 5   0  0.1176002E-06  0.3095849E+04  0.7818609E-02  0.8216878E-01
        2   -1    0    0  501    0  0.00000000000E+00  0.00000000000E+00  0.11588942243E+04  0.11588942243E+04  0.25500000920E-02 0.  1.
       -2   -1    0    0    0  501  0.00000000000E+00  0.00000000000E+00 -0.20675482461E+04  0.20675482461E+04  0.25500000920E-02 0. -1.
    10030    2    1    2    0    0  0.00000000000E+00  0.00000000000E+00 -0.90865402177E+03  0.32264424705E+04  0.30958486533E+04 0.  0.
        2    1    3    3  502    0  0.32554078136E+03  0.18994345754E+02  0.11226906038E+04  0.11690901493E+04  0.25500000920E-02 0.  1.
       -2    1    3    3    0  502 -0.32554078136E+03 -0.18994345754E+02 -0.20313446255E+04  0.20573523211E+04  0.25500000920E-02 0. -1.
</event>
<event>
 5   0  0.4134019E-07  0.3104680E+04  0.7818609E-02  0.8214455E-01
        1   -1    0    0  501    0  0.00000000000E+00  0.00000000000E+00  0.15114630215E+04  0.15114630215E+04  0.50400001928E-02 0. -1.
       -1   -1    0    0    0  501  0.00000000000E+00  0.00000000000E+00 -0.15943222670E+04  0.15943222670E+04  0.50400001928E-02 0.  1.
    10030    2    1    2    0    0  0.00000000000E+00  0.00000000000E+00 -0.82859245444E+02  0.31057852885E+04  0.31046797908E+04 0.  0.
        2    1    3    3  502    0  0.16683653864E+03 -0.88292201815E+03  0.12248700110E+04  0.15191090364E+04  0.25500000920E-02 0. -1.
       -2    1    3    3    0  502 -0.16683653864E+03  0.88292201815E+03 -0.13077292564E+04  0.15866762521E+04  0.25500000920E-02 0.  1.
</event>
<event>
 5   0  0.4173905E-07  0.3088215E+04  0.7818609E-02  0.8218980E-01
        1   -1    0    0  501    0  0.00000000000E+00  0.00000000000E+00  0.89093291288E+03  0.89093291290E+03  0.50400001928E-02 0. -1.
       -1   -1    0    0    0  501  0.00000000000E+00  0.00000000000E+00 -0.26761471875E+04  0.26761471875E+04  0.50400001928E-02 0.  1.
    10030    2    1    2    0    0  0.00000000000E+00  0.00000000000E+00 -0.17852142746E+04  0.35670801004E+04  0.30882147653E+04 0.  0.
        3    1    3    3  502    0  0.42512333385E+03  0.83701792756E+03 -0.23086487175E+04  0.24922254655E+04  0.10100000352E+00 0.  1.
       -3    1    3    3    0  502 -0.42512333385E+03 -0.83701792756E+03  0.52343444284E+03  0.10748546349E+04  0.10100000352E+00 0. -1.
</event>
<event>
 5   0  0.1200286E-06  0.3146107E+04  0.7818609E-02  0.8203197E-01
        2   -1    0    0  501    0  0.00000000000E+00  0.00000000000E+00  0.14524004097E+04  0.14524004097E+04  0.25500000920E-02 0. -1.
       -2   -1    0    0    0  501  0.00000000000E+00  0.00000000000E+00 -0.17037297260E+04  0.17037297260E+04  0.25500000920E-02 0.  1.
    10030    2    1    2    0    0  0.00000000000E+00  0.00000000000E+00 -0.25132931627E+03  0.31561301357E+04  0.31461072786E+04 0.  0.
        5    1    3    3  502    0  0.19944076740E+03  0.13957400861E+04  0.57413107302E+03  0.15223388541E+04  0.46999998093E+01 0.  1.
       -5    1    3    3    0  502 -0.19944076740E+03 -0.13957400861E+04 -0.82546038929E+03  0.16337912816E+04  0.46999998093E+01 0. -1.
</event>
<event>
 5   0  0.1258262E-06  0.3081931E+04  0.7818609E-02  0.8220714E-01
        2   -1    0    0  501    0  0.00000000000E+00  0.00000000000E+00  0.18801381163E+04  0.18801381163E+04  0.25500000920E-02 0.  1.
       -2   -1    0    0    0  501  0.00000000000E+00  0.00000000000E+00 -0.12629786046E+04  0.12629786046E+04  0.25500000920E-02 0. -1.
    10030    2    1    2    0    0  0.00000000000E+00  0.00000000000E+00  0.61715951169E+03  0.31431167208E+04  0.30819307030E+04 0.  0.
        1    1    3    3  502    0 -0.92578916865E+03  0.11547604169E+04 -0.12890872615E+03  0.14856563078E+04  0.50400001928E-02 0. -1.
       -1    1    3    3    0  502  0.92578916865E+03 -0.11547604169E+04  0.74606823783E+03  0.16574604130E+04  0.50400001928E-02 0.  1.
</event>
<event>
 5   0  0.4219337E-07  0.3098870E+04  0.7818609E-02  0.8216048E-01
       -1   -1    0    0    0  501  0.00000000000E+00  0.00000000000E+00  0.14405048318E+04  0.14405048318E+04  0.50400001928E-02 0. -1.
        1   -1    0    0  501    0  0.00000000000E+00  0.00000000000E+00 -0.16666021036E+04  0.16666021037E+04  0.50400001928E-02 0.  1.
    10030    2    1    2    0    0  0.00000000000E+00  0.00000000000E+00 -0.22609727186E+03  0.31071069354E+04  0.30988697185E+04 0.  0.
        4    1    3    3  502    0  0.70143967891E+03  0.21833206100E+03 -0.14808817069E+04  0.16530876428E+04  0.12699999809E+01 0.  1.
       -4    1    3    3    0  502 -0.70143967891E+03 -0.21833206100E+03  0.12547844351E+04  0.14540192926E+04  0.12699999809E+01 0. -1.
</event>
<event>
 5   0  0.4173905E-07  0.3095564E+04  0.7818609E-02  0.8216956E-01
        1   -1    0    0  501    0  0.00000000000E+00  0.00000000000E+00  0.17294339929E+04  0.17294339929E+04  0.50400001928E-02 0. -1.
       -1   -1    0    0    0  501  0.00000000000E+00  0.00000000000E+00 -0.13852097782E+04  0.13852097782E+04  0.50400001928E-02 0.  1.
    10030    2    1    2    0    0  0.00000000000E+00  0.00000000000E+00  0.34422421469E+03  0.31146437712E+04  0.30955638438E+04 0.  0.
        3    1    3    3  502    0 -0.56549928744E+03  0.11863622831E+04  0.99469869799E+03  0.16482325142E+04  0.10100000352E+00 0.  1.
       -3    1    3    3    0  502  0.56549928744E+03 -0.11863622831E+04 -0.65047448330E+03  0.14664112570E+04  0.10100000352E+00 0. -1.
</event>
<event>
 5   0  0.1200286E-06  0.3075982E+04  0.7818609E-02  0.8222361E-01
       -2   -1    0    0    0  501  0.00000000000E+00  0.00000000000E+00  0.12972114078E+04  0.12972114078E+04  0.25500000920E-02 0.  1.
        2   -1    0    0  501    0  0.00000000000E+00  0.00000000000E+00 -0.18234621212E+04  0.18234621212E+04  0.25500000920E-02 0. -1.
    10030    2    1    2    0    0  0.00000000000E+00  0.00000000000E+00 -0.52625071339E+03  0.31206735290E+04  0.30759817069E+04 0.  0.
        5    1    3    3  502    0 -0.13781782294E+03  0.10645147154E+04  0.85433545268E+03  0.13718952173E+04  0.46999998093E+01 0.  1.
       -5    1    3    3    0  502  0.13781782294E+03 -0.10645147154E+04 -0.13805861661E+04  0.17487783117E+04  0.46999998093E+01 0. -1.
</event>
<event>
 5   0  0.3902375E-07  0.3100582E+04  0.7818609E-02  0.8215578E-01
        4   -1    0    0  501    0  0.00000000000E+00  0.00000000000E+00  0.12282044219E+04  0.12282050785E+04  0.12699999809E+01 0. -1.
       -4   -1    0    0    0  501  0.00000000000E+00  0.00000000000E+00 -0.19568412876E+04  0.19568416997E+04  0.12699999809E+01 0.  1.
    10030    2    1    2    0    0  0.00000000000E+00  0.00000000000E+00 -0.72863686571E+03  0.31850467783E+04  0.31005824127E+04 0.  0.
        5    1    3    3  502    0  0.15581484729E+03  0.52687552217E+03 -0.18534659225E+04  0.19331927215E+04  0.46999998093E+01 0.  1.
       -5    1    3    3    0  502 -0.15581484729E+03 -0.52687552217E+03  0.11248290568E+04  0.12518540568E+04  0.46999998093E+01 0. -1.
</event>
<event>
 5   0  0.1176002E-06  0.3097533E+04  0.7818609E-02  0.8216415E-01
        2   -1    0    0  501    0  0.00000000000E+00  0.00000000000E+00  0.14136888098E+04  0.14136888098E+04  0.25500000920E-02 0.  1.
       -2   -1    0    0    0  501  0.00000000000E+00  0.00000000000E+00 -0.16967507201E+04  0.16967507201E+04  0.25500000920E-02 0. -1.
    10030    2    1    2    0    0  0.00000000000E+00  0.00000000000E+00 -0.28306191029E+03  0.31104395299E+04  0.30975328931E+04 0.  0.
        2    1    3    3  502    0 -0.63704952224E+03  0.28334910665E+03 -0.15302462603E+04  0.16815981765E+04  0.25500000920E-02 0. -1.
       -2    1    3    3    0  502  0.63704952224E+03 -0.28334910665E+03  0.12471843500E+04  0.14288413534E+04  0.25500000920E-02 0.  1.
</event>
<event>
 5   0  0.1237580E-06  0.3101898E+04  0.7818609E-02  0.8215217E-01
        2   -1    0    0  501    0  0.00000000000E+00  0.00000000000E+00  0.19359375882E+04  0.19359375882E+04  0.25500000920E-02 0. -1.
       -2   -1    0    0    0  501  0.00000000000E+00  0.00000000000E+00 -0.12425209704E+04  0.12425209704E+04  0.25500000920E-02 0.  1.
    10030    2    1    2    0    0  0.00000000000E+00  0.00000000000E+00  0.69341661776E+03  0.31784585586E+04  0.31018981613E+04 0.  0.
        4    1    3    3  502    0 -0.89069957163E+03  0.90055689900E+03  0.12638374262E+04  0.17893113502E+04  0.12699999809E+01 0. -1.
       -4    1    3    3    0  502  0.89069957163E+03 -0.90055689900E+03 -0.57042080839E+03  0.13891472085E+04  0.12699999809E+01 0.  1.
</event>
<event>
 5   0  0.4330395E-07  0.3090135E+04  0.7818609E-02  0.8218450E-01
       -1   -1    0    0    0  501  0.00000000000E+00  0.00000000000E+00  0.16885565956E+04  0.16885565956E+04  0.50400001928E-02 0.  1.
        1   -1    0    0  501    0  0.00000000000E+00  0.00000000000E+00 -0.14137721840E+04  0.14137721840E+04  0.50400001928E-02 0. -1.
    10030    2    1    2    0    0  0.00000000000E+00  0.00000000000E+00  0.27478441161E+03  0.31023287795E+04  0.30901354960E+04 0.  0.
        1    1    3    3  502    0 -0.10709900334E+04 -0.10466545166E+04 -0.24454160407E+03  0.15173351393E+04  0.50400001928E-02 0. -1.
       -1    1    3    3    0  502  0.10709900334E+04  0.10466545166E+04  0.51932601568E+03  0.15849936402E+04  0.50400001928E-02 0.  1.
</event>
<event>
 5   0  0.4330395E-07  0.3098711E+04  0.7818609E-02  0.8216092E-01
        1   -1    0    0  501    0  0.00000000000E+00  0.00000000000E+00  0.25586284671E+04  0.25586284671E+04  0.50400001928E-02 0. -1.
       -1   -1    0    0    0  501  0.00000000000E+00  0.00000000000E+00 -0.93819899370E+03  0.93819899372E+03  0.50400001928E-02 0.  1.
    10030    2    1    2    0    0  0.00000000000E+00  0.00000000000E+00  0.16204294734E+04  0.34968274609E+04  0.30987111212E+04 0.  0.
        1    1    3    3  502    0  0.13211886361E+04 -0.57299014098E+03  0.16525666977E+03  0.14495402308E+04  0.50400001928E-02 0. -1.
       -1    1    3    3    0  502 -0.13211886361E+04  0.57299014098E+03  0.14551728036E+04  0.20472872300E+04  0.50400001928E-02 0.  1.
</event>
<event>
 5   0  0.3935852E-07  0.2906584E+04  0.7818609E-02  0.8270921E-01
       -1   -1    0    0    0  501  0.00000000000E+00  0.00000000000E+00  0.87570884479E+03  0.87570884480E+03  0.50400001928E-02 0. -1.
        1   -1    0    0  501    0  0.00000000000E+00  0.00000000000E+00 -0.24118261783E+04  0.24118261783E+04  0.50400001928E-02 0.  1.
    10030    2    1    2    0    0  0.00000000000E+00  0.00000000000E+00 -0.15361173335E+04  0.32875350231E+04  0.29065839169E+04 0.  0.
        5    1    3    3  502    0  0.48098690783E+03 -0.11629821332E+04  0.53938086922E+02  0.12596853793E+04  0.46999998093E+01 0. -1.
       -5    1    3    3    0  502 -0.48098690783E+03  0.11629821332E+04 -0.15900554204E+04  0.20278496437E+04  0.46999998093E+01 0.  1.
</event>
<event>
 5   0  0.1258262E-06  0.3061502E+04  0.7818609E-02  0.8226383E-01
       -2   -1    0    0    0  501  0.00000000000E+00  0.00000000000E+00  0.15663723761E+04  0.15663723761E+04  0.25500000920E-02 0.  1.
        2   -1    0    0  501    0  0.00000000000E+00  0.00000000000E+00 -0.14959397106E+04  0.14959397106E+04  0.25500000920E-02 0. -1.
    10030    2    1    2    0    0  0.00000000000E+00  0.00000000000E+00  0.70432665474E+02  0.30623120867E+04  0.30615020098E+04 0.  0.
        1    1    3    3  502    0 -0.12009236619E+04  0.73025125754E+03  0.64177112744E+03  0.15451067021E+04  0.50400001928E-02 0.  1.
       -1    1    3    3    0  502  0.12009236619E+04 -0.73025125754E+03 -0.57133846197E+03  0.15172053846E+04  0.50400001928E-02 0. -1.
</event>
<event>
 5   0  0.1237580E-06  0.3103334E+04  0.7818609E-02  0.8214823E-01
        2   -1    0    0  501    0  0.00000000000E+00  0.00000000000E+00  0.21162895989E+04  0.21162895989E+04  0.25500000920E-02 0.  1.
       -2   -1    0    0    0  501  0.00000000000E+00  0.00000000000E+00 -0.11376851375E+04  0.11376851375E+04  0.25500000920E-02 0. -1.
    10030    2    1    2    0    0  0.00000000000E+00  0.00000000000E+00  0.97860446147E+03  0.32539747364E+04  0.31033344798E+04 0.  0.
        4    1    3    3  502    0 -0.34741382149E+03 -0.82356655547E+03 -0.84061513366E+03  0.12270263447E+04  0.12699999809E+01 0. -1.
       -4    1    3    3    0  502  0.34741382149E+03  0.82356655547E+03  0.18192195951E+04  0.20269483918E+04  0.12699999809E+01 0.  1.
</event>
<event>
 5   0  0.4219337E-07  0.3106063E+04  0.7818609E-02  0.8214076E-01
        1   -1    0    0  501    0  0.00000000000E+00  0.00000000000E+00  0.14001901366E+04  0.14001901366E+04  0.50400001928E-02 0.  1.
       -1   -1    0    0    0  501  0.00000000000E+00  0.00000000000E+00 -0.17225562885E+04  0.17225562885E+04  0.50400001928E-02 0. -1.
    10030    2    1    2    0    0  0.00000000000E+00  0.00000000000E+00 -0.32236615198E+03  0.31227464251E+04  0.31060626683E+04 0.  0.
        4    1    3    3  502    0 -0.84239402629E+03 -0.79651714823E+03  0.87772968258E+03  0.14541245722E+04  0.12699999809E+01 0.  1.
       -4    1    3    3    0  502  0.84239402629E+03  0.79651714823E+03 -0.12000958346E+04  0.16686218529E+04  0.12699999809E+01 0. -1.
</event>
<event>
 5   0  0.3935852E-07  0.3108932E+04  0.7818609E-02  0.8213291E-01
       -1   -1    0    0    0  501  0.00000000000E+00  0.00000000000E+00  0.95105606742E+03  0.95105606744E+03  0.50400001928E-02 0.  1.
        1   -1    0    0  501    0  0.00000000000E+00  0.00000000000E+00 -0.25407170573E+04  0.25407170573E+04  0.50400001928E-02 0. -1.
    10030    2    1    2    0    0  0.00000000000E+00  0.00000000000E+00 -0.15896609899E+04  0.34917731248E+04  0.31089318893E+04 0.  0.
        5    1    3    3  502    0 -0.12550730669E+04 -0.23464511312E+03 -0.17906186471E+04  0.21992280376E+04  0.46999998093E+01 0. -1.
       -5    1    3    3    0  502  0.12550730669E+04  0.23464511312E+03  0.20095765717E+03  0.12925450871E+04  0.46999998093E+01 0.  1.
</event>
<event>
 5   0  0.1258262E-06  0.3070656E+04  0.7818609E-02  0.8223838E-01
        2   -1    0    0  501    0  0.00000000000E+00  0.00000000000E+00  0.14952898172E+04  0.14952898172E+04  0.25500000920E-02 0. -1.
       -2   -1    0    0    0  501  0.00000000000E+00  0.00000000000E+00 -0.15764377589E+04  0.15764377589E+04  0.25500000920E-02 0.  1.
    10030    2    1    2    0    0  0.00000000000E+00  0.00000000000E+00 -0.81147941691E+02  0.30717275761E+04  0.30706555185E+04 0.  0.
        1    1    3    3  502    0  0.31613743163E+02  0.22409672617E+03  0.14785122788E+04  0.14957330410E+04  0.50400001928E-02 0. -1.
       -1    1    3    3    0  502 -0.31613743163E+02 -0.22409672617E+03 -0.15596602204E+04  0.15759945351E+04  0.50400001928E-02 0.  1.
</event>
<event>
 5   0  0.4173905E-07  0.3088960E+04  0.7818609E-02  0.8218774E-01
       -1   -1    0    0    0  501  0.00000000000E+00  0.00000000000E+00  0.15677031901E+04  0.15677031901E+04  0.50400001928E-02 0. -1.
        1   -1    0    0  501    0  0.00000000000E+00  0.00000000000E+00 -0.15216005585E+04  0.15216005585E+04  0.50400001928E-02 0.  1.
    10030    2    1    2    0    0  0.00000000000E+00  0.00000000000E+00  0.46102631635E+02  0.30893037486E+04  0.30889597276E+04 0.  0.
        3    1    3    3  502    0 -0.61363334346E+03 -0.10047519394E+04  0.10228354467E+04  0.15595719609E+04  0.10100000352E+00 0. -1.
       -3    1    3    3    0  502  0.61363334346E+03  0.10047519394E+04 -0.97673281509E+03  0.15297317877E+04  0.10100000352E+00 0.  1.
</event>
<event>
 5   0  0.1176002E-06  0.3111275E+04  0.7818609E-02  0.8212650E-01
       -2   -1    0    0    0  501  0.00000000000E+00  0.00000000000E+00  0.21183071705E+04  0.21183071705E+04  0.25500000920E-02 0.  1.
        2   -1    0    0  501    0  0.00000000000E+00  0.00000000000E+00 -0.11424254723E+04  0.11424254723E+04  0.25500000920E-02 0. -1.
    10030    2    1    2    0    0  0.00000000000E+00  0.00000000000E+00  0.97588169820E+03  0.32607326427E+04  0.31112750246E+04 0.  0.
        2    1    3    3  502    0  0.77003122745E+03  0.71966961218E+02 -0.92666926927E+03  0.12069976261E+04  0.25500000920E-02 0. -1.
       -2    1    3    3    0  502 -0.77003122745E+03 -0.71966961218E+02  0.19025509675E+04  0.20537350166E+04  0.25500000920E-02 0.  1.
</event>
<event>
 5   0  0.1176002E-06  0.3092460E+04  0.7818609E-02  0.8217810E-01
        2   -1    0    0  501    0  0.00000000000E+00  0.00000000000E+00  0.16369682961E+04  0.16369682961E+04  0.25500000920E-02 0.  1.
       -2   -1    0    0    0  501  0.00000000000E+00  0.00000000000E+00 -0.14605209495E+04  0.14605209495E+04  0.25500000920E-02 0. -1.
    10030    2    1    2    0    0  0.00000000000E+00  0.00000000000E+00  0.17644734662E+03  0.30974892456E+04  0.30924595326E+04 0.  0.
        2    1    3    3  502    0  0.12395823812E+03 -0.29255802218E+03  0.16039167163E+04  0.16350855249E+04  0.25500000920E-02 0.  1.
       -2    1    3    3    0  502 -0.12395823812E+03  0.29255802218E+03 -0.14274693696E+04  0.14624037207E+04  0.25500000920E-02 0. -1.
</event>
<event>
 5   0  0.1237580E-06  0.3104793E+04  0.7818609E-02  0.8214424E-01
       -2   -1    0    0    0  501  0.00000000000E+00  0.00000000000E+00  0.13596986560E+04  0.13596986560E+04  0.25500000920E-02 0. -1.
        2   -1    0    0  501    0  0.00000000000E+00  0.00000000000E+00 -0.17724042073E+04  0.17724042073E+04  0.25500000920E-02 0.  1.
    10030    2    1    2    0    0  0.00000000000E+00  0.00000000000E+00 -0.41270555132E+03  0.31321028633E+04  0.31047934672E+04 0.  0.
        4    1    3    3  502    0 -0.55822230056E+03  0.14410740245E+04 -0.35470931955E+03  0.15855998219E+04  0.12699999809E+01 0. -1.
       -4    1    3    3    0  502  0.55822230056E+03 -0.14410740245E+04 -0.57996231774E+02  0.15465030413E+04  0.12699999809E+01 0.  1.
</event>
<event>
 5   0  0.1200286E-06  0.3006175E+04  0.7818609E-02  0.8241970E-01
        2   -1    0    0  501    0  0.00000000000E+00  0.00000000000E+00  0.22671059614E+04  0.22671059614E+04  0.25500000920E-02 0.  1.
       -2   -1    0    0    0  501  0.00000000000E+00  0.00000000000E+00 -0.99654449272E+03  0.99654449272E+03  0.25500000920E-02 0. -1.
    10030    2    1    2    0    0  0.00000000000E+00  0.00000000000E+00  0.12705614687E+04  0.32636504541E+04  0.30061749518E+04 0.  0.
        5    1    3    3  502    0  0.70693589437E+03 -0.34844975752E+03  0.20247731546E+04  0.21727641404E+04  0.46999998093E+01 0.  1.
       -5    1    3    3    0  502 -0.70693589437E+03  0.34844975752E+03 -0.75421168592E+03  0.10908863137E+04  0.46999998093E+01 0. -1.
</event>
<event>
 5   0  0.1258262E-06  0.3110810E+04  0.7818609E-02  0.8212777E-01
       -2   -1    0    0    0  501  0.00000000000E+00  0.00000000000E+00  0.10718551515E+04  0.10718551515E+04  0.25500000920E-02 0.  1.
        2   -1    0    0  501    0  0.00000000000E+00  0.00000000000E+00 -0.22571008181E+04  0.22571008181E+04  0.25500000920E-02 0. -1.
    10030    2    1    2    0    0  0.00000000000E+00  0.00000000000E+00 -0.11852456666E+04  0.33289559696E+04  0.31108102734E+04 0.  0.
        1    1    3    3  502    0 -0.53046656753E+03  0.14621359689E+04 -0.58514968096E+03  0.16618172343E+04  0.50400001928E-02 0. -1.
       -1    1    3    3    0  502  0.53046656753E+03 -0.14621359689E+04 -0.60009598564E+03  0.16671387354E+04  0.50400001928E-02 0.  1.
</event>
<event>
 5   0  0.1200286E-06  0.3050916E+04  0.7818609E-02  0.8229339E-01
        2   -1    0    0  501    0  0.00000000000E+00  0.00000000000E+00  0.31465426988E+04  0.31465426988E+04  0.25500000920E-02 0. -1.
       -2   -1    0    0    0  501  0.00000000000E+00  0.00000000000E+00 -0.73954874217E+03  0.73954874218E+03  0.25500000920E-02 0.  1.
    10030    2    1    2    0    0  0.00000000000E+00  0.00000000000E+00  0.24069939566E+04  0.38860914410E+04  0.30509157282E+04 0.  0.
        5    1    3    3  502    0  0.75134240938E+03 -0.12970739812E+04  0.84303976571E+03  0.17197832611E+04  0.46999998093E+01 0.  1.
       -5    1    3    3    0  502 -0.75134240938E+03  0.12970739812E+04  0.15639541909E+04  0.21663081798E+04  0.46999998093E+01 0. -1.
</event>
<event>
 5   0  0.4219337E-07  0.3080153E+04  0.7818609E-02  0.8221206E-01
       -1   -1    0    0    0  501  0.00000000000E+00  0.00000000000E+00  0.29655346948E+04  0.29655346948E+04  0.50400001928E-02 0. -1.
        1   -1    0    0  501    0  0.00000000000E+00  0.00000000000E+00 -0.79980012337E+03  0.79980012338E+03  0.50400001928E-02 0.  1.
    10030    2    1    2    0    0  0.00000000000E+00  0.00000000000E+00  0.21657345715E+04  0.37653348182E+04  0.30801526032E+04 0.  0.
        4    1    3    3  502    0  0.48132317189E+03 -0.97776991777E+03 -0.24737448425E+03  0.11175427313E+04  0.12699999809E+01 0.  1.
       -4    1    3    3    0  502 -0.48132317189E+03  0.97776991777E+03  0.24131090557E+04  0.26477920869E+04  0.12699999809E+01 0. -1.
</event>
<event>
 5   0  0.3935852E-07  0.3045895E+04  0.7818609E-02  0.8230745E-01
       -1   -1    0    0    0  501  0.00000000000E+00  0.00000000000E+00  0.16525724285E+04  0.16525724285E+04  0.50400001928E-02 0. -1.
        1   -1    0    0  501    0  0.00000000000E+00  0.00000000000E+00 -0.14034900745E+04  0.14034900745E+04  0.50400001928E-02 0.  1.
    10030    2    1    2    0    0  0.00000000000E+00  0.00000000000E+00  0.24908235395E+03  0.30560625030E+04  0.30458949429E+04 0.  0.
        5    1    3    3  502    0  0.50341001363E+03  0.50890073228E+03 -0.12241726718E+04  0.14181052209E+04  0.46999998093E+01 0.  1.
       -5    1    3    3    0  502 -0.50341001363E+03 -0.50890073228E+03  0.14732550258E+04  0.16379572821E+04  0.46999998093E+01 0. -1.
</event>
<event>
 5   0  0.1237580E-06  0.3142300E+04  0.7818609E-02  0.8204224E-01
       -2   -1    0    0    0  501  0.00000000000E+00  0.00000000000E+00  0.13848659112E+04  0.13848659112E+04  0.25500000920E-02 0. -1.
        2   -1    0    0  501    0  0.00000000000E+00  0.00000000000E+00 -0.17824924898E+04  0.17824924898E+04  0.25500000920E-02 0.  1.
    10030    2    1    2    0    0  0.00000000000E+00  0.00000000000E+00 -0.39762657862E+03  0.31673584010E+04  0.31423004860E+04 0.  0.
        4    1    3    3  502    0 -0.39019645772E+03  0.50649430432E+03 -0.16454309741E+04  0.17652859427E+04  0.12699999809E+01 0.  1.
       -4    1    3    3    0  502  0.39019645772E+03 -0.50649430432E+03  0.12478043955E+04  0.14020724583E+04  0.12699999809E+01 0. -1.
</event>
<event>
 5   0  0.1176002E-06  0.3121645E+04  0.7818609E-02  0.8209823E-01
       -2   -1    0    0    0  501  0.00000000000E+00  0.00000000000E+00  0.23499330398E+04  0.23499330398E+04  0.25500000920E-02 0.  1.
        2   -1    0    0  501    0  0.00000000000E+00  0.00000000000E+00 -0.10366960847E+04  0.10366960847E+04  0.25500000920E-02 0. -1.
    10030    2    1    2    0    0  0.00000000000E+00  0.00000000000E+00  0.13132369551E+04  0.33866291245E+04  0.31216446830E+04 0.  0.
        2    1    3    3  502    0 -0.60505970130E+03 -0.46891048278E+03  0.21322998029E+04  0.22655411566E+04  0.25500000920E-02 0.  1.
       -2    1    3    3    0  502  0.60505970130E+03  0.46891048278E+03 -0.81906284783E+03  0.11210879679E+04  0.25500000920E-02 0. -1.
</event>
<event>
 5   0  0.3935852E-07  0.3089282E+04  0.7818609E-02  0.8218686E-01
       -1   -1    0    0    0  501  0.00000000000E+00  0.00000000000E+00  0.12289029628E+04  0.12289029628E+04  0.50400001928E-02 0.  1.
        1   -1    0    0  501    0  0.00000000000E+00  0.00000000000E+00 -0.19415006876E+04  0.19415006876E+04  0.50400001928E-02 0. -1.
    10030    2    1    2    0    0  0.00000000000E+00  0.00000000000E+00 -0.71259772475E+03  0.31704036504E+04  0.30892820831E+04 0.  0.
        5    1    3    3  502    0 -0.74304588476E+02 -0.75480921648E+03  0.10246339121E+04  0.12748156215E+04  0.46999998093E+01 0.  1.
       -5    1    3    3    0  502  0.74304588476E+02  0.75480921648E+03 -0.17372316368E+04  0.18955880289E+04  0.46999998093E+01 0. -1.
</event>
<event>
 5   0  0.4219337E-07  0.3063947E+04  0.7818609E-02  0.8225702E-01
       -1   -1    0    0    0  501  0.00000000000E+00  0.00000000000E+00  0.12386462156E+04  0.12386462156E+04  0.50400001928E-02 0.  1.
        1   -1    0    0  501    0  0.00000000000E+00  0.00000000000E+00 -0.18947647308E+04  0.18947647308E+04  0.50400001928E-02 0. -1.
    10030    2    1    2    0    0  0.00000000000E+00  0.00000000000E+00 -0.65611851520E+03  0.31334109464E+04  0.30639472341E+04 0.  0.
        4    1    3    3  502    0  0.11857912668E+04 -0.93678086087E+03 -0.58532206162E+03  0.16205748481E+04  0.12699999809E+01 0. -1.
       -4    1    3    3    0  502 -0.11857912668E+04  0.93678086087E+03 -0.70796453581E+02  0.15128360983E+04  0.12699999809E+01 0.  1.
</event>
<event>
 5   0  0.1200286E-06  0.3105515E+04  0.7818609E-02  0.8214226E-01
        2   -1    0    0  501    0  0.00000000000E+00  0.00000000000E+00  0.30823518888E+04  0.30823518888E+04  0.25500000920E-02 0.  1.
       -2   -1    0    0    0  501  0.00000000000E+00  0.00000000000E+00 -0.78221327109E+03  0.78221327109E+03  0.25500000920E-02 0. -1.
    10030    2    1    2    0    0  0.00000000000E+00  0.00000000000E+00  0.23001386177E+04  0.38645651598E+04  0.31055154507E+04 0.  0.
        5    1    3    3  502    0  0.14146765600E+04 -0.32600997946E+02  0.35455316311E+03  0.14588017788E+04  0.46999998093E+01 0. -1.
       -5    1    3    3    0  502 -0.14146765600E+04  0.32600997946E+02  0.19455854546E+04  0.24057633810E+04  0.46999998093E+01 0.  1.
</event>
<event>
 5   0  0.4134019E-07  0.3110732E+04  0.7818609E-02  0.8212799E-01
       -1   -1    0    0    0  501  0.00000000000E+00  0.00000000000E+00  0.15427656560E+04  0.15427656560E+04  0.50400001928E-02 0. -1.
        1   -1    0    0  501    0  0.00000000000E+00  0.00000000000E+00 -0.15680689508E+04  0.15680689508E+04  0.50400001928E-02 0.  1.
    10030    2    1    2    0    0  0.00000000000E+00  0.00000000000E+00 -0.25303294826E+02  0.31108346067E+04  0.31107316975E+04 0.  0.
        2    1    3    3  502    0  0.22574395005E+03  0.10308861267E+03 -0.15481422269E+04  0.15679068683E+04  0.25500000920E-02 0.  1.
       -2    1    3    3    0  502 -0.22574395005E+03 -0.10308861267E+03  0.15228389321E+04  0.15429277384E+04  0.25500000920E-02 0. -1.
</event>
<event>
 5   0  0.4173905E-07  0.3076809E+04  0.7818609E-02  0.8222131E-01
        1   -1    0    0  501    0  0.00000000000E+00  0.00000000000E+00  0.15515881484E+04  0.15515881484E+04  0.50400001928E-02 0. -1.
       -1   -1    0    0    0  501  0.00000000000E+00  0.00000000000E+00 -0.15253333234E+04  0.15253333234E+04  0.50400001928E-02 0.  1.
    10030    2    1    2    0    0  0.00000000000E+00  0.00000000000E+00  0.26254825011E+02  0.30769214718E+04  0.30768094559E+04 0.  0.
        3    1    3    3  502    0 -0.14676257042E+04  0.26674111175E+02  0.47363563342E+03  0.15423901709E+04  0.10100000352E+00 0. -1.
       -3    1    3    3    0  502  0.14676257042E+04 -0.26674111175E+02 -0.44738080841E+03  0.15345313010E+04  0.10100000352E+00 0.  1.
</event>
<event>
 5   0  0.4330395E-07  0.3170676E+04  0.7818609E-02  0.8196605E-01
       -1   -1    0    0    0  501  0.00000000000E+00  0.00000000000E+00  0.85520366189E+03  0.85520366191E+03  0.50400001928E-02 0.  1.
        1   -1    0    0  501    0  0.00000000000E+00  0.00000000000E+00 -0.29388289559E+04  0.29388289559E+04  0.50400001928E-02 0. -1.
    10030    2    1    2    0    0  0.00000000000E+00  0.00000000000E+00 -0.20836252940E+04  0.37940326178E+04  0.31706764482E+04 0.  0.
        1    1    3    3  502    0  0.10439670387E+03  0.14162282554E+04 -0.19848851738E+03  0.14338754600E+04  0.50400001928E-02 0.  1.
       -1    1    3    3    0  502 -0.10439670387E+03 -0.14162282554E+04 -0.18851367766E+04  0.23601571579E+04  0.50400001928E-02 0. -1.
</event>
<event>
 5   0  0.1258262E-06  0.3115005E+04  0.7818609E-02  0.8211632E-01
        2   -1    0    0  501    0  0.00000000000E+00  0.00000000000E+00  0.16802393752E+04  0.16802393752E+04  0.25500000920E-02 0. -1.
       -2   -1    0    0    0  501  0.00000000000E+00  0.00000000000E+00 -0.14437309972E+04  0.14437309972E+04  0.25500000920E-02 0.  1.
    10030    2    1    2    0    0  0.00000000000E+00  0.00000000000E+00  0.23650837806E+03  0.31239703724E+04  0.31150047632E+04 0.  0.
        1    1    3    3  502    0 -0.85350152482E+03  0.10931207364E+04 -0.59261306740E+03  0.15081671144E+04  0.50400001928E-02 0.  1.
       -1    1    3    3    0  502  0.85350152482E+03 -0.10931207364E+04  0.82912144546E+03  0.16158032580E+04  0.50400001928E-02 0. -1.
</event>
<event>
 5   0  0.1193123E-06  0.3114044E+04  0.7818609E-02  0.8211894E-01
       -2   -1    0    0    0  501  0.00000000000E+00  0.00000000000E+00  0.14722847788E+04  0.14722847788E+04  0.25500000920E-02 0. -1.
        2   -1    0    0  501    0  0.00000000000E+00  0.00000000000E+00 -0.16466360570E+04  0.16466360570E+04  0.25500000920E-02 0.  1.
    10030    2    1    2    0    0  0.00000000000E+00  0.00000000000E+00 -0.17435127823E+03  0.31189208358E+04  0.31140438038E+04 0.  0.
        3    1    3    3  502    0  0.39869043062E+03 -0.44620581722E+03  0.13525259586E+04  0.14789794352E+04  0.10100000352E+00 0. -1.
       -3    1    3    3    0  502 -0.39869043062E+03  0.44620581722E+03 -0.15268772369E+04  0.16399414006E+04  0.10100000352E+00 0.  1.
</event>
<event>
 5   0  0.1200286E-06  0.3101172E+04  0.7818609E-02  0.8215416E-01
       -2   -1    0    0    0  501  0.00000000000E+00  0.00000000000E+00  0.19004843350E+04  0.19004843350E+04  0.25500000920E-02 0. -1.
        2   -1    0    0  501    0  0.00000000000E+00  0.00000000000E+00 -0.12651076304E+04  0.12651076304E+04  0.25500000920E-02 0.  1.
    10030    2    1    2    0    0  0.00000000000E+00  0.00000000000E+00  0.63537670451E+03  0.31655919654E+04  0.31011721872E+04 0.  0.
        5    1    3    3  502    0 -0.29287852920E+03 -0.40175897889E+03  0.18169067467E+04  0.18837091936E+04  0.46999998093E+01 0. -1.
       -5    1    3    3    0  502  0.29287852920E+03  0.40175897889E+03 -0.11815300422E+04  0.12818827718E+04  0.46999998093E+01 0.  1.
</event>
<event>
 5   0  0.1237580E-06  0.3092344E+04  0.7818609E-02  0.8217842E-01
       -2   -1    0    0    0  501  0.00000000000E+00  0.00000000000E+00  0.12578030383E+04  0.12578030383E+04  0.25500000920E-02 0. -1.
        2   -1    0    0  501    0  0.00000000000E+00  0.00000000000E+00 -0.19006537665E+04  0.19006537665E+04  0.25500000920E-02 0.  1.
    10030    2    1    2    0    0  0.00000000000E+00  0.00000000000E+00 -0.64285072816E+03  0.31584568048E+04  0.30923441479E+04 0.  0.
        4    1    3    3  502    0  0.10619379375E+04  0.63785780753E+03  0.62359723066E+03  0.13868849573E+04  0.12699999809E+01 0. -1.
       -4    1    3    3    0  502 -0.10619379375E+04 -0.63785780753E+03 -0.12664479588E+04  0.17715718475E+04  0.12699999809E+01 0.  1.
</event>
<event>
 5   0  0.1258262E-06  0.3101777E+04  0.7818609E-02  0.8215250E-01
        2   -1    0    0  501    0  0.00000000000E+00  0.00000000000E+00  0.16212378916E+04  0.16212378916E+04  0.25500000920E-02 0.  1.
       -2   -1    0    0    0  501  0.00000000000E+00  0.00000000000E+00 -0.14835921763E+04  0.14835921763E+04  0.25500000920E-02 0. -1.
    10030    2    1    2    0    0  0.00000000000E+00  0.00000000000E+00  0.13764571525E+03  0.31048300679E+04  0.31017774594E+04 0.  0.
        1    1    3    3  502    0  0.15307378386E+04  0.72550095835E+02  0.30745631362E+03  0.15629943159E+04  0.50400001928E-02 0.  1.
       -1    1    3    3    0  502 -0.15307378386E+04 -0.72550095835E+02 -0.16981059837E+03  0.15418357520E+04  0.50400001928E-02 0. -1.
</event>
<event>
 5   0  0.4134019E-07  0.3096078E+04  0.7818609E-02  0.8216815E-01
       -1   -1    0    0    0  501  0.00000000000E+00  0.00000000000E+00  0.18254273059E+04  0.18254273059E+04  0.50400001928E-02 0. -1.
        1   -1    0    0  501    0  0.00000000000E+00  0.00000000000E+00 -0.13128021300E+04  0.13128021300E+04  0.50400001928E-02 0.  1.
    10030    2    1    2    0    0  0.00000000000E+00  0.00000000000E+00  0.51262517591E+03  0.31382294359E+04  0.30960780709E+04 0.  0.
        2    1    3    3  502    0 -0.11152420017E+04 -0.86754683740E+03  0.89739677115E+03  0.16738348791E+04  0.25500000920E-02 0. -1.
       -2    1    3    3    0  502  0.11152420017E+04  0.86754683740E+03 -0.38477159523E+03  0.14643945568E+04  0.25500000920E-02 0.  1.
</event>
<event>
 5   0  0.4173905E-07  0.3098729E+04  0.7818609E-02  0.8216087E-01
        1   -1    0    0  501    0  0.00000000000E+00  0.00000000000E+00  0.23949446734E+04  0.23949446734E+04  0.50400001928E-02 0. -1.
       -1   -1    0    0    0  501  0.00000000000E+00  0.00000000000E+00 -0.10023322943E+04  0.10023322944E+04  0.50400001928E-02 0.  1.
    10030    2    1    2    0    0  0.00000000000E+00  0.00000000000E+00  0.13926123791E+04  0.33972769678E+04  0.30987290229E+04 0.  0.
        3    1    3    3  502    0  0.92696852156E+03 -0.12107932575E+04  0.39558080142E+03  0.15753650793E+04  0.10100000352E+00 0.  1.
       -3    1    3    3    0  502 -0.92696852156E+03  0.12107932575E+04  0.99703157765E+03  0.18219118885E+04  0.10100000352E+00 0. -1.
</event>
<event>
 5   0  0.1193123E-06  0.3094252E+04  0.7818609E-02  0.8217317E-01
        2   -1    0    0  501    0  0.00000000000E+00  0.00000000000E+00  0.17659069845E+04  0.17659069845E+04  0.25500000920E-02 0.  1.
       -2   -1    0    0    0  501  0.00000000000E+00  0.00000000000E+00 -0.13554500204E+04  0.13554500204E+04  0.25500000920E-02 0. -1.
    10030    2    1    2    0    0  0.00000000000E+00  0.00000000000E+00  0.41045696409E+03  0.31213570050E+04  0.30942518697E+04 0.  0.
        3    1    3    3  502    0  0.16916386689E+03 -0.11678979250E+04  0.12144908925E+04  0.16933960302E+04  0.10100000352E+00 0.  1.
       -3    1    3    3    0  502 -0.16916386689E+03  0.11678979250E+04 -0.80403392838E+03  0.14279609747E+04  0.10100000352E+00 0. -1.
</event>
<event>
 5   0  0.1193123E-06  0.3100259E+04  0.7818609E-02  0.8215667E-01
        2   -1    0    0  501    0  0.00000000000E+00  0.00000000000E+00  0.22167732179E+04  0.22167732179E+04  0.25500000920E-02 0. -1.
       -2   -1    0    0    0  501  0.00000000000E+00  0.00000000000E+00 -0.10839632521E+04  0.10839632521E+04  0.25500000920E-02 0.  1.
    10030    2    1    2    0    0  0.00000000000E+00  0.00000000000E+00  0.11328099658E+04  0.33007364701E+04  0.31002585096E+04 0.  0.
        3    1    3    3  502    0  0.54118626046E+03  0.88935920008E+03 -0.65636549797E+03  0.12307144398E+04  0.10100000352E+00 0. -1.
       -3    1    3    3    0  502 -0.54118626046E+03 -0.88935920008E+03  0.17891754638E+04  0.20700220302E+04  0.10100000352E+00 0.  1.
</event>
<event>
 5   0  0.4219337E-07  0.3096015E+04  0.7818609E-02  0.8216832E-01
        1   -1    0    0  501    0  0.00000000000E+00  0.00000000000E+00  0.18954974440E+04  0.18954974440E+04  0.50400001928E-02 0.  1.
       -1   -1    0    0    0  501  0.00000000000E+00  0.00000000000E+00 -0.12642210034E+04  0.12642210034E+04  0.50400001928E-02 0. -1.
    10030    2    1    2    0    0  0.00000000000E+00  0.00000000000E+00  0.63127644062E+03  0.31597184475E+04  0.30960152976E+04 0.  0.
        4    1    3    3  502    0  0.12633111415E+04 -0.19376964021E+03 -0.57573085495E+03  0.14017736422E+04  0.12699999809E+01 0. -1.
       -4    1    3    3    0  502 -0.12633111415E+04  0.19376964021E+03  0.12070072956E+04  0.17579448052E+04  0.12699999809E+01 0.  1.
</event>
<event>
 5   0  0.4330395E-07  0.3102426E+04  0.7818609E-02  0.8215072E-01
        1   -1    0    0  501    0  0.00000000000E+00  0.00000000000E+00  0.18853686088E+04  0.18853686088E+04  0.50400001928E-02 0.  1.
       -1   -1    0    0    0  501  0.00000000000E+00  0.00000000000E+00 -0.12762820375E+04  0.12762820375E+04  0.50400001928E-02 0. -1.
    10030    2    1    2    0    0  0.00000000000E+00  0.00000000000E+00  0.60908657135E+03  0.31616506463E+04  0.31024262051E+04 0.  0.
        1    1    3    3  502    0  0.92069516865E+03 -0.47242610365E+03  0.14821966229E+04  0.18076982176E+04  0.50400001928E-02 0.  1.
       -1    1    3    3    0  502 -0.92069516865E+03  0.47242610365E+03 -0.87311005156E+03  0.13539524287E+04  0.50400001928E-02 0. -1.
</event>
<event>
 5   0  0.1200286E-06  0.3073633E+04  0.7818609E-02  0.8223012E-01
       -2   -1    0    0    0  501  0.00000000000E+00  0.00000000000E+00  0.20414614204E+04  0.20414614204E+04  0.25500000920E-02 0.  1.
        2   -1    0    0  501    0  0.00000000000E+00  0.00000000000E+00 -0.11569185851E+04  0.11569185851E+04  0.25500000920E-02 0. -1.
    10030    2    1    2    0    0  0.00000000000E+00  0.00000000000E+00  0.88454283530E+03  0.31983800054E+04  0.30736328069E+04 0.  0.
        5    1    3    3  502    0 -0.14289255694E+04 -0.12947712183E+03  0.10152461713E+04  0.17576516965E+04  0.46999998093E+01 0.  1.
       -5    1    3    3    0  502  0.14289255694E+04  0.12947712183E+03 -0.13070333595E+03  0.14407283089E+04  0.46999998093E+01 0. -1.
</event>
<event>
 5   0  0.4330395E-07  0.3086721E+04  0.7818609E-02  0.8219392E-01
        1   -1    0    0  501    0  0.00000000000E+00  0.00000000000E+00  0.17032943612E+04  0.17032943612E+04  0.50400001928E-02 0.  1.
       -1   -1    0    0    0  501  0.00000000000E+00  0.00000000000E+00 -0.13984439811E+04  0.13984439812E+04  0.50400001928E-02 0. -1.
    10030    2    1    2    0    0  0.00000000000E+00  0.00000000000E+00  0.30485038005E+03  0.31017383424E+04  0.30867210743E+04 0.  0.
        1    1    3    3  502    0 -0.16043021182E+03  0.27086648259E+03  0.16706880151E+04  0.17000896882E+04  0.50400001928E-02 0.  1.
       -1    1    3    3    0  502  0.16043021182E+03 -0.27086648259E+03 -0.13658376350E+04  0.14016486541E+04  0.50400001928E-02 0. -1.
</event>
<event>
 5   0  0.4330395E-07  0.3140925E+04  0.7818609E-02  0.8204595E-01
        1   -1    0    0  501    0  0.00000000000E+00  0.00000000000E+00  0.22150608676E+04  0.22150608676E+04  0.50400001928E-02 0. -1.
       -1   -1    0    0    0  501  0.00000000000E+00  0.00000000000E+00 -0.11134467892E+04  0.11134467892E+04  0.50400001928E-02 0.  1.
    10030    2    1    2    0    0  0.00000000000E+00  0.00000000000E+00  0.11016140784E+04  0.33285076569E+04  0.31409249664E+04 0.  0.
        1    1    3    3  502    0 -0.71336318987E+03 -0.13981333035E+04  0.60575581407E+03  0.16824398596E+04  0.50400001928E-02 0. -1.
       -1    1    3    3    0  502  0.71336318987E+03  0.13981333035E+04  0.49585826434E+03  0.16460677973E+04  0.50400001928E-02 0.  1.
</event>
<event>
 5   0  0.1237580E-06  0.3114227E+04  0.7818609E-02  0.8211844E-01
       -2   -1    0    0    0  501  0.00000000000E+00  0.00000000000E+00  0.15658786098E+04  0.15658786098E+04  0.25500000920E-02 0. -1.
        2   -1    0    0  501    0  0.00000000000E+00  0.00000000000E+00 -0.15483971070E+04  0.15483971070E+04  0.25500000920E-02 0.  1.
    10030    2    1    2    0    0  0.00000000000E+00  0.00000000000E+00  0.17481502769E+02  0.31142757169E+04  0.31142266516E+04 0.  0.
        4    1    3    3  502    0  0.51049449438E+03 -0.94696018390E+03  0.11344858425E+04  0.15634570536E+04  0.12699999809E+01 0. -1.
       -4    1    3    3    0  502 -0.51049449438E+03  0.94696018390E+03 -0.11170043397E+04  0.15508186633E+04  0.12699999809E+01 0.  1.
</event>
<event>
 5   0  0.4173905E-07  0.3120148E+04  0.7818609E-02  0.8210230E-01
       -1   -1    0    0    0  501  0.00000000000E+00  0.00000000000E+00  0.99252203462E+03  0.99252203463E+03  0.50400001928E-02 0. -1.
        1   -1    0    0  501    0  0.00000000000E+00  0.00000000000E+00 -0.24521675371E+04  0.24521675371E+04  0.50400001928E-02 0.  1.
    10030    2    1    2    0    0  0.00000000000E+00  0.00000000000E+00 -0.14596455024E+04  0.34446895717E+04  0.31201476331E+04 0.  0.
        3    1    3    3  502    0  0.88614045420E+03 -0.12491486718E+04 -0.40192289341E+03  0.15834011909E+04  0.10100000352E+00 0. -1.
       -3    1    3    3    0  502 -0.88614045420E+03  0.12491486718E+04 -0.10577226090E+04  0.18612883808E+04  0.10100000352E+00 0.  1.
</event>
<event>
 5   0  0.4173905E-07  0.3102775E+04  0.7818609E-02  0.8214977E-01
        1   -1    0    0  501    0  0.00000000000E+00  0.00000000000E+00  0.15469741040E+04  0.15469741040E+04  0.50400001928E-02 0.  1.
       -1   -1    0    0    0  501  0.00000000000E+00  0.00000000000E+00 -0.15558129982E+04  0.15558129982E+04  0.50400001928E-02 0. -1.
    10030    2    1    2    0    0  0.00000000000E+00  0.00000000000E+00 -0.88388942470E+01  0.31027871022E+04  0.31027745125E+04 0.  0.
        3    1    3    3  502    0 -0.12987354702E+04  0.38080842171E+03 -0.76275855326E+03  0.15535538279E+04  0.10100000352E+00 0. -1.
       -3    1    3    3    0  502  0.12987354702E+04 -0.38080842171E+03  0.75391965901E+03  0.15492332742E+04  0.10100000352E+00 0.  1.
</event>
<event>
 5   0  0.4330395E-07  0.3117425E+04  0.7818609E-02  0.8210972E-01
       -1   -1    0    0    0  501  0.00000000000E+00  0.00000000000E+00  0.97186406696E+03  0.97186406697E+03  0.50400001928E-02 0. -1.
        1   -1    0    0  501    0  0.00000000000E+00  0.00000000000E+00 -0.24999216129E+04  0.24999216129E+04  0.50400001928E-02 0.  1.
    10030    2    1    2    0    0  0.00000000000E+00  0.00000000000E+00 -0.15280575459E+04  0.34717856799E+04  0.31174245690E+04 0.  0.
        1    1    3    3  502    0 -0.49182183904E+03 -0.77480383064E+03 -0.21671546186E+04  0.23534589094E+04  0.50400001928E-02 0.  1.
       -1    1    3    3    0  502  0.49182183904E+03  0.77480383064E+03  0.63909707263E+03  0.11183267705E+04  0.50400001928E-02 0. -1.
</event>
<event>
 5   0  0.3935852E-07  0.3086972E+04  0.7818609E-02  0.8219322E-01
        1   -1    0    0  501    0  0.00000000000E+00  0.00000000000E+00  0.11899723059E+04  0.11899723059E+04  0.50400001928E-02 0. -1.
       -1   -1    0    0    0  501  0.00000000000E+00  0.00000000000E+00 -0.20020206651E+04  0.20020206651E+04  0.50400001928E-02 0.  1.
    10030    2    1    2    0    0  0.00000000000E+00  0.00000000000E+00 -0.81204835916E+03  0.31919929710E+04  0.30869720746E+04 0.  0.
        5    1    3    3  502    0 -0.10377615266E+04  0.11396255783E+04 -0.49022935615E+03  0.16174184235E+04  0.46999998093E+01 0. -1.
       -5    1    3    3    0  502  0.10377615266E+04 -0.11396255783E+04 -0.32181900301E+03  0.15745745475E+04  0.46999998093E+01 0.  1.
</event>
<event>
 5   0  0.3935852E-07  0.3101634E+04  0.7818609E-02  0.8215290E-01
       -1   -1    0    0    0  501  0.00000000000E+00  0.00000000000E+00  0.97814957785E+03  0.97814957786E+03  0.50400001928E-02 0.  1.
        1   -1    0    0  501    0  0.00000000000E+00  0.00000000000E+00 -0.24587580468E+04  0.24587580468E+04  0.50400001928E-02 0. -1.
    10030    2    1    2    0    0  0.00000000000E+00  0.00000000000E+00 -0.14806084690E+04  0.34369076247E+04  0.31016338569E+04 0.  0.
        5    1    3    3  502    0  0.68933880151E+03  0.46068724332E+03  0.71193151933E+03  0.10928354394E+04  0.46999998093E+01 0.  1.
       -5    1    3    3    0  502 -0.68933880151E+03 -0.46068724332E+03 -0.21925399883E+04  0.23440721853E+04  0.46999998093E+01 0. -1.
</event>
<event>
 5   0  0.4134019E-07  0.3085315E+04  0.7818609E-02  0.8219780E-01
       -1   -1    0    0    0  501  0.00000000000E+00  0.00000000000E+00  0.26623975516E+04  0.26623975516E+04  0.50400001928E-02 0. -1.
        1   -1    0    0  501    0  0.00000000000E+00  0.00000000000E+00 -0.89385283489E+03  0.89385283490E+03  0.50400001928E-02 0.  1.
    10030    2    1    2    0    0  0.00000000000E+00  0.00000000000E+00  0.17685447167E+04  0.35562503865E+04  0.30853146349E+04 0.  0.
        2    1    3    3  502    0 -0.48203815199E+03  0.70052341993E+03  0.23678644645E+04  0.25159244751E+04  0.25500000920E-02 0. -1.
       -2    1    3    3    0  502  0.48203815199E+03 -0.70052341993E+03 -0.59931974783E+03  0.10403259114E+04  0.25500000920E-02 0.  1.
</event>
<event>
 5   0  0.4134019E-07  0.3181729E+04  0.7818609E-02  0.8193659E-01
        1   -1    0    0  501    0  0.00000000000E+00  0.00000000000E+00  0.24559854004E+04  0.24559854004E+04  0.50400001928E-02 0.  1.
       -1   -1    0    0    0  501  0.00000000000E+00  0.00000000000E+00 -0.10304824438E+04  0.10304824438E+04  0.50400001928E-02 0. -1.
    10030    2    1    2    0    0  0.00000000000E+00  0.00000000000E+00  0.14255029566E+04  0.34864678442E+04  0.31817289874E+04 0.  0.
        2    1    3    3  502    0  0.14434187637E+04 -0.44387933384E+02  0.14440727807E+04  0.20422473435E+04  0.25500000920E-02 0.  1.
       -2    1    3    3    0  502 -0.14434187637E+04  0.44387933384E+02 -0.18569824048E+02  0.14442205007E+04  0.25500000920E-02 0. -1.
</event>
<event>
 5   0  0.4134019E-07  0.3080298E+04  0.7818609E-02  0.8221166E-01
       -1   -1    0    0    0  501  0.00000000000E+00  0.00000000000E+00  0.11316682558E+04  0.11316682558E+04  0.50400001928E-02 0. -1.
        1   -1    0    0  501    0  0.00000000000E+00  0.00000000000E+00 -0.20960724570E+04  0.20960724570E+04  0.50400001928E-02 0.  1.
    10030    2    1    2    0    0  0.00000000000E+00  0.00000000000E+00 -0.96440420125E+03  0.32277407128E+04  0.30802978177E+04 0.  0.
        2    1    3    3  502    0 -0.54183252243E+03  0.14325360188E+04 -0.31221266690E+03  0.15630798690E+04  0.25500000920E-02 0. -1.
       -2    1    3    3    0  502  0.54183252243E+03 -0.14325360188E+04 -0.65219153435E+03  0.16646608438E+04  0.25500000920E-02 0.  1.
</event>
<event>
 5   0  0.1200286E-06  0.3099279E+04  0.7818609E-02  0.8215936E-01
       -2   -1    0    0    0  501  0.00000000000E+00  0.00000000000E+00  0.17838397230E+04  0.17838397230E+04  0.25500000920E-02 0. -1.
        2   -1    0    0  501    0  0.00000000000E+00  0.00000000000E+00 -0.13461874560E+04  0.13461874560E+04  0.25500000920E-02 0.  1.
    10030    2    1    2    0    0  0.00000000000E+00  0.00000000000E+00  0.43765226695E+03  0.31300271790E+04  0.30992790508E+04 0.  0.
        5    1    3    3  502    0 -0.54655987308E+03 -0.72195039220E+03  0.14888477436E+04  0.17425928260E+04  0.46999998093E+01 0. -1.
       -5    1    3    3    0  502  0.54655987308E+03  0.72195039220E+03 -0.10511954767E+04  0.13874343530E+04  0.46999998093E+01 0.  1.
</event>
<event>
 5   0  0.4330395E-07  0.3092801E+04  0.7818609E-02  0.8217716E-01
        1   -1    0    0  501    0  0.00000000000E+00  0.00000000000E+00  0.95323945278E+03  0.95323945279E+03  0.50400001928E-02 0. -1.
       -1   -1    0    0    0  501  0.00000000000E+00  0.00000000000E+00 -0.25086615713E+04  0.25086615713E+04  0.50400001928E-02 0.  1.
    10030    2    1    2    0    0  0.00000000000E+00  0.00000000000E+00 -0.15554221186E+04  0.34619010241E+04  0.30928014378E+04 0.  0.
        1    1    3    3  502    0  0.13275008292E+04 -0.62590937285E+03 -0.23240193961E+03  0.14859447016E+04  0.50400001928E-02 0.  1.
       -1    1    3    3    0  502 -0.13275008292E+04  0.62590937285E+03 -0.13230201789E+04  0.19759563225E+04  0.50400001928E-02 0. -1.
</event>
<event>
 5   0  0.3902375E-07  0.3103292E+04  0.7818609E-02  0.8214835E-01
        3   -1    0    0  501    0  0.00000000000E+00  0.00000000000E+00  0.19054063330E+04  0.19054063357E+04  0.10100000352E+00 0. -1.
       -3   -1    0    0    0  501  0.00000000000E+00  0.00000000000E+00 -0.12635649570E+04  0.12635649610E+04  0.10100000352E+00 0.  1.
    10030    2    1    2    0    0  0.00000000000E+00  0.00000000000E+00  0.64184137601E+03  0.31689712967E+04  0.31032915956E+04 0.  0.
        3    1    3    3  502    0 -0.63757681521E+03 -0.33673758064E+03  0.17239384218E+04  0.18686519435E+04  0.10100000352E+00 0. -1.
       -3    1    3    3    0  502  0.63757681521E+03  0.33673758064E+03 -0.10820970458E+04  0.13003193532E+04  0.10100000352E+00 0.  1.
</event>
<event>
 5   0  0.1200286E-06  0.3098436E+04  0.7818609E-02  0.8216167E-01
       -2   -1    0    0    0  501  0.00000000000E+00  0.00000000000E+00  0.12045741358E+04  0.12045741358E+04  0.25500000920E-02 0. -1.
        2   -1    0    0  501    0  0.00000000000E+00  0.00000000000E+00 -0.19924690265E+04  0.19924690265E+04  0.25500000920E-02 0.  1.
    10030    2    1    2    0    0  0.00000000000E+00  0.00000000000E+00 -0.78789489064E+03  0.31970431623E+04  0.30984361576E+04 0.  0.
        5    1    3    3  502    0  0.64423188267E+03 -0.14001037622E+04 -0.55620759685E+03  0.16385097633E+04  0.46999998093E+01 0.  1.
       -5    1    3    3    0  502 -0.64423188267E+03  0.14001037622E+04 -0.23168729380E+03  0.15585333990E+04  0.46999998093E+01 0. -1.
</event>
<event>
 5   0  0.4219337E-07  0.3025585E+04  0.7818609E-02  0.8236462E-01
        1   -1    0    0  501    0  0.00000000000E+00  0.00000000000E+00  0.15466461545E+04  0.15466461545E+04  0.50400001928E-02 0.  1.
       -1   -1    0    0    0  501  0.00000000000E+00  0.00000000000E+00 -0.14796802642E+04  0.14796802642E+04  0.50400001928E-02 0. -1.
    10030    2    1    2    0    0  0.00000000000E+00  0.00000000000E+00  0.66965890269E+02  0.30263264187E+04  0.30255854247E+04 0.  0.
        4    1    3    3  502    0  0.39856556044E+03 -0.10778392635E+04 -0.95060158922E+03  0.14913876016E+04  0.12699999809E+01 0. -1.
       -4    1    3    3    0  502 -0.39856556044E+03  0.10778392635E+04  0.10175674795E+04  0.15349388171E+04  0.12699999809E+01 0.  1.
</event>
<event>
 5   0  0.1237580E-06  0.3115573E+04  0.7818609E-02  0.8211477E-01
        2   -1    0    0  501    0  0.00000000000E+00  0.00000000000E+00  0.25895427370E+04  0.25895427370E+04  0.25500000920E-02 0. -1.
       -2   -1    0    0    0  501  0.00000000000E+00  0.00000000000E+00 -0.93711465265E+03  0.93711465265E+03  0.25500000920E-02 0.  1.
    10030    2    1    2    0    0  0.00000000000E+00  0.00000000000E+00  0.16524280843E+04  0.35266573896E+04  0.31155727836E+04 0.  0.
        4    1    3    3  502    0  0.26117924911E+03 -0.52355938421E+02  0.25635713578E+04  0.25773737533E+04  0.12699999809E+01 0. -1.
       -4    1    3    3    0  502 -0.26117924911E+03  0.52355938421E+02 -0.91114327352E+03  0.94928363634E+03  0.12699999809E+01 0.  1.
</event>
<event>
 5   0  0.1258262E-06  0.3104422E+04  0.7818609E-02  0.8214525E-01
       -2   -1    0    0    0  501  0.00000000000E+00  0.00000000000E+00  0.14685056013E+04  0.14685056013E+04  0.25500000920E-02 0.  1.
        2   -1    0    0  501    0  0.00000000000E+00  0.00000000000E+00 -0.16406874110E+04  0.16406874110E+04  0.25500000920E-02 0. -1.
    10030    2    1    2    0    0  0.00000000000E+00  0.00000000000E+00 -0.17218180968E+03  0.31091930124E+04  0.31044217839E+04 0.  0.
        1    1    3    3  502    0 -0.13344779899E+04  0.41866142510E+03 -0.76036387697E+03  0.15919365941E+04  0.50400001928E-02 0. -1.
       -1    1    3    3    0  502  0.13344779899E+04 -0.41866142510E+03  0.58818206729E+03  0.15172564182E+04  0.50400001928E-02 0.  1.
</event>
<event>
 5   0  0.4173905E-07  0.3103971E+04  0.7818609E-02  0.8214649E-01
        1   -1    0    0  501    0  0.00000000000E+00  0.00000000000E+00  0.18069193434E+04  0.18069193434E+04  0.50400001928E-02 0. -1.
       -1   -1    0    0    0  501  0.00000000000E+00  0.00000000000E+00 -0.13330196884E+04  0.13330196884E+04  0.50400001928E-02 0.  1.
    10030    2    1    2    0    0  0.00000000000E+00  0.00000000000E+00  0.47389965500E+03  0.31399390319E+04  0.31039710438E+04 0.  0.
        3    1    3    3  502    0 -0.34027299649E+03 -0.89965891544E+02  0.17660139517E+04  0.18007456404E+04  0.10100000352E+00 0. -1.
       -3    1    3    3    0  502  0.34027299649E+03  0.89965891544E+02 -0.12921142967E+04  0.13391933915E+04  0.10100000352E+00 0.  1.
</event>
<event>
 5   0  0.1193123E-06  0.3103013E+04  0.7818609E-02  0.8214912E-01
       -2   -1    0    0    0  501  0.00000000000E+00  0.00000000000E+00  0.15073931149E+04  0.15073931149E+04  0.25500000920E-02 0.  1.
        2   -1    0    0  501    0  0.00000000000E+00  0.00000000000E+00 -0.15969106247E+04  0.15969106247E+04  0.25500000920E-02 0. -1.
    10030    2    1    2    0    0  0.00000000000E+00  0.00000000000E+00 -0.89517509810E+02  0.31043037395E+04  0.31030127816E+04 0.  0.
        3    1    3    3  502    0  0.97419106154E+03 -0.41979803281E+03 -0.11774371300E+04  0.15848144428E+04  0.10100000352E+00 0. -1.
       -3    1    3    3    0  502 -0.97419106154E+03  0.41979803281E+03  0.10879196202E+04  0.15194892968E+04  0.10100000352E+00 0.  1.
</event>
<event>
 5   0  0.4219337E-07  0.3099541E+04  0.7818609E-02  0.8215864E-01
        1   -1    0    0  501    0  0.00000000000E+00  0.00000000000E+00  0.30648723262E+04  0.30648723262E+04  0.50400001928E-02 0.  1.
       -1   -1    0    0    0  501  0.00000000000E+00  0.00000000000E+00 -0.78365021823E+03  0.78365021825E+03  0.50400001928E-02 0. -1.
    10030    2    1    2    0    0  0.00000000000E+00  0.00000000000E+00  0.22812221080E+04  0.38485225444E+04  0.30995405255E+04 0.  0.
        4    1    3    3  502    0  0.14126823646E+04  0.62323606941E+03  0.97546044347E+03  0.18263678028E+04  0.12699999809E+01 0.  1.
       -4    1    3    3    0  502 -0.14126823646E+04 -0.62323606941E+03  0.13057616645E+04  0.20221547416E+04  0.12699999809E+01 0. -1.
</event>
<event>
 5   0  0.1176002E-06  0.3102573E+04  0.7818609E-02  0.8215032E-01
        2   -1    0    0  501    0  0.00000000000E+00  0.00000000000E+00  0.14889875326E+04  0.14889875326E+04  0.25500000920E-02 0. -1.
       -2   -1    0    0    0  501  0.00000000000E+00  0.00000000000E+00 -0.16161920828E+04  0.16161920828E+04  0.25500000920E-02 0.  1.
    10030    2    1    2    0    0  0.00000000000E+00  0.00000000000E+00 -0.12720455022E+03  0.31051796153E+04  0.31025730364E+04 0.  0.
        2    1    3    3  502    0  0.25848722067E+03  0.13372084749E+04  0.67968424491E+03  0.15221408678E+04  0.25500000920E-02 0. -1.
       -2    1    3    3    0  502 -0.25848722067E+03 -0.13372084749E+04 -0.80688879513E+03  0.15830387476E+04  0.25500000920E-02 0.  1.
</event>
<event>
 5   0  0.4219337E-07  0.3099162E+04  0.7818609E-02  0.8215968E-01
       -1   -1    0    0    0  501  0.00000000000E+00  0.00000000000E+00  0.10628499841E+04  0.10628499842E+04  0.50400001928E-02 0.  1.
        1   -1    0    0  501    0  0.00000000000E+00  0.00000000000E+00 -0.22592099712E+04  0.22592099712E+04  0.50400001928E-02 0. -1.
    10030    2    1    2    0    0  0.00000000000E+00  0.00000000000E+00 -0.11963599870E+04  0.33220599553E+04  0.30991620042E+04 0.  0.
        4    1    3    3  502    0  0.11395627553E+04 -0.40643425928E+03 -0.16360128594E+04  0.20347805212E+04  0.12699999809E+01 0. -1.
       -4    1    3    3    0  502 -0.11395627553E+04  0.40643425928E+03  0.43965287244E+03  0.12872794341E+04  0.12699999809E+01 0.  1.
</event>
<event>
 5   0  0.4219337E-07  0.3096571E+04  0.7818609E-02  0.8216680E-01
        1   -1    0    0  501    0  0.00000000000E+00  0.00000000000E+00  0.13303890589E+04  0.13303890589E+04  0.50400001928E-02 0. -1.
       -1   -1    0    0    0  501  0.00000000000E+00  0.00000000000E+00 -0.18018695345E+04  0.18018695345E+04  0.50400001928E-02 0.  1.
    10030    2    1    2    0    0  0.00000000000E+00  0.00000000000E+00 -0.47148047562E+03  0.31322585934E+04  0.30965706931E+04 0.  0.
        4    1    3    3  502    0 -0.86123531126E+03  0.12069037951E+03  0.10599965939E+04  0.13710896474E+04  0.12699999809E+01 0. -1.
       -4    1    3    3    0  502  0.86123531126E+03 -0.12069037951E+03 -0.15314770696E+04  0.17611689461E+04  0.12699999809E+01 0.  1.
</event>
<event>
 5   0  0.4134019E-07  0.3090226E+04  0.7818609E-02  0.8218425E-01
       -1   -1    0    0    0  501  0.00000000000E+00  0.00000000000E+00  0.15404020688E+04  0.15404020688E+04  0.50400001928E-02 0.  1.
        1   -1    0    0  501    0  0.00000000000E+00  0.00000000000E+00 -0.15498384287E+04  0.15498384287E+04  0.50400001928E-02 0. -1.
    10030    2    1    2    0    0  0.00000000000E+00  0.00000000000E+00 -0.94363598446E+01  0.30902404975E+04  0.30902260900E+04 0.  0.
        2    1    3    3  502    0  0.82182748213E+03 -0.38120097742E+03  0.12469504403E+04  0.15412981529E+04  0.25500000920E-02 0.  1.
       -2    1    3    3    0  502 -0.82182748213E+03  0.38120097742E+03 -0.12563868001E+04  0.15489423446E+04  0.25500000920E-02 0. -1.
</event>
<event>
 5   0  0.1176002E-06  0.3093262E+04  0.7818609E-02  0.8217590E-01
       -2   -1    0    0    0  501  0.00000000000E+00  0.00000000000E+00  0.12945537945E+04  0.12945537945E+04  0.25500000920E-02 0. -1.
        2   -1    0    0  501    0  0.00000000000E+00  0.00000000000E+00 -0.18477926951E+04  0.18477926951E+04  0.25500000920E-02 0.  1.
    10030    2    1    2    0    0  0.00000000000E+00  0.00000000000E+00 -0.55323890054E+03  0.31423464896E+04  0.30932617380E+04 0.  0.
        2    1    3    3  502    0 -0.61479973907E+03 -0.96168441449E+03 -0.13368528149E+04  0.17578370462E+04  0.25500000920E-02 0.  1.
       -2    1    3    3    0  502  0.61479973907E+03  0.96168441449E+03  0.78361391435E+03  0.13845094434E+04  0.25500000920E-02 0. -1.
</event>
<event>
 5   0  0.1258262E-06  0.3094323E+04  0.7818609E-02  0.8217298E-01
        2   -1    0    0  501    0  0.00000000000E+00  0.00000000000E+00  0.98477906819E+03  0.98477906819E+03  0.25500000920E-02 0. -1.
       -2   -1    0    0    0  501  0.00000000000E+00  0.00000000000E+00 -0.24307065457E+04  0.24307065457E+04  0.25500000920E-02 0.  1.
    10030    2    1    2    0    0  0.00000000000E+00  0.00000000000E+00 -0.14459274775E+04  0.34154856139E+04  0.30943231422E+04 0.  0.
        1    1    3    3  502    0  0.81722951702E+03  0.50289420130E+02  0.72603908622E+03  0.10943152489E+04  0.50400001928E-02 0. -1.
       -1    1    3    3    0  502 -0.81722951702E+03 -0.50289420130E+02 -0.21719665637E+04  0.23211703650E+04  0.50400001928E-02 0.  1.
</event>
<event>
 5   0  0.4134019E-07  0.3101394E+04  0.7818609E-02  0.8215355E-01
       -1   -1    0    0    0  501  0.00000000000E+00  0.00000000000E+00  0.92062450716E+03  0.92062450717E+03  0.50400001928E-02 0.  1.
        1   -1    0    0  501    0  0.00000000000E+00  0.00000000000E+00 -0.26119891372E+04  0.26119891372E+04  0.50400001928E-02 0. -1.
    10030    2    1    2    0    0  0.00000000000E+00  0.00000000000E+00 -0.16913646301E+04  0.35326136444E+04  0.31013940170E+04 0.  0.
        2    1    3    3  502    0  0.13862714122E+04  0.66361349178E+03 -0.10805841816E+04  0.18787744591E+04  0.25500000920E-02 0. -1.
       -2    1    3    3    0  502 -0.13862714122E+04 -0.66361349178E+03 -0.61078044850E+03  0.16538391853E+04  0.25500000920E-02 0.  1.
</event>
<event>
 5   0  0.1258262E-06  0.3096045E+04  0.7818609E-02  0.8216824E-01
        2   -1    0    0  501    0  0.00000000000E+00  0.00000000000E+00  0.18171600544E+04  0.18171600544E+04  0.25500000920E-02 0. -1.
       -2   -1    0    0    0  501  0.00000000000E+00  0.00000000000E+00 -0.13187469870E+04  0.13187469870E+04  0.25500000920E-02 0.  1.
    10030    2    1    2    0    0  0.00000000000E+00  0.00000000000E+00  0.49841306741E+03  0.31359070413E+04  0.30960454432E+04 0.  0.
        1    1    3    3  502    0 -0.73659862376E+02  0.65561553012E+03  0.16676354918E+04  0.17933950017E+04  0.50400001928E-02 0. -1.
       -1    1    3    3    0  502  0.73659862376E+02 -0.65561553012E+03 -0.11692224244E+04  0.13425120396E+04  0.50400001928E-02 0.  1.
</event>
<event>
 5   0  0.4330395E-07  0.3119748E+04  0.7818609E-02  0.8210339E-01
       -1   -1    0    0    0  501  0.00000000000E+00  0.00000000000E+00  0.17627304341E+04  0.17627304341E+04  0.50400001928E-02 0. -1.
        1   -1    0    0  501    0  0.00000000000E+00  0.00000000000E+00 -0.13803625165E+04  0.13803625165E+04  0.50400001928E-02 0.  1.
    10030    2    1    2    0    0  0.00000000000E+00  0.00000000000E+00  0.38236791755E+03  0.31430929506E+04  0.31197480782E+04 0.  0.
        1    1    3    3  502    0  0.85441756588E+03  0.11243823674E+04 -0.47630061719E+03  0.14903447128E+04  0.50400001928E-02 0.  1.
       -1    1    3    3    0  502 -0.85441756588E+03 -0.11243823674E+04  0.85866853474E+03  0.16527482378E+04  0.50400001928E-02 0. -1.
</event>
<event>
 5   0  0.1200286E-06  0.3100326E+04  0.7818609E-02  0.8215649E-01
        2   -1    0    0  501    0  0.00000000000E+00  0.00000000000E+00  0.26315241901E+04  0.26315241901E+04  0.25500000920E-02 0.  1.
       -2   -1    0    0    0  501  0.00000000000E+00  0.00000000000E+00 -0.91316081523E+03  0.91316081523E+03  0.25500000920E-02 0. -1.
    10030    2    1    2    0    0  0.00000000000E+00  0.00000000000E+00  0.17183633749E+04  0.35446850054E+04  0.31003256440E+04 0.  0.
        5    1    3    3  502    0 -0.40988730292E+03  0.42383293274E+02  0.25677489392E+04  0.26006077461E+04  0.46999998093E+01 0.  1.
       -5    1    3    3    0  502  0.40988730292E+03 -0.42383293274E+02 -0.84938556426E+03  0.94407725924E+03  0.46999998093E+01 0. -1.
</event>
<event>
 5   0  0.1237580E-06  0.3072112E+04  0.7818609E-02  0.8223433E-01
        2   -1    0    0  501    0  0.00000000000E+00  0.00000000000E+00  0.19605811257E+04  0.19605811257E+04  0.25500000920E-02 0. -1.
       -2   -1    0    0    0  501  0.00000000000E+00  0.00000000000E+00 -0.12034537448E+04  0.12034537448E+04  0.25500000920E-02 0.  1.
    10030    2    1    2    0    0  0.00000000000E+00  0.00000000000E+00  0.75712738086E+03  0.31640348705E+04  0.30721124314E+04 0.  0.
        4    1    3    3  502    0  0.10431037027E+04  0.88515105062E+03  0.10979691573E+04  0.17541652147E+04  0.12699999809E+01 0. -1.
       -4    1    3    3    0  502 -0.10431037027E+04 -0.88515105062E+03 -0.34084177645E+03  0.14098696559E+04  0.12699999809E+01 0.  1.
</event>
<event>
 5   0  0.1237580E-06  0.3096369E+04  0.7818609E-02  0.8216735E-01
        2   -1    0    0  501    0  0.00000000000E+00  0.00000000000E+00  0.15134989833E+04  0.15134989833E+04  0.25500000920E-02 0. -1.
       -2   -1    0    0    0  501  0.00000000000E+00  0.00000000000E+00 -0.15836649401E+04  0.15836649401E+04  0.25500000920E-02 0.  1.
    10030    2    1    2    0    0  0.00000000000E+00  0.00000000000E+00 -0.70165956828E+02  0.30971639233E+04  0.30963690198E+04 0.  0.
        4    1    3    3  502    0 -0.98206817013E+03 -0.41361270133E+03  0.10882994209E+04  0.15231318393E+04  0.12699999809E+01 0. -1.
       -4    1    3    3    0  502  0.98206817013E+03  0.41361270133E+03 -0.11584653777E+04  0.15740320841E+04  0.12699999809E+01 0.  1.
</event>
<event>
 5   0  0.4134019E-07  0.3147930E+04  0.7818609E-02  0.8202706E-01
       -1   -1    0    0    0  501  0.00000000000E+00  0.00000000000E+00  0.98151979791E+03  0.98151979792E+03  0.50400001928E-02 0. -1.
        1   -1    0    0  501    0  0.00000000000E+00  0.00000000000E+00 -0.25240103988E+04  0.25240103988E+04  0.50400001928E-02 0.  1.
    10030    2    1    2    0    0  0.00000000000E+00  0.00000000000E+00 -0.15424906009E+04  0.35055301967E+04  0.31479302257E+04 0.  0.
        2    1    3    3  502    0  0.30326848137E+03  0.14911089031E+04 -0.32304628340E+03  0.15555502029E+04  0.25500000920E-02 0. -1.
       -2    1    3    3    0  502 -0.30326848137E+03 -0.14911089031E+04 -0.12194443175E+04  0.19499799938E+04  0.25500000920E-02 0.  1.
</event>
<event>
 5   0  0.4173905E-07  0.3113465E+04  0.7818609E-02  0.8212052E-01
       -1   -1    0    0    0  501  0.00000000000E+00  0.00000000000E+00  0.20435744646E+04  0.20435744646E+04  0.50400001928E-02 0.  1.
        1   -1    0    0  501    0  0.00000000000E+00  0.00000000000E+00 -0.11858711052E+04  0.11858711052E+04  0.50400001928E-02 0. -1.
    10030    2    1    2    0    0  0.00000000000E+00  0.00000000000E+00  0.85770335947E+03  0.32294455698E+04  0.31134648923E+04 0.  0.
        3    1    3    3  502    0  0.51054147490E+03 -0.55195971343E+03 -0.98504924715E+03  0.12392070660E+04  0.10100000352E+00 0. -1.
       -3    1    3    3    0  502 -0.51054147490E+03  0.55195971343E+03  0.18427526066E+04  0.19902385039E+04  0.10100000352E+00 0.  1.
</event>
<event>
 5   0  0.3935852E-07  0.3119588E+04  0.7818609E-02  0.8210383E-01
        1   -1    0    0  501    0  0.00000000000E+00  0.00000000000E+00  0.23342557609E+04  0.23342557609E+04  0.50400001928E-02 0. -1.
       -1   -1    0    0    0  501  0.00000000000E+00  0.00000000000E+00 -0.10422839438E+04  0.10422839438E+04  0.50400001928E-02 0.  1.
    10030    2    1    2    0    0  0.00000000000E+00  0.00000000000E+00  0.12919718170E+04  0.33765397047E+04  0.31195879859E+04 0.  0.
        5    1    3    3  502    0  0.28830692827E+03 -0.62384614468E+03  0.21615436188E+04  0.22681705851E+04  0.46999998093E+01 0. -1.
       -5    1    3    3    0  502 -0.28830692827E+03  0.62384614468E+03 -0.86957180172E+03  0.11083691197E+04  0.46999998093E+01 0.  1.
</event>
<event>
 5   0  0.1237580E-06  0.3097633E+04  0.7818609E-02  0.8216388E-01
        2   -1    0    0  501    0  0.00000000000E+00  0.00000000000E+00  0.14986128389E+04  0.14986128389E+04  0.25500000920E-02 0.  1.
       -2   -1    0    0    0  501  0.00000000000E+00  0.00000000000E+00 -0.16007019323E+04  0.16007019323E+04  0.25500000920E-02 0. -1.
    10030    2    1    2    0    0  0.00000000000E+00  0.00000000000E+00 -0.10208909343E+03  0.30993147713E+04  0.30976329460E+04 0.  0.
        4    1    3    3  502    0 -0.30805120190E+03  0.12678603273E+04 -0.88604274031E+03  0.15771615970E+04  0.12699999809E+01 0.  1.
       -4    1    3    3    0  502  0.30805120190E+03 -0.12678603273E+04  0.78395364688E+03  0.15221531742E+04  0.12699999809E+01 0. -1.
</event>
<event>
 5   0  0.1200286E-06  0.3100700E+04  0.7818609E-02  0.8215546E-01
       -2   -1    0    0    0  501  0.00000000000E+00  0.00000000000E+00  0.14711029489E+04  0.14711029489E+04  0.25500000920E-02 0. -1.
        2   -1    0    0  501    0  0.00000000000E+00  0.00000000000E+00 -0.16338662484E+04  0.16338662484E+04  0.25500000920E-02 0.  1.
    10030    2    1    2    0    0  0.00000000000E+00  0.00000000000E+00 -0.16276329949E+03  0.31049691974E+04  0.31007002153E+04 0.  0.
        5    1    3    3  502    0 -0.63700549341E+03 -0.92298218993E+03  0.99055524071E+03  0.14962933858E+04  0.46999998093E+01 0. -1.
       -5    1    3    3    0  502  0.63700549341E+03  0.92298218993E+03 -0.11533185402E+04  0.16086758116E+04  0.46999998093E+01 0.  1.
</event>
<event>
 5   0  0.1258262E-06  0.3099994E+04  0.7818609E-02  0.8215740E-01
       -2   -1    0    0    0  501  0.00000000000E+00  0.00000000000E+00  0.13856259710E+04  0.13856259710E+04  0.25500000920E-02 0. -1.
        2   -1    0    0  501    0  0.00000000000E+00  0.00000000000E+00 -0.17338662037E+04  0.17338662037E+04  0.25500000920E-02 0.  1.
    10030    2    1    2    0    0  0.00000000000E+00  0.00000000000E+00 -0.34824023270E+03  0.31194921747E+04  0.30999935755E+04 0.  0.
        1    1    3    3  502    0 -0.55083406430E+02  0.87065531504E+02  0.13821765519E+04  0.13860110422E+04  0.50400001928E-02 0. -1.
       -1    1    3    3    0  502  0.55083406430E+02 -0.87065531504E+02 -0.17304167846E+04  0.17334811325E+04  0.50400001928E-02 0.  1.
</event>
<event>
 5   0  0.1258262E-06  0.3115045E+04  0.7818609E-02  0.8211621E-01
       -2   -1    0    0    0  501  0.00000000000E+00  0.00000000000E+00  0.13397118945E+04  0.13397118945E+04  0.25500000920E-02 0.  1.
        2   -1    0    0  501    0  0.00000000000E+00  0.00000000000E+00 -0.18107449138E+04  0.18107449138E+04  0.25500000920E-02 0. -1.
    10030    2    1    2    0    0  0.00000000000E+00  0.00000000000E+00 -0.47103301932E+03  0.31504568083E+04  0.31150451033E+04 0.  0.
        1    1    3    3  502    0  0.24966826846E+03  0.95489431925E+03  0.98305349914E+03  0.13930368220E+04  0.50400001928E-02 0.  1.
       -1    1    3    3    0  502 -0.24966826846E+03 -0.95489431925E+03 -0.14540865185E+04  0.17574199863E+04  0.50400001928E-02 0. -1.
</event>
<event>
 5   0  0.3902375E-07  0.3094612E+04  0.7818609E-02  0.8217218E-01
       -3   -1    0    0    0  501  0.00000000000E+00  0.00000000000E+00  0.11027358036E+04  0.11027358083E+04  0.10100000352E+00 0.  1.
        3   -1    0    0  501    0  0.00000000000E+00  0.00000000000E+00 -0.21711050187E+04  0.21711050211E+04  0.10100000352E+00 0. -1.
    10030    2    1    2    0    0  0.00000000000E+00  0.00000000000E+00 -0.10683692151E+04  0.32738408293E+04  0.30946116067E+04 0.  0.
        2    1    3    3  502    0  0.47686288979E+03 -0.47804543596E+03  0.93865013727E+03  0.11562827227E+04  0.25500000920E-02 0.  1.
       -2    1    3    3    0  502 -0.47686288979E+03  0.47804543596E+03 -0.20070193523E+04  0.21175581067E+04  0.25500000920E-02 0. -1.
</event>
<event>
 5   0  0.3902375E-07  0.3097927E+04  0.7818609E-02  0.8216307E-01
        3   -1    0    0  501    0  0.00000000000E+00  0.00000000000E+00  0.13916824578E+04  0.13916824615E+04  0.10100000352E+00 0. -1.
       -3   -1    0    0    0  501  0.00000000000E+00  0.00000000000E+00 -0.17240196671E+04  0.17240196701E+04  0.10100000352E+00 0.  1.
    10030    2    1    2    0    0  0.00000000000E+00  0.00000000000E+00 -0.33233720930E+03  0.31157021316E+04  0.30979270088E+04 0.  0.
        4    1    3    3  502    0 -0.60750761977E+03  0.13292860049E+04 -0.68216160287E+03  0.16128895983E+04  0.12699999809E+01 0.  1.
       -4    1    3    3    0  502  0.60750761977E+03 -0.13292860049E+04  0.34982439357E+03  0.15028125333E+04  0.12699999809E+01 0. -1.
</event>
<event>
 5   0  0.1237580E-06  0.3092037E+04  0.7818609E-02  0.8217927E-01
       -2   -1    0    0    0  501  0.00000000000E+00  0.00000000000E+00  0.96596128712E+03  0.96596128712E+03  0.25500000920E-02 0.  1.
        2   -1    0    0  501    0  0.00000000000E+00  0.00000000000E+00 -0.24743983771E+04  0.24743983771E+04  0.25500000920E-02 0. -1.
    10030    2    1    2    0    0  0.00000000000E+00  0.00000000000E+00 -0.15084370900E+04  0.34403596642E+04  0.30920368958E+04 0.  0.
        4    1    3    3  502    0  0.10988447903E+04 -0.72132721607E+03 -0.16597819911E+04  0.21172271245E+04  0.12699999809E+01 0. -1.
       -4    1    3    3    0  502 -0.10988447903E+04  0.72132721607E+03  0.15134490112E+03  0.13231325397E+04  0.12699999809E+01 0.  1.
</event>
<event>
 5   0  0.4219337E-07  0.3101091E+04  0.7818609E-02  0.8215439E-01
        1   -1    0    0  501    0  0.00000000000E+00  0.00000000000E+00  0.12028463983E+04  0.12028463983E+04  0.50400001928E-02 0. -1.
       -1   -1    0    0    0  501  0.00000000000E+00  0.00000000000E+00 -0.19987513925E+04  0.19987513925E+04  0.50400001928E-02 0.  1.
    10030    2    1    2    0    0  0.00000000000E+00  0.00000000000E+00 -0.79590499423E+03  0.32015977908E+04  0.31010907201E+04 0.  0.
        4    1    3    3  502    0  0.31759921964E+03  0.14970650732E+04 -0.14064363156E+03  0.15368328933E+04  0.12699999809E+01 0.  1.
       -4    1    3    3    0  502 -0.31759921964E+03 -0.14970650732E+04 -0.65526136267E+03  0.16647648975E+04  0.12699999809E+01 0. -1.
</event>
<event>
 5   0  0.1237580E-06  0.3113511E+04  0.7818609E-02  0.8212040E-01
       -2   -1    0    0    0  501  0.00000000000E+00  0.00000000000E+00  0.12326776094E+04  0.12326776094E+04  0.25500000920E-02 0.  1.
        2   -1    0    0  501    0  0.00000000000E+00  0.00000000000E+00 -0.19660357424E+04  0.19660357424E+04  0.25500000920E-02 0. -1.
    10030    2    1    2    0    0  0.00000000000E+00  0.00000000000E+00 -0.73335813302E+03  0.31987133518E+04  0.31135113546E+04 0.  0.
        4    1    3    3  502    0 -0.14868984485E+04  0.27032434559E+03 -0.75045792035E+03  0.16873443487E+04  0.12699999809E+01 0. -1.
       -4    1    3    3    0  502  0.14868984485E+04 -0.27032434559E+03  0.17099787327E+02  0.15113690031E+04  0.12699999809E+01 0.  1.
</event>
<event>
 5   0  0.4173905E-07  0.3177039E+04  0.7818609E-02  0.8194908E-01
       -1   -1    0    0    0  501  0.00000000000E+00  0.00000000000E+00  0.12374190228E+04  0.12374190228E+04  0.50400001928E-02 0.  1.
        1   -1    0    0  501    0  0.00000000000E+00  0.00000000000E+00 -0.20392395394E+04  0.20392395394E+04  0.50400001928E-02 0. -1.
    10030    2    1    2    0    0  0.00000000000E+00  0.00000000000E+00 -0.80182051658E+03  0.32766585622E+04  0.31770387458E+04 0.  0.
        3    1    3    3  502    0  0.85326529547E+03  0.48634688980E+03  0.88675717698E+03  0.13232283487E+04  0.10100000352E+00 0.  1.
       -3    1    3    3    0  502 -0.85326529547E+03 -0.48634688980E+03 -0.16885776936E+04  0.19534302135E+04  0.10100000352E+00 0. -1.
</event>
<event>
 5   0  0.4219337E-07  0.3087301E+04  0.7818609E-02  0.8219232E-01
       -1   -1    0    0    0  501  0.00000000000E+00  0.00000000000E+00  0.10332901730E+04  0.10332901730E+04  0.50400001928E-02 0.  1.
        1   -1    0    0  501    0  0.00000000000E+00  0.00000000000E+00 -0.23060863490E+04  0.23060863490E+04  0.50400001928E-02 0. -1.
    10030    2    1    2    0    0  0.00000000000E+00  0.00000000000E+00 -0.12727961760E+04  0.33393765221E+04  0.30873006738E+04 0.  0.
        4    1    3    3  502    0 -0.92392659581E+03 -0.55104069868E+03 -0.18338422322E+04  0.21260915200E+04  0.12699999809E+01 0. -1.
       -4    1    3    3    0  502  0.92392659581E+03  0.55104069868E+03  0.56104605620E+03  0.12132850020E+04  0.12699999809E+01 0.  1.
</event>
<event>
 5   0  0.4134019E-07  0.3103421E+04  0.7818609E-02  0.8214800E-01
        1   -1    0    0  501    0  0.00000000000E+00  0.00000000000E+00  0.30041666180E+04  0.30041666180E+04  0.50400001928E-02 0. -1.
       -1   -1    0    0    0  501  0.00000000000E+00  0.00000000000E+00 -0.80148868941E+03  0.80148868943E+03  0.50400001928E-02 0.  1.
    10030    2    1    2    0    0  0.00000000000E+00  0.00000000000E+00  0.22026779286E+04  0.38056553074E+04  0.31034210578E+04 0.  0.
        2    1    3    3  502    0 -0.21339627345E+03 -0.10549739998E+04  0.24719735147E+04  0.26961381951E+04  0.25500000920E-02 0. -1.
       -2    1    3    3    0  502  0.21339627345E+03  0.10549739998E+04 -0.26929558615E+03  0.11095171123E+04  0.25500000920E-02 0.  1.
</event>
<event>
 5   0  0.1258262E-06  0.3017696E+04  0.7818609E-02  0.8238696E-01
        2   -1    0    0  501    0  0.00000000000E+00  0.00000000000E+00  0.24517973933E+04  0.24517973933E+04  0.25500000920E-02 0. -1.
       -2   -1    0    0    0  501  0.00000000000E+00  0.00000000000E+00 -0.92855243584E+03  0.92855243584E+03  0.25500000920E-02 0.  1.
    10030    2    1    2    0    0  0.00000000000E+00  0.00000000000E+00  0.15232449575E+04  0.33803498291E+04  0.30176961025E+04 0.  0.
        1    1    3    3  502    0 -0.14166103145E+04 -0.38356108064E+03  0.11540335607E+04  0.18670022348E+04  0.50400001928E-02 0.  1.
       -1    1    3    3    0  502  0.14166103145E+04  0.38356108064E+03  0.36921139676E+03  0.15133475943E+04  0.50400001928E-02 0. -1.
</event>
<event>
 5   0  0.4173905E-07  0.3109734E+04  0.7818609E-02  0.8213071E-01
       -1   -1    0    0    0  501  0.00000000000E+00  0.00000000000E+00  0.12187244320E+04  0.12187244320E+04  0.50400001928E-02 0.  1.
        1   -1    0    0  501    0  0.00000000000E+00  0.00000000000E+00 -0.19837231220E+04  0.19837231220E+04  0.50400001928E-02 0. -1.
    10030    2    1    2    0    0  0.00000000000E+00  0.00000000000E+00 -0.76499869002E+03  0.32024475540E+04  0.31097342878E+04 0.  0.
        3    1    3    3  502    0 -0.13701133728E+04 -0.19791705656E+03 -0.11115828562E+04  0.17753867950E+04  0.10100000352E+00 0. -1.
       -3    1    3    3    0  502  0.13701133728E+04  0.19791705656E+03  0.34658416616E+03  0.14270607590E+04  0.10100000352E+00 0.  1.
</event>
<event>
 5   0  0.1193123E-06  0.3095973E+04  0.7818609E-02  0.8216844E-01
       -2   -1    0    0    0  501  0.00000000000E+00  0.00000000000E+00  0.20043306538E+04  0.20043306538E+04  0.25500000920E-02 0.  1.
        2   -1    0    0  501    0  0.00000000000E+00  0.00000000000E+00 -0.11955420738E+04  0.11955420738E+04  0.25500000920E-02 0. -1.
    10030    2    1    2    0    0  0.00000000000E+00  0.00000000000E+00  0.80878857997E+03  0.31998727276E+04  0.30959726268E+04 0.  0.
        3    1    3    3  502    0 -0.48977702221E+03 -0.56923500827E+02  0.19209965790E+04  0.19832674261E+04  0.10100000352E+00 0.  1.
       -3    1    3    3    0  502  0.48977702221E+03  0.56923500827E+02 -0.11122079991E+04  0.12166053016E+04  0.10100000352E+00 0. -1.
</event>
<event>
 5   0  0.1176002E-06  0.3103348E+04  0.7818609E-02  0.8214820E-01
       -2   -1    0    0    0  501  0.00000000000E+00  0.00000000000E+00  0.14070830557E+04  0.14070830557E+04  0.25500000920E-02 0.  1.
        2   -1    0    0  501    0  0.00000000000E+00  0.00000000000E+00 -0.17111227035E+04  0.17111227035E+04  0.25500000920E-02 0. -1.
    10030    2    1    2    0    0  0.00000000000E+00  0.00000000000E+00 -0.30403964786E+03  0.31182057592E+04  0.31033477165E+04 0.  0.
        2    1    3    3  502    0  0.12566960263E+04 -0.36351023783E+03  0.68640144765E+03  0.14773528837E+04  0.25500000920E-02 0.  1.
       -2    1    3    3    0  502 -0.12566960263E+04  0.36351023783E+03 -0.99044109551E+03  0.16408528756E+04  0.25500000920E-02 0. -1.
</event>
<event>
 5   0  0.1237580E-06  0.3108759E+04  0.7818609E-02  0.8213338E-01
        2   -1    0    0  501    0  0.00000000000E+00  0.00000000000E+00  0.14531726076E+04  0.14531726076E+04  0.25500000920E-02 0.  1.
       -2   -1    0    0    0  501  0.00000000000E+00  0.00000000000E+00 -0.16626354515E+04  0.16626354515E+04  0.25500000920E-02 0. -1.
    10030    2    1    2    0    0  0.00000000000E+00  0.00000000000E+00 -0.20946284389E+03  0.31158080591E+04  0.31087594275E+04 0.  0.
        4    1    3    3  502    0  0.76120488716E+03 -0.10494806355E+04 -0.96414408093E+03  0.16156787757E+04  0.12699999809E+01 0. -1.
       -4    1    3    3    0  502 -0.76120488716E+03  0.10494806355E+04  0.75468123704E+03  0.15001292834E+04  0.12699999809E+01 0.  1.
</event>
<event>
 5   0  0.4219337E-07  0.3127650E+04  0.7818609E-02  0.8208190E-01
        1   -1    0    0  501    0  0.00000000000E+00  0.00000000000E+00  0.23308663671E+04  0.23308663671E+04  0.50400001928E-02 0. -1.
       -1   -1    0    0    0  501  0.00000000000E+00  0.00000000000E+00 -0.10492016997E+04  0.10492016997E+04  0.50400001928E-02 0.  1.
    10030    2    1    2    0    0  0.00000000000E+00  0.00000000000E+00  0.12816646674E+04  0.33800680668E+04  0.31276502069E+04 0.  0.
        4    1    3    3  502    0  0.68462593128E+03  0.12932119063E+04  0.44543819511E+02  0.14639315097E+04  0.12699999809E+01 0.  1.
       -4    1    3    3    0  502 -0.68462593128E+03 -0.12932119063E+04  0.12371208479E+04  0.19161365571E+04  0.12699999809E+01 0. -1.
</event>
<event>
 5   0  0.4330395E-07  0.3102741E+04  0.7818609E-02  0.8214986E-01
       -1   -1    0    0    0  501  0.00000000000E+00  0.00000000000E+00  0.17650200864E+04  0.17650200864E+04  0.50400001928E-02 0. -1.
        1   -1    0    0  501    0  0.00000000000E+00  0.00000000000E+00 -0.13635826933E+04  0.13635826934E+04  0.50400001928E-02 0.  1.
    10030    2    1    2    0    0  0.00000000000E+00  0.00000000000E+00  0.40143739306E+03  0.31286027798E+04  0.31027412675E+04 0.  0.
        1    1    3    3  502    0 -0.11114446323E+04  0.49150626383E+03  0.11730503192E+04  0.16890632402E+04  0.50400001928E-02 0. -1.
       -1    1    3    3    0  502  0.11114446323E+04 -0.49150626383E+03 -0.77161292613E+03  0.14395395395E+04  0.50400001928E-02 0.  1.
</event>
<event>
 5   0  0.1237580E-06  0.3095922E+04  0.7818609E-02  0.8216858E-01
        2   -1    0    0  501    0  0.00000000000E+00  0.00000000000E+00  0.13843621209E+04  0.13843621209E+04  0.25500000920E-02 0.  1.
       -2   -1    0    0    0  501  0.00000000000E+00  0.00000000000E+00 -0.17308933427E+04  0.17308933427E+04  0.25500000920E-02 0. -1.
    10030    2    1    2    0    0  0.00000000000E+00  0.00000000000E+00 -0.34653122185E+03  0.31152554636E+04  0.30959219492E+04 0.  0.
        4    1    3    3  502    0  0.64963358765E+01  0.12695464937E+03 -0.17256316673E+04  0.17303080505E+04  0.12699999809E+01 0. -1.
       -4    1    3    3    0  502 -0.64963358765E+01 -0.12695464937E+03  0.13791004455E+04  0.13849474131E+04  0.12699999809E+01 0.  1.
</event>
<event>
 5   0  0.1200286E-06  0.3089379E+04  0.7818609E-02  0.8218659E-01
       -2   -1    0    0    0  501  0.00000000000E+00  0.00000000000E+00  0.12396774147E+04  0.12396774147E+04  0.25500000920E-02 0.  1.
        2   -1    0    0  501    0  0.00000000000E+00  0.00000000000E+00 -0.19247474752E+04  0.19247474752E+04  0.25500000920E-02 0. -1.
    10030    2    1    2    0    0  0.00000000000E+00  0.00000000000E+00 -0.68507006044E+03  0.31644248899E+04  0.30893792089E+04 0.  0.
        5    1    3    3  502    0 -0.36390503262E+03  0.21820816801E+03  0.11788058787E+04  0.12528555651E+04  0.46999998093E+01 0.  1.
       -5    1    3    3    0  502  0.36390503262E+03 -0.21820816801E+03 -0.18638759391E+04  0.19115693249E+04  0.46999998093E+01 0. -1.
</event>
<event>
 5   0  0.4134019E-07  0.3078248E+04  0.7818609E-02  0.8221733E-01
        1   -1    0    0  501    0  0.00000000000E+00  0.00000000000E+00  0.14335721108E+04  0.14335721109E+04  0.50400001928E-02 0. -1.
       -1   -1    0    0    0  501  0.00000000000E+00  0.00000000000E+00 -0.16524472801E+04  0.16524472801E+04  0.50400001928E-02 0.  1.
    10030    2    1    2    0    0  0.00000000000E+00  0.00000000000E+00 -0.21887516926E+03  0.30860193910E+04  0.30782477713E+04 0.  0.
        2    1    3    3  502    0 -0.76304039556E+03 -0.62566032396E+03  0.10747392354E+04  0.14590222446E+04  0.25500000920E-02 0. -1.
       -2    1    3    3    0  502  0.76304039556E+03  0.62566032396E+03 -0.12936144047E+04  0.16269971463E+04  0.25500000920E-02 0.  1.
</event>
<event>
 5   0  0.4173905E-07  0.3094958E+04  0.7818609E-02  0.8217123E-01
       -1   -1    0    0    0  501  0.00000000000E+00  0.00000000000E+00  0.15402284557E+04  0.15402284557E+04  0.50400001928E-02 0. -1.
        1   -1    0    0  501    0  0.00000000000E+00  0.00000000000E+00 -0.15547638713E+04  0.15547638713E+04  0.50400001928E-02 0.  1.
    10030    2    1    2    0    0  0.00000000000E+00  0.00000000000E+00 -0.14535415594E+02  0.30949923270E+04  0.30949581945E+04 0.  0.
        3    1    3    3  502    0  0.96036210830E+03 -0.92810361781E+03 -0.78895391023E+03  0.15511672982E+04  0.10100000352E+00 0.  1.
       -3    1    3    3    0  502 -0.96036210830E+03  0.92810361781E+03  0.77441849464E+03  0.15438250288E+04  0.10100000352E+00 0. -1.
</event>
<event>
 5   0  0.1176002E-06  0.3098084E+04  0.7818609E-02  0.8216264E-01
        2   -1    0    0  501    0  0.00000000000E+00  0.00000000000E+00  0.26120034179E+04  0.26120034179E+04  0.25500000920E-02 0. -1.
       -2   -1    0    0    0  501  0.00000000000E+00  0.00000000000E+00 -0.91865567509E+03  0.91865567510E+03  0.25500000920E-02 0.  1.
    10030    2    1    2    0    0  0.00000000000E+00  0.00000000000E+00  0.16933477428E+04  0.35306590930E+04  0.30980844167E+04 0.  0.
        2    1    3    3  502    0 -0.11548812658E+04  0.54669776218E+03 -0.15133094796E+03  0.12866740990E+04  0.25500000920E-02 0. -1.
       -2    1    3    3    0  502  0.11548812658E+04 -0.54669776218E+03  0.18446786907E+04  0.22439849940E+04  0.25500000920E-02 0.  1.
</event>
<event>
 5   0  0.1237580E-06  0.3120594E+04  0.7818609E-02  0.8210109E-01
        2   -1    0    0  501    0  0.00000000000E+00  0.00000000000E+00  0.11215635980E+04  0.11215635980E+04  0.25500000920E-02 0.  1.
       -2   -1    0    0    0  501  0.00000000000E+00  0.00000000000E+00 -0.21706537537E+04  0.21706537537E+04  0.25500000920E-02 0. -1.
    10030    2    1    2    0    0  0.00000000000E+00  0.00000000000E+00 -0.10490901557E+04  0.32922173518E+04  0.31205936833E+04 0.  0.
        4    1    3    3  502    0 -0.59846186602E+03  0.63002067164E+03  0.84266035514E+03  0.12104382425E+04  0.12699999809E+01 0.  1.
       -4    1    3    3    0  502  0.59846186602E+03 -0.63002067164E+03 -0.18917505108E+04  0.20817791093E+04  0.12699999809E+01 0. -1.
</event>
<event>
 5   0  0.4330395E-07  0.3151350E+04  0.7818609E-02  0.8201785E-01
       -1   -1    0    0    0  501  0.00000000000E+00  0.00000000000E+00  0.11603631790E+04  0.11603631790E+04  0.50400001928E-02 0. -1.
        1   -1    0    0  501    0  0.00000000000E+00  0.00000000000E+00 -0.21396331676E+04  0.21396331676E+04  0.50400001928E-02 0.  1.
    10030    2    1    2    0    0  0.00000000000E+00  0.00000000000E+00 -0.97926998865E+03  0.32999963466E+04  0.31513498975E+04 0.  0.
        1    1    3    3  502    0  0.74011167029E+03  0.22932575435E+02  0.96681893014E+03  0.12177972045E+04  0.50400001928E-02 0. -1.
       -1    1    3    3    0  502 -0.74011167029E+03 -0.22932575435E+02 -0.19460889188E+04  0.20821991421E+04  0.50400001928E-02 0.  1.
</event>
<event>
 5   0  0.4330395E-07  0.3112119E+04  0.7818609E-02  0.8212420E-01
        1   -1    0    0  501    0  0.00000000000E+00  0.00000000000E+00  0.25224093273E+04  0.25224093273E+04  0.50400001928E-02 0. -1.
       -1   -1    0    0    0  501  0.00000000000E+00  0.00000000000E+00 -0.95992372535E+03  0.95992372537E+03  0.50400001928E-02 0.  1.
    10030    2    1    2    0    0  0.00000000000E+00  0.00000000000E+00  0.15624856019E+04  0.34823330527E+04  0.31121186085E+04 0.  0.
        1    1    3    3  502    0  0.24035111372E+03  0.12562402317E+04 -0.21041774779E+03  0.12962190426E+04  0.50400001928E-02 0.  1.
       -1    1    3    3    0  502 -0.24035111372E+03 -0.12562402317E+04  0.17729033497E+04  0.21861140101E+04  0.50400001928E-02 0. -1.
</event>
<event>
 5   0  0.1193123E-06  0.3081703E+04  0.7818609E-02  0.8220777E-01
        2   -1    0    0  501    0  0.00000000000E+00  0.00000000000E+00  0.26369026287E+04  0.26369026287E+04  0.25500000920E-02 0.  1.
       -2   -1    0    0    0  501  0.00000000000E+00  0.00000000000E+00 -0.90038351787E+03  0.90038351788E+03  0.25500000920E-02 0. -1.
    10030    2    1    2    0    0  0.00000000000E+00  0.00000000000E+00  0.17365191109E+04  0.35372861466E+04  0.30817032078E+04 0.  0.
        3    1    3    3  502    0  0.11610740014E+04 -0.91008709387E+03  0.13788490601E+04  0.20193008929E+04  0.10100000352E+00 0.  1.
       -3    1    3    3    0  502 -0.11610740014E+04  0.91008709387E+03  0.35767005074E+03  0.15179852537E+04  0.10100000352E+00 0. -1.
</event>
<event>
 5   0  0.4219337E-07  0.3091095E+04  0.7818609E-02  0.8218186E-01
       -1   -1    0    0    0  501  0.00000000000E+00  0.00000000000E+00  0.11493012176E+04  0.11493012176E+04  0.50400001928E-02 0. -1.
        1   -1    0    0  501    0  0.00000000000E+00  0.00000000000E+00 -0.20784077797E+04  0.20784077798E+04  0.50400001928E-02 0.  1.
    10030    2    1    2    0    0  0.00000000000E+00  0.00000000000E+00 -0.92910656218E+03  0.32277089973E+04  0.30910946876E+04 0.  0.
        4    1    3    3  502    0 -0.39817335498E+03 -0.62564894166E+03  0.95137676034E+03  0.12062744181E+04  0.12699999809E+01 0. -1.
       -4    1    3    3    0  502  0.39817335498E+03  0.62564894166E+03 -0.18804833225E+04  0.20214345792E+04  0.12699999809E+01 0.  1.
</event>
<event>
 5   0  0.4173905E-07  0.3099984E+04  0.7818609E-02  0.8215742E-01
       -1   -1    0    0    0  501  0.00000000000E+00  0.00000000000E+00  0.12595785401E+04  0.12595785401E+04  0.50400001928E-02 0. -1.
        1   -1    0    0  501    0  0.00000000000E+00  0.00000000000E+00 -0.19073641467E+04  0.19073641467E+04  0.50400001928E-02 0.  1.
    10030    2    1    2    0    0  0.00000000000E+00  0.00000000000E+00 -0.64778560656E+03  0.31669426868E+04  0.30999838370E+04 0.  0.
        3    1    3    3  502    0 -0.10620065321E+04  0.58630616655E+03 -0.13095444650E+04  0.17850824942E+04  0.10100000352E+00 0.  1.
       -3    1    3    3    0  502  0.10620065321E+04 -0.58630616655E+03  0.66175885841E+03  0.13818601926E+04  0.10100000352E+00 0. -1.
</event>
<event>
 5   0  0.4330395E-07  0.3101935E+04  0.7818609E-02  0.8215207E-01
        1   -1    0    0  501    0  0.00000000000E+00  0.00000000000E+00  0.15586773630E+04  0.15586773630E+04  0.50400001928E-02 0.  1.
       -1   -1    0    0    0  501  0.00000000000E+00  0.00000000000E+00 -0.15432955696E+04  0.15432955696E+04  0.50400001928E-02 0. -1.
    10030    2    1    2    0    0  0.00000000000E+00  0.00000000000E+00  0.15381793433E+02  0.31019729327E+04  0.31019347955E+04 0.  0.
        1    1    3    3  502    0 -0.24976086984E+03 -0.63393398811E+03  0.14009944565E+04  0.15578954588E+04  0.50400001928E-02 0.  1.
       -1    1    3    3    0  502  0.24976086984E+03  0.63393398811E+03 -0.13856126630E+04  0.15440774739E+04  0.50400001928E-02 0. -1.
</event>
<event>
 5   0  0.4173905E-07  0.3097962E+04  0.7818609E-02  0.8216297E-01
        1   -1    0    0  501    0  0.00000000000E+00  0.00000000000E+00  0.24562371857E+04  0.24562371857E+04  0.50400001928E-02 0. -1.
       -1   -1    0    0    0  501  0.00000000000E+00  0.00000000000E+00 -0.97683665620E+03  0.97683665621E+03  0.50400001928E-02 0.  1.
    10030    2    1    2    0    0  0.00000000000E+00  0.00000000000E+00  0.14794005295E+04  0.34330738419E+04  0.30979622460E+04 0.  0.
        3    1    3    3  502    0  0.10098773251E+04  0.66992683893E+03 -0.32937715694E+03  0.12558437414E+04  0.10100000352E+00 0.  1.
       -3    1    3    3    0  502 -0.10098773251E+04 -0.66992683893E+03  0.18087776864E+04  0.21772301005E+04  0.10100000352E+00 0. -1.
</event>
<event>
 5   0  0.3902375E-07  0.3117791E+04  0.7818609E-02  0.8210872E-01
        4   -1    0    0  501    0  0.00000000000E+00  0.00000000000E+00  0.13113708690E+04  0.13113714840E+04  0.12699999809E+01 0.  1.
       -4   -1    0    0    0  501  0.00000000000E+00  0.00000000000E+00 -0.18531401921E+04  0.18531406273E+04  0.12699999809E+01 0. -1.
    10030    2    1    2    0    0  0.00000000000E+00  0.00000000000E+00 -0.54176932308E+03  0.31645121113E+04  0.31177913502E+04 0.  0.
        4    1    3    3  502    0 -0.14994435677E+04 -0.17493831148E+03 -0.66558171303E+03  0.16498287957E+04  0.12699999809E+01 0. -1.
       -4    1    3    3    0  502  0.14994435677E+04  0.17493831148E+03  0.12381238995E+03  0.15146833156E+04  0.12699999809E+01 0.  1.
</event>
<event>
 5   0  0.4219337E-07  0.3099867E+04  0.7818609E-02  0.8215774E-01
       -1   -1    0    0    0  501  0.00000000000E+00  0.00000000000E+00  0.13933388444E+04  0.13933388444E+04  0.50400001928E-02 0. -1.
        1   -1    0    0  501    0  0.00000000000E+00  0.00000000000E+00 -0.17241272171E+04  0.17241272171E+04  0.50400001928E-02 0.  1.
    10030    2    1    2    0    0  0.00000000000E+00  0.00000000000E+00 -0.33078837274E+03  0.31174660615E+04  0.30998667225E+04 0.  0.
        4    1    3    3  502    0 -0.47302121395E+03 -0.81319373426E+02 -0.16475082031E+04  0.17159973198E+04  0.12699999809E+01 0.  1.
       -4    1    3    3    0  502  0.47302121395E+03  0.81319373426E+02  0.13167198304E+04  0.14014687417E+04  0.12699999809E+01 0. -1.
</event>
<event>
 5   0  0.4330395E-07  0.3105736E+04  0.7818609E-02  0.8214165E-01
       -1   -1    0    0    0  501  0.00000000000E+00  0.00000000000E+00  0.11960572815E+04  0.11960572815E+04  0.50400001928E-02 0.  1.
        1   -1    0    0  501    0  0.00000000000E+00  0.00000000000E+00 -0.20161239032E+04  0.20161239032E+04  0.50400001928E-02 0. -1.
    10030    2    1    2    0    0  0.00000000000E+00  0.00000000000E+00 -0.82006662164E+03  0.32121811847E+04  0.31057364182E+04 0.  0.
        1    1    3    3  502    0  0.25657111880E+03 -0.44686558112E+03  0.11050564619E+04  0.12192896992E+04  0.50400001928E-02 0.  1.
       -1    1    3    3    0  502 -0.25657111880E+03  0.44686558112E+03 -0.19251230835E+04  0.19928914856E+04  0.50400001928E-02 0. -1.
</event>
<event>
 5   0  0.4173905E-07  0.3084508E+04  0.7818609E-02  0.8220003E-01
       -1   -1    0    0    0  501  0.00000000000E+00  0.00000000000E+00  0.14511510778E+04  0.14511510778E+04  0.50400001928E-02 0.  1.
        1   -1    0    0  501    0  0.00000000000E+00  0.00000000000E+00 -0.16390759030E+04  0.16390759030E+04  0.50400001928E-02 0. -1.
    10030    2    1    2    0    0  0.00000000000E+00  0.00000000000E+00 -0.18792482516E+03  0.30902269808E+04  0.30845075868E+04 0.  0.
        3    1    3    3  502    0  0.10850635162E+04  0.23711913857E+03  0.97804897161E+03  0.14799216604E+04  0.10100000352E+00 0.  1.
       -3    1    3    3    0  502 -0.10850635162E+04 -0.23711913857E+03 -0.11659737968E+04  0.16103053204E+04  0.10100000352E+00 0. -1.
</event>
<event>
 5   0  0.1200286E-06  0.3078785E+04  0.7818609E-02  0.8221584E-01
        2   -1    0    0  501    0  0.00000000000E+00  0.00000000000E+00  0.14710327729E+04  0.14710327729E+04  0.25500000920E-02 0.  1.
       -2   -1    0    0    0  501  0.00000000000E+00  0.00000000000E+00 -0.16109286756E+04  0.16109286756E+04  0.25500000920E-02 0. -1.
    10030    2    1    2    0    0  0.00000000000E+00  0.00000000000E+00 -0.13989590264E+03  0.30819614485E+04  0.30787847451E+04 0.  0.
        5    1    3    3  502    0  0.38951370756E+03  0.33361989629E+03  0.13829915644E+04  0.14750291254E+04  0.46999998093E+01 0.  1.
       -5    1    3    3    0  502 -0.38951370756E+03 -0.33361989629E+03 -0.15228874671E+04  0.16069323231E+04  0.46999998093E+01 0. -1.
</event>
<event>
 5   0  0.1237580E-06  0.3091106E+04  0.7818609E-02  0.8218183E-01
        2   -1    0    0  501    0  0.00000000000E+00  0.00000000000E+00  0.97170430318E+03  0.97170430319E+03  0.25500000920E-02 0.  1.
       -2   -1    0    0    0  501  0.00000000000E+00  0.00000000000E+00 -0.24582930395E+04  0.24582930395E+04  0.25500000920E-02 0. -1.
    10030    2    1    2    0    0  0.00000000000E+00  0.00000000000E+00 -0.14865887363E+04  0.34299973426E+04  0.30911059024E+04 0.  0.
        4    1    3    3  502    0  0.88767221827E+03 -0.69300107973E+03  0.43130476530E+03  0.12059178567E+04  0.12699999809E+01 0.  1.
       -4    1    3    3    0  502 -0.88767221827E+03  0.69300107973E+03 -0.19178935016E+04  0.22240794860E+04  0.12699999809E+01 0. -1.
</event>
<event>
 5   0  0.3935852E-07  0.3202892E+04  0.7818609E-02  0.8188054E-01
       -1   -1    0    0    0  501  0.00000000000E+00  0.00000000000E+00  0.15510999266E+04  0.15510999266E+04  0.50400001928E-02 0. -1.
        1   -1    0    0  501    0  0.00000000000E+00  0.00000000000E+00 -0.16534263863E+04  0.16534263863E+04  0.50400001928E-02 0.  1.
    10030    2    1    2    0    0  0.00000000000E+00  0.00000000000E+00 -0.10232645968E+03  0.32045263129E+04  0.32028921595E+04 0.  0.
        5    1    3    3  502    0  0.48373759844E+02 -0.15928133311E+03 -0.16447397929E+04  0.16531490073E+04  0.46999998093E+01 0.  1.
       -5    1    3    3    0  502 -0.48373759844E+02  0.15928133311E+03  0.15424133333E+04  0.15513773056E+04  0.46999998093E+01 0. -1.
</event>
<event>
 5   0  0.1237580E-06  0.3099132E+04  0.7818609E-02  0.8215976E-01
        2   -1    0    0  501    0  0.00000000000E+00  0.00000000000E+00  0.16498841414E+04  0.16498841414E+04  0.25500000920E-02 0. -1.
       -2   -1    0    0    0  501  0.00000000000E+00  0.00000000000E+00 -0.14553474836E+04  0.14553474836E+04  0.25500000920E-02 0.  1.
    10030    2    1    2    0    0  0.00000000000E+00  0.00000000000E+00  0.19453665782E+03  0.31052316250E+04  0.30991319646E+04 0.  0.
        4    1    3    3  502    0  0.61787221645E+03 -0.13578659362E+04 -0.32258759830E+03  0.15263126639E+04  0.12699999809E+01 0.  1.
       -4    1    3    3    0  502 -0.61787221645E+03  0.13578659362E+04  0.51712425612E+03  0.15789189611E+04  0.12699999809E+01 0. -1.
</event>
<event>
 5   0  0.4173905E-07  0.3068121E+04  0.7818609E-02  0.8224542E-01
        1   -1    0    0  501    0  0.00000000000E+00  0.00000000000E+00  0.15934674622E+04  0.15934674622E+04  0.50400001928E-02 0.  1.
       -1   -1    0    0    0  501  0.00000000000E+00  0.00000000000E+00 -0.14768683892E+04  0.14768683892E+04  0.50400001928E-02 0. -1.
    10030    2    1    2    0    0  0.00000000000E+00  0.00000000000E+00  0.11659907299E+03  0.30703358514E+04  0.30681210695E+04 0.  0.
        3    1    3    3  502    0  0.64587402209E+03 -0.11164064029E+04  0.88945625567E+03  0.15667319329E+04  0.10100000352E+00 0.  1.
       -3    1    3    3    0  502 -0.64587402209E+03  0.11164064029E+04 -0.77285718268E+03  0.15036039185E+04  0.10100000352E+00 0. -1.
</event>
<event>
 5   0  0.1176002E-06  0.3105050E+04  0.7818609E-02  0.8214353E-01
       -2   -1    0    0    0  501  0.00000000000E+00  0.00000000000E+00  0.15864633936E+04  0.15864633936E+04  0.25500000920E-02 0.  1.
        2   -1    0    0  501    0  0.00000000000E+00  0.00000000000E+00 -0.15193124651E+04  0.15193124651E+04  0.25500000920E-02 0. -1.
    10030    2    1    2    0    0  0.00000000000E+00  0.00000000000E+00  0.67150928517E+02  0.31057758587E+04  0.31050498284E+04 0.  0.
        2    1    3    3  502    0 -0.27649238524E+03 -0.13046224052E+04 -0.76149778024E+03  0.15356974079E+04  0.25500000920E-02 0. -1.
       -2    1    3    3    0  502  0.27649238524E+03  0.13046224052E+04  0.82864870876E+03  0.15700784508E+04  0.25500000920E-02 0.  1.
</event>
<event>
 5   0  0.1258262E-06  0.3099990E+04  0.7818609E-02  0.8215741E-01
       -2   -1    0    0    0  501  0.00000000000E+00  0.00000000000E+00  0.18641755602E+04  0.18641755602E+04  0.25500000920E-02 0. -1.
        2   -1    0    0  501    0  0.00000000000E+00  0.00000000000E+00 -0.12887649419E+04  0.12887649419E+04  0.25500000920E-02 0.  1.
    10030    2    1    2    0    0  0.00000000000E+00  0.00000000000E+00  0.57541061834E+03  0.31529405021E+04  0.30999897468E+04 0.  0.
        1    1    3    3  502    0 -0.10329563302E+04 -0.42011458001E+03  0.13826575775E+04  0.17762986847E+04  0.50400001928E-02 0. -1.
       -1    1    3    3    0  502  0.10329563302E+04  0.42011458001E+03 -0.80724695919E+03  0.13766418175E+04  0.50400001928E-02 0.  1.
</event>
<event>
 5   0  0.4219337E-07  0.3106527E+04  0.7818609E-02  0.8213949E-01
       -1   -1    0    0    0  501  0.00000000000E+00  0.00000000000E+00  0.11359048593E+04  0.11359048593E+04  0.50400001928E-02 0. -1.
        1   -1    0    0  501    0  0.00000000000E+00  0.00000000000E+00 -0.21239690940E+04  0.21239690940E+04  0.50400001928E-02 0.  1.
    10030    2    1    2    0    0  0.00000000000E+00  0.00000000000E+00 -0.98806423465E+03  0.32598739533E+04  0.31065265587E+04 0.  0.
        4    1    3    3  502    0 -0.12276045202E+04 -0.95162866812E+03 -0.48993797357E+03  0.16286960462E+04  0.12699999809E+01 0. -1.
       -4    1    3    3    0  502  0.12276045202E+04  0.95162866812E+03 -0.49812626108E+03  0.16311779072E+04  0.12699999809E+01 0.  1.
</event>
<event>
 5   0  0.1258262E-06  0.3099847E+04  0.7818609E-02  0.8215780E-01
       -2   -1    0    0    0  501  0.00000000000E+00  0.00000000000E+00  0.10774159114E+04  0.10774159114E+04  0.25500000920E-02 0.  1.
        2   -1    0    0  501    0  0.00000000000E+00  0.00000000000E+00 -0.22296524480E+04  0.22296524480E+04  0.25500000920E-02 0. -1.
    10030    2    1    2    0    0  0.00000000000E+00  0.00000000000E+00 -0.11522365366E+04  0.33070683594E+04  0.30998471088E+04 0.  0.
        1    1    3    3  502    0 -0.82864223816E+03  0.99418020297E+03 -0.14858975472E+04  0.19705161140E+04  0.50400001928E-02 0. -1.
       -1    1    3    3    0  502  0.82864223816E+03 -0.99418020297E+03  0.33366101052E+03  0.13365522455E+04  0.50400001928E-02 0.  1.
</event>
<event>
 5   0  0.4134019E-07  0.3106878E+04  0.7818609E-02  0.8213853E-01
       -1   -1    0    0    0  501  0.00000000000E+00  0.00000000000E+00  0.11511859625E+04  0.11511859625E+04  0.50400001928E-02 0.  1.
        1   -1    0    0  501    0  0.00000000000E+00  0.00000000000E+00 -0.20962495676E+04  0.20962495676E+04  0.50400001928E-02 0. -1.
    10030    2    1    2    0    0  0.00000000000E+00  0.00000000000E+00 -0.94506360512E+03  0.32474355301E+04  0.31068782249E+04 0.  0.
        2    1    3    3  502    0 -0.15170390019E+04 -0.22291142715E+03 -0.73295460189E+03  0.16995056005E+04  0.25500000920E-02 0.  1.
       -2    1    3    3    0  502  0.15170390019E+04  0.22291142715E+03 -0.21210900322E+03  0.15479299296E+04  0.25500000920E-02 0. -1.
</event>
<event>
 5   0  0.1237580E-06  0.3120379E+04  0.7818609E-02  0.8210167E-01
        2   -1    0    0  501    0  0.00000000000E+00  0.00000000000E+00  0.17504353324E+04  0.17504353324E+04  0.25500000920E-02 0. -1.
       -2   -1    0    0    0  501  0.00000000000E+00  0.00000000000E+00 -0.13906201521E+04  0.13906201521E+04  0.25500000920E-02 0.  1.
    10030    2    1    2    0    0  0.00000000000E+00  0.00000000000E+00  0.35981518033E+03  0.31410554845E+04  0.31203785977E+04 0.  0.
        4    1    3    3  502    0  0.13937890174E+04  0.51811995742E+03 -0.29554937219E+03  0.15160630461E+04  0.12699999809E+01 0. -1.
       -4    1    3    3    0  502 -0.13937890174E+04 -0.51811995742E+03  0.65536455252E+03  0.16249924384E+04  0.12699999809E+01 0.  1.
</event>
<event>
 5   0  0.1193123E-06  0.3099624E+04  0.7818609E-02  0.8215841E-01
       -2   -1    0    0    0  501  0.00000000000E+00  0.00000000000E+00  0.10572487819E+04  0.10572487819E+04  0.25500000920E-02 0.  1.
        2   -1    0    0  501    0  0.00000000000E+00  0.00000000000E+00 -0.22718566921E+04  0.22718566921E+04  0.25500000920E-02 0. -1.
    10030    2    1    2    0    0  0.00000000000E+00  0.00000000000E+00 -0.12146079102E+04  0.33291054740E+04  0.30996243130E+04 0.  0.
        3    1    3    3  502    0  0.69393504505E+03 -0.12461611601E+04 -0.12583626145E+04  0.19020883164E+04  0.10100000352E+00 0. -1.
       -3    1    3    3    0  502 -0.69393504505E+03  0.12461611601E+04  0.43754704292E+02  0.14270171576E+04  0.10100000352E+00 0.  1.
</event>
<event>
 5   0  0.4134019E-07  0.3257802E+04  0.7818609E-02  0.8173716E-01
       -1   -1    0    0    0  501  0.00000000000E+00  0.00000000000E+00  0.28590570542E+04  0.28590570542E+04  0.50400001928E-02 0.  1.
        1   -1    0    0  501    0  0.00000000000E+00  0.00000000000E+00 -0.92803965453E+03  0.92803965455E+03  0.50400001928E-02 0. -1.
    10030    2    1    2    0    0  0.00000000000E+00  0.00000000000E+00  0.19310173996E+04  0.37870967087E+04  0.32578019098E+04 0.  0.
        2    1    3    3  502    0 -0.86263083476E+03  0.65471591243E+03  0.23799692267E+04  0.26147731074E+04  0.25500000920E-02 0.  1.
       -2    1    3    3    0  502  0.86263083476E+03 -0.65471591243E+03 -0.44895182711E+03  0.11723236013E+04  0.25500000920E-02 0. -1.
</event>
<event>
 5   0  0.4219337E-07  0.3062052E+04  0.7818609E-02  0.8226230E-01
        1   -1    0    0  501    0  0.00000000000E+00  0.00000000000E+00  0.97723987427E+03  0.97723987428E+03  0.50400001928E-02 0. -1.
       -1   -1    0    0    0  501  0.00000000000E+00  0.00000000000E+00 -0.23986333394E+04  0.23986333394E+04  0.50400001928E-02 0.  1.
    10030    2    1    2    0    0  0.00000000000E+00  0.00000000000E+00 -0.14213934652E+04  0.33758732137E+04  0.30620516933E+04 0.  0.
        4    1    3    3  502    0 -0.42754475475E+02 -0.10109738413E+04  0.55603313917E+03  0.11545867303E+04  0.12699999809E+01 0. -1.
       -4    1    3    3    0  502  0.42754475475E+02  0.10109738413E+04 -0.19774266043E+04  0.22212864834E+04  0.12699999809E+01 0.  1.
</event>
<event>
 5   0  0.4173905E-07  0.3095615E+04  0.7818609E-02  0.8216942E-01
        1   -1    0    0  501    0  0.00000000000E+00  0.00000000000E+00  0.13709820386E+04  0.13709820386E+04  0.50400001928E-02 0.  1.
       -1   -1    0    0    0  501  0.00000000000E+00  0.00000000000E+00 -0.17474399789E+04  0.17474399789E+04  0.50400001928E-02 0. -1.
    10030    2    1    2    0    0  0.00000000000E+00  0.00000000000E+00 -0.37645794029E+03  0.31184220176E+04  0.30956154960E+04 0.  0.
        3    1    3    3  502    0  0.18371805991E+02 -0.60056835740E+02  0.13696979472E+04  0.13711370550E+04  0.10100000352E+00 0.  1.
       -3    1    3    3    0  502 -0.18371805991E+02  0.60056835740E+02 -0.17461558875E+04  0.17472849626E+04  0.10100000352E+00 0. -1.
</event>
<event>
 5   0  0.4173905E-07  0.3090705E+04  0.7818609E-02  0.8218294E-01
        1   -1    0    0  501    0  0.00000000000E+00  0.00000000000E+00  0.14595444221E+04  0.14595444221E+04  0.50400001928E-02 0.  1.
       -1   -1    0    0    0  501  0.00000000000E+00  0.00000000000E+00 -0.16362051780E+04  0.16362051780E+04  0.50400001928E-02 0. -1.
    10030    2    1    2    0    0  0.00000000000E+00  0.00000000000E+00 -0.17666075590E+03  0.30957496001E+04  0.30907048652E+04 0.  0.
        3    1    3    3  502    0  0.30394067537E+03 -0.66019231650E+03  0.12776698981E+04  0.14699231979E+04  0.10100000352E+00 0.  1.
       -3    1    3    3    0  502 -0.30394067537E+03  0.66019231650E+03 -0.14543306540E+04  0.16258264022E+04  0.10100000352E+00 0. -1.
</event>
<event>
 5   0  0.1193123E-06  0.3088588E+04  0.7818609E-02  0.8218877E-01
       -2   -1    0    0    0  501  0.00000000000E+00  0.00000000000E+00  0.12058272740E+04  0.12058272740E+04  0.25500000920E-02 0. -1.
        2   -1    0    0  501    0  0.00000000000E+00  0.00000000000E+00 -0.19777661152E+04  0.19777661152E+04  0.25500000920E-02 0.  1.
    10030    2    1    2    0    0  0.00000000000E+00  0.00000000000E+00 -0.77193884119E+03  0.31835933892E+04  0.30885882363E+04 0.  0.
        3    1    3    3  502    0 -0.43268654204E+01 -0.15197575700E+04 -0.66856036909E+03  0.16603176716E+04  0.10100000352E+00 0.  1.
       -3    1    3    3    0  502  0.43268654204E+01  0.15197575700E+04 -0.10337847210E+03  0.15232757176E+04  0.10100000352E+00 0. -1.
</event>
<event>
 5   0  0.1200286E-06  0.3090159E+04  0.7818609E-02  0.8218444E-01
       -2   -1    0    0    0  501  0.00000000000E+00  0.00000000000E+00  0.14854293083E+04  0.14854293083E+04  0.25500000920E-02 0. -1.
        2   -1    0    0  501    0  0.00000000000E+00  0.00000000000E+00 -0.16071248680E+04  0.16071248680E+04  0.25500000920E-02 0.  1.
    10030    2    1    2    0    0  0.00000000000E+00  0.00000000000E+00 -0.12169555971E+03  0.30925541764E+04  0.30901588187E+04 0.  0.
        5    1    3    3  502    0  0.13962729645E+04 -0.13132277597E+03  0.58805627369E+03  0.15207419682E+04  0.46999998093E+01 0. -1.
       -5    1    3    3    0  502 -0.13962729645E+04  0.13132277597E+03 -0.70975183340E+03  0.15718122082E+04  0.46999998093E+01 0.  1.
</event>
<event>
 5   0  0.1176002E-06  0.3179675E+04  0.7818609E-02  0.8194206E-01
       -2   -1    0    0    0  501  0.00000000000E+00  0.00000000000E+00  0.10785132839E+04  0.10785132839E+04  0.25500000920E-02 0. -1.
        2   -1    0    0  501    0  0.00000000000E+00  0.00000000000E+00 -0.23435817326E+04  0.23435817326E+04  0.25500000920E-02 0.  1.
    10030    2    1    2    0    0  0.00000000000E+00  0.00000000000E+00 -0.12650684488E+04  0.34220950165E+04  0.31796754743E+04 0.  0.
        2    1    3    3  502    0  0.79782960239E+03 -0.70496277163E+03  0.63819503195E+03  0.12412886379E+04  0.25500000920E-02 0. -1.
       -2    1    3    3    0  502 -0.79782960239E+03  0.70496277163E+03 -0.19032634807E+04  0.21808063786E+04  0.25500000920E-02 0.  1.
</event>
<event>
 5   0  0.4173905E-07  0.3106076E+04  0.7818609E-02  0.8214072E-01
       -1   -1    0    0    0  501  0.00000000000E+00  0.00000000000E+00  0.11201144099E+04  0.11201144099E+04  0.50400001928E-02 0. -1.
        1   -1    0    0  501    0  0.00000000000E+00  0.00000000000E+00 -0.21532859253E+04  0.21532859253E+04  0.50400001928E-02 0.  1.
    10030    2    1    2    0    0  0.00000000000E+00  0.00000000000E+00 -0.10331715154E+04  0.32734003352E+04  0.31060757194E+04 0.  0.
        3    1    3    3  502    0 -0.76787077713E+03 -0.12979959409E+04 -0.12578947878E+03  0.15133545507E+04  0.10100000352E+00 0.  1.
       -3    1    3    3    0  502  0.76787077713E+03  0.12979959409E+04 -0.90738203658E+03  0.17600457845E+04  0.10100000352E+00 0. -1.
</event>
<event>
 5   0  0.1176002E-06  0.3095129E+04  0.7818609E-02  0.8217076E-01
       -2   -1    0    0    0  501  0.00000000000E+00  0.00000000000E+00  0.12539765426E+04  0.12539765426E+04  0.25500000920E-02 0. -1.
        2   -1    0    0  501    0  0.00000000000E+00  0.00000000000E+00 -0.19098888523E+04  0.19098888523E+04  0.25500000920E-02 0.  1.
    10030    2    1    2    0    0  0.00000000000E+00  0.00000000000E+00 -0.65591230972E+03  0.31638653950E+04  0.30951289601E+04 0.  0.
        2    1    3    3  502    0 -0.33156509666E+03 -0.13269666439E+04  0.41212516903E+03  0.14285037775E+04  0.25500000920E-02 0. -1.
       -2    1    3    3    0  502  0.33156509666E+03  0.13269666439E+04 -0.10680374787E+04  0.17353616175E+04  0.25500000920E-02 0.  1.
</event>
<event>
 5   0  0.4330395E-07  0.3104347E+04  0.7818609E-02  0.8214546E-01
        1   -1    0    0  501    0  0.00000000000E+00  0.00000000000E+00  0.16768508255E+04  0.16768508255E+04  0.50400001928E-02 0. -1.
       -1   -1    0    0    0  501  0.00000000000E+00  0.00000000000E+00 -0.14367662508E+04  0.14367662508E+04  0.50400001928E-02 0.  1.
    10030    2    1    2    0    0  0.00000000000E+00  0.00000000000E+00  0.24008457469E+03  0.31136170764E+04  0.31043470642E+04 0.  0.
        1    1    3    3  502    0  0.62731949958E+03  0.48768177190E+03  0.14573953643E+04  0.16599290687E+04  0.50400001928E-02 0. -1.
       -1    1    3    3    0  502 -0.62731949958E+03 -0.48768177190E+03 -0.12173107896E+04  0.14536880077E+04  0.50400001928E-02 0.  1.
</event>
<event>
 5   0  0.3935852E-07  0.3097134E+04  0.7818609E-02  0.8216525E-01
        1   -1    0    0  501    0  0.00000000000E+00  0.00000000000E+00  0.15489973142E+04  0.15489973142E+04  0.50400001928E-02 0.  1.
       -1   -1    0    0    0  501  0.00000000000E+00  0.00000000000E+00 -0.15481364758E+04  0.15481364758E+04  0.50400001928E-02 0. -1.
    10030    2    1    2    0    0  0.00000000000E+00  0.00000000000E+00  0.86083841204E+00  0.30971337900E+04  0.30971336703E+04 0.  0.
        5    1    3    3  502    0  0.52301060261E+03  0.76257762748E+03  0.12425948784E+04  0.15489121506E+04  0.46999998093E+01 0.  1.
       -5    1    3    3    0  502 -0.52301060261E+03 -0.76257762748E+03 -0.12417340400E+04  0.15482216393E+04  0.46999998093E+01 0. -1.
</event>
<event>
 5   0  0.1237580E-06  0.3101080E+04  0.7818609E-02  0.8215442E-01
        2   -1    0    0  501    0  0.00000000000E+00  0.00000000000E+00  0.23640723908E+04  0.23640723908E+04  0.25500000920E-02 0.  1.
       -2   -1    0    0    0  501  0.00000000000E+00  0.00000000000E+00 -0.10169629866E+04  0.10169629866E+04  0.25500000920E-02 0. -1.
    10030    2    1    2    0    0  0.00000000000E+00  0.00000000000E+00  0.13471094042E+04  0.33810353774E+04  0.31010798887E+04 0.  0.
        4    1    3    3  502    0  0.27009657748E+03  0.85734297152E+03 -0.70390262010E+03  0.11416959505E+04  0.12699999809E+01 0. -1.
       -4    1    3    3    0  502 -0.27009657748E+03 -0.85734297152E+03  0.20510120243E+04  0.22393394269E+04  0.12699999809E+01 0.  1.
</event>
<event>
 5   0  0.4173905E-07  0.3106407E+04  0.7818609E-02  0.8213982E-01
        1   -1    0    0  501    0  0.00000000000E+00  0.00000000000E+00  0.19411262441E+04  0.19411262441E+04  0.50400001928E-02 0.  1.
       -1   -1    0    0    0  501  0.00000000000E+00  0.00000000000E+00 -0.12428044699E+04  0.12428044699E+04  0.50400001928E-02 0. -1.
    10030    2    1    2    0    0  0.00000000000E+00  0.00000000000E+00  0.69832177420E+03  0.31839307140E+04  0.31064065238E+04 0.  0.
        3    1    3    3  502    0 -0.10528583427E+04 -0.60824239997E+03 -0.64137902876E+03  0.13747132703E+04  0.10100000352E+00 0. -1.
       -3    1    3    3    0  502  0.10528583427E+04  0.60824239997E+03  0.13397008030E+04  0.18092174437E+04  0.10100000352E+00 0.  1.
</event>
<event>
 5   0  0.3902375E-07  0.3093597E+04  0.7818609E-02  0.8217497E-01
        3   -1    0    0  501    0  0.00000000000E+00  0.00000000000E+00  0.13943245515E+04  0.13943245552E+04  0.10100000352E+00 0. -1.
       -3   -1    0    0    0  501  0.00000000000E+00  0.00000000000E+00 -0.17159464269E+04  0.17159464298E+04  0.10100000352E+00 0.  1.
    10030    2    1    2    0    0  0.00000000000E+00  0.00000000000E+00 -0.32162187532E+03  0.31102709850E+04  0.30935974156E+04 0.  0.
        3    1    3    3  502    0 -0.81615457563E+03  0.19024248983E+03 -0.14679280369E+04  0.16902997450E+04  0.10100000352E+00 0.  1.
       -3    1    3    3    0  502  0.81615457563E+03 -0.19024248983E+03  0.11463061616E+04  0.14199712400E+04  0.10100000352E+00 0. -1.
</event>
<event>
 5   0  0.4330395E-07  0.3102686E+04  0.7818609E-02  0.8215001E-01
       -1   -1    0    0    0  501  0.00000000000E+00  0.00000000000E+00  0.18234233005E+04  0.18234233005E+04  0.50400001928E-02 0. -1.
        1   -1    0    0  501    0  0.00000000000E+00  0.00000000000E+00 -0.13198607433E+04  0.13198607433E+04  0.50400001928E-02 0.  1.
    10030    2    1    2    0    0  0.00000000000E+00  0.00000000000E+00  0.50356255716E+03  0.31432840438E+04  0.31026858254E+04 0.  0.
        1    1    3    3  502    0  0.13954062593E+04 -0.53094287435E+03 -0.17516622840E+03  0.15032438831E+04  0.50400001928E-02 0.  1.
       -1    1    3    3    0  502 -0.13954062593E+04  0.53094287435E+03  0.67872878556E+03  0.16400401607E+04  0.50400001928E-02 0. -1.
</event>
<event>
 5   0  0.4134019E-07  0.3100236E+04  0.7818609E-02  0.8215673E-01
       -1   -1    0    0    0  501  0.00000000000E+00  0.00000000000E+00  0.12857621208E+04  0.12857621208E+04  0.50400001928E-02 0.  1.
        1   -1    0    0  501    0  0.00000000000E+00  0.00000000000E+00 -0.18688263220E+04  0.18688263220E+04  0.50400001928E-02 0. -1.
    10030    2    1    2    0    0  0.00000000000E+00  0.00000000000E+00 -0.58306420112E+03  0.31545884428E+04  0.31002361815E+04 0.  0.
        2    1    3    3  502    0  0.60752201439E+03  0.95161752678E+03 -0.13723246872E+04  0.17770576700E+04  0.25500000920E-02 0. -1.
       -2    1    3    3    0  502 -0.60752201439E+03 -0.95161752678E+03  0.78926048609E+03  0.13775307729E+04  0.25500000920E-02 0.  1.
</event>
<event>
 5   0  0.4219337E-07  0.3094617E+04  0.7818609E-02  0.8217217E-01
       -1   -1    0    0    0  501  0.00000000000E+00  0.00000000000E+00  0.23678748356E+04  0.23678748356E+04  0.50400001928E-02 0. -1.
        1   -1    0    0  501    0  0.00000000000E+00  0.00000000000E+00 -0.10111022875E+04  0.10111022875E+04  0.50400001928E-02 0.  1.
    10030    2    1    2    0    0  0.00000000000E+00  0.00000000000E+00  0.13567725482E+04  0.33789771231E+04  0.30946170443E+04 0.  0.
        4    1    3    3  502    0 -0.37888157283E+03 -0.13678194110E+04  0.55836261377E+01  0.14193357520E+04  0.12699999809E+01 0.  1.
       -4    1    3    3    0  502  0.37888157283E+03  0.13678194110E+04  0.13511889220E+04  0.19596413711E+04  0.12699999809E+01 0. -1.
</event>
<event>
 5   0  0.3902375E-07  0.3106382E+04  0.7818609E-02  0.8213989E-01
        3   -1    0    0  501    0  0.00000000000E+00  0.00000000000E+00  0.12894509821E+04  0.12894509861E+04  0.10100000352E+00 0. -1.
       -3   -1    0    0    0  501  0.00000000000E+00  0.00000000000E+00 -0.18708758385E+04  0.18708758412E+04  0.10100000352E+00 0.  1.
    10030    2    1    2    0    0  0.00000000000E+00  0.00000000000E+00 -0.58142485636E+03  0.31603268273E+04  0.31063822675E+04 0.  0.
        2    1    3    3  502    0  0.54121023168E+03  0.62537283696E+03 -0.16282303342E+04  0.18262348483E+04  0.25500000920E-02 0.  1.
       -2    1    3    3    0  502 -0.54121023168E+03 -0.62537283696E+03  0.10468054778E+04  0.13340919790E+04  0.25500000920E-02 0. -1.
</event>
<event>
 5   0  0.1258262E-06  0.3096185E+04  0.7818609E-02  0.8216786E-01
       -2   -1    0    0    0  501  0.00000000000E+00  0.00000000000E+00  0.11852804626E+04  0.11852804626E+04  0.25500000920E-02 0.  1.
        2   -1    0    0  501    0  0.00000000000E+00  0.00000000000E+00 -0.20219610867E+04  0.20219610867E+04  0.25500000920E-02 0. -1.
    10030    2    1    2    0    0  0.00000000000E+00  0.00000000000E+00 -0.83668062409E+03  0.32072415492E+04  0.30961853769E+04 0.  0.
        1    1    3    3  502    0  0.97328322329E+03  0.10727475835E+04  0.14763029326E+03  0.14559746956E+04  0.50400001928E-02 0.  1.
       -1    1    3    3    0  502 -0.97328322329E+03 -0.10727475835E+04 -0.98431091735E+03  0.17512668537E+04  0.50400001928E-02 0. -1.
</event>
<event>
 5   0  0.4134019E-07  0.3051725E+04  0.7818609E-02  0.8229113E-01
       -1   -1    0    0    0  501  0.00000000000E+00  0.00000000000E+00  0.95553246844E+03  0.95553246845E+03  0.50400001928E-02 0.  1.
        1   -1    0    0  501    0  0.00000000000E+00  0.00000000000E+00 -0.24366065712E+04  0.24366065712E+04  0.50400001928E-02 0. -1.
    10030    2    1    2    0    0  0.00000000000E+00  0.00000000000E+00 -0.14810741027E+04  0.33921390396E+04  0.30517252115E+04 0.  0.
        2    1    3    3  502    0 -0.10698325568E+04 -0.56565182008E+03  0.29251690812E+03  0.12450180009E+04  0.25500000920E-02 0. -1.
       -2    1    3    3    0  502  0.10698325568E+04  0.56565182008E+03 -0.17735910109E+04  0.21471210387E+04  0.25500000920E-02 0.  1.
</event>
<event>
 5   0  0.1193123E-06  0.3098334E+04  0.7818609E-02  0.8216195E-01
        2   -1    0    0  501    0  0.00000000000E+00  0.00000000000E+00  0.17910434364E+04  0.17910434364E+04  0.25500000920E-02 0. -1.
       -2   -1    0    0    0  501  0.00000000000E+00  0.00000000000E+00 -0.13399554367E+04  0.13399554367E+04  0.25500000920E-02 0.  1.
    10030    2    1    2    0    0  0.00000000000E+00  0.00000000000E+00  0.45108799976E+03  0.31309988731E+04  0.30983339975E+04 0.  0.
        3    1    3    3  502    0 -0.63350364388E+03  0.11984847320E+04  0.98326633252E+03  0.16746657011E+04  0.10100000352E+00 0. -1.
       -3    1    3    3    0  502  0.63350364388E+03 -0.11984847320E+04 -0.53217833276E+03  0.14563331720E+04  0.10100000352E+00 0.  1.
</event>
<event>
 5   0  0.4219337E-07  0.3105860E+04  0.7818609E-02  0.8214132E-01
        1   -1    0    0  501    0  0.00000000000E+00  0.00000000000E+00  0.14689813661E+04  0.14689813661E+04  0.50400001928E-02 0. -1.
       -1   -1    0    0    0  501  0.00000000000E+00  0.00000000000E+00 -0.16416756813E+04  0.16416756813E+04  0.50400001928E-02 0.  1.
    10030    2    1    2    0    0  0.00000000000E+00  0.00000000000E+00 -0.17269431522E+03  0.31106570474E+04  0.31058596137E+04 0.  0.
        4    1    3    3  502    0 -0.13782757590E+04  0.30785460125E+03 -0.73323246531E+03  0.15912416487E+04  0.12699999809E+01 0. -1.
       -4    1    3    3    0  502  0.13782757590E+04 -0.30785460125E+03  0.56053815010E+03  0.15194153988E+04  0.12699999809E+01 0.  1.
</event>
<event>
 5   0  0.1258262E-06  0.3093967E+04  0.7818609E-02  0.8217396E-01
       -2   -1    0    0    0  501  0.00000000000E+00  0.00000000000E+00  0.10851834228E+04  0.10851834228E+04  0.25500000920E-02 0. -1.
        2   -1    0    0  501    0  0.00000000000E+00  0.00000000000E+00 -0.22053022220E+04  0.22053022220E+04  0.25500000920E-02 0.  1.
    10030    2    1    2    0    0  0.00000000000E+00  0.00000000000E+00 -0.11201187992E+04  0.32904856448E+04  0.30939666537E+04 0.  0.
        1    1    3    3  502    0  0.31265838828E+03 -0.12343627940E+04 -0.14943519169E+04  0.19632866389E+04  0.50400001928E-02 0.  1.
       -1    1    3    3    0  502 -0.31265838828E+03  0.12343627940E+04  0.37423311767E+03  0.13271990059E+04  0.50400001928E-02 0. -1.
</event>
<event>
 5   0  0.4173905E-07  0.3098031E+04  0.7818609E-02  0.8216278E-01
       -1   -1    0    0    0  501  0.00000000000E+00  0.00000000000E+00  0.14844574808E+04  0.14844574808E+04  0.50400001928E-02 0.  1.
        1   -1    0    0  501    0  0.00000000000E+00  0.00000000000E+00 -0.16163815132E+04  0.16163815133E+04  0.50400001928E-02 0. -1.
    10030    2    1    2    0    0  0.00000000000E+00  0.00000000000E+00 -0.13192403244E+03  0.31008389941E+04  0.30980313938E+04 0.  0.
        3    1    3    3  502    0  0.12734397166E+04 -0.72896169875E+03  0.43089065940E+03  0.15292810862E+04  0.10100000352E+00 0.  1.
       -3    1    3    3    0  502 -0.12734397166E+04  0.72896169875E+03 -0.56281469184E+03  0.15715579078E+04  0.10100000352E+00 0. -1.
</event>
<event>
 5   0  0.1237580E-06  0.3123733E+04  0.7818609E-02  0.8209255E-01
        2   -1    0    0  501    0  0.00000000000E+00  0.00000000000E+00  0.26963411408E+04  0.26963411408E+04  0.25500000920E-02 0.  1.
       -2   -1    0    0    0  501  0.00000000000E+00  0.00000000000E+00 -0.90471746572E+03  0.90471746573E+03  0.25500000920E-02 0. -1.
    10030    2    1    2    0    0  0.00000000000E+00  0.00000000000E+00  0.17916236751E+04  0.36010586065E+04  0.31237329743E+04 0.  0.
        4    1    3    3  502    0 -0.27793158896E+03  0.14500727391E+03 -0.86807660538E+03  0.92294728091E+03  0.12699999809E+01 0. -1.
       -4    1    3    3    0  502  0.27793158896E+03 -0.14500727391E+03  0.26597002805E+04  0.26781113256E+04  0.12699999809E+01 0.  1.
</event>
<event>
 5   0  0.1237580E-06  0.3098469E+04  0.7818609E-02  0.8216158E-01
       -2   -1    0    0    0  501  0.00000000000E+00  0.00000000000E+00  0.14682708598E+04  0.14682708598E+04  0.25500000920E-02 0.  1.
        2   -1    0    0  501    0  0.00000000000E+00  0.00000000000E+00 -0.16346624123E+04  0.16346624123E+04  0.25500000920E-02 0. -1.
    10030    2    1    2    0    0  0.00000000000E+00  0.00000000000E+00 -0.16639155253E+03  0.31029332721E+04  0.30984687739E+04 0.  0.
        4    1    3    3  502    0 -0.47225566081E+03 -0.14753372441E+04 -0.10514035149E+03  0.15526433910E+04  0.12699999809E+01 0. -1.
       -4    1    3    3    0  502  0.47225566081E+03  0.14753372441E+04 -0.61251201035E+02  0.15502898812E+04  0.12699999809E+01 0.  1.
</event>
<event>
 5   0  0.1200286E-06  0.3099732E+04  0.7818609E-02  0.8215812E-01
        2   -1    0    0  501    0  0.00000000000E+00  0.00000000000E+00  0.21470791535E+04  0.21470791535E+04  0.25500000920E-02 0.  1.
       -2   -1    0    0    0  501  0.00000000000E+00  0.00000000000E+00 -0.11187682188E+04  0.11187682188E+04  0.25500000920E-02 0. -1.
    10030    2    1    2    0    0  0.00000000000E+00  0.00000000000E+00  0.10283109347E+04  0.32658473722E+04  0.30997315497E+04 0.  0.
        5    1    3    3  502    0  0.70508866209E+03  0.73912658038E+03  0.17422115436E+04  0.20195992859E+04  0.46999998093E+01 0.  1.
       -5    1    3    3    0  502 -0.70508866209E+03 -0.73912658038E+03 -0.71390060887E+03  0.12462480863E+04  0.46999998093E+01 0. -1.
</event>
<event>
 5   0  0.1176002E-06  0.3121395E+04  0.7818609E-02  0.8209891E-01
        2   -1    0    0  501    0  0.00000000000E+00  0.00000000000E+00  0.80983563940E+03  0.80983563940E+03  0.25500000920E-02 0.  1.
       -2   -1    0    0    0  501  0.00000000000E+00  0.00000000000E+00 -0.30077415071E+04  0.30077415071E+04  0.25500000920E-02 0. -1.
    10030    2    1    2    0    0  0.00000000000E+00  0.00000000000E+00 -0.21979058677E+04  0.38175771465E+04  0.31213947309E+04 0.  0.
        2    1    3    3  502    0 -0.12932622797E+04 -0.61437877368E+03 -0.18586025066E+04  0.23461440449E+04  0.25500000920E-02 0. -1.
       -2    1    3    3    0  502  0.12932622797E+04  0.61437877368E+03 -0.33930336108E+03  0.14714331016E+04  0.25500000920E-02 0.  1.
</event>
<event>
 5   0  0.1193123E-06  0.3064868E+04  0.7818609E-02  0.8225446E-01
        2   -1    0    0  501    0  0.00000000000E+00  0.00000000000E+00  0.27138259366E+04  0.27138259366E+04  0.25500000920E-02 0.  1.
       -2   -1    0    0    0  501  0.00000000000E+00  0.00000000000E+00 -0.86532953736E+03  0.86532953737E+03  0.25500000920E-02 0. -1.
    10030    2    1    2    0    0  0.00000000000E+00  0.00000000000E+00  0.18484963993E+04  0.35791554740E+04  0.30648678551E+04 0.  0.
        3    1    3    3  502    0  0.91861838530E+03  0.12073242131E+04  0.11770500948E+04  0.19201402108E+04  0.10100000352E+00 0. -1.
       -3    1    3    3    0  502 -0.91861838530E+03 -0.12073242131E+04  0.67144630450E+03  0.16590152632E+04  0.10100000352E+00 0.  1.
</event>
<event>
 5   0  0.1193123E-06  0.3090551E+04  0.7818609E-02  0.8218336E-01
       -2   -1    0    0    0  501  0.00000000000E+00  0.00000000000E+00  0.14773716192E+04  0.14773716192E+04  0.25500000920E-02 0. -1.
        2   -1    0    0  501    0  0.00000000000E+00  0.00000000000E+00 -0.16163006391E+04  0.16163006391E+04  0.25500000920E-02 0.  1.
    10030    2    1    2    0    0  0.00000000000E+00  0.00000000000E+00 -0.13892901988E+03  0.30936722583E+04  0.30905512080E+04 0.  0.
        3    1    3    3  502    0  0.23471017966E+03 -0.83525593423E+02  0.14571366783E+04  0.14782803194E+04  0.10100000352E+00 0. -1.
       -3    1    3    3    0  502 -0.23471017966E+03  0.83525593423E+02 -0.15960656982E+04  0.16153919389E+04  0.10100000352E+00 0.  1.
</event>
<event>
 5   0  0.1176002E-06  0.3107613E+04  0.7818609E-02  0.8213652E-01
        2   -1    0    0  501    0  0.00000000000E+00  0.00000000000E+00  0.27141773179E+04  0.27141773179E+04  0.25500000920E-02 0. -1.
       -2   -1    0    0    0  501  0.00000000000E+00  0.00000000000E+00 -0.88952010999E+03  0.88952011000E+03  0.25500000920E-02 0.  1.
    10030    2    1    2    0    0  0.00000000000E+00  0.00000000000E+00  0.18246572080E+04  0.36036974279E+04  0.31076134292E+04 0.  0.
        2    1    3    3  502    0 -0.76678939469E+03  0.99768409902E+01 -0.65478838989E+03  0.10083716322E+04  0.25500000920E-02 0.  1.
       -2    1    3    3    0  502  0.76678939469E+03 -0.99768409902E+01  0.24794455978E+04  0.25953257957E+04  0.25500000920E-02 0. -1.
</event>
<event>
 5   0  0.4134019E-07  0.3077190E+04  0.7818609E-02  0.8222026E-01
       -1   -1    0    0    0  501  0.00000000000E+00  0.00000000000E+00  0.10448774017E+04  0.10448774018E+04  0.50400001928E-02 0. -1.
        1   -1    0    0  501    0  0.00000000000E+00  0.00000000000E+00 -0.22656008270E+04  0.22656008270E+04  0.50400001928E-02 0.  1.
    10030    2    1    2    0    0  0.00000000000E+00  0.00000000000E+00 -0.12207234253E+04  0.33104782288E+04  0.30771903455E+04 0.  0.
        2    1    3    3  502    0  0.59983796897E+03  0.12284747977E+04  0.14907253797E+03  0.13752012722E+04  0.25500000920E-02 0. -1.
       -2    1    3    3    0  502 -0.59983796897E+03 -0.12284747977E+04 -0.13697959633E+04  0.19352769565E+04  0.25500000920E-02 0.  1.
</event>
<event>
 5   0  0.1193123E-06  0.3105861E+04  0.7818609E-02  0.8214131E-01
       -2   -1    0    0    0  501  0.00000000000E+00  0.00000000000E+00  0.16838240804E+04  0.16838240804E+04  0.25500000920E-02 0.  1.
        2   -1    0    0  501    0  0.00000000000E+00  0.00000000000E+00 -0.14322118821E+04  0.14322118821E+04  0.25500000920E-02 0. -1.
    10030    2    1    2    0    0  0.00000000000E+00  0.00000000000E+00  0.25161219831E+03  0.31160359626E+04  0.31058608181E+04 0.  0.
        3    1    3    3  502    0  0.54814730302E+03  0.14471524373E+04 -0.45317959819E+01  0.15474935186E+04  0.10100000352E+00 0.  1.
       -3    1    3    3    0  502 -0.54814730302E+03 -0.14471524373E+04  0.25614399429E+03  0.15685424440E+04  0.10100000352E+00 0. -1.
</event>
<event>
 5   0  0.4330395E-07  0.3078276E+04  0.7818609E-02  0.8221725E-01
        1   -1    0    0  501    0  0.00000000000E+00  0.00000000000E+00  0.10410231466E+04  0.10410231466E+04  0.50400001928E-02 0. -1.
       -1   -1    0    0    0  501  0.00000000000E+00  0.00000000000E+00 -0.22755936411E+04  0.22755936411E+04  0.50400001928E-02 0.  1.
    10030    2    1    2    0    0  0.00000000000E+00  0.00000000000E+00 -0.12345704945E+04  0.33166167877E+04  0.30782759153E+04 0.  0.
        1    1    3    3  502    0 -0.33125900939E+03  0.45182638541E+03  0.92726002143E+03  0.10833700943E+04  0.50400001928E-02 0. -1.
       -1    1    3    3    0  502  0.33125900939E+03 -0.45182638541E+03 -0.21618305159E+04  0.22332466934E+04  0.50400001928E-02 0.  1.
</event>
<event>
 5   0  0.1258262E-06  0.3097985E+04  0.7818609E-02  0.8216291E-01
        2   -1    0    0  501    0  0.00000000000E+00  0.00000000000E+00  0.16022284448E+04  0.16022284448E+04  0.25500000920E-02 0.  1.
       -2   -1    0    0    0  501  0.00000000000E+00  0.00000000000E+00 -0.14975249979E+04  0.14975249979E+04  0.25500000920E-02 0. -1.
    10030    2    1    2    0    0  0.00000000000E+00  0.00000000000E+00  0.10470344687E+03  0.30997534426E+04  0.30979846019E+04 0.  0.
        1    1    3    3  502    0  0.86936552153E+03  0.42857227434E+03 -0.11566040785E+04  0.15090406220E+04  0.50400001928E-02 0. -1.
       -1    1    3    3    0  502 -0.86936552153E+03 -0.42857227434E+03  0.12613075253E+04  0.15907128207E+04  0.50400001928E-02 0.  1.
</event>
<event>
 5   0  0.1176002E-06  0.3096132E+04  0.7818609E-02  0.8216800E-01
       -2   -1    0    0    0  501  0.00000000000E+00  0.00000000000E+00  0.13512350599E+04  0.13512350599E+04  0.25500000920E-02 0. -1.
        2   -1    0    0  501    0  0.00000000000E+00  0.00000000000E+00 -0.17735682377E+04  0.17735682377E+04  0.25500000920E-02 0.  1.
    10030    2    1    2    0    0  0.00000000000E+00  0.00000000000E+00 -0.42233317776E+03  0.31248032976E+04  0.30961315113E+04 0.  0.
        2    1    3    3  502    0  0.46464082434E+02  0.10802903080E+04  0.90693807748E+03  0.14112840737E+04  0.25500000920E-02 0. -1.
       -2    1    3    3    0  502 -0.46464082434E+02 -0.10802903080E+04 -0.13292712552E+04  0.17135192238E+04  0.25500000920E-02 0.  1.
</event>
<event>
 5   0  0.4134019E-07  0.3154420E+04  0.7818609E-02  0.8200960E-01
       -1   -1    0    0    0  501  0.00000000000E+00  0.00000000000E+00  0.14147679247E+04  0.14147679247E+04  0.50400001928E-02 0. -1.
        1   -1    0    0  501    0  0.00000000000E+00  0.00000000000E+00 -0.17583029936E+04  0.17583029936E+04  0.50400001928E-02 0.  1.
    10030    2    1    2    0    0  0.00000000000E+00  0.00000000000E+00 -0.34353506884E+03  0.31730709183E+04  0.31544195519E+04 0.  0.
        2    1    3    3  502    0 -0.77088056547E+03  0.56483807165E+03 -0.14338941850E+04  0.17231806136E+04  0.25500000920E-02 0.  1.
       -2    1    3    3    0  502  0.77088056547E+03 -0.56483807165E+03  0.10903591162E+04  0.14498903047E+04  0.25500000920E-02 0. -1.
</event>
<event>
 5   0  0.1200286E-06  0.3104630E+04  0.7818609E-02  0.8214468E-01
       -2   -1    0    0    0  501  0.00000000000E+00  0.00000000000E+00  0.10616944648E+04  0.10616944648E+04  0.25500000920E-02 0. -1.
        2   -1    0    0  501    0  0.00000000000E+00  0.00000000000E+00 -0.22696569476E+04  0.22696569476E+04  0.25500000920E-02 0.  1.
    10030    2    1    2    0    0  0.00000000000E+00  0.00000000000E+00 -0.12079624828E+04  0.33313514125E+04  0.31046302313E+04 0.  0.
        5    1    3    3  502    0  0.51257747413E+03  0.37957221097E+02 -0.21756939903E+04  0.22355855714E+04  0.46999998093E+01 0.  1.
       -5    1    3    3    0  502 -0.51257747413E+03 -0.37957221097E+02  0.96773150754E+03  0.10957658410E+04  0.46999998093E+01 0. -1.
</event>
<event>
 5   0  0.4173905E-07  0.3093985E+04  0.7818609E-02  0.8217391E-01
        1   -1    0    0  501    0  0.00000000000E+00  0.00000000000E+00  0.11451576859E+04  0.11451576859E+04  0.50400001928E-02 0. -1.
       -1   -1    0    0    0  501  0.00000000000E+00  0.00000000000E+00 -0.20898307483E+04  0.20898307483E+04  0.50400001928E-02 0.  1.
    10030    2    1    2    0    0  0.00000000000E+00  0.00000000000E+00 -0.94467306240E+03  0.32349884342E+04  0.30939849667E+04 0.  0.
        3    1    3    3  502    0 -0.46277653624E+02 -0.65794507707E+03  0.99077615641E+03  0.11902397859E+04  0.10100000352E+00 0. -1.
       -3    1    3    3    0  502  0.46277653624E+02  0.65794507707E+03 -0.19354492188E+04  0.20447486482E+04  0.10100000352E+00 0.  1.
</event>
<event>
 5   0  0.4173905E-07  0.3093741E+04  0.7818609E-02  0.8217458E-01
       -1   -1    0    0    0  501  0.00000000000E+00  0.00000000000E+00  0.13901034631E+04  0.13901034631E+04  0.50400001928E-02 0.  1.
        1   -1    0    0  501    0  0.00000000000E+00  0.00000000000E+00 -0.17213170752E+04  0.17213170752E+04  0.50400001928E-02 0. -1.
    10030    2    1    2    0    0  0.00000000000E+00  0.00000000000E+00 -0.33121361212E+03  0.31114205383E+04  0.30937413126E+04 0.  0.
        3    1    3    3  502    0  0.11709213926E+04 -0.49230051093E+03  0.72227002163E+03  0.14611949545E+04  0.10100000352E+00 0.  1.
       -3    1    3    3    0  502 -0.11709213926E+04  0.49230051093E+03 -0.10534836338E+04  0.16502255838E+04  0.10100000352E+00 0. -1.
</event>
<event>
 5   0  0.4219337E-07  0.3090358E+04  0.7818609E-02  0.8218389E-01
       -1   -1    0    0    0  501  0.00000000000E+00  0.00000000000E+00  0.15937553474E+04  0.15937553474E+04  0.50400001928E-02 0. -1.
        1   -1    0    0  501    0  0.00000000000E+00  0.00000000000E+00 -0.14980833886E+04  0.14980833886E+04  0.50400001928E-02 0.  1.
    10030    2    1    2    0    0  0.00000000000E+00  0.00000000000E+00  0.95671958755E+02  0.30918387360E+04  0.30903581743E+04 0.  0.
        4    1    3    3  502    0  0.10247982876E+03  0.14756658027E+04 -0.39901557385E+03  0.15320922680E+04  0.12699999809E+01 0.  1.
       -4    1    3    3    0  502 -0.10247982876E+03 -0.14756658027E+04  0.49468753260E+03  0.15597464680E+04  0.12699999809E+01 0. -1.
</event>
<event>
 5   0  0.1237580E-06  0.3097694E+04  0.7818609E-02  0.8216371E-01
       -2   -1    0    0    0  501  0.00000000000E+00  0.00000000000E+00  0.14127530627E+04  0.14127530627E+04  0.25500000920E-02 0.  1.
        2   -1    0    0  501    0  0.00000000000E+00  0.00000000000E+00 -0.16980514585E+04  0.16980514585E+04  0.25500000920E-02 0. -1.
    10030    2    1    2    0    0  0.00000000000E+00  0.00000000000E+00 -0.28529839580E+03  0.31108045212E+04  0.30976942383E+04 0.  0.
        4    1    3    3  502    0  0.25241981705E+03 -0.17672778926E+03  0.13816607095E+04  0.14156046075E+04  0.12699999809E+01 0.  1.
       -4    1    3    3    0  502 -0.25241981705E+03  0.17672778926E+03 -0.16669591053E+04  0.16951999137E+04  0.12699999809E+01 0. -1.
</event>
<event>
 5   0  0.1176002E-06  0.3101478E+04  0.7818609E-02  0.8215332E-01
       -2   -1    0    0    0  501  0.00000000000E+00  0.00000000000E+00  0.11955200391E+04  0.11955200391E+04  0.25500000920E-02 0.  1.
        2   -1    0    0  501    0  0.00000000000E+00  0.00000000000E+00 -0.20115022779E+04  0.20115022779E+04  0.25500000920E-02 0. -1.
    10030    2    1    2    0    0  0.00000000000E+00  0.00000000000E+00 -0.81598223879E+03  0.32070223169E+04  0.31014778941E+04 0.  0.
        2    1    3    3  502    0 -0.61645196342E+03 -0.47538830857E+03  0.97883759734E+03  0.12506518737E+04  0.25500000920E-02 0.  1.
       -2    1    3    3    0  502  0.61645196342E+03  0.47538830857E+03 -0.17948198361E+04  0.19563704433E+04  0.25500000920E-02 0. -1.
</event>
<event>
 5   0  0.1237580E-06  0.3103411E+04  0.7818609E-02  0.8214802E-01
        2   -1    0    0  501    0  0.00000000000E+00  0.00000000000E+00  0.19714868314E+04  0.19714868314E+04  0.25500000920E-02 0.  1.
       -2   -1    0    0    0  501  0.00000000000E+00  0.00000000000E+00 -0.12213068198E+04  0.12213068198E+04  0.25500000920E-02 0. -1.
    10030    2    1    2    0    0  0.00000000000E+00  0.00000000000E+00  0.75018001161E+03  0.31927936512E+04  0.31034112279E+04 0.  0.
        4    1    3    3  502    0 -0.14449749175E+04 -0.45367326535E+03  0.27701164925E+02  0.15147742113E+04  0.12699999809E+01 0. -1.
       -4    1    3    3    0  502  0.14449749175E+04  0.45367326535E+03  0.72247884668E+03  0.16780194399E+04  0.12699999809E+01 0.  1.
</event>
<event>
 5   0  0.1258262E-06  0.2974196E+04  0.7818609E-02  0.8251138E-01
        2   -1    0    0  501    0  0.00000000000E+00  0.00000000000E+00  0.12927557887E+04  0.12927557887E+04  0.25500000920E-02 0.  1.
       -2   -1    0    0    0  501  0.00000000000E+00  0.00000000000E+00 -0.17106563271E+04  0.17106563271E+04  0.25500000920E-02 0. -1.
    10030    2    1    2    0    0  0.00000000000E+00  0.00000000000E+00 -0.41790053847E+03  0.30034121158E+04  0.29741962742E+04 0.  0.
        1    1    3    3  502    0 -0.55796709449E+03  0.13752511197E+04 -0.11412390813E+03  0.14885117356E+04  0.50400001928E-02 0. -1.
       -1    1    3    3    0  502  0.55796709449E+03 -0.13752511197E+04 -0.30377663034E+03  0.15149003802E+04  0.50400001928E-02 0.  1.
</event>
<event>
 5   0  0.1193123E-06  0.3107644E+04  0.7818609E-02  0.8213643E-01
       -2   -1    0    0    0  501  0.00000000000E+00  0.00000000000E+00  0.14067373280E+04  0.14067373280E+04  0.25500000920E-02 0. -1.
        2   -1    0    0  501    0  0.00000000000E+00  0.00000000000E+00 -0.17162856518E+04  0.17162856518E+04  0.25500000920E-02 0.  1.
    10030    2    1    2    0    0  0.00000000000E+00  0.00000000000E+00 -0.30954832374E+03  0.31230229798E+04  0.31076441829E+04 0.  0.
        3    1    3    3  502    0  0.36126542146E+03  0.57200987320E+03  0.12509529792E+04  0.14221783876E+04  0.10100000352E+00 0. -1.
       -3    1    3    3    0  502 -0.36126542146E+03 -0.57200987320E+03 -0.15605013030E+04  0.17008445921E+04  0.10100000352E+00 0.  1.
</event>
<event>
 5   0  0.4330395E-07  0.3110042E+04  0.7818609E-02  0.8212987E-01
       -1   -1    0    0    0  501  0.00000000000E+00  0.00000000000E+00  0.90448996470E+03  0.90448996471E+03  0.50400001928E-02 0.  1.
        1   -1    0    0  501    0  0.00000000000E+00  0.00000000000E+00 -0.26734301037E+04  0.26734301037E+04  0.50400001928E-02 0. -1.
    10030    2    1    2    0    0  0.00000000000E+00  0.00000000000E+00 -0.17689401390E+04  0.35779200684E+04  0.31100422506E+04 0.  0.
        1    1    3    3  502    0  0.25403076225E+03  0.19601795750E+03 -0.26349317265E+04  0.26543963289E+04  0.50400001928E-02 0. -1.
       -1    1    3    3    0  502 -0.25403076225E+03 -0.19601795750E+03  0.86599158746E+03  0.92352373950E+03  0.50400001928E-02 0.  1.
</event>
<event>
 5   0  0.1176002E-06  0.3102412E+04  0.7818609E-02  0.8215076E-01
        2   -1    0    0  501    0  0.00000000000E+00  0.00000000000E+00  0.15578203208E+04  0.15578203208E+04  0.25500000920E-02 0. -1.
       -2   -1    0    0    0  501  0.00000000000E+00  0.00000000000E+00 -0.15446199580E+04  0.15446199580E+04  0.25500000920E-02 0.  1.
    10030    2    1    2    0    0  0.00000000000E+00  0.00000000000E+00  0.13200362860E+02  0.31024402788E+04  0.31024121960E+04 0.  0.
        2    1    3    3  502    0  0.24800667412E+03  0.13956446129E+04 -0.62341279322E+03  0.15485395399E+04  0.25500000920E-02 0.  1.
       -2    1    3    3    0  502 -0.24800667412E+03 -0.13956446129E+04  0.63661315608E+03  0.15539007389E+04  0.25500000920E-02 0. -1.
</event>
<event>
 5   0  0.4219337E-07  0.3101856E+04  0.7818609E-02  0.8215229E-01
        1   -1    0    0  501    0  0.00000000000E+00  0.00000000000E+00  0.21854775445E+04  0.21854775445E+04  0.50400001928E-02 0. -1.
       -1   -1    0    0    0  501  0.00000000000E+00  0.00000000000E+00 -0.11006185449E+04  0.11006185449E+04  0.50400001928E-02 0.  1.
    10030    2    1    2    0    0  0.00000000000E+00  0.00000000000E+00  0.10848589995E+04  0.32860960894E+04  0.31018556478E+04 0.  0.
        4    1    3    3  502    0  0.15365387037E+04  0.11164787518E+03  0.73181892038E+03  0.17055723324E+04  0.12699999809E+01 0. -1.
       -4    1    3    3    0  502 -0.15365387037E+04 -0.11164787518E+03  0.35304007915E+03  0.15805237570E+04  0.12699999809E+01 0.  1.
</event>
<event>
 5   0  0.1176002E-06  0.3105457E+04  0.7818609E-02  0.8214242E-01
       -2   -1    0    0    0  501  0.00000000000E+00  0.00000000000E+00  0.27304064769E+04  0.27304064769E+04  0.25500000920E-02 0.  1.
        2   -1    0    0  501    0  0.00000000000E+00  0.00000000000E+00 -0.88300606752E+03  0.88300606753E+03  0.25500000920E-02 0. -1.
    10030    2    1    2    0    0  0.00000000000E+00  0.00000000000E+00  0.18474004094E+04  0.36134125445E+04  0.31054568011E+04 0.  0.
        2    1    3    3  502    0 -0.13640286169E+04 -0.63742624236E+03  0.13653649206E+04  0.20325126442E+04  0.25500000920E-02 0.  1.
       -2    1    3    3    0  502  0.13640286169E+04  0.63742624236E+03  0.48203548877E+03  0.15808999003E+04  0.25500000920E-02 0. -1.
</event>
<event>
 5   0  0.1237580E-06  0.3019306E+04  0.7818609E-02  0.8238239E-01
       -2   -1    0    0    0  501  0.00000000000E+00  0.00000000000E+00  0.13787329759E+04  0.13787329759E+04  0.25500000920E-02 0. -1.
        2   -1    0    0  501    0  0.00000000000E+00  0.00000000000E+00 -0.16530049011E+04  0.16530049011E+04  0.25500000920E-02 0.  1.
    10030    2    1    2    0    0  0.00000000000E+00  0.00000000000E+00 -0.27427192518E+03  0.30317378770E+04  0.30193061233E+04 0.  0.
        4    1    3    3  502    0 -0.50577574253E+03  0.60238858902E+02 -0.15641182200E+04  0.16449635987E+04  0.12699999809E+01 0.  1.
       -4    1    3    3    0  502  0.50577574253E+03 -0.60238858902E+02  0.12898462949E+04  0.13867742784E+04  0.12699999809E+01 0. -1.
</event>
<event>
 5   0  0.4330395E-07  0.3098428E+04  0.7818609E-02  0.8216170E-01
       -1   -1    0    0    0  501  0.00000000000E+00  0.00000000000E+00  0.11958841807E+04  0.11958841807E+04  0.50400001928E-02 0. -1.
        1   -1    0    0  501    0  0.00000000000E+00  0.00000000000E+00 -0.20069365995E+04  0.20069365995E+04  0.50400001928E-02 0.  1.
    10030    2    1    2    0    0  0.00000000000E+00  0.00000000000E+00 -0.81105241874E+03  0.32028207802E+04  0.30984278149E+04 0.  0.
        1    1    3    3  502    0  0.34392830055E+03 -0.92091601171E+03  0.83218406814E+03  0.12879842001E+04  0.50400001928E-02 0. -1.
       -1    1    3    3    0  502 -0.34392830055E+03  0.92091601171E+03 -0.16432364869E+04  0.19148365801E+04  0.50400001928E-02 0.  1.
</event>
<event>
 5   0  0.4173905E-07  0.2903939E+04  0.7818609E-02  0.8271706E-01
       -1   -1    0    0    0  501  0.00000000000E+00  0.00000000000E+00  0.18197608068E+04  0.18197608068E+04  0.50400001928E-02 0.  1.
        1   -1    0    0  501    0  0.00000000000E+00  0.00000000000E+00 -0.11585127215E+04  0.11585127215E+04  0.50400001928E-02 0. -1.
    10030    2    1    2    0    0  0.00000000000E+00  0.00000000000E+00  0.66124808527E+03  0.29782735283E+04  0.29039394241E+04 0.  0.
        3    1    3    3  502    0  0.11369759386E+04 -0.88674553596E+03  0.15541754373E+03  0.14502367233E+04  0.10100000352E+00 0.  1.
       -3    1    3    3    0  502 -0.11369759386E+04  0.88674553596E+03  0.50583054155E+03  0.15280368050E+04  0.10100000352E+00 0. -1.
</event>
<event>
 5   0  0.1193123E-06  0.3116700E+04  0.7818609E-02  0.8211170E-01
       -2   -1    0    0    0  501  0.00000000000E+00  0.00000000000E+00  0.79593911516E+03  0.79593911517E+03  0.25500000920E-02 0.  1.
        2   -1    0    0  501    0  0.00000000000E+00  0.00000000000E+00 -0.30510564226E+04  0.30510564226E+04  0.25500000920E-02 0. -1.
    10030    2    1    2    0    0  0.00000000000E+00  0.00000000000E+00 -0.22551173074E+04  0.38469955378E+04  0.31167002739E+04 0.  0.
        3    1    3    3  502    0  0.81536020543E+03  0.11503719466E+04 -0.19465790222E+04  0.24036093234E+04  0.10100000352E+00 0. -1.
       -3    1    3    3    0  502 -0.81536020543E+03 -0.11503719466E+04 -0.30853828527E+03  0.14433862143E+04  0.10100000352E+00 0.  1.
</event>
<event>
 5   0  0.3935852E-07  0.3099273E+04  0.7818609E-02  0.8215937E-01
        1   -1    0    0  501    0  0.00000000000E+00  0.00000000000E+00  0.35904605021E+04  0.35904605021E+04  0.50400001928E-02 0.  1.
       -1   -1    0    0    0  501  0.00000000000E+00  0.00000000000E+00 -0.66882049275E+03  0.66882049277E+03  0.50400001928E-02 0. -1.
    10030    2    1    2    0    0  0.00000000000E+00  0.00000000000E+00  0.29216400094E+04  0.42592809949E+04  0.30992731808E+04 0.  0.
        5    1    3    3  502    0  0.13760195998E+04 -0.33542152225E+03  0.23249964405E+04  0.27224195259E+04  0.46999998093E+01 0.  1.
       -5    1    3    3    0  502 -0.13760195998E+04  0.33542152225E+03  0.59664356892E+03  0.15368614690E+04  0.46999998093E+01 0. -1.
</event>
<event>
 5   0  0.4219337E-07  0.3103566E+04  0.7818609E-02  0.8214760E-01
       -1   -1    0    0    0  501  0.00000000000E+00  0.00000000000E+00  0.15313545437E+04  0.15313545437E+04  0.50400001928E-02 0. -1.
        1   -1    0    0  501    0  0.00000000000E+00  0.00000000000E+00 -0.15724836100E+04  0.15724836100E+04  0.50400001928E-02 0.  1.
    10030    2    1    2    0    0  0.00000000000E+00  0.00000000000E+00 -0.41129066257E+02  0.31038381537E+04  0.31035656404E+04 0.  0.
        4    1    3    3  502    0  0.11891668547E+04 -0.58243986064E+03 -0.82975504409E+03  0.15626416882E+04  0.12699999809E+01 0.  1.
       -4    1    3    3    0  502 -0.11891668547E+04  0.58243986064E+03  0.78862597783E+03  0.15411964655E+04  0.12699999809E+01 0. -1.
</event>
<event>
 5   0  0.1237580E-06  0.3088260E+04  0.7818609E-02  0.8218967E-01
       -2   -1    0    0    0  501  0.00000000000E+00  0.00000000000E+00  0.11951100251E+04  0.11951100251E+04  0.25500000920E-02 0.  1.
        2   -1    0    0  501    0  0.00000000000E+00  0.00000000000E+00 -0.19950773797E+04  0.19950773797E+04  0.25500000920E-02 0. -1.
    10030    2    1    2    0    0  0.00000000000E+00  0.00000000000E+00 -0.79996735466E+03  0.31901874048E+04  0.30882596894E+04 0.  0.
        4    1    3    3  502    0 -0.77572018308E+03 -0.12994856292E+04 -0.71658015123E+03  0.16744830334E+04  0.12699999809E+01 0. -1.
       -4    1    3    3    0  502  0.77572018308E+03  0.12994856292E+04 -0.83387203436E+02  0.15157043714E+04  0.12699999809E+01 0.  1.
</event>
<event>
 5   0  0.1258262E-06  0.3092011E+04  0.7818609E-02  0.8217934E-01
       -2   -1    0    0    0  501  0.00000000000E+00  0.00000000000E+00  0.11259826878E+04  0.11259826878E+04  0.25500000920E-02 0.  1.
        2   -1    0    0  501    0  0.00000000000E+00  0.00000000000E+00 -0.21227090978E+04  0.21227090978E+04  0.25500000920E-02 0. -1.
    10030    2    1    2    0    0  0.00000000000E+00  0.00000000000E+00 -0.99672641003E+03  0.32486917856E+04  0.30920114459E+04 0.  0.
        1    1    3    3  502    0  0.15097730187E+04 -0.56568205391E+02 -0.15384644059E+03  0.15186452045E+04  0.50400001928E-02 0.  1.
       -1    1    3    3    0  502 -0.15097730187E+04  0.56568205391E+02 -0.84287996944E+03  0.17300465811E+04  0.50400001928E-02 0. -1.
</event>
<event>
 5   0  0.4134019E-07  0.3103208E+04  0.7818609E-02  0.8214858E-01
       -1   -1    0    0    0  501  0.00000000000E+00  0.00000000000E+00  0.12039899013E+04  0.12039899013E+04  0.50400001928E-02 0.  1.
        1   -1    0    0  501    0  0.00000000000E+00  0.00000000000E+00 -0.19995801384E+04  0.19995801384E+04  0.50400001928E-02 0. -1.
    10030    2    1    2    0    0  0.00000000000E+00  0.00000000000E+00 -0.79559023710E+03  0.32035700396E+04  0.31032075621E+04 0.  0.
        2    1    3    3  502    0 -0.46958356899E+02 -0.10613459219E+04  0.76962479300E+03  0.13118622547E+04  0.25500000920E-02 0.  1.
       -2    1    3    3    0  502  0.46958356899E+02  0.10613459219E+04 -0.15652150301E+04  0.18917077850E+04  0.25500000920E-02 0. -1.
</event>
<event>
 5   0  0.1176002E-06  0.3107405E+04  0.7818609E-02  0.8213709E-01
        2   -1    0    0  501    0  0.00000000000E+00  0.00000000000E+00  0.11841227145E+04  0.11841227145E+04  0.25500000920E-02 0.  1.
       -2   -1    0    0    0  501  0.00000000000E+00  0.00000000000E+00 -0.20386329774E+04  0.20386329774E+04  0.25500000920E-02 0. -1.
    10030    2    1    2    0    0  0.00000000000E+00  0.00000000000E+00 -0.85451026299E+03  0.32227556919E+04  0.31074051007E+04 0.  0.
        2    1    3    3  502    0 -0.13292515101E+04 -0.58701420881E+03  0.14315809072E+03  0.14601333834E+04  0.25500000920E-02 0.  1.
       -2    1    3    3    0  502  0.13292515101E+04  0.58701420881E+03 -0.99766835372E+03  0.17626223085E+04  0.25500000920E-02 0. -1.
</event>
<event>
 5   0  0.1258262E-06  0.3277502E+04  0.7818609E-02  0.8168644E-01
        2   -1    0    0  501    0  0.00000000000E+00  0.00000000000E+00  0.18689910119E+04  0.18689910119E+04  0.25500000920E-02 0. -1.
       -2   -1    0    0    0  501  0.00000000000E+00  0.00000000000E+00 -0.14368742723E+04  0.14368742723E+04  0.25500000920E-02 0.  1.
    10030    2    1    2    0    0  0.00000000000E+00  0.00000000000E+00  0.43211673962E+03  0.33058652843E+04  0.32775021588E+04 0.  0.
        1    1    3    3  502    0  0.11657924673E+04  0.60425369571E+03 -0.77289088418E+03  0.15236649647E+04  0.50400001928E-02 0. -1.
       -1    1    3    3    0  502 -0.11657924673E+04 -0.60425369571E+03  0.12050076238E+04  0.17822003196E+04  0.50400001928E-02 0.  1.
</event>
<event>
 5   0  0.1193123E-06  0.3109199E+04  0.7818609E-02  0.8213218E-01
       -2   -1    0    0    0  501  0.00000000000E+00  0.00000000000E+00  0.12651537685E+04  0.12651537685E+04  0.25500000920E-02 0. -1.
        2   -1    0    0  501    0  0.00000000000E+00  0.00000000000E+00 -0.19102659512E+04  0.19102659512E+04  0.25500000920E-02 0.  1.
    10030    2    1    2    0    0  0.00000000000E+00  0.00000000000E+00 -0.64511218265E+03  0.31754197197E+04  0.31091993613E+04 0.  0.
        3    1    3    3  502    0 -0.11956832637E+04  0.99021863858E+03 -0.40545592712E+03  0.16045516316E+04  0.10100000352E+00 0.  1.
       -3    1    3    3    0  502  0.11956832637E+04 -0.99021863858E+03 -0.23965625553E+03  0.15708680882E+04  0.10100000352E+00 0. -1.
</event>
<event>
 5   0  0.1176002E-06  0.3101160E+04  0.7818609E-02  0.8215420E-01
        2   -1    0    0  501    0  0.00000000000E+00  0.00000000000E+00  0.17693480774E+04  0.17693480774E+04  0.25500000920E-02 0.  1.
       -2   -1    0    0    0  501  0.00000000000E+00  0.00000000000E+00 -0.13588608589E+04  0.13588608590E+04  0.25500000920E-02 0. -1.
    10030    2    1    2    0    0  0.00000000000E+00  0.00000000000E+00  0.41048721843E+03  0.31282089363E+04  0.31011596852E+04 0.  0.
        2    1    3    3  502    0  0.61024932011E+03  0.32939515583E+03  0.16042045076E+04  0.17476777459E+04  0.25500000920E-02 0.  1.
       -2    1    3    3    0  502 -0.61024932011E+03 -0.32939515583E+03 -0.11937172891E+04  0.13805311904E+04  0.25500000920E-02 0. -1.
</event>
<event>
 5   0  0.3935852E-07  0.3090318E+04  0.7818609E-02  0.8218400E-01
       -1   -1    0    0    0  501  0.00000000000E+00  0.00000000000E+00  0.11912485506E+04  0.11912485506E+04  0.50400001928E-02 0.  1.
        1   -1    0    0  501    0  0.00000000000E+00  0.00000000000E+00 -0.20042138715E+04  0.20042138715E+04  0.50400001928E-02 0. -1.
    10030    2    1    2    0    0  0.00000000000E+00  0.00000000000E+00 -0.81296532095E+03  0.31954624221E+04  0.30903183457E+04 0.  0.
        5    1    3    3  502    0 -0.10812200093E+04  0.47716413337E+03  0.62275923970E+03  0.13358792907E+04  0.46999998093E+01 0.  1.
       -5    1    3    3    0  502  0.10812200093E+04 -0.47716413337E+03 -0.14357245607E+04  0.18595831314E+04  0.46999998093E+01 0. -1.
</event>
<event>
 5   0  0.1237580E-06  0.3107461E+04  0.7818609E-02  0.8213693E-01
       -2   -1    0    0    0  501  0.00000000000E+00  0.00000000000E+00  0.10546265661E+04  0.10546265661E+04  0.25500000920E-02 0. -1.
        2   -1    0    0  501    0  0.00000000000E+00  0.00000000000E+00 -0.22890367745E+04  0.22890367745E+04  0.25500000920E-02 0.  1.
    10030    2    1    2    0    0  0.00000000000E+00  0.00000000000E+00 -0.12344102084E+04  0.33436633406E+04  0.31074613389E+04 0.  0.
        4    1    3    3  502    0  0.67972078941E+03 -0.30213971280E+03 -0.20849919681E+04  0.22137077218E+04  0.12699999809E+01 0.  1.
       -4    1    3    3    0  502 -0.67972078941E+03  0.30213971280E+03  0.85058175968E+03  0.11299556188E+04  0.12699999809E+01 0. -1.
</event>
<event>
 5   0  0.4173905E-07  0.3069612E+04  0.7818609E-02  0.8224127E-01
        1   -1    0    0  501    0  0.00000000000E+00  0.00000000000E+00  0.14483874480E+04  0.14483874480E+04  0.50400001928E-02 0. -1.
       -1   -1    0    0    0  501  0.00000000000E+00  0.00000000000E+00 -0.16263811505E+04  0.16263811505E+04  0.50400001928E-02 0.  1.
    10030    2    1    2    0    0  0.00000000000E+00  0.00000000000E+00 -0.17799370248E+03  0.30747685985E+04  0.30696123821E+04 0.  0.
        3    1    3    3  502    0 -0.13620987741E+04 -0.51115943871E+03  0.40073440460E+03  0.15090344977E+04  0.10100000352E+00 0. -1.
       -3    1    3    3    0  502  0.13620987741E+04  0.51115943871E+03 -0.57872810707E+03  0.15657341008E+04  0.10100000352E+00 0.  1.
</event>
<event>
 5   0  0.4173905E-07  0.3086509E+04  0.7818609E-02  0.8219450E-01
        1   -1    0    0  501    0  0.00000000000E+00  0.00000000000E+00  0.10507063962E+04  0.10507063962E+04  0.50400001928E-02 0. -1.
       -1   -1    0    0    0  501  0.00000000000E+00  0.00000000000E+00 -0.22666988303E+04  0.22666988303E+04  0.50400001928E-02 0.  1.
    10030    2    1    2    0    0  0.00000000000E+00  0.00000000000E+00 -0.12159924342E+04  0.33174052265E+04  0.30865093288E+04 0.  0.
        3    1    3    3  502    0  0.18333766505E+03  0.66975968164E+03  0.87330780695E+03  0.11157317180E+04  0.10100000352E+00 0. -1.
       -3    1    3    3    0  502 -0.18333766505E+03 -0.66975968164E+03 -0.20893002411E+04  0.22016735086E+04  0.10100000352E+00 0.  1.
</event>
<event>
 5   0  0.1193123E-06  0.3097194E+04  0.7818609E-02  0.8216508E-01
       -2   -1    0    0    0  501  0.00000000000E+00  0.00000000000E+00  0.11438313531E+04  0.11438313531E+04  0.25500000920E-02 0. -1.
        2   -1    0    0  501    0  0.00000000000E+00  0.00000000000E+00 -0.20965962519E+04  0.20965962519E+04  0.25500000920E-02 0.  1.
    10030    2    1    2    0    0  0.00000000000E+00  0.00000000000E+00 -0.95276489880E+03  0.32404276050E+04  0.30971939091E+04 0.  0.
        3    1    3    3  502    0  0.85216560680E+03  0.75722736573E+03  0.62021792478E+03  0.12977864960E+04  0.10100000352E+00 0. -1.
       -3    1    3    3    0  502 -0.85216560680E+03 -0.75722736573E+03 -0.15729828236E+04  0.19426411090E+04  0.10100000352E+00 0.  1.
</event>
<event>
 5   0  0.3902375E-07  0.3100690E+04  0.7818609E-02  0.8215549E-01
       -3   -1    0    0    0  501  0.00000000000E+00  0.00000000000E+00  0.23373352440E+04  0.23373352462E+04  0.10100000352E+00 0. -1.
        3   -1    0    0  501    0  0.00000000000E+00  0.00000000000E+00 -0.10283372251E+04  0.10283372301E+04  0.10100000352E+00 0.  1.
    10030    2    1    2    0    0  0.00000000000E+00  0.00000000000E+00  0.13089980189E+04  0.33656724763E+04  0.31006895046E+04 0.  0.
        3    1    3    3  502    0 -0.14272834943E+04 -0.34966957353E+03  0.11814382664E+03  0.14742336849E+04  0.10100000352E+00 0.  1.
       -3    1    3    3    0  502  0.14272834943E+04  0.34966957353E+03  0.11908541923E+04  0.18914387913E+04  0.10100000352E+00 0. -1.
</event>
<event>
 5   0  0.4173905E-07  0.3115454E+04  0.7818609E-02  0.8211510E-01
        1   -1    0    0  501    0  0.00000000000E+00  0.00000000000E+00  0.14629004921E+04  0.14629004921E+04  0.50400001928E-02 0.  1.
       -1   -1    0    0    0  501  0.00000000000E+00  0.00000000000E+00 -0.16587000065E+04  0.16587000065E+04  0.50400001928E-02 0. -1.
    10030    2    1    2    0    0  0.00000000000E+00  0.00000000000E+00 -0.19579951432E+03  0.31216004986E+04  0.31154537748E+04 0.  0.
        3    1    3    3  502    0  0.74440054763E+03 -0.12481939224E+04  0.46391391898E+03  0.15255610043E+04  0.10100000352E+00 0.  1.
       -3    1    3    3    0  502 -0.74440054763E+03  0.12481939224E+04 -0.65971343331E+03  0.15960394944E+04  0.10100000352E+00 0. -1.
</event>
<event>
 5   0  0.4219337E-07  0.3100306E+04  0.7818609E-02  0.8215654E-01
       -1   -1    0    0    0  501  0.00000000000E+00  0.00000000000E+00  0.11974098546E+04  0.11974098546E+04  0.50400001928E-02 0. -1.
        1   -1    0    0  501    0  0.00000000000E+00  0.00000000000E+00 -0.20068098081E+04  0.20068098081E+04  0.50400001928E-02 0.  1.
    10030    2    1    2    0    0  0.00000000000E+00  0.00000000000E+00 -0.80939995350E+03  0.32042196627E+04  0.31003056885E+04 0.  0.
        4    1    3    3  502    0  0.53259645003E+02 -0.11747327711E+04  0.63917225406E+03  0.13384231232E+04  0.12699999809E+01 0. -1.
       -4    1    3    3    0  502 -0.53259645003E+02  0.11747327711E+04 -0.14485722076E+04  0.18657965395E+04  0.12699999809E+01 0.  1.
</event>
<event>
 5   0  0.3935852E-07  0.3076888E+04  0.7818609E-02  0.8222109E-01
       -1   -1    0    0    0  501  0.00000000000E+00  0.00000000000E+00  0.14344831618E+04  0.14344831618E+04  0.50400001928E-02 0.  1.
        1   -1    0    0  501    0  0.00000000000E+00  0.00000000000E+00 -0.16499395553E+04  0.16499395553E+04  0.50400001928E-02 0. -1.
    10030    2    1    2    0    0  0.00000000000E+00  0.00000000000E+00 -0.21545639351E+03  0.30844227171E+04  0.30768883698E+04 0.  0.
        5    1    3    3  502    0 -0.11967001156E+04 -0.53460888323E+02  0.85995374775E+03  0.14746158047E+04  0.46999998093E+01 0.  1.
       -5    1    3    3    0  502  0.11967001156E+04  0.53460888323E+02 -0.10754101413E+04  0.16098069124E+04  0.46999998093E+01 0. -1.
</event>
<event>
 5   0  0.4219337E-07  0.3123375E+04  0.7818609E-02  0.8209352E-01
        1   -1    0    0  501    0  0.00000000000E+00  0.00000000000E+00  0.78802228432E+03  0.78802228433E+03  0.50400001928E-02 0.  1.
       -1   -1    0    0    0  501  0.00000000000E+00  0.00000000000E+00 -0.30949217801E+04  0.30949217801E+04  0.50400001928E-02 0. -1.
    10030    2    1    2    0    0  0.00000000000E+00  0.00000000000E+00 -0.23068994958E+04  0.38829440644E+04  0.31233746692E+04 0.  0.
        4    1    3    3  502    0  0.52313093468E+03 -0.43220026446E+03 -0.29020655382E+04  0.29803437795E+04  0.12699999809E+01 0. -1.
       -4    1    3    3    0  502 -0.52313093468E+03  0.43220026446E+03  0.59516604239E+03  0.90260028491E+03  0.12699999809E+01 0.  1.
</event>
<event>
 5   0  0.1193123E-06  0.3098519E+04  0.7818609E-02  0.8216145E-01
       -2   -1    0    0    0  501  0.00000000000E+00  0.00000000000E+00  0.15361662165E+04  0.15361662165E+04  0.25500000920E-02 0. -1.
        2   -1    0    0  501    0  0.00000000000E+00  0.00000000000E+00 -0.15624639382E+04  0.15624639382E+04  0.25500000920E-02 0.  1.
    10030    2    1    2    0    0  0.00000000000E+00  0.00000000000E+00 -0.26297721720E+02  0.30986301547E+04  0.30985185598E+04 0.  0.
        3    1    3    3  502    0 -0.11445440231E+04  0.96166067287E+03  0.39359915953E+03  0.15458630531E+04  0.10100000352E+00 0. -1.
       -3    1    3    3    0  502  0.11445440231E+04 -0.96166067287E+03 -0.41989688125E+03  0.15527671015E+04  0.10100000352E+00 0.  1.
</event>
<event>
 5   0  0.4330395E-07  0.3097601E+04  0.7818609E-02  0.8216397E-01
        1   -1    0    0  501    0  0.00000000000E+00  0.00000000000E+00  0.23333637219E+04  0.23333637219E+04  0.50400001928E-02 0.  1.
       -1   -1    0    0    0  501  0.00000000000E+00  0.00000000000E+00 -0.10280361821E+04  0.10280361821E+04  0.50400001928E-02 0. -1.
    10030    2    1    2    0    0  0.00000000000E+00  0.00000000000E+00  0.13053275398E+04  0.33613999039E+04  0.30976005759E+04 0.  0.
        1    1    3    3  502    0  0.57843737137E+03 -0.12032809097E+04 -0.19924585633E+03  0.13498791248E+04  0.50400001928E-02 0. -1.
       -1    1    3    3    0  502 -0.57843737137E+03  0.12032809097E+04  0.15045733962E+04  0.20115207791E+04  0.50400001928E-02 0.  1.
</event>
<event>
 5   0  0.1193123E-06  0.3156864E+04  0.7818609E-02  0.8200303E-01
       -2   -1    0    0    0  501  0.00000000000E+00  0.00000000000E+00  0.12219589049E+04  0.12219589049E+04  0.25500000920E-02 0.  1.
        2   -1    0    0  501    0  0.00000000000E+00  0.00000000000E+00 -0.20388964777E+04  0.20388964777E+04  0.25500000920E-02 0. -1.
    10030    2    1    2    0    0  0.00000000000E+00  0.00000000000E+00 -0.81693757282E+03  0.32608553826E+04  0.31568640814E+04 0.  0.
        3    1    3    3  502    0 -0.24392665325E+03  0.79563971191E+02 -0.20172121704E+04  0.20334639383E+04  0.10100000352E+00 0. -1.
       -3    1    3    3    0  502  0.24392665325E+03 -0.79563971191E+02  0.12002745976E+04  0.12273914443E+04  0.10100000352E+00 0.  1.
</event>
<event>
 5   0  0.1237580E-06  0.3095957E+04  0.7818609E-02  0.8216848E-01
       -2   -1    0    0    0  501  0.00000000000E+00  0.00000000000E+00  0.90514806783E+03  0.90514806783E+03  0.25500000920E-02 0. -1.
        2   -1    0    0  501    0  0.00000000000E+00  0.00000000000E+00 -0.26473422745E+04  0.26473422745E+04  0.25500000920E-02 0.  1.
    10030    2    1    2    0    0  0.00000000000E+00  0.00000000000E+00 -0.17421942067E+04  0.35524903424E+04  0.30959565531E+04 0.  0.
        4    1    3    3  502    0  0.10189846332E+04 -0.11369630219E+04 -0.11641393464E+04  0.19199574544E+04  0.12699999809E+01 0.  1.
       -4    1    3    3    0  502 -0.10189846332E+04  0.11369630219E+04 -0.57805486029E+03  0.16325328880E+04  0.12699999809E+01 0. -1.
</event>
<event>
 5   0  0.4219337E-07  0.3099127E+04  0.7818609E-02  0.8215977E-01
        1   -1    0    0  501    0  0.00000000000E+00  0.00000000000E+00  0.16477359794E+04  0.16477359794E+04  0.50400001928E-02 0. -1.
       -1   -1    0    0    0  501  0.00000000000E+00  0.00000000000E+00 -0.14572404901E+04  0.14572404901E+04  0.50400001928E-02 0.  1.
    10030    2    1    2    0    0  0.00000000000E+00  0.00000000000E+00  0.19049548935E+03  0.31049764695E+04  0.30991273521E+04 0.  0.
        4    1    3    3  502    0 -0.11981484462E+03 -0.66797677973E+03 -0.13004346897E+04  0.14668607877E+04  0.12699999809E+01 0.  1.
       -4    1    3    3    0  502  0.11981484462E+03  0.66797677973E+03  0.14909301791E+04  0.16381156818E+04  0.12699999809E+01 0. -1.
</event>
<event>
 5   0  0.4330395E-07  0.3101341E+04  0.7818609E-02  0.8215370E-01
       -1   -1    0    0    0  501  0.00000000000E+00  0.00000000000E+00  0.17344684715E+04  0.17344684715E+04  0.50400001928E-02 0. -1.
        1   -1    0    0  501    0  0.00000000000E+00  0.00000000000E+00 -0.13863491093E+04  0.13863491093E+04  0.50400001928E-02 0.  1.
    10030    2    1    2    0    0  0.00000000000E+00  0.00000000000E+00  0.34811936221E+03  0.31208175808E+04  0.31013408845E+04 0.  0.
        1    1    3    3  502    0  0.13310702815E+03  0.11061583804E+04 -0.91126598268E+03  0.14393434387E+04  0.50400001928E-02 0.  1.
       -1    1    3    3    0  502 -0.13310702815E+03 -0.11061583804E+04  0.12593853449E+04  0.16814741420E+04  0.50400001928E-02 0. -1.
</event>
<event>
 5   0  0.1176002E-06  0.3060446E+04  0.7818609E-02  0.8226678E-01
       -2   -1    0    0    0  501  0.00000000000E+00  0.00000000000E+00  0.26309822232E+04  0.26309822232E+04  0.25500000920E-02 0.  1.
        2   -1    0    0  501    0  0.00000000000E+00  0.00000000000E+00 -0.89000297008E+03  0.89000297008E+03  0.25500000920E-02 0. -1.
    10030    2    1    2    0    0  0.00000000000E+00  0.00000000000E+00  0.17409792531E+04  0.35209851933E+04  0.30604457145E+04 0.  0.
        2    1    3    3  502    0  0.77260632485E+03  0.12262463472E+04  0.30572012000E+03  0.14812378030E+04  0.25500000920E-02 0.  1.
       -2    1    3    3    0  502 -0.77260632485E+03 -0.12262463472E+04  0.14352591331E+04  0.20397473903E+04  0.25500000920E-02 0. -1.
</event>
<event>
 5   0  0.1193123E-06  0.3087749E+04  0.7818609E-02  0.8219108E-01
       -2   -1    0    0    0  501  0.00000000000E+00  0.00000000000E+00  0.17095007702E+04  0.17095007702E+04  0.25500000920E-02 0. -1.
        2   -1    0    0  501    0  0.00000000000E+00  0.00000000000E+00 -0.13942948773E+04  0.13942948773E+04  0.25500000920E-02 0.  1.
    10030    2    1    2    0    0  0.00000000000E+00  0.00000000000E+00  0.31520589295E+03  0.31037956475E+04  0.30877488024E+04 0.  0.
        3    1    3    3  502    0  0.11263539882E+03 -0.12938174281E+04  0.99674547369E+03  0.16371169231E+04  0.10100000352E+00 0. -1.
       -3    1    3    3    0  502 -0.11263539882E+03  0.12938174281E+04 -0.68153958074E+03  0.14666787244E+04  0.10100000352E+00 0.  1.
</event>
<event>
 5   0  0.4219337E-07  0.3112456E+04  0.7818609E-02  0.8212328E-01
        1   -1    0    0  501    0  0.00000000000E+00  0.00000000000E+00  0.12535724782E+04  0.12535724782E+04  0.50400001928E-02 0.  1.
       -1   -1    0    0    0  501  0.00000000000E+00  0.00000000000E+00 -0.19319545754E+04  0.19319545754E+04  0.50400001928E-02 0. -1.
    10030    2    1    2    0    0  0.00000000000E+00  0.00000000000E+00 -0.67838209718E+03  0.31855270537E+04  0.31124556768E+04 0.  0.
        4    1    3    3  502    0 -0.17557092628E+03  0.85876435408E+03  0.97689944276E+03  0.13124920953E+04  0.12699999809E+01 0.  1.
       -4    1    3    3    0  502  0.17557092628E+03 -0.85876435408E+03 -0.16552815399E+04  0.18730349584E+04  0.12699999809E+01 0. -1.
</event>
<event>
 5   0  0.4134019E-07  0.3091616E+04  0.7818609E-02  0.8218043E-01
       -1   -1    0    0    0  501  0.00000000000E+00  0.00000000000E+00  0.13295131498E+04  0.13295131498E+04  0.50400001928E-02 0. -1.
        1   -1    0    0  501    0  0.00000000000E+00  0.00000000000E+00 -0.17972914289E+04  0.17972914289E+04  0.50400001928E-02 0.  1.
    10030    2    1    2    0    0  0.00000000000E+00  0.00000000000E+00 -0.46777827911E+03  0.31268045786E+04  0.30916161396E+04 0.  0.
        2    1    3    3  502    0  0.15190992125E+04 -0.25498489730E+03 -0.36514637887E+03  0.15830387213E+04  0.25500000920E-02 0. -1.
       -2    1    3    3    0  502 -0.15190992125E+04  0.25498489730E+03 -0.10263190023E+03  0.15437658573E+04  0.25500000920E-02 0.  1.
</event>
<event>
 5   0  0.4330395E-07  0.3100881E+04  0.7818609E-02  0.8215496E-01
        1   -1    0    0  501    0  0.00000000000E+00  0.00000000000E+00  0.19253816502E+04  0.19253816502E+04  0.50400001928E-02 0.  1.
       -1   -1    0    0    0  501  0.00000000000E+00  0.00000000000E+00 -0.12485135135E+04  0.12485135135E+04  0.50400001928E-02 0. -1.
    10030    2    1    2    0    0  0.00000000000E+00  0.00000000000E+00  0.67686813665E+03  0.31738951637E+04  0.31008805259E+04 0.  0.
        1    1    3    3  502    0  0.15050832239E+04 -0.20888657381E+03  0.65383902602E+03  0.16542111665E+04  0.50400001928E-02 0. -1.
       -1    1    3    3    0  502 -0.15050832239E+04  0.20888657381E+03  0.23029110626E+02  0.15196839972E+04  0.50400001928E-02 0.  1.
</event>
<event>
 5   0  0.1176002E-06  0.3129432E+04  0.7818609E-02  0.8207707E-01
        2   -1    0    0  501    0  0.00000000000E+00  0.00000000000E+00  0.18964410006E+04  0.18964410006E+04  0.25500000920E-02 0.  1.
       -2   -1    0    0    0  501  0.00000000000E+00  0.00000000000E+00 -0.12910166062E+04  0.12910166062E+04  0.25500000920E-02 0. -1.
    10030    2    1    2    0    0  0.00000000000E+00  0.00000000000E+00  0.60542439442E+03  0.31874576068E+04  0.31294324243E+04 0.  0.
        2    1    3    3  502    0  0.30168870184E+03 -0.61590953641E+03  0.17351948440E+04  0.18658139716E+04  0.25500000920E-02 0.  1.
       -2    1    3    3    0  502 -0.30168870184E+03  0.61590953641E+03 -0.11297704496E+04  0.13216436353E+04  0.25500000920E-02 0. -1.
</event>
<event>
 5   0  0.3935852E-07  0.3094359E+04  0.7818609E-02  0.8217288E-01
        1   -1    0    0  501    0  0.00000000000E+00  0.00000000000E+00  0.15960348166E+04  0.15960348166E+04  0.50400001928E-02 0. -1.
       -1   -1    0    0    0  501  0.00000000000E+00  0.00000000000E+00 -0.14998196742E+04  0.14998196742E+04  0.50400001928E-02 0.  1.
    10030    2    1    2    0    0  0.00000000000E+00  0.00000000000E+00  0.96215142446E+02  0.30958544908E+04  0.30943590087E+04 0.  0.
        5    1    3    3  502    0  0.76419049741E+03  0.97262520483E+03 -0.88172602621E+03  0.15190292231E+04  0.46999998093E+01 0.  1.
       -5    1    3    3    0  502 -0.76419049741E+03 -0.97262520483E+03  0.97794116865E+03  0.15768252677E+04  0.46999998093E+01 0. -1.
</event>
<event>
 5   0  0.4173905E-07  0.3110408E+04  0.7818609E-02  0.8212887E-01
       -1   -1    0    0    0  501  0.00000000000E+00  0.00000000000E+00  0.12503444454E+04  0.12503444454E+04  0.50400001928E-02 0. -1.
        1   -1    0    0  501    0  0.00000000000E+00  0.00000000000E+00 -0.19343946942E+04  0.19343946942E+04  0.50400001928E-02 0.  1.
    10030    2    1    2    0    0  0.00000000000E+00  0.00000000000E+00 -0.68405024873E+03  0.31847391396E+04  0.31104081154E+04 0.  0.
        3    1    3    3  502    0  0.11650123719E+03  0.12299522523E+04  0.62516765914E+03  0.13846261927E+04  0.10100000352E+00 0. -1.
       -3    1    3    3    0  502 -0.11650123719E+03 -0.12299522523E+04 -0.13092179079E+04  0.18001129469E+04  0.10100000352E+00 0.  1.
</event>
<event>
 5   0  0.1193123E-06  0.3103887E+04  0.7818609E-02  0.8214672E-01
       -2   -1    0    0    0  501  0.00000000000E+00  0.00000000000E+00  0.15056966031E+04  0.15056966031E+04  0.25500000920E-02 0. -1.
        2   -1    0    0  501    0  0.00000000000E+00  0.00000000000E+00 -0.15996103389E+04  0.15996103389E+04  0.25500000920E-02 0.  1.
    10030    2    1    2    0    0  0.00000000000E+00  0.00000000000E+00 -0.93913735759E+02  0.31053069420E+04  0.31038865015E+04 0.  0.
        3    1    3    3  502    0 -0.13134016679E+03 -0.15320725542E+04 -0.25688924328E+03  0.15590024516E+04  0.10100000352E+00 0.  1.
       -3    1    3    3    0  502  0.13134016679E+03  0.15320725542E+04  0.16297550753E+03  0.15463044904E+04  0.10100000352E+00 0. -1.
</event>
<event>
 5   0  0.1193123E-06  0.3116509E+04  0.7818609E-02  0.8211222E-01
        2   -1    0    0  501    0  0.00000000000E+00  0.00000000000E+00  0.12091909226E+04  0.12091909226E+04  0.25500000920E-02 0.  1.
       -2   -1    0    0    0  501  0.00000000000E+00  0.00000000000E+00 -0.20080840387E+04  0.20080840387E+04  0.25500000920E-02 0. -1.
    10030    2    1    2    0    0  0.00000000000E+00  0.00000000000E+00 -0.79889311616E+03  0.32172749613E+04  0.31165089388E+04 0.  0.
        3    1    3    3  502    0  0.75150543873E+03  0.33312612267E+03 -0.17660400298E+04  0.19479812204E+04  0.10100000352E+00 0. -1.
       -3    1    3    3    0  502 -0.75150543873E+03 -0.33312612267E+03  0.96714691360E+03  0.12692937409E+04  0.10100000352E+00 0.  1.
</event>
<event>
 5   0  0.4330395E-07  0.3074715E+04  0.7818609E-02  0.8222712E-01
       -1   -1    0    0    0  501  0.00000000000E+00  0.00000000000E+00  0.11102900822E+04  0.11102900822E+04  0.50400001928E-02 0.  1.
        1   -1    0    0  501    0  0.00000000000E+00  0.00000000000E+00 -0.21286943826E+04  0.21286943827E+04  0.50400001928E-02 0. -1.
    10030    2    1    2    0    0  0.00000000000E+00  0.00000000000E+00 -0.10184043004E+04  0.32389844649E+04  0.30747151160E+04 0.  0.
        1    1    3    3  502    0 -0.18221108279E+03  0.14311839881E+04 -0.10685899131E+04  0.17953754173E+04  0.50400001928E-02 0. -1.
       -1    1    3    3    0  502  0.18221108279E+03 -0.14311839881E+04  0.50185612660E+02  0.14436090476E+04  0.50400001928E-02 0.  1.
</event>
<event>
 5   0  0.1258262E-06  0.3094411E+04  0.7818609E-02  0.8217273E-01
       -2   -1    0    0    0  501  0.00000000000E+00  0.00000000000E+00  0.16346750207E+04  0.16346750207E+04  0.25500000920E-02 0.  1.
        2   -1    0    0  501    0  0.00000000000E+00  0.00000000000E+00 -0.14644165534E+04  0.14644165534E+04  0.25500000920E-02 0. -1.
    10030    2    1    2    0    0  0.00000000000E+00  0.00000000000E+00  0.17025846725E+03  0.30990915741E+04  0.30944111942E+04 0.  0.
        1    1    3    3  502    0 -0.19631079255E+03  0.15343107314E+04  0.11979100244E+03  0.15514500417E+04  0.50400001928E-02 0. -1.
       -1    1    3    3    0  502  0.19631079255E+03 -0.15343107314E+04  0.50467464812E+02  0.15476415324E+04  0.50400001928E-02 0.  1.
</event>
<event>
 5   0  0.4219337E-07  0.3206329E+04  0.7818609E-02  0.8187148E-01
       -1   -1    0    0    0  501  0.00000000000E+00  0.00000000000E+00  0.14839244684E+04  0.14839244685E+04  0.50400001928E-02 0. -1.
        1   -1    0    0  501    0  0.00000000000E+00  0.00000000000E+00 -0.17319859200E+04  0.17319859200E+04  0.50400001928E-02 0.  1.
    10030    2    1    2    0    0  0.00000000000E+00  0.00000000000E+00 -0.24806145151E+03  0.32159103884E+04  0.32063289199E+04 0.  0.
        4    1    3    3  502    0 -0.35374735551E+03 -0.22939779753E+03 -0.16753829593E+04  0.17276198118E+04  0.12699999809E+01 0.  1.
       -4    1    3    3    0  502  0.35374735551E+03  0.22939779753E+03  0.14273215078E+04  0.14882905766E+04  0.12699999809E+01 0. -1.
</event>
<event>
 5   0  0.4330395E-07  0.3102263E+04  0.7818609E-02  0.8215117E-01
        1   -1    0    0  501    0  0.00000000000E+00  0.00000000000E+00  0.14633948489E+04  0.14633948489E+04  0.50400001928E-02 0.  1.
       -1   -1    0    0    0  501  0.00000000000E+00  0.00000000000E+00 -0.16441282278E+04  0.16441282278E+04  0.50400001928E-02 0. -1.
    10030    2    1    2    0    0  0.00000000000E+00  0.00000000000E+00 -0.18073337896E+03  0.31075230767E+04  0.31022629028E+04 0.  0.
        1    1    3    3  502    0  0.11558048629E+04 -0.49410760525E+03 -0.10007429876E+04  0.16067089760E+04  0.50400001928E-02 0. -1.
       -1    1    3    3    0  502 -0.11558048629E+04  0.49410760525E+03  0.82000960859E+03  0.15008141007E+04  0.50400001928E-02 0.  1.
</event>
<event>
 5   0  0.4134019E-07  0.3031161E+04  0.7818609E-02  0.8234888E-01
        1   -1    0    0  501    0  0.00000000000E+00  0.00000000000E+00  0.17289799884E+04  0.17289799884E+04  0.50400001928E-02 0.  1.
       -1   -1    0    0    0  501  0.00000000000E+00  0.00000000000E+00 -0.13285202939E+04  0.13285202939E+04  0.50400001928E-02 0. -1.
    10030    2    1    2    0    0  0.00000000000E+00  0.00000000000E+00  0.40045969444E+03  0.30575002823E+04  0.30311614951E+04 0.  0.
        2    1    3    3  502    0 -0.95925102962E+03 -0.78569046959E+03  0.10793030108E+04  0.16438877824E+04  0.25500000920E-02 0.  1.
       -2    1    3    3    0  502  0.95925102962E+03  0.78569046959E+03 -0.67884331637E+03  0.14136125000E+04  0.25500000920E-02 0. -1.
</event>
<event>
 5   0  0.1193123E-06  0.3092079E+04  0.7818609E-02  0.8217915E-01
        2   -1    0    0  501    0  0.00000000000E+00  0.00000000000E+00  0.18087252538E+04  0.18087252538E+04  0.25500000920E-02 0.  1.
       -2   -1    0    0    0  501  0.00000000000E+00  0.00000000000E+00 -0.13215045808E+04  0.13215045808E+04  0.25500000920E-02 0. -1.
    10030    2    1    2    0    0  0.00000000000E+00  0.00000000000E+00  0.48722067298E+03  0.31302298346E+04  0.30920793705E+04 0.  0.
        3    1    3    3  502    0  0.74022758632E+03 -0.10044965209E+04  0.11677195547E+04  0.17089526350E+04  0.10100000352E+00 0.  1.
       -3    1    3    3    0  502 -0.74022758632E+03  0.10044965209E+04 -0.68049888168E+03  0.14212771996E+04  0.10100000352E+00 0. -1.
</event>
<event>
 5   0  0.4219337E-07  0.3091721E+04  0.7818609E-02  0.8218014E-01
        1   -1    0    0  501    0  0.00000000000E+00  0.00000000000E+00  0.23139909202E+04  0.23139909202E+04  0.50400001928E-02 0. -1.
       -1   -1    0    0    0  501  0.00000000000E+00  0.00000000000E+00 -0.10327110764E+04  0.10327110764E+04  0.50400001928E-02 0.  1.
    10030    2    1    2    0    0  0.00000000000E+00  0.00000000000E+00  0.12812798439E+04  0.33467019966E+04  0.30917205915E+04 0.  0.
        4    1    3    3  502    0  0.29968583965E+03 -0.12766426331E+04 -0.24543785488E+03  0.13341174494E+04  0.12699999809E+01 0. -1.
       -4    1    3    3    0  502 -0.29968583965E+03  0.12766426331E+04  0.15267176987E+04  0.20125845472E+04  0.12699999809E+01 0.  1.
</event>
<event>
 5   0  0.4134019E-07  0.3037607E+04  0.7818609E-02  0.8233073E-01
        1   -1    0    0  501    0  0.00000000000E+00  0.00000000000E+00  0.14833598797E+04  0.14833598797E+04  0.50400001928E-02 0. -1.
       -1   -1    0    0    0  501  0.00000000000E+00  0.00000000000E+00 -0.15550936753E+04  0.15550936753E+04  0.50400001928E-02 0.  1.
    10030    2    1    2    0    0  0.00000000000E+00  0.00000000000E+00 -0.71733795581E+02  0.30384535551E+04  0.30376066679E+04 0.  0.
        2    1    3    3  502    0  0.64756214194E+03 -0.13715323238E+04  0.43690955860E+02  0.15173485238E+04  0.25500000920E-02 0. -1.
       -2    1    3    3    0  502 -0.64756214194E+03  0.13715323238E+04 -0.11542475144E+03  0.15211050313E+04  0.25500000920E-02 0.  1.
</event>
<event>
 5   0  0.1176002E-06  0.3066726E+04  0.7818609E-02  0.8224929E-01
        2   -1    0    0  501    0  0.00000000000E+00  0.00000000000E+00  0.20899476166E+04  0.20899476166E+04  0.25500000920E-02 0.  1.
       -2   -1    0    0    0  501  0.00000000000E+00  0.00000000000E+00 -0.11250050975E+04  0.11250050975E+04  0.25500000920E-02 0. -1.
    10030    2    1    2    0    0  0.00000000000E+00  0.00000000000E+00  0.96494251914E+03  0.32149527141E+04  0.30667257602E+04 0.  0.
        2    1    3    3  502    0  0.11413327465E+04  0.63080179072E+03  0.13280878478E+04  0.18612814588E+04  0.25500000920E-02 0.  1.
       -2    1    3    3    0  502 -0.11413327465E+04 -0.63080179072E+03 -0.36314532868E+03  0.13536712552E+04  0.25500000920E-02 0. -1.
</event>
<event>
 5   0  0.4173905E-07  0.3118656E+04  0.7818609E-02  0.8210636E-01
       -1   -1    0    0    0  501  0.00000000000E+00  0.00000000000E+00  0.16147404062E+04  0.16147404062E+04  0.50400001928E-02 0.  1.
        1   -1    0    0  501    0  0.00000000000E+00  0.00000000000E+00 -0.15058174504E+04  0.15058174504E+04  0.50400001928E-02 0. -1.
    10030    2    1    2    0    0  0.00000000000E+00  0.00000000000E+00  0.10892295582E+03  0.31205578566E+04  0.31186563013E+04 0.  0.
        3    1    3    3  502    0  0.93469183481E+03 -0.84006333376E+03  0.97814352721E+03  0.15925200158E+04  0.10100000352E+00 0.  1.
       -3    1    3    3    0  502 -0.93469183481E+03  0.84006333376E+03 -0.86922057139E+03  0.15280378407E+04  0.10100000352E+00 0. -1.
</event>
<event>
 5   0  0.1200286E-06  0.3074050E+04  0.7818609E-02  0.8222896E-01
       -2   -1    0    0    0  501  0.00000000000E+00  0.00000000000E+00  0.15730363673E+04  0.15730363673E+04  0.25500000920E-02 0.  1.
        2   -1    0    0  501    0  0.00000000000E+00  0.00000000000E+00 -0.15018383424E+04  0.15018383424E+04  0.25500000920E-02 0. -1.
    10030    2    1    2    0    0  0.00000000000E+00  0.00000000000E+00  0.71198024950E+02  0.30748747097E+04  0.30740503121E+04 0.  0.
        5    1    3    3  502    0 -0.19902300293E+03 -0.17437483142E+03 -0.14788768776E+04  0.15023700099E+04  0.46999998093E+01 0. -1.
       -5    1    3    3    0  502  0.19902300293E+03  0.17437483142E+03  0.15500749025E+04  0.15725046998E+04  0.46999998093E+01 0.  1.
</event>
<event>
 5   0  0.4173905E-07  0.3094497E+04  0.7818609E-02  0.8217250E-01
        1   -1    0    0  501    0  0.00000000000E+00  0.00000000000E+00  0.17928019299E+04  0.17928019299E+04  0.50400001928E-02 0. -1.
       -1   -1    0    0    0  501  0.00000000000E+00  0.00000000000E+00 -0.13353279383E+04  0.13353279383E+04  0.50400001928E-02 0.  1.
    10030    2    1    2    0    0  0.00000000000E+00  0.00000000000E+00  0.45747399158E+03  0.31281298683E+04  0.30944973776E+04 0.  0.
        3    1    3    3  502    0  0.78196208647E+02 -0.52743365010E+03  0.16969960955E+04  0.17787907861E+04  0.10100000352E+00 0. -1.
       -3    1    3    3    0  502 -0.78196208647E+02  0.52743365010E+03 -0.12395221039E+04  0.13493390822E+04  0.10100000352E+00 0.  1.
</event>
<event>
 5   0  0.1176002E-06  0.3122729E+04  0.7818609E-02  0.8209528E-01
        2   -1    0    0  501    0  0.00000000000E+00  0.00000000000E+00  0.22374003293E+04  0.22374003293E+04  0.25500000920E-02 0.  1.
       -2   -1    0    0    0  501  0.00000000000E+00  0.00000000000E+00 -0.10895943178E+04  0.10895943178E+04  0.25500000920E-02 0. -1.
    10030    2    1    2    0    0  0.00000000000E+00  0.00000000000E+00  0.11478060115E+04  0.33269946470E+04  0.31227287332E+04 0.  0.
        2    1    3    3  502    0 -0.17402604999E+03 -0.11436982214E+04  0.16910774409E+04  0.20489201055E+04  0.25500000920E-02 0.  1.
       -2    1    3    3    0  502  0.17402604999E+03  0.11436982214E+04 -0.54327142939E+03  0.12780745415E+04  0.25500000920E-02 0. -1.
</event>
<event>
 5   0  0.1176002E-06  0.3140866E+04  0.7818609E-02  0.8204611E-01
        2   -1    0    0  501    0  0.00000000000E+00  0.00000000000E+00  0.16653814179E+04  0.16653814179E+04  0.25500000920E-02 0. -1.
       -2   -1    0    0    0  501  0.00000000000E+00  0.00000000000E+00 -0.14808977733E+04  0.14808977733E+04  0.25500000920E-02 0.  1.
    10030    2    1    2    0    0  0.00000000000E+00  0.00000000000E+00  0.18448364456E+03  0.31462791912E+04  0.31408658892E+04 0.  0.
        2    1    3    3  502    0 -0.13098229701E+04  0.57974110648E+03  0.73718660239E+03  0.16109562534E+04  0.25500000920E-02 0. -1.
       -2    1    3    3    0  502  0.13098229701E+04 -0.57974110648E+03 -0.55270295783E+03  0.15353229378E+04  0.25500000920E-02 0.  1.
</event>
<event>
 5   0  0.4330395E-07  0.3096177E+04  0.7818609E-02  0.8216788E-01
        1   -1    0    0  501    0  0.00000000000E+00  0.00000000000E+00  0.30691009855E+04  0.30691009855E+04  0.50400001928E-02 0.  1.
       -1   -1    0    0    0  501  0.00000000000E+00  0.00000000000E+00 -0.78087304922E+03  0.78087304923E+03  0.50400001928E-02 0. -1.
    10030    2    1    2    0    0  0.00000000000E+00  0.00000000000E+00  0.22882279363E+04  0.38499740348E+04  0.30961771558E+04 0.  0.
        1    1    3    3  502    0  0.41307515130E+03  0.14889777314E+04  0.10268557095E+04  0.18552946972E+04  0.50400001928E-02 0. -1.
       -1    1    3    3    0  502 -0.41307515130E+03 -0.14889777314E+04  0.12613722268E+04  0.19946793376E+04  0.50400001928E-02 0.  1.
</event>
<event>
 5   0  0.1193123E-06  0.3234809E+04  0.7818609E-02  0.8179684E-01
        2   -1    0    0  501    0  0.00000000000E+00  0.00000000000E+00  0.23886666306E+04  0.23886666306E+04  0.25500000920E-02 0. -1.
       -2   -1    0    0    0  501  0.00000000000E+00  0.00000000000E+00 -0.10951703178E+04  0.10951703178E+04  0.25500000920E-02 0.  1.
    10030    2    1    2    0    0  0.00000000000E+00  0.00000000000E+00  0.12934963128E+04  0.34838369484E+04  0.32348086763E+04 0.  0.
        3    1    3    3  502    0 -0.53324127808E+03  0.14965524446E+04  0.32011595392E+03  0.16206448452E+04  0.10100000352E+00 0.  1.
       -3    1    3    3    0  502  0.53324127808E+03 -0.14965524446E+04  0.97338035890E+03  0.18631921032E+04  0.10100000352E+00 0. -1.
</event>
<event>
 5   0  0.1176002E-06  0.3108232E+04  0.7818609E-02  0.8213482E-01
        2   -1    0    0  501    0  0.00000000000E+00  0.00000000000E+00  0.19365481973E+04  0.19365481973E+04  0.25500000920E-02 0. -1.
       -2   -1    0    0    0  501  0.00000000000E+00  0.00000000000E+00 -0.12472070784E+04  0.12472070784E+04  0.25500000920E-02 0.  1.
    10030    2    1    2    0    0  0.00000000000E+00  0.00000000000E+00  0.68934111887E+03  0.31837552758E+04  0.31082320502E+04 0.  0.
        2    1    3    3  502    0 -0.34371289685E+03  0.97987197668E+03  0.15290480804E+04  0.18483169854E+04  0.25500000920E-02 0. -1.
       -2    1    3    3    0  502  0.34371289685E+03 -0.97987197668E+03 -0.83970696156E+03  0.13354382904E+04  0.25500000920E-02 0.  1.
</event>
<event>
 5   0  0.4173905E-07  0.3106745E+04  0.7818609E-02  0.8213889E-01
       -1   -1    0    0    0  501  0.00000000000E+00  0.00000000000E+00  0.20402246391E+04  0.20402246391E+04  0.50400001928E-02 0. -1.
        1   -1    0    0  501    0  0.00000000000E+00  0.00000000000E+00 -0.11826962452E+04  0.11826962452E+04  0.50400001928E-02 0.  1.
    10030    2    1    2    0    0  0.00000000000E+00  0.00000000000E+00  0.85752839399E+03  0.32229208843E+04  0.31067449332E+04 0.  0.
        3    1    3    3  502    0 -0.12602102559E+04 -0.65344507233E+03 -0.22557262040E+03  0.14373598606E+04  0.10100000352E+00 0.  1.
       -3    1    3    3    0  502  0.12602102559E+04  0.65344507233E+03  0.10831010144E+04  0.17855610237E+04  0.10100000352E+00 0. -1.
</event>
<event>
 5   0  0.4173905E-07  0.3097885E+04  0.7818609E-02  0.8216318E-01
        1   -1    0    0  501    0  0.00000000000E+00  0.00000000000E+00  0.16823143460E+04  0.16823143460E+04  0.50400001928E-02 0. -1.
       -1   -1    0    0    0  501  0.00000000000E+00  0.00000000000E+00 -0.14261445257E+04  0.14261445257E+04  0.50400001928E-02 0.  1.
    10030    2    1    2    0    0  0.00000000000E+00  0.00000000000E+00  0.25616982032E+03  0.31084588716E+04  0.30978853400E+04 0.  0.
        3    1    3    3  502    0  0.85723535632E+02  0.14725843681E+04 -0.34614871416E+03  0.15151475797E+04  0.10100000352E+00 0. -1.
       -3    1    3    3    0  502 -0.85723535632E+02 -0.14725843681E+04  0.60231853447E+03  0.15933112919E+04  0.10100000352E+00 0.  1.
</event>
<event>
 5   0  0.4219337E-07  0.3109717E+04  0.7818609E-02  0.8213076E-01
       -1   -1    0    0    0  501  0.00000000000E+00  0.00000000000E+00  0.11439668561E+04  0.11439668562E+04  0.50400001928E-02 0. -1.
        1   -1    0    0  501    0  0.00000000000E+00  0.00000000000E+00 -0.21133352805E+04  0.21133352805E+04  0.50400001928E-02 0.  1.
    10030    2    1    2    0    0  0.00000000000E+00  0.00000000000E+00 -0.96936842433E+03  0.32573021366E+04  0.31097173613E+04 0.  0.
        4    1    3    3  502    0 -0.49787955548E+03 -0.34680982158E+03  0.10148380149E+04  0.11823954133E+04  0.12699999809E+01 0. -1.
       -4    1    3    3    0  502  0.49787955548E+03  0.34680982158E+03 -0.19842064392E+04  0.20749067233E+04  0.12699999809E+01 0.  1.
</event>
<event>
 5   0  0.1193123E-06  0.3101931E+04  0.7818609E-02  0.8215208E-01
       -2   -1    0    0    0  501  0.00000000000E+00  0.00000000000E+00  0.14376123931E+04  0.14376123931E+04  0.25500000920E-02 0. -1.
        2   -1    0    0  501    0  0.00000000000E+00  0.00000000000E+00 -0.16732567655E+04  0.16732567655E+04  0.25500000920E-02 0.  1.
    10030    2    1    2    0    0  0.00000000000E+00  0.00000000000E+00 -0.23564437243E+03  0.31108691586E+04  0.31019314389E+04 0.  0.
        3    1    3    3  502    0 -0.11459896039E+04  0.10120013581E+04 -0.37944879032E+03  0.15752524610E+04  0.10100000352E+00 0.  1.
       -3    1    3    3    0  502  0.11459896039E+04 -0.10120013581E+04  0.14380441790E+03  0.15356166976E+04  0.10100000352E+00 0. -1.
</event>
<event>
 5   0  0.1176002E-06  0.3187409E+04  0.7818609E-02  0.8192150E-01
        2   -1    0    0  501    0  0.00000000000E+00  0.00000000000E+00  0.18810269476E+04  0.18810269476E+04  0.25500000920E-02 0. -1.
       -2   -1    0    0    0  501  0.00000000000E+00  0.00000000000E+00 -0.13502697277E+04  0.13502697277E+04  0.25500000920E-02 0.  1.
    10030    2    1    2    0    0  0.00000000000E+00  0.00000000000E+00  0.53075721993E+03  0.32312966753E+04  0.31874088186E+04 0.  0.
        2    1    3    3  502    0  0.41620424566E+03  0.42738691673E+03 -0.12328089808E+04  0.13695632639E+04  0.25500000920E-02 0.  1.
       -2    1    3    3    0  502 -0.41620424566E+03 -0.42738691673E+03  0.17635662007E+04  0.18617334114E+04  0.25500000920E-02 0. -1.
</event>
<event>
 5   0  0.1237580E-06  0.3107513E+04  0.7818609E-02  0.8213679E-01
        2   -1    0    0  501    0  0.00000000000E+00  0.00000000000E+00  0.24057328424E+04  0.24057328424E+04  0.25500000920E-02 0. -1.
       -2   -1    0    0    0  501  0.00000000000E+00  0.00000000000E+00 -0.10035023257E+04  0.10035023257E+04  0.25500000920E-02 0.  1.
    10030    2    1    2    0    0  0.00000000000E+00  0.00000000000E+00  0.14022305167E+04  0.34092351681E+04  0.31075125116E+04 0.  0.
        4    1    3    3  502    0  0.37302331439E+03 -0.12326135915E+04 -0.25258385782E+03  0.13123577550E+04  0.12699999809E+01 0.  1.
       -4    1    3    3    0  502 -0.37302331439E+03  0.12326135915E+04  0.16548143745E+04  0.20968774132E+04  0.12699999809E+01 0. -1.
</event>
<event>
 5   0  0.4134019E-07  0.3109418E+04  0.7818609E-02  0.8213158E-01
        1   -1    0    0  501    0  0.00000000000E+00  0.00000000000E+00  0.21829717685E+04  0.21829717686E+04  0.50400001928E-02 0. -1.
       -1   -1    0    0    0  501  0.00000000000E+00  0.00000000000E+00 -0.11072611900E+04  0.11072611900E+04  0.50400001928E-02 0.  1.
    10030    2    1    2    0    0  0.00000000000E+00  0.00000000000E+00  0.10757105786E+04  0.32902329585E+04  0.31094178993E+04 0.  0.
        2    1    3    3  502    0  0.12058099553E+04 -0.88260456467E+03  0.99193816932E+03  0.17935745866E+04  0.25500000920E-02 0. -1.
       -2    1    3    3    0  502 -0.12058099553E+04  0.88260456467E+03  0.83772409263E+02  0.14966583720E+04  0.25500000920E-02 0.  1.
</event>
<event>
 5   0  0.1193123E-06  0.3068316E+04  0.7818609E-02  0.8224487E-01
       -2   -1    0    0    0  501  0.00000000000E+00  0.00000000000E+00  0.93975335505E+03  0.93975335505E+03  0.25500000920E-02 0. -1.
        2   -1    0    0  501    0  0.00000000000E+00  0.00000000000E+00 -0.25045303236E+04  0.25045303237E+04  0.25500000920E-02 0.  1.
    10030    2    1    2    0    0  0.00000000000E+00  0.00000000000E+00 -0.15647769686E+04  0.34442836787E+04  0.30683160036E+04 0.  0.
        3    1    3    3  502    0  0.94580485135E+03 -0.98833783252E+03 -0.28286054406E+01  0.13679789835E+04  0.10100000352E+00 0. -1.
       -3    1    3    3    0  502 -0.94580485135E+03  0.98833783252E+03 -0.15619483632E+04  0.20763046952E+04  0.10100000352E+00 0.  1.
</event>
<event>
 5   0  0.1176002E-06  0.3087472E+04  0.7818609E-02  0.8219184E-01
       -2   -1    0    0    0  501  0.00000000000E+00  0.00000000000E+00  0.89095418313E+03  0.89095418313E+03  0.25500000920E-02 0.  1.
        2   -1    0    0  501    0  0.00000000000E+00  0.00000000000E+00 -0.26747968995E+04  0.26747968995E+04  0.25500000920E-02 0. -1.
    10030    2    1    2    0    0  0.00000000000E+00  0.00000000000E+00 -0.17838427163E+04  0.35657510826E+04  0.30874724204E+04 0.  0.
        2    1    3    3  502    0 -0.78293816643E+02  0.12793273956E+04 -0.18856221087E+04  0.22799954482E+04  0.25500000920E-02 0. -1.
       -2    1    3    3    0  502  0.78293816643E+02 -0.12793273956E+04  0.10177939239E+03  0.12857556344E+04  0.25500000920E-02 0.  1.
</event>
<event>
 5   0  0.4330395E-07  0.3099824E+04  0.7818609E-02  0.8215786E-01
       -1   -1    0    0    0  501  0.00000000000E+00  0.00000000000E+00  0.10005804456E+04  0.10005804456E+04  0.50400001928E-02 0. -1.
        1   -1    0    0  501    0  0.00000000000E+00  0.00000000000E+00 -0.24008332013E+04  0.24008332013E+04  0.50400001928E-02 0.  1.
    10030    2    1    2    0    0  0.00000000000E+00  0.00000000000E+00 -0.14002527558E+04  0.34014136469E+04  0.30998237074E+04 0.  0.
        1    1    3    3  502    0  0.65765536751E+02 -0.14503001740E+03 -0.23918327338E+04  0.23971279979E+04  0.50400001928E-02 0.  1.
       -1    1    3    3    0  502 -0.65765536751E+02  0.14503001740E+03  0.99157997807E+03  0.10042856490E+04  0.50400001928E-02 0. -1.
</event>
<event>
 5   0  0.3935852E-07  0.3095247E+04  0.7818609E-02  0.8217044E-01
       -1   -1    0    0    0  501  0.00000000000E+00  0.00000000000E+00  0.11383642734E+04  0.11383642734E+04  0.50400001928E-02 0.  1.
        1   -1    0    0  501    0  0.00000000000E+00  0.00000000000E+00 -0.21040172295E+04  0.21040172295E+04  0.50400001928E-02 0. -1.
    10030    2    1    2    0    0  0.00000000000E+00  0.00000000000E+00 -0.96565295608E+03  0.32423815029E+04  0.30952467072E+04 0.  0.
        5    1    3    3  502    0 -0.45445755613E+03 -0.13231438289E+04  0.21034991771E+03  0.14147474828E+04  0.46999998093E+01 0.  1.
       -5    1    3    3    0  502  0.45445755613E+03  0.13231438289E+04 -0.11760028738E+04  0.18276340201E+04  0.46999998093E+01 0. -1.
</event>
<event>
 5   0  0.4219337E-07  0.3098523E+04  0.7818609E-02  0.8216143E-01
       -1   -1    0    0    0  501  0.00000000000E+00  0.00000000000E+00  0.12227521375E+04  0.12227521375E+04  0.50400001928E-02 0.  1.
        1   -1    0    0  501    0  0.00000000000E+00  0.00000000000E+00 -0.19629586536E+04  0.19629586536E+04  0.50400001928E-02 0. -1.
    10030    2    1    2    0    0  0.00000000000E+00  0.00000000000E+00 -0.74020651605E+03  0.31857107911E+04  0.30985234480E+04 0.  0.
        4    1    3    3  502    0 -0.40618201691E+03  0.91818412282E+03 -0.15832038529E+04  0.18747218372E+04  0.12699999809E+01 0. -1.
       -4    1    3    3    0  502  0.40618201691E+03 -0.91818412282E+03  0.84299733685E+03  0.13109889538E+04  0.12699999809E+01 0.  1.
</event>
<event>
 5   0  0.4173905E-07  0.3124840E+04  0.7818609E-02  0.8208954E-01
        1   -1    0    0  501    0  0.00000000000E+00  0.00000000000E+00  0.10892618788E+04  0.10892618789E+04  0.50400001928E-02 0.  1.
       -1   -1    0    0    0  501  0.00000000000E+00  0.00000000000E+00 -0.22411108208E+04  0.22411108208E+04  0.50400001928E-02 0. -1.
    10030    2    1    2    0    0  0.00000000000E+00  0.00000000000E+00 -0.11518489419E+04  0.33303726996E+04  0.31248402093E+04 0.  0.
        3    1    3    3  502    0  0.94089025374E+03  0.45956770962E+03 -0.18117991532E+04  0.20926282830E+04  0.10100000352E+00 0. -1.
       -3    1    3    3    0  502 -0.94089025374E+03 -0.45956770962E+03  0.65995021124E+03  0.12377444166E+04  0.10100000352E+00 0.  1.
</event>
<event>
 5   0  0.1193123E-06  0.3025973E+04  0.7818609E-02  0.8236353E-01
       -2   -1    0    0    0  501  0.00000000000E+00  0.00000000000E+00  0.81289717813E+03  0.81289717814E+03  0.25500000920E-02 0.  1.
        2   -1    0    0  501    0  0.00000000000E+00  0.00000000000E+00 -0.28160125424E+04  0.28160125424E+04  0.25500000920E-02 0. -1.
    10030    2    1    2    0    0  0.00000000000E+00  0.00000000000E+00 -0.20031153643E+04  0.36289097206E+04  0.30259733306E+04 0.  0.
        3    1    3    3  502    0 -0.32873866706E+03 -0.13510003359E+04 -0.17169581225E+04  0.22093474655E+04  0.10100000352E+00 0. -1.
       -3    1    3    3    0  502  0.32873866706E+03  0.13510003359E+04 -0.28615724177E+03  0.14195622550E+04  0.10100000352E+00 0.  1.
</event>
<event>
 5   0  0.4219337E-07  0.3104296E+04  0.7818609E-02  0.8214560E-01
       -1   -1    0    0    0  501  0.00000000000E+00  0.00000000000E+00  0.16256586170E+04  0.16256586170E+04  0.50400001928E-02 0.  1.
        1   -1    0    0  501    0  0.00000000000E+00  0.00000000000E+00 -0.14819610719E+04  0.14819610719E+04  0.50400001928E-02 0. -1.
    10030    2    1    2    0    0  0.00000000000E+00  0.00000000000E+00  0.14369754510E+03  0.31076196888E+04  0.31042955958E+04 0.  0.
        4    1    3    3  502    0  0.10876250081E+04 -0.19383901312E+02  0.11802187432E+04  0.16050613037E+04  0.12699999809E+01 0.  1.
       -4    1    3    3    0  502 -0.10876250081E+04  0.19383901312E+02 -0.10365211981E+04  0.15025583852E+04  0.12699999809E+01 0. -1.
</event>
<event>
 5   0  0.1258262E-06  0.3100231E+04  0.7818609E-02  0.8215675E-01
        2   -1    0    0  501    0  0.00000000000E+00  0.00000000000E+00  0.19976235997E+04  0.19976235997E+04  0.25500000920E-02 0.  1.
       -2   -1    0    0    0  501  0.00000000000E+00  0.00000000000E+00 -0.12028581746E+04  0.12028581746E+04  0.25500000920E-02 0. -1.
    10030    2    1    2    0    0  0.00000000000E+00  0.00000000000E+00  0.79476542515E+03  0.32004817743E+04  0.31002308795E+04 0.  0.
        1    1    3    3  502    0  0.12703576382E+04 -0.88391634295E+03  0.48821217954E+03  0.16227962788E+04  0.50400001928E-02 0. -1.
       -1    1    3    3    0  502 -0.12703576382E+04  0.88391634295E+03  0.30655324561E+03  0.15776854955E+04  0.50400001928E-02 0.  1.
</event>
<event>
 5   0  0.4134019E-07  0.3111760E+04  0.7818609E-02  0.8212518E-01
        1   -1    0    0  501    0  0.00000000000E+00  0.00000000000E+00  0.14718747731E+04  0.14718747731E+04  0.50400001928E-02 0. -1.
       -1   -1    0    0    0  501  0.00000000000E+00  0.00000000000E+00 -0.16446796017E+04  0.16446796018E+04  0.50400001928E-02 0.  1.
    10030    2    1    2    0    0  0.00000000000E+00  0.00000000000E+00 -0.17280482865E+03  0.31165543749E+04  0.31117598980E+04 0.  0.
        2    1    3    3  502    0  0.61497340209E+02 -0.10254981613E+04 -0.12566778352E+04  0.16231659136E+04  0.25500000920E-02 0.  1.
       -2    1    3    3    0  502 -0.61497340209E+02  0.10254981613E+04  0.10838730066E+04  0.14933884612E+04  0.25500000920E-02 0. -1.
</event>
<event>
 5   0  0.4173905E-07  0.3102115E+04  0.7818609E-02  0.8215158E-01
        1   -1    0    0  501    0  0.00000000000E+00  0.00000000000E+00  0.17366189263E+04  0.17366189263E+04  0.50400001928E-02 0. -1.
       -1   -1    0    0    0  501  0.00000000000E+00  0.00000000000E+00 -0.13853236213E+04  0.13853236214E+04  0.50400001928E-02 0.  1.
    10030    2    1    2    0    0  0.00000000000E+00  0.00000000000E+00  0.35129530496E+03  0.31219425477E+04  0.31021149043E+04 0.  0.
        3    1    3    3  502    0  0.17389629681E+03  0.96382322478E+03 -0.10347800838E+04  0.14247683892E+04  0.10100000352E+00 0.  1.
       -3    1    3    3    0  502 -0.17389629681E+03 -0.96382322478E+03  0.13860753888E+04  0.16971741585E+04  0.10100000352E+00 0. -1.
</event>
<event>
 5   0  0.1258262E-06  0.3104684E+04  0.7818609E-02  0.8214454E-01
        2   -1    0    0  501    0  0.00000000000E+00  0.00000000000E+00  0.18147862158E+04  0.18147862158E+04  0.25500000920E-02 0. -1.
       -2   -1    0    0    0  501  0.00000000000E+00  0.00000000000E+00 -0.13278510093E+04  0.13278510093E+04  0.25500000920E-02 0.  1.
    10030    2    1    2    0    0  0.00000000000E+00  0.00000000000E+00  0.48693520649E+03  0.31426372252E+04  0.31046840151E+04 0.  0.
        1    1    3    3  502    0 -0.40712125505E+03 -0.19739726541E+03 -0.12596269233E+04  0.13384219748E+04  0.50400001928E-02 0.  1.
       -1    1    3    3    0  502  0.40712125505E+03  0.19739726541E+03  0.17465621297E+04  0.18042152504E+04  0.50400001928E-02 0. -1.
</event>
<event>
 5   0  0.4219337E-07  0.3105051E+04  0.7818609E-02  0.8214353E-01
       -1   -1    0    0    0  501  0.00000000000E+00  0.00000000000E+00  0.13702551089E+04  0.13702551089E+04  0.50400001928E-02 0.  1.
        1   -1    0    0  501    0  0.00000000000E+00  0.00000000000E+00 -0.17590413668E+04  0.17590413668E+04  0.50400001928E-02 0. -1.
    10030    2    1    2    0    0  0.00000000000E+00  0.00000000000E+00 -0.38878625793E+03  0.31292964757E+04  0.31050509945E+04 0.  0.
        4    1    3    3  502    0 -0.74734053208E+03  0.12129261059E+04 -0.81615961900E+03  0.16418969961E+04  0.12699999809E+01 0. -1.
       -4    1    3    3    0  502  0.74734053208E+03 -0.12129261059E+04  0.42737336107E+03  0.14873994796E+04  0.12699999809E+01 0.  1.
</event>
<event>
 5   0  0.1176002E-06  0.3091663E+04  0.7818609E-02  0.8218030E-01
        2   -1    0    0  501    0  0.00000000000E+00  0.00000000000E+00  0.18371839639E+04  0.18371839639E+04  0.25500000920E-02 0. -1.
       -2   -1    0    0    0  501  0.00000000000E+00  0.00000000000E+00 -0.13006836116E+04  0.13006836116E+04  0.25500000920E-02 0.  1.
    10030    2    1    2    0    0  0.00000000000E+00  0.00000000000E+00  0.53650035226E+03  0.31378675755E+04  0.30916630303E+04 0.  0.
        2    1    3    3  502    0 -0.59496091271E+03 -0.13924342124E+04  0.58393482823E+03  0.16229083176E+04  0.25500000920E-02 0. -1.
       -2    1    3    3    0  502  0.59496091271E+03  0.13924342124E+04 -0.47434475974E+02  0.15149592579E+04  0.25500000920E-02 0.  1.
</event>
<event>
 5   0  0.3935852E-07  0.3127887E+04  0.7818609E-02  0.8208126E-01
        1   -1    0    0  501    0  0.00000000000E+00  0.00000000000E+00  0.21965583610E+04  0.21965583610E+04  0.50400001928E-02 0.  1.
       -1   -1    0    0    0  501  0.00000000000E+00  0.00000000000E+00 -0.11135237120E+04  0.11135237120E+04  0.50400001928E-02 0. -1.
    10030    2    1    2    0    0  0.00000000000E+00  0.00000000000E+00  0.10830346490E+04  0.33100820730E+04  0.31278873508E+04 0.  0.
        5    1    3    3  502    0  0.44539744704E+03  0.27803504197E+03 -0.10174574026E+04  0.11449559059E+04  0.46999998093E+01 0. -1.
       -5    1    3    3    0  502 -0.44539744704E+03 -0.27803504197E+03  0.21004920516E+04  0.21651261671E+04  0.46999998093E+01 0.  1.
</event>
<event>
 5   0  0.1193123E-06  0.3088522E+04  0.7818609E-02  0.8218895E-01
       -2   -1    0    0    0  501  0.00000000000E+00  0.00000000000E+00  0.14599572865E+04  0.14599572865E+04  0.25500000920E-02 0. -1.
        2   -1    0    0  501    0  0.00000000000E+00  0.00000000000E+00 -0.16334324127E+04  0.16334324127E+04  0.25500000920E-02 0.  1.
    10030    2    1    2    0    0  0.00000000000E+00  0.00000000000E+00 -0.17347512627E+03  0.30933896992E+04  0.30885216871E+04 0.  0.
        3    1    3    3  502    0 -0.12173395688E+04 -0.63540289567E+03  0.62083830416E+03  0.15070144909E+04  0.10100000352E+00 0. -1.
       -3    1    3    3    0  502  0.12173395688E+04  0.63540289567E+03 -0.79431343043E+03  0.15863752083E+04  0.10100000352E+00 0.  1.
</event>
<event>
 5   0  0.4134019E-07  0.3121940E+04  0.7818609E-02  0.8209742E-01
        1   -1    0    0  501    0  0.00000000000E+00  0.00000000000E+00  0.15827651555E+04  0.15827651555E+04  0.50400001928E-02 0.  1.
       -1   -1    0    0    0  501  0.00000000000E+00  0.00000000000E+00 -0.15394750373E+04  0.15394750373E+04  0.50400001928E-02 0. -1.
    10030    2    1    2    0    0  0.00000000000E+00  0.00000000000E+00  0.43290118268E+02  0.31222401928E+04  0.31219400679E+04 0.  0.
        2    1    3    3  502    0  0.70643812237E+03  0.11045308163E+04  0.86882997236E+03  0.15728663852E+04  0.25500000920E-02 0.  1.
       -2    1    3    3    0  502 -0.70643812237E+03 -0.11045308163E+04 -0.82553985409E+03  0.15493738076E+04  0.25500000920E-02 0. -1.
</event>
<event>
 5   0  0.1176002E-06  0.3105946E+04  0.7818609E-02  0.8214108E-01
        2   -1    0    0  501    0  0.00000000000E+00  0.00000000000E+00  0.11327342582E+04  0.11327342582E+04  0.25500000920E-02 0.  1.
       -2   -1    0    0    0  501  0.00000000000E+00  0.00000000000E+00 -0.21291177057E+04  0.21291177057E+04  0.25500000920E-02 0. -1.
    10030    2    1    2    0    0  0.00000000000E+00  0.00000000000E+00 -0.99638344752E+03  0.32618519640E+04  0.31059456306E+04 0.  0.
        2    1    3    3  502    0 -0.14237066247E+04  0.32758401187E+03  0.55006209751E+02  0.14619430636E+04  0.25500000920E-02 0. -1.
       -2    1    3    3    0  502  0.14237066247E+04 -0.32758401187E+03 -0.10513896573E+04  0.17999089004E+04  0.25500000920E-02 0.  1.
</event>
<event>
 5   0  0.1258262E-06  0.3093527E+04  0.7818609E-02  0.8217517E-01
        2   -1    0    0  501    0  0.00000000000E+00  0.00000000000E+00  0.17724758547E+04  0.17724758547E+04  0.25500000920E-02 0.  1.
       -2   -1    0    0    0  501  0.00000000000E+00  0.00000000000E+00 -0.13497942915E+04  0.13497942915E+04  0.25500000920E-02 0. -1.
    10030    2    1    2    0    0  0.00000000000E+00  0.00000000000E+00  0.42268156318E+03  0.31222701463E+04  0.30935273010E+04 0.  0.
        1    1    3    3  502    0 -0.67974820843E+03 -0.93604623179E+03 -0.82495988477E+03  0.14208444624E+04  0.50400001928E-02 0.  1.
       -1    1    3    3    0  502  0.67974820843E+03  0.93604623179E+03  0.12476414479E+04  0.17014256838E+04  0.50400001928E-02 0. -1.
</event>
<event>
 5   0  0.4173905E-07  0.3097454E+04  0.7818609E-02  0.8216437E-01
       -1   -1    0    0    0  501  0.00000000000E+00  0.00000000000E+00  0.23255165145E+04  0.23255165145E+04  0.50400001928E-02 0.  1.
        1   -1    0    0  501    0  0.00000000000E+00  0.00000000000E+00 -0.10314074288E+04  0.10314074288E+04  0.50400001928E-02 0. -1.
    10030    2    1    2    0    0  0.00000000000E+00  0.00000000000E+00  0.12941090857E+04  0.33569239433E+04  0.30974537988E+04 0.  0.
        3    1    3    3  502    0  0.12139015431E+04  0.80574795303E+03  0.77928029021E+02  0.14590611735E+04  0.10100000352E+00 0. -1.
       -3    1    3    3    0  502 -0.12139015431E+04 -0.80574795303E+03  0.12161810567E+04  0.18978627698E+04  0.10100000352E+00 0.  1.
</event>
<event>
 5   0  0.4219337E-07  0.3102780E+04  0.7818609E-02  0.8214975E-01
        1   -1    0    0  501    0  0.00000000000E+00  0.00000000000E+00  0.12475564991E+04  0.12475564991E+04  0.50400001928E-02 0. -1.
       -1   -1    0    0    0  501  0.00000000000E+00  0.00000000000E+00 -0.19292197377E+04  0.19292197377E+04  0.50400001928E-02 0.  1.
    10030    2    1    2    0    0  0.00000000000E+00  0.00000000000E+00 -0.68166323852E+03  0.31767762368E+04  0.31027798001E+04 0.  0.
        4    1    3    3  502    0  0.11521773646E+04 -0.53222377617E+03 -0.12543168465E+04  0.17844010737E+04  0.12699999809E+01 0.  1.
       -4    1    3    3    0  502 -0.11521773646E+04  0.53222377617E+03  0.57265360799E+03  0.13923751631E+04  0.12699999809E+01 0. -1.
</event>
<event>
 5   0  0.1176002E-06  0.3075250E+04  0.7818609E-02  0.8222563E-01
       -2   -1    0    0    0  501  0.00000000000E+00  0.00000000000E+00  0.89778899254E+03  0.89778899255E+03  0.25500000920E-02 0. -1.
        2   -1    0    0  501    0  0.00000000000E+00  0.00000000000E+00 -0.26334587204E+04  0.26334587205E+04  0.25500000920E-02 0.  1.
    10030    2    1    2    0    0  0.00000000000E+00  0.00000000000E+00 -0.17356697279E+04  0.35312477130E+04  0.30752497470E+04 0.  0.
        2    1    3    3  502    0 -0.32488534674E+03  0.13811191053E+04 -0.15483782584E+04  0.21001227827E+04  0.25500000920E-02 0. -1.
       -2    1    3    3    0  502  0.32488534674E+03 -0.13811191053E+04 -0.18729146952E+03  0.14311249303E+04  0.25500000920E-02 0.  1.
</event>
<event>
 5   0  0.1237580E-06  0.3102924E+04  0.7818609E-02  0.8214936E-01
        2   -1    0    0  501    0  0.00000000000E+00  0.00000000000E+00  0.26444576814E+04  0.26444576814E+04  0.25500000920E-02 0. -1.
       -2   -1    0    0    0  501  0.00000000000E+00  0.00000000000E+00 -0.91021829579E+03  0.91021829579E+03  0.25500000920E-02 0.  1.
    10030    2    1    2    0    0  0.00000000000E+00  0.00000000000E+00  0.17342393856E+04  0.35546759772E+04  0.31029236304E+04 0.  0.
        4    1    3    3  502    0 -0.10273849031E+04 -0.52051151368E+03  0.20579707056E+04  0.23583250440E+04  0.12699999809E+01 0. -1.
       -4    1    3    3    0  502  0.10273849031E+04  0.52051151368E+03 -0.32373131995E+03  0.11963509332E+04  0.12699999809E+01 0.  1.
</event>
<event>
 5   0  0.1193123E-06  0.3151464E+04  0.7818609E-02  0.8201754E-01
        2   -1    0    0  501    0  0.00000000000E+00  0.00000000000E+00  0.18037470190E+04  0.18037470190E+04  0.25500000920E-02 0.  1.
       -2   -1    0    0    0  501  0.00000000000E+00  0.00000000000E+00 -0.13765409461E+04  0.13765409461E+04  0.25500000920E-02 0. -1.
    10030    2    1    2    0    0  0.00000000000E+00  0.00000000000E+00  0.42720607288E+03  0.31802879651E+04  0.31514641855E+04 0.  0.
        3    1    3    3  502    0 -0.73923703658E+03  0.10049225344E+04 -0.75779694346E+03  0.14596564370E+04  0.10100000352E+00 0. -1.
       -3    1    3    3    0  502  0.73923703658E+03 -0.10049225344E+04  0.11850030163E+04  0.17206315281E+04  0.10100000352E+00 0.  1.
</event>
<event>
 5   0  0.1200286E-06  0.3116368E+04  0.7818609E-02  0.8211260E-01
        2   -1    0    0  501    0  0.00000000000E+00  0.00000000000E+00  0.17988547397E+04  0.17988547397E+04  0.25500000920E-02 0. -1.
       -2   -1    0    0    0  501  0.00000000000E+00  0.00000000000E+00 -0.13497125791E+04  0.13497125791E+04  0.25500000920E-02 0.  1.
    10030    2    1    2    0    0  0.00000000000E+00  0.00000000000E+00  0.44914216056E+03  0.31485673188E+04  0.31163676742E+04 0.  0.
        5    1    3    3  502    0  0.94897866966E+02  0.66687228851E+03  0.16441476550E+04  0.17767858216E+04  0.46999998093E+01 0. -1.
       -5    1    3    3    0  502 -0.94897866966E+02 -0.66687228851E+03 -0.11950054944E+04  0.13717814972E+04  0.46999998093E+01 0.  1.
</event>
<event>
 5   0  0.4219337E-07  0.3101125E+04  0.7818609E-02  0.8215429E-01
        1   -1    0    0  501    0  0.00000000000E+00  0.00000000000E+00  0.21470795215E+04  0.21470795215E+04  0.50400001928E-02 0. -1.
       -1   -1    0    0    0  501  0.00000000000E+00  0.00000000000E+00 -0.11197743682E+04  0.11197743682E+04  0.50400001928E-02 0.  1.
    10030    2    1    2    0    0  0.00000000000E+00  0.00000000000E+00  0.10273051533E+04  0.32668538898E+04  0.31011253537E+04 0.  0.
        4    1    3    3  502    0  0.18408479172E+03 -0.65748659694E+03 -0.95289042378E+03  0.11722532185E+04  0.12699999809E+01 0.  1.
       -4    1    3    3    0  502 -0.18408479172E+03  0.65748659694E+03  0.19801955771E+04  0.20946006712E+04  0.12699999809E+01 0. -1.
</event>
<event>
 5   0  0.3935852E-07  0.3101053E+04  0.7818609E-02  0.8215449E-01
        1   -1    0    0  501    0  0.00000000000E+00  0.00000000000E+00  0.17719985685E+04  0.17719985685E+04  0.50400001928E-02 0.  1.
       -1   -1    0    0    0  501  0.00000000000E+00  0.00000000000E+00 -0.13567346917E+04  0.13567346917E+04  0.50400001928E-02 0. -1.
    10030    2    1    2    0    0  0.00000000000E+00  0.00000000000E+00  0.41526387683E+03  0.31287332602E+04  0.31010526803E+04 0.  0.
        5    1    3    3  502    0 -0.11519809795E+04  0.68320386594E+03 -0.58054681914E+03  0.14597549105E+04  0.46999998093E+01 0. -1.
       -5    1    3    3    0  502  0.11519809795E+04 -0.68320386594E+03  0.99581069597E+03  0.16689783497E+04  0.46999998093E+01 0.  1.
</event>
<event>
 5   0  0.4330395E-07  0.3097892E+04  0.7818609E-02  0.8216317E-01
        1   -1    0    0  501    0  0.00000000000E+00  0.00000000000E+00  0.15378100394E+04  0.15378100394E+04  0.50400001928E-02 0. -1.
       -1   -1    0    0    0  501  0.00000000000E+00  0.00000000000E+00 -0.15601622358E+04  0.15601622358E+04  0.50400001928E-02 0.  1.
    10030    2    1    2    0    0  0.00000000000E+00  0.00000000000E+00 -0.22352196420E+02  0.30979722752E+04  0.30978916375E+04 0.  0.
        1    1    3    3  502    0 -0.11969299943E+04 -0.67072409273E+02 -0.99206504042E+03  0.15560633547E+04  0.50400001928E-02 0.  1.
       -1    1    3    3    0  502  0.11969299943E+04  0.67072409273E+02  0.96971284400E+03  0.15419089205E+04  0.50400001928E-02 0. -1.
</event>
<event>
 5   0  0.1237580E-06  0.3114144E+04  0.7818609E-02  0.8211867E-01
        2   -1    0    0  501    0  0.00000000000E+00  0.00000000000E+00  0.16701017396E+04  0.16701017396E+04  0.25500000920E-02 0. -1.
       -2   -1    0    0    0  501  0.00000000000E+00  0.00000000000E+00 -0.14516922504E+04  0.14516922504E+04  0.25500000920E-02 0.  1.
    10030    2    1    2    0    0  0.00000000000E+00  0.00000000000E+00  0.21840948916E+03  0.31217939900E+04  0.31141443466E+04 0.  0.
        4    1    3    3  502    0 -0.70620724012E+03  0.93382201175E+03 -0.91982539967E+03  0.14889031515E+04  0.12699999809E+01 0.  1.
       -4    1    3    3    0  502  0.70620724012E+03 -0.93382201175E+03  0.11382348888E+04  0.16328908386E+04  0.12699999809E+01 0. -1.
</event>
<event>
 5   0  0.1237580E-06  0.3087247E+04  0.7818609E-02  0.8219246E-01
       -2   -1    0    0    0  501  0.00000000000E+00  0.00000000000E+00  0.15087329955E+04  0.15087329955E+04  0.25500000920E-02 0.  1.
        2   -1    0    0  501    0  0.00000000000E+00  0.00000000000E+00 -0.15793213623E+04  0.15793213623E+04  0.25500000920E-02 0. -1.
    10030    2    1    2    0    0  0.00000000000E+00  0.00000000000E+00 -0.70588366817E+02  0.30880543578E+04  0.30872474794E+04 0.  0.
        4    1    3    3  502    0  0.74456155742E+03  0.44260319439E+03  0.12427342142E+04  0.15148133352E+04  0.12699999809E+01 0.  1.
       -4    1    3    3    0  502 -0.74456155742E+03 -0.44260319439E+03 -0.13133225810E+04  0.15732410226E+04  0.12699999809E+01 0. -1.
</event>
<event>
 5   0  0.3902375E-07  0.3091907E+04  0.7818609E-02  0.8217962E-01
       -3   -1    0    0    0  501  0.00000000000E+00  0.00000000000E+00  0.15060575644E+04  0.15060575678E+04  0.10100000352E+00 0.  1.
        3   -1    0    0  501    0  0.00000000000E+00  0.00000000000E+00 -0.15869062001E+04  0.15869062033E+04  0.10100000352E+00 0. -1.
    10030    2    1    2    0    0  0.00000000000E+00  0.00000000000E+00 -0.80848635704E+02  0.30929637711E+04  0.30919069177E+04 0.  0.
        4    1    3    3  502    0  0.79858987141E+03  0.11299336630E+04  0.64935805405E+03  0.15284512949E+04  0.12699999809E+01 0.  1.
       -4    1    3    3    0  502 -0.79858987141E+03 -0.11299336630E+04 -0.73020668975E+03  0.15645124762E+04  0.12699999809E+01 0. -1.
</event>
<event>
 5   0  0.1176002E-06  0.3101582E+04  0.7818609E-02  0.8215304E-01
       -2   -1    0    0    0  501  0.00000000000E+00  0.00000000000E+00  0.12430124829E+04  0.12430124829E+04  0.25500000920E-02 0.  1.
        2   -1    0    0  501    0  0.00000000000E+00  0.00000000000E+00 -0.19347776948E+04  0.19347776948E+04  0.25500000920E-02 0. -1.
    10030    2    1    2    0    0  0.00000000000E+00  0.00000000000E+00 -0.69176521196E+03  0.31777901777E+04  0.31015820648E+04 0.  0.
        2    1    3    3  502    0  0.17554731974E+03 -0.14860727414E+04 -0.76297699394E+03  0.16796913251E+04  0.25500000920E-02 0. -1.
       -2    1    3    3    0  502 -0.17554731974E+03  0.14860727414E+04  0.71211781987E+02  0.14980988526E+04  0.25500000920E-02 0.  1.
</event>
<event>
 5   0  0.4134019E-07  0.3085195E+04  0.7818609E-02  0.8219813E-01
        1   -1    0    0  501    0  0.00000000000E+00  0.00000000000E+00  0.23427831525E+04  0.23427831525E+04  0.50400001928E-02 0.  1.
       -1   -1    0    0    0  501  0.00000000000E+00  0.00000000000E+00 -0.10157180875E+04  0.10157180875E+04  0.50400001928E-02 0. -1.
    10030    2    1    2    0    0  0.00000000000E+00  0.00000000000E+00  0.13270650650E+04  0.33585012400E+04  0.30851951142E+04 0.  0.
        2    1    3    3  502    0 -0.12737006978E+04 -0.71221613682E+03  0.12078713422E+04  0.18943385316E+04  0.25500000920E-02 0.  1.
       -2    1    3    3    0  502  0.12737006978E+04  0.71221613682E+03  0.11919372278E+03  0.14641627084E+04  0.25500000920E-02 0. -1.
</event>
<event>
 5   0  0.4173905E-07  0.3098306E+04  0.7818609E-02  0.8216203E-01
        1   -1    0    0  501    0  0.00000000000E+00  0.00000000000E+00  0.12135055850E+04  0.12135055850E+04  0.50400001928E-02 0.  1.
       -1   -1    0    0    0  501  0.00000000000E+00  0.00000000000E+00 -0.19776387502E+04  0.19776387502E+04  0.50400001928E-02 0. -1.
    10030    2    1    2    0    0  0.00000000000E+00  0.00000000000E+00 -0.76413316523E+03  0.31911443352E+04  0.30983064202E+04 0.  0.
        3    1    3    3  502    0 -0.71817406336E+03  0.13407076125E+04 -0.68517150461E+03  0.16681519381E+04  0.10100000352E+00 0.  1.
       -3    1    3    3    0  502  0.71817406336E+03 -0.13407076125E+04 -0.78961660621E+02  0.15229923971E+04  0.10100000352E+00 0. -1.
</event>
<event>
 5   0  0.1200286E-06  0.3102974E+04  0.7818609E-02  0.8214922E-01
       -2   -1    0    0    0  501  0.00000000000E+00  0.00000000000E+00  0.14249941838E+04  0.14249941838E+04  0.25500000920E-02 0. -1.
        2   -1    0    0  501    0  0.00000000000E+00  0.00000000000E+00 -0.16892081366E+04  0.16892081366E+04  0.25500000920E-02 0.  1.
    10030    2    1    2    0    0  0.00000000000E+00  0.00000000000E+00 -0.26421395285E+03  0.31142023204E+04  0.31029739089E+04 0.  0.
        5    1    3    3  502    0  0.58460580680E+03  0.87058852557E+03  0.10154471119E+04  0.14597408186E+04  0.46999998093E+01 0. -1.
       -5    1    3    3    0  502 -0.58460580680E+03 -0.87058852557E+03 -0.12796610648E+04  0.16544615018E+04  0.46999998093E+01 0.  1.
</event>
<event>
 5   0  0.1258262E-06  0.3025899E+04  0.7818609E-02  0.8236374E-01
        2   -1    0    0  501    0  0.00000000000E+00  0.00000000000E+00  0.12077830079E+04  0.12077830079E+04  0.25500000920E-02 0.  1.
       -2   -1    0    0    0  501  0.00000000000E+00  0.00000000000E+00 -0.18952214350E+04  0.18952214350E+04  0.25500000920E-02 0. -1.
    10030    2    1    2    0    0  0.00000000000E+00  0.00000000000E+00 -0.68743842712E+03  0.31030044429E+04  0.30258990369E+04 0.  0.
        1    1    3    3  502    0 -0.27107425496E+03 -0.10854444102E+04  0.70073561606E+03  0.13201140947E+04  0.50400001928E-02 0.  1.
       -1    1    3    3    0  502  0.27107425496E+03  0.10854444102E+04 -0.13881740432E+04  0.17828903482E+04  0.50400001928E-02 0. -1.
</event>
<event>
 5   0  0.4219337E-07  0.3093729E+04  0.7818609E-02  0.8217461E-01
        1   -1    0    0  501    0  0.00000000000E+00  0.00000000000E+00  0.13512067992E+04  0.13512067992E+04  0.50400001928E-02 0. -1.
       -1   -1    0    0    0  501  0.00000000000E+00  0.00000000000E+00 -0.17708540516E+04  0.17708540516E+04  0.50400001928E-02 0.  1.
    10030    2    1    2    0    0  0.00000000000E+00  0.00000000000E+00 -0.41964725244E+03  0.31220608508E+04  0.30937291640E+04 0.  0.
        4    1    3    3  502    0  0.77609876985E+03 -0.78823574612E+03 -0.13009950589E+04  0.17076986409E+04  0.12699999809E+01 0.  1.
       -4    1    3    3    0  502 -0.77609876985E+03  0.78823574612E+03  0.88134780646E+03  0.14143622099E+04  0.12699999809E+01 0. -1.
</event>
<event>
 5   0  0.4219337E-07  0.3105255E+04  0.7818609E-02  0.8214297E-01
        1   -1    0    0  501    0  0.00000000000E+00  0.00000000000E+00  0.15238933999E+04  0.15238933999E+04  0.50400001928E-02 0. -1.
       -1   -1    0    0    0  501  0.00000000000E+00  0.00000000000E+00 -0.15819033863E+04  0.15819033863E+04  0.50400001928E-02 0.  1.
    10030    2    1    2    0    0  0.00000000000E+00  0.00000000000E+00 -0.58009986423E+02  0.31057967862E+04  0.31052549845E+04 0.  0.
        4    1    3    3  502    0 -0.11830128677E+04 -0.15096727139E+03 -0.10233313349E+04  0.15714703930E+04  0.12699999809E+01 0.  1.
       -4    1    3    3    0  502  0.11830128677E+04  0.15096727139E+03  0.96532134846E+03  0.15343263932E+04  0.12699999809E+01 0. -1.
</event>
<event>
 5   0  0.3935852E-07  0.3077265E+04  0.7818609E-02  0.8222005E-01
        1   -1    0    0  501    0  0.00000000000E+00  0.00000000000E+00  0.12014518658E+04  0.12014518658E+04  0.50400001928E-02 0.  1.
       -1   -1    0    0    0  501  0.00000000000E+00  0.00000000000E+00 -0.19704406364E+04  0.19704406364E+04  0.50400001928E-02 0. -1.
    10030    2    1    2    0    0  0.00000000000E+00  0.00000000000E+00 -0.76898877056E+03  0.31718925022E+04  0.30772647459E+04 0.  0.
        5    1    3    3  502    0  0.10835749697E+04 -0.14933610692E+03 -0.14998653732E+04  0.18563550888E+04  0.46999998093E+01 0. -1.
       -5    1    3    3    0  502 -0.10835749697E+04  0.14933610692E+03  0.73087660268E+03  0.13155374134E+04  0.46999998093E+01 0.  1.
</event>
<event>
 5   0  0.1237580E-06  0.3094068E+04  0.7818609E-02  0.8217368E-01
        2   -1    0    0  501    0  0.00000000000E+00  0.00000000000E+00  0.16849316022E+04  0.16849316022E+04  0.25500000920E-02 0.  1.
       -2   -1    0    0    0  501  0.00000000000E+00  0.00000000000E+00 -0.14204221645E+04  0.14204221645E+04  0.25500000920E-02 0. -1.
    10030    2    1    2    0    0  0.00000000000E+00  0.00000000000E+00  0.26450943773E+03  0.31053537666E+04  0.30940679975E+04 0.  0.
        4    1    3    3  502    0 -0.92391386014E+02  0.10937507705E+04  0.12264080899E+04  0.16458752481E+04  0.12699999809E+01 0.  1.
       -4    1    3    3    0  502  0.92391386014E+02 -0.10937507705E+04 -0.96189865221E+03  0.14594785186E+04  0.12699999809E+01 0. -1.
</event>
<event>
 5   0  0.3935852E-07  0.3109975E+04  0.7818609E-02  0.8213006E-01
       -1   -1    0    0    0  501  0.00000000000E+00  0.00000000000E+00  0.17091638337E+04  0.17091638337E+04  0.50400001928E-02 0. -1.
        1   -1    0    0  501    0  0.00000000000E+00  0.00000000000E+00 -0.14147189923E+04  0.14147189923E+04  0.50400001928E-02 0.  1.
    10030    2    1    2    0    0  0.00000000000E+00  0.00000000000E+00  0.29444484140E+03  0.31238828259E+04  0.31099752644E+04 0.  0.
        5    1    3    3  502    0  0.90442459683E+03 -0.14231548497E+03  0.14097149216E+04  0.16809389634E+04  0.46999998093E+01 0. -1.
       -5    1    3    3    0  502 -0.90442459683E+03  0.14231548497E+03 -0.11152700802E+04  0.14429438625E+04  0.46999998093E+01 0.  1.
</event>
<event>
 5   0  0.1193123E-06  0.3095564E+04  0.7818609E-02  0.8216956E-01
       -2   -1    0    0    0  501  0.00000000000E+00  0.00000000000E+00  0.15399669754E+04  0.15399669754E+04  0.25500000920E-02 0. -1.
        2   -1    0    0  501    0  0.00000000000E+00  0.00000000000E+00 -0.15556366128E+04  0.15556366128E+04  0.25500000920E-02 0.  1.
    10030    2    1    2    0    0  0.00000000000E+00  0.00000000000E+00 -0.15669637391E+02  0.30956035882E+04  0.30955639289E+04 0.  0.
        3    1    3    3  502    0 -0.39225265554E+03  0.28427916869E+03  0.14622017723E+04  0.15403606151E+04  0.10100000352E+00 0. -1.
       -3    1    3    3    0  502  0.39225265554E+03 -0.28427916869E+03 -0.14778714097E+04  0.15552429731E+04  0.10100000352E+00 0.  1.
</event>
<event>
 5   0  0.1193123E-06  0.3087299E+04  0.7818609E-02  0.8219232E-01
       -2   -1    0    0    0  501  0.00000000000E+00  0.00000000000E+00  0.15419865013E+04  0.15419865013E+04  0.25500000920E-02 0.  1.
        2   -1    0    0  501    0  0.00000000000E+00  0.00000000000E+00 -0.15453141438E+04  0.15453141438E+04  0.25500000920E-02 0. -1.
    10030    2    1    2    0    0  0.00000000000E+00  0.00000000000E+00 -0.33276425406E+01  0.30873006451E+04  0.30872988518E+04 0.  0.
        3    1    3    3  502    0 -0.96754630979E+03  0.98064620737E+03 -0.69811285583E+03  0.15444009892E+04  0.10100000352E+00 0. -1.
       -3    1    3    3    0  502  0.96754630979E+03 -0.98064620737E+03  0.69478521329E+03  0.15428996560E+04  0.10100000352E+00 0.  1.
</event>
<event>
 5   0  0.3902375E-07  0.3244184E+04  0.7818609E-02  0.8177245E-01
       -3   -1    0    0    0  501  0.00000000000E+00  0.00000000000E+00  0.11055800832E+04  0.11055800878E+04  0.10100000352E+00 0.  1.
        3   -1    0    0  501    0  0.00000000000E+00  0.00000000000E+00 -0.23799117230E+04  0.23799117252E+04  0.10100000352E+00 0. -1.
    10030    2    1    2    0    0  0.00000000000E+00  0.00000000000E+00 -0.12743316399E+04  0.34854918129E+04  0.32441843427E+04 0.  0.
        3    1    3    3  502    0  0.11284440718E+04 -0.11151730776E+04 -0.27411706938E+03  0.16100115509E+04  0.10100000352E+00 0.  1.
       -3    1    3    3    0  502 -0.11284440718E+04  0.11151730776E+04 -0.10002145705E+04  0.18754802620E+04  0.10100000352E+00 0. -1.
</event>
<event>
 5   0  0.3935852E-07  0.3102136E+04  0.7818609E-02  0.8215152E-01
        1   -1    0    0  501    0  0.00000000000E+00  0.00000000000E+00  0.20524873078E+04  0.20524873078E+04  0.50400001928E-02 0. -1.
       -1   -1    0    0    0  501  0.00000000000E+00  0.00000000000E+00 -0.11721442789E+04  0.11721442789E+04  0.50400001928E-02 0.  1.
    10030    2    1    2    0    0  0.00000000000E+00  0.00000000000E+00  0.88034302890E+03  0.32246315866E+04  0.31021355581E+04 0.  0.
        5    1    3    3  502    0  0.18740753994E+03 -0.10184652560E+04  0.16404967105E+04  0.19400114976E+04  0.46999998093E+01 0. -1.
       -5    1    3    3    0  502 -0.18740753994E+03  0.10184652560E+04 -0.76015368158E+03  0.12846200891E+04  0.46999998093E+01 0.  1.
</event>
<event>
 5   0  0.1193123E-06  0.3118879E+04  0.7818609E-02  0.8210576E-01
       -2   -1    0    0    0  501  0.00000000000E+00  0.00000000000E+00  0.96967393039E+03  0.96967393039E+03  0.25500000920E-02 0. -1.
        2   -1    0    0  501    0  0.00000000000E+00  0.00000000000E+00 -0.25079059607E+04  0.25079059607E+04  0.25500000920E-02 0.  1.
    10030    2    1    2    0    0  0.00000000000E+00  0.00000000000E+00 -0.15382320303E+04  0.34775798911E+04  0.31188786638E+04 0.  0.
        3    1    3    3  502    0  0.72259603465E+03 -0.13312523726E+04 -0.11825322398E+04  0.19216556448E+04  0.10100000352E+00 0.  1.
       -3    1    3    3    0  502 -0.72259603465E+03  0.13312523726E+04 -0.35569979047E+03  0.15559242462E+04  0.10100000352E+00 0. -1.
</event>
<event>
 5   0  0.1176002E-06  0.3100747E+04  0.7818609E-02  0.8215533E-01
        2   -1    0    0  501    0  0.00000000000E+00  0.00000000000E+00  0.13798618426E+04  0.13798618426E+04  0.25500000920E-02 0.  1.
       -2   -1    0    0    0  501  0.00000000000E+00  0.00000000000E+00 -0.17419557752E+04  0.17419557752E+04  0.25500000920E-02 0. -1.
    10030    2    1    2    0    0  0.00000000000E+00  0.00000000000E+00 -0.36209393266E+03  0.31218176178E+04  0.31007472040E+04 0.  0.
        2    1    3    3  502    0  0.36523018767E+03 -0.93764137069E+03  0.10064141180E+04  0.14231773631E+04  0.25500000920E-02 0.  1.
       -2    1    3    3    0  502 -0.36523018767E+03  0.93764137069E+03 -0.13685080507E+04  0.16986402547E+04  0.25500000920E-02 0. -1.
</event>
<event>
 5   0  0.1258262E-06  0.3091782E+04  0.7818609E-02  0.8217997E-01
        2   -1    0    0  501    0  0.00000000000E+00  0.00000000000E+00  0.18198892479E+04  0.18198892479E+04  0.25500000920E-02 0. -1.
       -2   -1    0    0    0  501  0.00000000000E+00  0.00000000000E+00 -0.13131452497E+04  0.13131452497E+04  0.25500000920E-02 0.  1.
    10030    2    1    2    0    0  0.00000000000E+00  0.00000000000E+00  0.50674399816E+03  0.31330344976E+04  0.30917819592E+04 0.  0.
        1    1    3    3  502    0  0.98347238537E+03  0.11644814992E+04  0.51477477919E+03  0.16087971184E+04  0.50400001928E-02 0. -1.
       -1    1    3    3    0  502 -0.98347238537E+03 -0.11644814992E+04 -0.80307810302E+01  0.15242373792E+04  0.50400001928E-02 0.  1.
</event>
<event>
 5   0  0.4330395E-07  0.3101780E+04  0.7818609E-02  0.8215250E-01
       -1   -1    0    0    0  501  0.00000000000E+00  0.00000000000E+00  0.12512796998E+04  0.12512796998E+04  0.50400001928E-02 0. -1.
        1   -1    0    0  501    0  0.00000000000E+00  0.00000000000E+00 -0.19222397460E+04  0.19222397460E+04  0.50400001928E-02 0.  1.
    10030    2    1    2    0    0  0.00000000000E+00  0.00000000000E+00 -0.67096004618E+03  0.31735194459E+04  0.31017798583E+04 0.  0.
        1    1    3    3  502    0  0.13850611968E+04 -0.45345062953E+02 -0.10478661849E+04  0.17373756748E+04  0.50400001928E-02 0.  1.
       -1    1    3    3    0  502 -0.13850611968E+04  0.45345062953E+02  0.37690613876E+03  0.14361437711E+04  0.50400001928E-02 0. -1.
</event>
<event>
 5   0  0.1237580E-06  0.3101822E+04  0.7818609E-02  0.8215238E-01
        2   -1    0    0  501    0  0.00000000000E+00  0.00000000000E+00  0.11571201271E+04  0.11571201271E+04  0.25500000920E-02 0.  1.
       -2   -1    0    0    0  501  0.00000000000E+00  0.00000000000E+00 -0.20787160628E+04  0.20787160628E+04  0.25500000920E-02 0. -1.
    10030    2    1    2    0    0  0.00000000000E+00  0.00000000000E+00 -0.92159593574E+03  0.32358361899E+04  0.31018215260E+04 0.  0.
        4    1    3    3  502    0  0.98873770713E+03 -0.11807197514E+04 -0.26951499673E+03  0.15634389438E+04  0.12699999809E+01 0.  1.
       -4    1    3    3    0  502 -0.98873770713E+03  0.11807197514E+04 -0.65208093901E+03  0.16723972461E+04  0.12699999809E+01 0. -1.
</event>
<event>
 5   0  0.1237580E-06  0.3088347E+04  0.7818609E-02  0.8218943E-01
       -2   -1    0    0    0  501  0.00000000000E+00  0.00000000000E+00  0.12672765284E+04  0.12672765284E+04  0.25500000920E-02 0. -1.
        2   -1    0    0  501    0  0.00000000000E+00  0.00000000000E+00 -0.18815712576E+04  0.18815712576E+04  0.25500000920E-02 0.  1.
    10030    2    1    2    0    0  0.00000000000E+00  0.00000000000E+00 -0.61429472915E+03  0.31488477860E+04  0.30883465423E+04 0.  0.
        4    1    3    3  502    0  0.72020356166E+03  0.13623799421E+04 -0.40755086426E+03  0.15940111658E+04  0.12699999809E+01 0.  1.
       -4    1    3    3    0  502 -0.72020356166E+03 -0.13623799421E+04 -0.20674386489E+03  0.15548366202E+04  0.12699999809E+01 0. -1.
</event>
<event>
 5   0  0.1200286E-06  0.3099377E+04  0.7818609E-02  0.8215909E-01
       -2   -1    0    0    0  501  0.00000000000E+00  0.00000000000E+00  0.10903129837E+04  0.10903129837E+04  0.25500000920E-02 0. -1.
        2   -1    0    0  501    0  0.00000000000E+00  0.00000000000E+00 -0.22026098010E+04  0.22026098010E+04  0.25500000920E-02 0.  1.
    10030    2    1    2    0    0  0.00000000000E+00  0.00000000000E+00 -0.11122968173E+04  0.32929227847E+04  0.30993767529E+04 0.  0.
        5    1    3    3  502    0  0.16528484370E+03 -0.15029612166E+04 -0.91691202027E+03  0.17683215887E+04  0.46999998093E+01 0. -1.
       -5    1    3    3    0  502 -0.16528484370E+03  0.15029612166E+04 -0.19538479703E+03  0.15246011960E+04  0.46999998093E+01 0.  1.
</event>
<event>
 5   0  0.4219337E-07  0.3051038E+04  0.7818609E-02  0.8229305E-01
       -1   -1    0    0    0  501  0.00000000000E+00  0.00000000000E+00  0.19091992094E+04  0.19091992094E+04  0.50400001928E-02 0.  1.
        1   -1    0    0  501    0  0.00000000000E+00  0.00000000000E+00 -0.12189450354E+04  0.12189450354E+04  0.50400001928E-02 0. -1.
    10030    2    1    2    0    0  0.00000000000E+00  0.00000000000E+00  0.69025417398E+03  0.31281442448E+04  0.30510384448E+04 0.  0.
        4    1    3    3  502    0 -0.11801212380E+04  0.96064712187E+03  0.45592410862E+03  0.15885205176E+04  0.12699999809E+01 0.  1.
       -4    1    3    3    0  502  0.11801212380E+04 -0.96064712187E+03  0.23433006536E+03  0.15396237272E+04  0.12699999809E+01 0. -1.
</event>
<event>
 5   0  0.4134019E-07  0.3097149E+04  0.7818609E-02  0.8216521E-01
        1   -1    0    0  501    0  0.00000000000E+00  0.00000000000E+00  0.21317427537E+04  0.21317427537E+04  0.50400001928E-02 0. -1.
       -1   -1    0    0    0  501  0.00000000000E+00  0.00000000000E+00 -0.11249398839E+04  0.11249398839E+04  0.50400001928E-02 0.  1.
    10030    2    1    2    0    0  0.00000000000E+00  0.00000000000E+00  0.10068028698E+04  0.32566826377E+04  0.30971486538E+04 0.  0.
        2    1    3    3  502    0 -0.56494207209E+03  0.27428562687E+03  0.19918323627E+04  0.20884894808E+04  0.25500000920E-02 0. -1.
       -2    1    3    3    0  502  0.56494207209E+03 -0.27428562687E+03 -0.98502949291E+03  0.11681931569E+04  0.25500000920E-02 0.  1.
</event>
<event>
 5   0  0.1193123E-06  0.3102870E+04  0.7818609E-02  0.8214951E-01
       -2   -1    0    0    0  501  0.00000000000E+00  0.00000000000E+00  0.14793958574E+04  0.14793958574E+04  0.25500000920E-02 0. -1.
        2   -1    0    0  501    0  0.00000000000E+00  0.00000000000E+00 -0.16269823838E+04  0.16269823838E+04  0.25500000920E-02 0.  1.
    10030    2    1    2    0    0  0.00000000000E+00  0.00000000000E+00 -0.14758652635E+03  0.31063782412E+04  0.31028702832E+04 0.  0.
        3    1    3    3  502    0  0.77425400211E+03 -0.13365400436E+04  0.71775527693E+02  0.15462730304E+04  0.10100000352E+00 0. -1.
       -3    1    3    3    0  502 -0.77425400211E+03  0.13365400436E+04 -0.21936205405E+03  0.15601052108E+04  0.10100000352E+00 0.  1.
</event>
<event>
 5   0  0.1237580E-06  0.3100011E+04  0.7818609E-02  0.8215735E-01
        2   -1    0    0  501    0  0.00000000000E+00  0.00000000000E+00  0.17250671655E+04  0.17250671655E+04  0.25500000920E-02 0.  1.
       -2   -1    0    0    0  501  0.00000000000E+00  0.00000000000E+00 -0.13927092321E+04  0.13927092321E+04  0.25500000920E-02 0. -1.
    10030    2    1    2    0    0  0.00000000000E+00  0.00000000000E+00  0.33235793340E+03  0.31177763976E+04  0.31000109466E+04 0.  0.
        4    1    3    3  502    0 -0.26532013053E+03  0.13855060594E+04  0.81211619336E+03  0.16277457223E+04  0.12699999809E+01 0.  1.
       -4    1    3    3    0  502  0.26532013053E+03 -0.13855060594E+04 -0.47975825996E+03  0.14900306752E+04  0.12699999809E+01 0. -1.
</event>
<event>
 5   0  0.1237580E-06  0.3080129E+04  0.7818609E-02  0.8221212E-01
        2   -1    0    0  501    0  0.00000000000E+00  0.00000000000E+00  0.16062396984E+04  0.16062396984E+04  0.25500000920E-02 0. -1.
       -2   -1    0    0    0  501  0.00000000000E+00  0.00000000000E+00 -0.14766160952E+04  0.14766160952E+04  0.25500000920E-02 0.  1.
    10030    2    1    2    0    0  0.00000000000E+00  0.00000000000E+00  0.12962360318E+03  0.30828557935E+04  0.30801294721E+04 0.  0.
        4    1    3    3  502    0  0.52630377478E+03  0.31623731132E+03  0.14784344375E+04  0.16008659217E+04  0.12699999809E+01 0. -1.
       -4    1    3    3    0  502 -0.52630377478E+03 -0.31623731132E+03 -0.13488108343E+04  0.14819898718E+04  0.12699999809E+01 0.  1.
</event>
<event>
 5   0  0.4173905E-07  0.3091219E+04  0.7818609E-02  0.8218152E-01
       -1   -1    0    0    0  501  0.00000000000E+00  0.00000000000E+00  0.12758396500E+04  0.12758396500E+04  0.50400001928E-02 0. -1.
        1   -1    0    0  501    0  0.00000000000E+00  0.00000000000E+00 -0.18724211457E+04  0.18724211457E+04  0.50400001928E-02 0.  1.
    10030    2    1    2    0    0  0.00000000000E+00  0.00000000000E+00 -0.59658149577E+03  0.31482607957E+04  0.30912192670E+04 0.  0.
        3    1    3    3  502    0 -0.36474546760E+03  0.14731115040E+04 -0.59663373706E+03  0.16306650747E+04  0.10100000352E+00 0.  1.
       -3    1    3    3    0  502  0.36474546760E+03 -0.14731115040E+04  0.52241295054E-01  0.15175957210E+04  0.10100000352E+00 0. -1.
</event>
<event>
 5   0  0.4330395E-07  0.3081067E+04  0.7818609E-02  0.8220953E-01
       -1   -1    0    0    0  501  0.00000000000E+00  0.00000000000E+00  0.16382392811E+04  0.16382392811E+04  0.50400001928E-02 0.  1.
        1   -1    0    0  501    0  0.00000000000E+00  0.00000000000E+00 -0.14486553157E+04  0.14486553158E+04  0.50400001928E-02 0. -1.
    10030    2    1    2    0    0  0.00000000000E+00  0.00000000000E+00  0.18958396538E+03  0.30868945969E+04  0.30810673755E+04 0.  0.
        1    1    3    3  502    0  0.55725717601E+01  0.15287132517E+04 -0.95959237298E+02  0.15317321681E+04  0.50400001928E-02 0.  1.
       -1    1    3    3    0  502 -0.55725717601E+01 -0.15287132517E+04  0.28554320268E+03  0.15551624288E+04  0.50400001928E-02 0. -1.
</event>
<event>
 5   0  0.4219337E-07  0.3086469E+04  0.7818609E-02  0.8219461E-01
        1   -1    0    0  501    0  0.00000000000E+00  0.00000000000E+00  0.97505784634E+03  0.97505784635E+03  0.50400001928E-02 0.  1.
       -1   -1    0    0    0  501  0.00000000000E+00  0.00000000000E+00 -0.24424940621E+04  0.24424940621E+04  0.50400001928E-02 0. -1.
    10030    2    1    2    0    0  0.00000000000E+00  0.00000000000E+00 -0.14674362157E+04  0.34175519084E+04  0.30864691801E+04 0.  0.
        4    1    3    3  502    0 -0.73330095926E+03 -0.90946874380E+03 -0.18501988337E+04  0.21881729890E+04  0.12699999809E+01 0. -1.
       -4    1    3    3    0  502  0.73330095926E+03  0.90946874380E+03  0.38276261797E+03  0.12293789194E+04  0.12699999809E+01 0.  1.
</event>
<event>
 5   0  0.1258262E-06  0.3106512E+04  0.7818609E-02  0.8213953E-01
        2   -1    0    0  501    0  0.00000000000E+00  0.00000000000E+00  0.21274035101E+04  0.21274035101E+04  0.25500000920E-02 0.  1.
       -2   -1    0    0    0  501  0.00000000000E+00  0.00000000000E+00 -0.11340607404E+04  0.11340607404E+04  0.25500000920E-02 0. -1.
    10030    2    1    2    0    0  0.00000000000E+00  0.00000000000E+00  0.99334276967E+03  0.32614642505E+04  0.31065123852E+04 0.  0.
        1    1    3    3  502    0 -0.10750917733E+04  0.11155714701E+04  0.61302711173E+03  0.16661705392E+04  0.50400001928E-02 0.  1.
       -1    1    3    3    0  502  0.10750917733E+04 -0.11155714701E+04  0.38031565794E+03  0.15952937114E+04  0.50400001928E-02 0. -1.
</event>
<event>
 5   0  0.1237580E-06  0.3114492E+04  0.7818609E-02  0.8211772E-01
        2   -1    0    0  501    0  0.00000000000E+00  0.00000000000E+00  0.15679908410E+04  0.15679908410E+04  0.25500000920E-02 0. -1.
       -2   -1    0    0    0  501  0.00000000000E+00  0.00000000000E+00 -0.15465743515E+04  0.15465743515E+04  0.25500000920E-02 0.  1.
    10030    2    1    2    0    0  0.00000000000E+00  0.00000000000E+00  0.21416489426E+02  0.31145651925E+04  0.31144915592E+04 0.  0.
        4    1    3    3  502    0  0.15350434674E+04 -0.14224967736E+03  0.23075750559E+03  0.15587957072E+04  0.12699999809E+01 0.  1.
       -4    1    3    3    0  502 -0.15350434674E+04  0.14224967736E+03 -0.20934101616E+03  0.15557694853E+04  0.12699999809E+01 0. -1.
</event>
<event>
 5   0  0.3935852E-07  0.3095878E+04  0.7818609E-02  0.8216870E-01
        1   -1    0    0  501    0  0.00000000000E+00  0.00000000000E+00  0.28421790776E+04  0.28421790776E+04  0.50400001928E-02 0.  1.
       -1   -1    0    0    0  501  0.00000000000E+00  0.00000000000E+00 -0.84305586227E+03  0.84305586229E+03  0.50400001928E-02 0. -1.
    10030    2    1    2    0    0  0.00000000000E+00  0.00000000000E+00  0.19991232153E+04  0.36852349399E+04  0.30958783781E+04 0.  0.
        5    1    3    3  502    0 -0.98169224206E+03  0.46782637661E+02  0.24231271083E+04  0.26148566588E+04  0.46999998093E+01 0. -1.
       -5    1    3    3    0  502  0.98169224206E+03 -0.46782637661E+02 -0.42400389297E+03  0.10703782811E+04  0.46999998093E+01 0.  1.
</event>
<event>
 5   0  0.1258262E-06  0.3097738E+04  0.7818609E-02  0.8216359E-01
        2   -1    0    0  501    0  0.00000000000E+00  0.00000000000E+00  0.30570074999E+04  0.30570074999E+04  0.25500000920E-02 0. -1.
       -2   -1    0    0    0  501  0.00000000000E+00  0.00000000000E+00 -0.78475290980E+03  0.78475290980E+03  0.25500000920E-02 0.  1.
    10030    2    1    2    0    0  0.00000000000E+00  0.00000000000E+00  0.22722545901E+04  0.38417604097E+04  0.30977382271E+04 0.  0.
        1    1    3    3  502    0  0.12428518458E+04  0.47568906816E+03  0.15329958587E+03  0.13395751428E+04  0.50400001928E-02 0.  1.
       -1    1    3    3    0  502 -0.12428518458E+04 -0.47568906816E+03  0.21189550043E+04  0.25021852670E+04  0.50400001928E-02 0. -1.
</event>
<event>
 5   0  0.4173905E-07  0.3170740E+04  0.7818609E-02  0.8196588E-01
       -1   -1    0    0    0  501  0.00000000000E+00  0.00000000000E+00  0.10365889441E+04  0.10365889441E+04  0.50400001928E-02 0.  1.
        1   -1    0    0  501    0  0.00000000000E+00  0.00000000000E+00 -0.24246816243E+04  0.24246816243E+04  0.50400001928E-02 0. -1.
    10030    2    1    2    0    0  0.00000000000E+00  0.00000000000E+00 -0.13880926802E+04  0.34612705683E+04  0.31707400806E+04 0.  0.
        3    1    3    3  502    0  0.37577442306E+03  0.11384886868E+04  0.43832314060E+03  0.12765148228E+04  0.10100000352E+00 0.  1.
       -3    1    3    3    0  502 -0.37577442306E+03 -0.11384886868E+04 -0.18264158208E+04  0.21847557456E+04  0.10100000352E+00 0. -1.
</event>
<event>
 5   0  0.3902375E-07  0.3095829E+04  0.7818609E-02  0.8216883E-01
        3   -1    0    0  501    0  0.00000000000E+00  0.00000000000E+00  0.10064263169E+04  0.10064263220E+04  0.10100000352E+00 0. -1.
       -3   -1    0    0    0  501  0.00000000000E+00  0.00000000000E+00 -0.23807402032E+04  0.23807402054E+04  0.10100000352E+00 0.  1.
    10030    2    1    2    0    0  0.00000000000E+00  0.00000000000E+00 -0.13743138863E+04  0.33871665273E+04  0.30958291984E+04 0.  0.
        2    1    3    3  502    0  0.79684294751E+03  0.13145809802E+04 -0.48852985970E+03  0.16129920212E+04  0.25500000920E-02 0.  1.
       -2    1    3    3    0  502 -0.79684294751E+03 -0.13145809802E+04 -0.88578402663E+03  0.17741745062E+04  0.25500000920E-02 0. -1.
</event>
<event>
 5   0  0.3935852E-07  0.3138378E+04  0.7818609E-02  0.8205284E-01
       -1   -1    0    0    0  501  0.00000000000E+00  0.00000000000E+00  0.21120306199E+04  0.21120306199E+04  0.50400001928E-02 0.  1.
        1   -1    0    0  501    0  0.00000000000E+00  0.00000000000E+00 -0.11658703144E+04  0.11658703144E+04  0.50400001928E-02 0. -1.
    10030    2    1    2    0    0  0.00000000000E+00  0.00000000000E+00  0.94616030551E+03  0.32779009344E+04  0.31383777994E+04 0.  0.
        5    1    3    3  502    0  0.14340321596E+04  0.63489874692E+03  0.52821976637E+03  0.16548664191E+04  0.46999998093E+01 0.  1.
       -5    1    3    3    0  502 -0.14340321596E+04 -0.63489874692E+03  0.41794053914E+03  0.16230345153E+04  0.46999998093E+01 0. -1.
</event>
<event>
 5   0  0.4134019E-07  0.3088681E+04  0.7818609E-02  0.8218851E-01
        1   -1    0    0  501    0  0.00000000000E+00  0.00000000000E+00  0.20014057115E+04  0.20014057115E+04  0.50400001928E-02 0. -1.
       -1   -1    0    0    0  501  0.00000000000E+00  0.00000000000E+00 -0.11916563283E+04  0.11916563283E+04  0.50400001928E-02 0.  1.
    10030    2    1    2    0    0  0.00000000000E+00  0.00000000000E+00  0.80974938319E+03  0.31930620399E+04  0.30886811307E+04 0.  0.
        2    1    3    3  502    0  0.16694556084E+03 -0.13590666745E+04 -0.33344197798E+03  0.14092964907E+04  0.25500000920E-02 0.  1.
       -2    1    3    3    0  502 -0.16694556084E+03  0.13590666745E+04  0.11431913612E+04  0.17837655491E+04  0.25500000920E-02 0. -1.
</event>
<event>
 5   0  0.1200286E-06  0.3086500E+04  0.7818609E-02  0.8219453E-01
       -2   -1    0    0    0  501  0.00000000000E+00  0.00000000000E+00  0.12373495519E+04  0.12373495519E+04  0.25500000920E-02 0.  1.
        2   -1    0    0  501    0  0.00000000000E+00  0.00000000000E+00 -0.19247760641E+04  0.19247760641E+04  0.25500000920E-02 0. -1.
    10030    2    1    2    0    0  0.00000000000E+00  0.00000000000E+00 -0.68742651224E+03  0.31621256160E+04  0.30865001542E+04 0.  0.
        5    1    3    3  502    0  0.11369357371E+04  0.48152380694E+03 -0.12921999978E+04  0.17872579476E+04  0.46999998093E+01 0. -1.
       -5    1    3    3    0  502 -0.11369357371E+04 -0.48152380694E+03  0.60477348557E+03  0.13748676684E+04  0.46999998093E+01 0.  1.
</event>
<event>
 5   0  0.1237580E-06  0.3067998E+04  0.7818609E-02  0.8224576E-01
        2   -1    0    0  501    0  0.00000000000E+00  0.00000000000E+00  0.22604648433E+04  0.22604648433E+04  0.25500000920E-02 0. -1.
       -2   -1    0    0    0  501  0.00000000000E+00  0.00000000000E+00 -0.10410040380E+04  0.10410040380E+04  0.25500000920E-02 0.  1.
    10030    2    1    2    0    0  0.00000000000E+00  0.00000000000E+00  0.12194608053E+04  0.33014688813E+04  0.30679980637E+04 0.  0.
        4    1    3    3  502    0  0.35725326815E+03 -0.83742831589E+03 -0.71882031872E+03  0.11600087695E+04  0.12699999809E+01 0.  1.
       -4    1    3    3    0  502 -0.35725326815E+03  0.83742831589E+03  0.19382811240E+04  0.21414601118E+04  0.12699999809E+01 0. -1.
</event>
<event>
 5   0  0.4330395E-07  0.3109064E+04  0.7818609E-02  0.8213255E-01
       -1   -1    0    0    0  501  0.00000000000E+00  0.00000000000E+00  0.19164560068E+04  0.19164560068E+04  0.50400001928E-02 0.  1.
        1   -1    0    0  501    0  0.00000000000E+00  0.00000000000E+00 -0.12609574787E+04  0.12609574787E+04  0.50400001928E-02 0. -1.
    10030    2    1    2    0    0  0.00000000000E+00  0.00000000000E+00  0.65549852810E+03  0.31774134854E+04  0.31090638683E+04 0.  0.
        1    1    3    3  502    0 -0.14184038307E+04  0.63306683236E+03  0.39178855407E+03  0.16019180105E+04  0.50400001928E-02 0.  1.
       -1    1    3    3    0  502  0.14184038307E+04 -0.63306683236E+03  0.26370997404E+03  0.15754954750E+04  0.50400001928E-02 0. -1.
</event>
<event>
 5   0  0.1200286E-06  0.3132620E+04  0.7818609E-02  0.8206842E-01
        2   -1    0    0  501    0  0.00000000000E+00  0.00000000000E+00  0.27570337922E+04  0.27570337922E+04  0.25500000920E-02 0. -1.
       -2   -1    0    0    0  501  0.00000000000E+00  0.00000000000E+00 -0.88984300519E+03  0.88984300520E+03  0.25500000920E-02 0.  1.
    10030    2    1    2    0    0  0.00000000000E+00  0.00000000000E+00  0.18671907870E+04  0.36468767974E+04  0.31326201398E+04 0.  0.
        5    1    3    3  502    0 -0.35340367406E+03  0.15216023922E+04  0.80016219187E+03  0.17551209702E+04  0.46999998093E+01 0.  1.
       -5    1    3    3    0  502  0.35340367406E+03 -0.15216023922E+04  0.10670285952E+04  0.18917558272E+04  0.46999998093E+01 0. -1.
</event>
<event>
 5   0  0.3935852E-07  0.3091348E+04  0.7818609E-02  0.8218116E-01
       -1   -1    0    0    0  501  0.00000000000E+00  0.00000000000E+00  0.17249998397E+04  0.17249998397E+04  0.50400001928E-02 0. -1.
        1   -1    0    0  501    0  0.00000000000E+00  0.00000000000E+00 -0.13849902846E+04  0.13849902846E+04  0.50400001928E-02 0.  1.
    10030    2    1    2    0    0  0.00000000000E+00  0.00000000000E+00  0.34000955507E+03  0.31099901243E+04  0.30913479383E+04 0.  0.
        5    1    3    3  502    0  0.18315422293E+03  0.14014353148E+04  0.79949332020E+03  0.16238158978E+04  0.46999998093E+01 0. -1.
       -5    1    3    3    0  502 -0.18315422293E+03 -0.14014353148E+04 -0.45948376513E+03  0.14861742265E+04  0.46999998093E+01 0.  1.
</event>
<event>
 5   0  0.1193123E-06  0.3069919E+04  0.7818609E-02  0.8224042E-01
       -2   -1    0    0    0  501  0.00000000000E+00  0.00000000000E+00  0.14383720478E+04  0.14383720478E+04  0.25500000920E-02 0.  1.
        2   -1    0    0  501    0  0.00000000000E+00  0.00000000000E+00 -0.16380324063E+04  0.16380324063E+04  0.25500000920E-02 0. -1.
    10030    2    1    2    0    0  0.00000000000E+00  0.00000000000E+00 -0.19966035853E+03  0.30764044541E+04  0.30699185830E+04 0.  0.
        3    1    3    3  502    0  0.62637371627E+03  0.11573451647E+04 -0.89163123637E+03  0.15895905556E+04  0.10100000352E+00 0. -1.
       -3    1    3    3    0  502 -0.62637371627E+03 -0.11573451647E+04  0.69197087784E+03  0.14868138984E+04  0.10100000352E+00 0.  1.
</event>
<event>
 5   0  0.1200286E-06  0.3117177E+04  0.7818609E-02  0.8211040E-01
        2   -1    0    0  501    0  0.00000000000E+00  0.00000000000E+00  0.18227398973E+04  0.18227398973E+04  0.25500000920E-02 0.  1.
       -2   -1    0    0    0  501  0.00000000000E+00  0.00000000000E+00 -0.13327176387E+04  0.13327176387E+04  0.25500000920E-02 0. -1.
    10030    2    1    2    0    0  0.00000000000E+00  0.00000000000E+00  0.49002225855E+03  0.31554575360E+04  0.31171766790E+04 0.  0.
        5    1    3    3  502    0  0.91432316113E+02 -0.19702037314E+03  0.18073371823E+04  0.18203479547E+04  0.46999998093E+01 0.  1.
       -5    1    3    3    0  502 -0.91432316113E+02  0.19702037314E+03 -0.13173149237E+04  0.13351095813E+04  0.46999998093E+01 0. -1.
</event>
<event>
 5   0  0.4219337E-07  0.3096972E+04  0.7818609E-02  0.8216569E-01
       -1   -1    0    0    0  501  0.00000000000E+00  0.00000000000E+00  0.95113466814E+03  0.95113466816E+03  0.50400001928E-02 0.  1.
        1   -1    0    0  501    0  0.00000000000E+00  0.00000000000E+00 -0.25209984844E+04  0.25209984844E+04  0.50400001928E-02 0. -1.
    10030    2    1    2    0    0  0.00000000000E+00  0.00000000000E+00 -0.15698638163E+04  0.34721331526E+04  0.30969721064E+04 0.  0.
        4    1    3    3  502    0  0.19620274481E+03  0.15094190575E+04 -0.46591734034E+03  0.15918297614E+04  0.12699999809E+01 0.  1.
       -4    1    3    3    0  502 -0.19620274481E+03 -0.15094190575E+04 -0.11039464759E+04  0.18803033912E+04  0.12699999809E+01 0. -1.
</event>
<event>
 5   0  0.1193123E-06  0.3075141E+04  0.7818609E-02  0.8222594E-01
        2   -1    0    0  501    0  0.00000000000E+00  0.00000000000E+00  0.21582390162E+04  0.21582390162E+04  0.25500000920E-02 0.  1.
       -2   -1    0    0    0  501  0.00000000000E+00  0.00000000000E+00 -0.10953944317E+04  0.10953944317E+04  0.25500000920E-02 0. -1.
    10030    2    1    2    0    0  0.00000000000E+00  0.00000000000E+00  0.10628445845E+04  0.32536334479E+04  0.30751409728E+04 0.  0.
        3    1    3    3  502    0 -0.29761396200E+03  0.79331047184E+02 -0.10624198038E+04  0.11061660522E+04  0.10100000352E+00 0. -1.
       -3    1    3    3    0  502  0.29761396200E+03 -0.79331047184E+02  0.21252643882E+04  0.21474673957E+04  0.10100000352E+00 0.  1.
</event>
<event>
 5   0  0.1176002E-06  0.3098169E+04  0.7818609E-02  0.8216241E-01
        2   -1    0    0  501    0  0.00000000000E+00  0.00000000000E+00  0.16786649947E+04  0.16786649947E+04  0.25500000920E-02 0. -1.
       -2   -1    0    0    0  501  0.00000000000E+00  0.00000000000E+00 -0.14295068533E+04  0.14295068533E+04  0.25500000920E-02 0.  1.
    10030    2    1    2    0    0  0.00000000000E+00  0.00000000000E+00  0.24915814140E+03  0.31081718480E+04  0.30981692106E+04 0.  0.
        2    1    3    3  502    0 -0.15415468138E+04 -0.56869962471E+02 -0.17519827052E+02  0.15426949524E+04  0.25500000920E-02 0.  1.
       -2    1    3    3    0  502  0.15415468138E+04  0.56869962471E+02  0.26667796846E+03  0.15654768956E+04  0.25500000920E-02 0. -1.
</event>
<event>
 5   0  0.1237580E-06  0.3098427E+04  0.7818609E-02  0.8216170E-01
        2   -1    0    0  501    0  0.00000000000E+00  0.00000000000E+00  0.22876153360E+04  0.22876153360E+04  0.25500000920E-02 0.  1.
       -2   -1    0    0    0  501  0.00000000000E+00  0.00000000000E+00 -0.10491548722E+04  0.10491548722E+04  0.25500000920E-02 0. -1.
    10030    2    1    2    0    0  0.00000000000E+00  0.00000000000E+00  0.12384604638E+04  0.33367702081E+04  0.30984271980E+04 0.  0.
        4    1    3    3  502    0 -0.74719437594E+03  0.31922609363E+03 -0.80127130886E+03  0.11411582088E+04  0.12699999809E+01 0. -1.
       -4    1    3    3    0  502  0.74719437594E+03 -0.31922609363E+03  0.20397317726E+04  0.21956119993E+04  0.12699999809E+01 0.  1.
</event>
<event>
 5   0  0.1200286E-06  0.3091205E+04  0.7818609E-02  0.8218156E-01
       -2   -1    0    0    0  501  0.00000000000E+00  0.00000000000E+00  0.89350965615E+03  0.89350965615E+03  0.25500000920E-02 0.  1.
        2   -1    0    0  501    0  0.00000000000E+00  0.00000000000E+00 -0.26735996545E+04  0.26735996545E+04  0.25500000920E-02 0. -1.
    10030    2    1    2    0    0  0.00000000000E+00  0.00000000000E+00 -0.17800899984E+04  0.35671093107E+04  0.30912050129E+04 0.  0.
        5    1    3    3  502    0 -0.10132545704E+04 -0.89533010886E+03 -0.26069783508E+02  0.13524062081E+04  0.46999998093E+01 0.  1.
       -5    1    3    3    0  502  0.10132545704E+04  0.89533010886E+03 -0.17540202148E+04  0.22147031025E+04  0.46999998093E+01 0. -1.
</event>
<event>
 5   0  0.1258262E-06  0.3101422E+04  0.7818609E-02  0.8215348E-01
       -2   -1    0    0    0  501  0.00000000000E+00  0.00000000000E+00  0.10736489232E+04  0.10736489233E+04  0.25500000920E-02 0.  1.
        2   -1    0    0  501    0  0.00000000000E+00  0.00000000000E+00 -0.22397498429E+04  0.22397498429E+04  0.25500000920E-02 0. -1.
    10030    2    1    2    0    0  0.00000000000E+00  0.00000000000E+00 -0.11661009197E+04  0.33133987662E+04  0.31014222590E+04 0.  0.
        1    1    3    3  502    0 -0.15203913448E+04 -0.19869909001E+03 -0.83046900103E+03  0.17437746218E+04  0.50400001928E-02 0. -1.
       -1    1    3    3    0  502  0.15203913448E+04  0.19869909001E+03 -0.33563191865E+03  0.15696241444E+04  0.50400001928E-02 0.  1.
</event>
<event>
 5   0  0.1258262E-06  0.3095773E+04  0.7818609E-02  0.8216899E-01
       -2   -1    0    0    0  501  0.00000000000E+00  0.00000000000E+00  0.90356752840E+03  0.90356752840E+03  0.25500000920E-02 0. -1.
        2   -1    0    0  501    0  0.00000000000E+00  0.00000000000E+00 -0.26516593273E+04  0.26516593273E+04  0.25500000920E-02 0.  1.
    10030    2    1    2    0    0  0.00000000000E+00  0.00000000000E+00 -0.17480917989E+04  0.35552268557E+04  0.30957734184E+04 0.  0.
        1    1    3    3  502    0 -0.12667727452E+04 -0.48513052159E+03 -0.17812868402E+02  0.13566068366E+04  0.50400001928E-02 0. -1.
       -1    1    3    3    0  502  0.12667727452E+04  0.48513052159E+03 -0.17302789305E+04  0.21986200191E+04  0.50400001928E-02 0.  1.
</event>
<event>
 5   0  0.4330395E-07  0.3024559E+04  0.7818609E-02  0.8236752E-01
        1   -1    0    0  501    0  0.00000000000E+00  0.00000000000E+00  0.18121733140E+04  0.18121733140E+04  0.50400001928E-02 0.  1.
       -1   -1    0    0    0  501  0.00000000000E+00  0.00000000000E+00 -0.12620149363E+04  0.12620149363E+04  0.50400001928E-02 0. -1.
    10030    2    1    2    0    0  0.00000000000E+00  0.00000000000E+00  0.55015837764E+03  0.30741882503E+04  0.30245593328E+04 0.  0.
        1    1    3    3  502    0  0.13017513704E+04  0.66565344634E+03  0.66786379438E+03  0.16073870688E+04  0.50400001928E-02 0.  1.
       -1    1    3    3    0  502 -0.13017513704E+04 -0.66565344634E+03 -0.11770541674E+03  0.14668011815E+04  0.50400001928E-02 0. -1.
</event>
<event>
 5   0  0.4134019E-07  0.3098134E+04  0.7818609E-02  0.8216250E-01
        1   -1    0    0  501    0  0.00000000000E+00  0.00000000000E+00  0.21246839453E+04  0.21246839453E+04  0.50400001928E-02 0.  1.
       -1   -1    0    0    0  501  0.00000000000E+00  0.00000000000E+00 -0.11293952056E+04  0.11293952056E+04  0.50400001928E-02 0. -1.
    10030    2    1    2    0    0  0.00000000000E+00  0.00000000000E+00  0.99528873974E+03  0.32540791509E+04  0.30981335421E+04 0.  0.
        2    1    3    3  502    0 -0.13095852538E+04  0.19997585230E+03 -0.34564081570E+03  0.13691133817E+04  0.25500000920E-02 0. -1.
       -2    1    3    3    0  502  0.13095852538E+04 -0.19997585230E+03  0.13409295554E+04  0.18849657692E+04  0.25500000920E-02 0.  1.
</event>
<event>
 5   0  0.1258262E-06  0.3093882E+04  0.7818609E-02  0.8217419E-01
        2   -1    0    0  501    0  0.00000000000E+00  0.00000000000E+00  0.25316974970E+04  0.25316974970E+04  0.25500000920E-02 0. -1.
       -2   -1    0    0    0  501  0.00000000000E+00  0.00000000000E+00 -0.94522575863E+03  0.94522575864E+03  0.25500000920E-02 0.  1.
    10030    2    1    2    0    0  0.00000000000E+00  0.00000000000E+00  0.15864717383E+04  0.34769232556E+04  0.30938815021E+04 0.  0.
        1    1    3    3  502    0  0.73571892651E+03  0.10566432954E+03  0.23178803614E+04  0.24341357109E+04  0.50400001928E-02 0. -1.
       -1    1    3    3    0  502 -0.73571892651E+03 -0.10566432954E+03 -0.73140862309E+03  0.10427875447E+04  0.50400001928E-02 0.  1.
</event>
<event>
 5   0  0.3935852E-07  0.3119731E+04  0.7818609E-02  0.8210344E-01
       -1   -1    0    0    0  501  0.00000000000E+00  0.00000000000E+00  0.14456881410E+04  0.14456881410E+04  0.50400001928E-02 0.  1.
        1   -1    0    0  501    0  0.00000000000E+00  0.00000000000E+00 -0.16830608780E+04  0.16830608780E+04  0.50400001928E-02 0. -1.
    10030    2    1    2    0    0  0.00000000000E+00  0.00000000000E+00 -0.23737273702E+03  0.31287490191E+04  0.31197314961E+04 0.  0.
        5    1    3    3  502    0 -0.36141322890E+02 -0.86974009824E+03 -0.14168021095E+04  0.16628602892E+04  0.46999998093E+01 0. -1.
       -5    1    3    3    0  502  0.36141322890E+02  0.86974009824E+03  0.11794293725E+04  0.14658887299E+04  0.46999998093E+01 0.  1.
</event>
<event>
 5   0  0.1200286E-06  0.3062530E+04  0.7818609E-02  0.8226097E-01
        2   -1    0    0  501    0  0.00000000000E+00  0.00000000000E+00  0.88721076859E+03  0.88721076859E+03  0.25500000920E-02 0.  1.
       -2   -1    0    0    0  501  0.00000000000E+00  0.00000000000E+00 -0.26428586569E+04  0.26428586569E+04  0.25500000920E-02 0. -1.
    10030    2    1    2    0    0  0.00000000000E+00  0.00000000000E+00 -0.17556478883E+04  0.35300694254E+04  0.30625301045E+04 0.  0.
        5    1    3    3  502    0 -0.58251772954E+03  0.13633578810E+04 -0.13192792909E+04  0.19845885101E+04  0.46999998093E+01 0. -1.
       -5    1    3    3    0  502  0.58251772954E+03 -0.13633578810E+04 -0.43636859741E+03  0.15454809154E+04  0.46999998093E+01 0.  1.
</event>
<event>
 5   0  0.4173905E-07  0.3096461E+04  0.7818609E-02  0.8216710E-01
       -1   -1    0    0    0  501  0.00000000000E+00  0.00000000000E+00  0.20198625382E+04  0.20198625382E+04  0.50400001928E-02 0.  1.
        1   -1    0    0  501    0  0.00000000000E+00  0.00000000000E+00 -0.11867234012E+04  0.11867234012E+04  0.50400001928E-02 0. -1.
    10030    2    1    2    0    0  0.00000000000E+00  0.00000000000E+00  0.83313913696E+03  0.32065859394E+04  0.30964612972E+04 0.  0.
        3    1    3    3  502    0  0.12855618983E+04 -0.85964234848E+03  0.34072713138E+03  0.15835874936E+04  0.10100000352E+00 0. -1.
       -3    1    3    3    0  502 -0.12855618983E+04  0.85964234848E+03  0.49241200558E+03  0.16229984458E+04  0.10100000352E+00 0.  1.
</event>
<event>
 5   0  0.1176002E-06  0.3105434E+04  0.7818609E-02  0.8214248E-01
       -2   -1    0    0    0  501  0.00000000000E+00  0.00000000000E+00  0.11467282296E+04  0.11467282296E+04  0.25500000920E-02 0.  1.
        2   -1    0    0  501    0  0.00000000000E+00  0.00000000000E+00 -0.21024427339E+04  0.21024427339E+04  0.25500000920E-02 0. -1.
    10030    2    1    2    0    0  0.00000000000E+00  0.00000000000E+00 -0.95571450425E+03  0.32491709635E+04  0.31054342268E+04 0.  0.
        2    1    3    3  502    0  0.71898091213E+03  0.34388159400E+03  0.91639129979E+03  0.12144797722E+04  0.25500000920E-02 0.  1.
       -2    1    3    3    0  502 -0.71898091213E+03 -0.34388159400E+03 -0.18721058040E+04  0.20346911914E+04  0.25500000920E-02 0. -1.
</event>
<event>
 5   0  0.4219337E-07  0.3088846E+04  0.7818609E-02  0.8218806E-01
       -1   -1    0    0    0  501  0.00000000000E+00  0.00000000000E+00  0.94191891458E+03  0.94191891460E+03  0.50400001928E-02 0. -1.
        1   -1    0    0  501    0  0.00000000000E+00  0.00000000000E+00 -0.25323231874E+04  0.25323231874E+04  0.50400001928E-02 0.  1.
    10030    2    1    2    0    0  0.00000000000E+00  0.00000000000E+00 -0.15904042728E+04  0.34742421020E+04  0.30888464566E+04 0.  0.
        4    1    3    3  502    0 -0.26340101629E+03  0.80460554535E+03  0.65765573540E+03  0.10720461082E+04  0.12699999809E+01 0. -1.
       -4    1    3    3    0  502  0.26340101629E+03 -0.80460554535E+03 -0.22480600082E+04  0.24021959937E+04  0.12699999809E+01 0.  1.
</event>
<event>
 5   0  0.3935852E-07  0.3099943E+04  0.7818609E-02  0.8215754E-01
        1   -1    0    0  501    0  0.00000000000E+00  0.00000000000E+00  0.12051954900E+04  0.12051954900E+04  0.50400001928E-02 0.  1.
       -1   -1    0    0    0  501  0.00000000000E+00  0.00000000000E+00 -0.19933790957E+04  0.19933790957E+04  0.50400001928E-02 0. -1.
    10030    2    1    2    0    0  0.00000000000E+00  0.00000000000E+00 -0.78818360577E+03  0.31985745857E+04  0.30999429001E+04 0.  0.
        5    1    3    3  502    0 -0.13807084165E+04 -0.50748198523E+03 -0.89799031136E+03  0.17234565228E+04  0.46999998093E+01 0. -1.
       -5    1    3    3    0  502  0.13807084165E+04  0.50748198523E+03  0.10980670559E+03  0.14751180629E+04  0.46999998093E+01 0.  1.
</event>
<event>
 5   0  0.4330395E-07  0.3099754E+04  0.7818609E-02  0.8215806E-01
        1   -1    0    0  501    0  0.00000000000E+00  0.00000000000E+00  0.16285303952E+04  0.16285303952E+04  0.50400001928E-02 0. -1.
       -1   -1    0    0    0  501  0.00000000000E+00  0.00000000000E+00 -0.14750218683E+04  0.14750218683E+04  0.50400001928E-02 0.  1.
    10030    2    1    2    0    0  0.00000000000E+00  0.00000000000E+00  0.15350852693E+03  0.31035522635E+04  0.30997535038E+04 0.  0.
        1    1    3    3  502    0  0.30405220266E+03 -0.14040685185E+04  0.65906980491E+03  0.15805787403E+04  0.50400001928E-02 0. -1.
       -1    1    3    3    0  502 -0.30405220266E+03  0.14040685185E+04 -0.50556127798E+03  0.15229735232E+04  0.50400001928E-02 0.  1.
</event>
<event>
 5   0  0.4134019E-07  0.3113131E+04  0.7818609E-02  0.8212143E-01
        1   -1    0    0  501    0  0.00000000000E+00  0.00000000000E+00  0.19478819975E+04  0.19478819975E+04  0.50400001928E-02 0. -1.
       -1   -1    0    0    0  501  0.00000000000E+00  0.00000000000E+00 -0.12438619784E+04  0.12438619784E+04  0.50400001928E-02 0.  1.
    10030    2    1    2    0    0  0.00000000000E+00  0.00000000000E+00  0.70402001910E+03  0.31917439760E+04  0.31131311281E+04 0.  0.
        2    1    3    3  502    0  0.11524890511E+04 -0.10336254045E+04  0.18579308157E+03  0.15592086323E+04  0.25500000920E-02 0.  1.
       -2    1    3    3    0  502 -0.11524890511E+04  0.10336254045E+04  0.51822693753E+03  0.16325353437E+04  0.25500000920E-02 0. -1.
</event>
<event>
 5   0  0.1193123E-06  0.3100304E+04  0.7818609E-02  0.8215654E-01
       -2   -1    0    0    0  501  0.00000000000E+00  0.00000000000E+00  0.17614038998E+04  0.17614038999E+04  0.25500000920E-02 0.  1.
        2   -1    0    0  501    0  0.00000000000E+00  0.00000000000E+00 -0.13642364422E+04  0.13642364423E+04  0.25500000920E-02 0. -1.
    10030    2    1    2    0    0  0.00000000000E+00  0.00000000000E+00  0.39716745760E+03  0.31256403421E+04  0.31003041075E+04 0.  0.
        3    1    3    3  502    0  0.69929216413E+03  0.12311510801E+04 -0.43762712932E+03  0.14819784166E+04  0.10100000352E+00 0. -1.
       -3    1    3    3    0  502 -0.69929216413E+03 -0.12311510801E+04  0.83479458692E+03  0.16436619255E+04  0.10100000352E+00 0.  1.
</event>
<event>
 5   0  0.1258262E-06  0.3099157E+04  0.7818609E-02  0.8215969E-01
        2   -1    0    0  501    0  0.00000000000E+00  0.00000000000E+00  0.22420952757E+04  0.22420952757E+04  0.25500000920E-02 0. -1.
       -2   -1    0    0    0  501  0.00000000000E+00  0.00000000000E+00 -0.10709599129E+04  0.10709599129E+04  0.25500000920E-02 0.  1.
    10030    2    1    2    0    0  0.00000000000E+00  0.00000000000E+00  0.11711353628E+04  0.33130551886E+04  0.30991574088E+04 0.  0.
        1    1    3    3  502    0 -0.66274232410E+03 -0.14006719303E+04  0.57571665677E+03  0.16530453452E+04  0.50400001928E-02 0. -1.
       -1    1    3    3    0  502  0.66274232410E+03  0.14006719303E+04  0.59541870601E+03  0.16600098434E+04  0.50400001928E-02 0.  1.
</event>
<event>
 5   0  0.4134019E-07  0.3106455E+04  0.7818609E-02  0.8213969E-01
       -1   -1    0    0    0  501  0.00000000000E+00  0.00000000000E+00  0.14229431999E+04  0.14229432000E+04  0.50400001928E-02 0.  1.
        1   -1    0    0  501    0  0.00000000000E+00  0.00000000000E+00 -0.16954409796E+04  0.16954409796E+04  0.50400001928E-02 0. -1.
    10030    2    1    2    0    0  0.00000000000E+00  0.00000000000E+00 -0.27249777964E+03  0.31183841795E+04  0.31064553516E+04 0.  0.
        2    1    3    3  502    0 -0.34780320983E+03  0.18623958635E+03 -0.16443039313E+04  0.16909724051E+04  0.25500000920E-02 0. -1.
       -2    1    3    3    0  502  0.34780320983E+03 -0.18623958635E+03  0.13718061516E+04  0.14274117745E+04  0.25500000920E-02 0.  1.
</event>
<event>
 5   0  0.4219337E-07  0.3144680E+04  0.7818609E-02  0.8203582E-01
        1   -1    0    0  501    0  0.00000000000E+00  0.00000000000E+00  0.24075819302E+04  0.24075819302E+04  0.50400001928E-02 0.  1.
       -1   -1    0    0    0  501  0.00000000000E+00  0.00000000000E+00 -0.10268612662E+04  0.10268612663E+04  0.50400001928E-02 0. -1.
    10030    2    1    2    0    0  0.00000000000E+00  0.00000000000E+00  0.13807206639E+04  0.34344431964E+04  0.31446797162E+04 0.  0.
        4    1    3    3  502    0  0.95766279295E+03  0.57700901900E+03 -0.51703618333E+03  0.12318220086E+04  0.12699999809E+01 0. -1.
       -4    1    3    3    0  502 -0.95766279295E+03 -0.57700901900E+03  0.18977568473E+04  0.22026211879E+04  0.12699999809E+01 0.  1.
</event>
<event>
 5   0  0.4173905E-07  0.3076079E+04  0.7818609E-02  0.8222333E-01
        1   -1    0    0  501    0  0.00000000000E+00  0.00000000000E+00  0.31154295866E+04  0.31154295867E+04  0.50400001928E-02 0.  1.
       -1   -1    0    0    0  501  0.00000000000E+00  0.00000000000E+00 -0.75930659626E+03  0.75930659628E+03  0.50400001928E-02 0. -1.
    10030    2    1    2    0    0  0.00000000000E+00  0.00000000000E+00  0.23561229904E+04  0.38747361829E+04  0.30760794758E+04 0.  0.
        3    1    3    3  502    0  0.13259180887E+04 -0.38995531045E+02  0.19749699357E+03  0.13411131578E+04  0.10100000352E+00 0. -1.
       -3    1    3    3    0  502 -0.13259180887E+04  0.38995531045E+02  0.21586259968E+04  0.25336230252E+04  0.10100000352E+00 0.  1.
</event>
<event>
 5   0  0.4219337E-07  0.2980896E+04  0.7818609E-02  0.8249207E-01
       -1   -1    0    0    0  501  0.00000000000E+00  0.00000000000E+00  0.16476043150E+04  0.16476043150E+04  0.50400001928E-02 0. -1.
        1   -1    0    0  501    0  0.00000000000E+00  0.00000000000E+00 -0.13482817683E+04  0.13482817683E+04  0.50400001928E-02 0.  1.
    10030    2    1    2    0    0  0.00000000000E+00  0.00000000000E+00  0.29932254676E+03  0.29958860833E+04  0.29808957441E+04 0.  0.
        4    1    3    3  502    0 -0.79162175380E+03 -0.11847161580E+04 -0.28982010269E+03  0.14540339339E+04  0.12699999809E+01 0. -1.
       -4    1    3    3    0  502  0.79162175380E+03  0.11847161580E+04  0.58914264945E+03  0.15418521494E+04  0.12699999809E+01 0.  1.
</event>
<event>
 5   0  0.1176002E-06  0.3102729E+04  0.7818609E-02  0.8214989E-01
       -2   -1    0    0    0  501  0.00000000000E+00  0.00000000000E+00  0.21849347618E+04  0.21849347618E+04  0.25500000920E-02 0. -1.
        2   -1    0    0  501    0  0.00000000000E+00  0.00000000000E+00 -0.11015119790E+04  0.11015119790E+04  0.25500000920E-02 0.  1.
    10030    2    1    2    0    0  0.00000000000E+00  0.00000000000E+00  0.10834227828E+04  0.32864467407E+04  0.31027290010E+04 0.  0.
        2    1    3    3  502    0  0.12229298085E+04  0.85331579604E+03  0.99485923523E+03  0.17926098466E+04  0.25500000920E-02 0. -1.
       -2    1    3    3    0  502 -0.12229298085E+04 -0.85331579604E+03  0.88563547602E+02  0.14938368941E+04  0.25500000920E-02 0.  1.
</event>
<event>
 5   0  0.1258262E-06  0.3100801E+04  0.7818609E-02  0.8215518E-01
       -2   -1    0    0    0  501  0.00000000000E+00  0.00000000000E+00  0.25645974497E+04  0.25645974497E+04  0.25500000920E-02 0.  1.
        2   -1    0    0  501    0  0.00000000000E+00  0.00000000000E+00 -0.93727833271E+03  0.93727833271E+03  0.25500000920E-02 0. -1.
    10030    2    1    2    0    0  0.00000000000E+00  0.00000000000E+00  0.16273191170E+04  0.35018757824E+04  0.31008009428E+04 0.  0.
        1    1    3    3  502    0  0.14032613405E+04  0.10251527980E+03  0.15491140225E+04  0.20927030432E+04  0.50400001928E-02 0.  1.
       -1    1    3    3    0  502 -0.14032613405E+04 -0.10251527980E+03  0.78205094503E+02  0.14091727392E+04  0.50400001928E-02 0. -1.
</event>
<event>
 5   0  0.4330395E-07  0.3089782E+04  0.7818609E-02  0.8218548E-01
       -1   -1    0    0    0  501  0.00000000000E+00  0.00000000000E+00  0.91570694022E+03  0.91570694023E+03  0.50400001928E-02 0. -1.
        1   -1    0    0  501    0  0.00000000000E+00  0.00000000000E+00 -0.26063890184E+04  0.26063890184E+04  0.50400001928E-02 0.  1.
    10030    2    1    2    0    0  0.00000000000E+00  0.00000000000E+00 -0.16906820782E+04  0.35220959586E+04  0.30897822014E+04 0.  0.
        1    1    3    3  502    0  0.39691400884E+03  0.13228616248E+04 -0.16344280254E+04  0.21398267637E+04  0.50400001928E-02 0.  1.
       -1    1    3    3    0  502 -0.39691400884E+03 -0.13228616248E+04 -0.56254052825E+02  0.13822691949E+04  0.50400001928E-02 0. -1.
</event>
<event>
 5   0  0.1176002E-06  0.3039195E+04  0.7818609E-02  0.8232626E-01
        2   -1    0    0  501    0  0.00000000000E+00  0.00000000000E+00  0.15115370154E+04  0.15115370154E+04  0.25500000920E-02 0. -1.
       -2   -1    0    0    0  501  0.00000000000E+00  0.00000000000E+00 -0.15277009832E+04  0.15277009832E+04  0.25500000920E-02 0.  1.
    10030    2    1    2    0    0  0.00000000000E+00  0.00000000000E+00 -0.16163967796E+02  0.30392379985E+04  0.30391950148E+04 0.  0.
        2    1    3    3  502    0 -0.10687466323E+04 -0.63322831151E+02 -0.10864976436E+04  0.15253544751E+04  0.25500000920E-02 0.  1.
       -2    1    3    3    0  502  0.10687466323E+04  0.63322831151E+02  0.10703336758E+04  0.15138835235E+04  0.25500000920E-02 0. -1.
</event>
<event>
 5   0  0.4173905E-07  0.3096714E+04  0.7818609E-02  0.8216640E-01
       -1   -1    0    0    0  501  0.00000000000E+00  0.00000000000E+00  0.10054693319E+04  0.10054693319E+04  0.50400001928E-02 0. -1.
        1   -1    0    0  501    0  0.00000000000E+00  0.00000000000E+00 -0.23843686818E+04  0.23843686818E+04  0.50400001928E-02 0.  1.
    10030    2    1    2    0    0  0.00000000000E+00  0.00000000000E+00 -0.13788993500E+04  0.33898380137E+04  0.30967141201E+04 0.  0.
        3    1    3    3  502    0  0.11754155173E+04 -0.45702964980E+02  0.41269006514E+03  0.12465967669E+04  0.10100000352E+00 0. -1.
       -3    1    3    3    0  502 -0.11754155173E+04  0.45702964980E+02 -0.17915894151E+04  0.21432412468E+04  0.10100000352E+00 0.  1.
</event>
<event>
 5   0  0.1258262E-06  0.3099983E+04  0.7818609E-02  0.8215743E-01
       -2   -1    0    0    0  501  0.00000000000E+00  0.00000000000E+00  0.10598987788E+04  0.10598987788E+04  0.25500000920E-02 0. -1.
        2   -1    0    0  501    0  0.00000000000E+00  0.00000000000E+00 -0.22667011789E+04  0.22667011789E+04  0.25500000920E-02 0.  1.
    10030    2    1    2    0    0  0.00000000000E+00  0.00000000000E+00 -0.12068024001E+04  0.33265999577E+04  0.30999831040E+04 0.  0.
        1    1    3    3  502    0  0.12683395397E+03 -0.54251143139E+03 -0.21555350878E+04  0.22263730639E+04  0.50400001928E-02 0.  1.
       -1    1    3    3    0  502 -0.12683395397E+03  0.54251143139E+03  0.94873268766E+03  0.11002268937E+04  0.50400001928E-02 0. -1.
</event>
<event>
 5   0  0.4173905E-07  0.3098976E+04  0.7818609E-02  0.8216019E-01
        1   -1    0    0  501    0  0.00000000000E+00  0.00000000000E+00  0.16404546915E+04  0.16404546915E+04  0.50400001928E-02 0.  1.
       -1   -1    0    0    0  501  0.00000000000E+00  0.00000000000E+00 -0.14635651955E+04  0.14635651955E+04  0.50400001928E-02 0. -1.
    10030    2    1    2    0    0  0.00000000000E+00  0.00000000000E+00  0.17688949599E+03  0.31040198871E+04  0.30989755671E+04 0.  0.
        3    1    3    3  502    0  0.11050716213E+03 -0.61874888198E+03  0.15070305513E+04  0.16328512193E+04  0.10100000352E+00 0.  1.
       -3    1    3    3    0  502 -0.11050716213E+03  0.61874888198E+03 -0.13301410553E+04  0.14711686677E+04  0.10100000352E+00 0. -1.
</event>
<event>
 5   0  0.1200286E-06  0.3163476E+04  0.7818609E-02  0.8198530E-01
        2   -1    0    0  501    0  0.00000000000E+00  0.00000000000E+00  0.11613031059E+04  0.11613031059E+04  0.25500000920E-02 0. -1.
       -2   -1    0    0    0  501  0.00000000000E+00  0.00000000000E+00 -0.21543854524E+04  0.21543854524E+04  0.25500000920E-02 0.  1.
    10030    2    1    2    0    0  0.00000000000E+00  0.00000000000E+00 -0.99308234652E+03  0.33156885582E+04  0.31634756311E+04 0.  0.
        5    1    3    3  502    0 -0.15585928124E+04  0.25953544652E+03 -0.42022118757E+03  0.16349856695E+04  0.46999998093E+01 0. -1.
       -5    1    3    3    0  502  0.15585928124E+04 -0.25953544652E+03 -0.57286115894E+03  0.16807028888E+04  0.46999998093E+01 0.  1.
</event>
<event>
 5   0  0.1258262E-06  0.3088079E+04  0.7818609E-02  0.8219017E-01
        2   -1    0    0  501    0  0.00000000000E+00  0.00000000000E+00  0.13709712059E+04  0.13709712059E+04  0.25500000920E-02 0. -1.
       -2   -1    0    0    0  501  0.00000000000E+00  0.00000000000E+00 -0.17389556818E+04  0.17389556818E+04  0.25500000920E-02 0.  1.
    10030    2    1    2    0    0  0.00000000000E+00  0.00000000000E+00 -0.36798447587E+03  0.31099268876E+04  0.30880791233E+04 0.  0.
        1    1    3    3  502    0 -0.10828703781E+03 -0.87372076723E+03  0.10934234294E+04  0.14038122587E+04  0.50400001928E-02 0. -1.
       -1    1    3    3    0  502  0.10828703781E+03  0.87372076723E+03 -0.14614079053E+04  0.17061146290E+04  0.50400001928E-02 0.  1.
</event>
<event>
 5   0  0.4134019E-07  0.3108813E+04  0.7818609E-02  0.8213324E-01
       -1   -1    0    0    0  501  0.00000000000E+00  0.00000000000E+00  0.14474137678E+04  0.14474137678E+04  0.50400001928E-02 0. -1.
        1   -1    0    0  501    0  0.00000000000E+00  0.00000000000E+00 -0.16693077500E+04  0.16693077500E+04  0.50400001928E-02 0.  1.
    10030    2    1    2    0    0  0.00000000000E+00  0.00000000000E+00 -0.22189398223E+03  0.31167215178E+04  0.31088126480E+04 0.  0.
        2    1    3    3  502    0 -0.10335747746E+01  0.15180085314E+04 -0.44620474108E+03  0.15822293262E+04  0.25500000920E-02 0. -1.
       -2    1    3    3    0  502  0.10335747746E+01 -0.15180085314E+04  0.22431075885E+03  0.15344921916E+04  0.25500000920E-02 0.  1.
</event>
<event>
 5   0  0.1176002E-06  0.3142800E+04  0.7818609E-02  0.8204089E-01
        2   -1    0    0  501    0  0.00000000000E+00  0.00000000000E+00  0.14739704706E+04  0.14739704706E+04  0.25500000920E-02 0. -1.
       -2   -1    0    0    0  501  0.00000000000E+00  0.00000000000E+00 -0.16752692704E+04  0.16752692704E+04  0.25500000920E-02 0.  1.
    10030    2    1    2    0    0  0.00000000000E+00  0.00000000000E+00 -0.20129879982E+03  0.31492397410E+04  0.31427996658E+04 0.  0.
        2    1    3    3  502    0  0.84203520296E+01 -0.96716421263E+03  0.11403632592E+04  0.14952945795E+04  0.25500000920E-02 0. -1.
       -2    1    3    3    0  502 -0.84203520296E+01  0.96716421263E+03 -0.13416620590E+04  0.16539451615E+04  0.25500000920E-02 0.  1.
</event>
<event>
 5   0  0.1258262E-06  0.3032920E+04  0.7818609E-02  0.8234392E-01
       -2   -1    0    0    0  501  0.00000000000E+00  0.00000000000E+00  0.16986196731E+04  0.16986196731E+04  0.25500000920E-02 0. -1.
        2   -1    0    0  501    0  0.00000000000E+00  0.00000000000E+00 -0.13538349576E+04  0.13538349576E+04  0.25500000920E-02 0.  1.
    10030    2    1    2    0    0  0.00000000000E+00  0.00000000000E+00  0.34478471550E+03  0.30524546306E+04  0.30329198427E+04 0.  0.
        1    1    3    3  502    0 -0.72939745030E+03 -0.71116645139E+03 -0.95817383342E+03  0.13985261732E+04  0.50400001928E-02 0.  1.
       -1    1    3    3    0  502  0.72939745030E+03  0.71116645139E+03  0.13029585489E+04  0.16539284574E+04  0.50400001928E-02 0. -1.
</event>
<event>
 5   0  0.4134019E-07  0.3049889E+04  0.7818609E-02  0.8229627E-01
       -1   -1    0    0    0  501  0.00000000000E+00  0.00000000000E+00  0.16837993352E+04  0.16837993352E+04  0.50400001928E-02 0.  1.
        1   -1    0    0  501    0  0.00000000000E+00  0.00000000000E+00 -0.13810765850E+04  0.13810765850E+04  0.50400001928E-02 0. -1.
    10030    2    1    2    0    0  0.00000000000E+00  0.00000000000E+00  0.30272275017E+03  0.30648759202E+04  0.30498890706E+04 0.  0.
        2    1    3    3  502    0 -0.88457771626E+03  0.54734078180E+03 -0.96919475489E+03  0.14217588194E+04  0.25500000920E-02 0. -1.
       -2    1    3    3    0  502  0.88457771626E+03 -0.54734078180E+03  0.12719175051E+04  0.16431171009E+04  0.25500000920E-02 0.  1.
</event>
<event>
 5   0  0.4219337E-07  0.3099613E+04  0.7818609E-02  0.8215844E-01
       -1   -1    0    0    0  501  0.00000000000E+00  0.00000000000E+00  0.11343550969E+04  0.11343550969E+04  0.50400001928E-02 0.  1.
        1   -1    0    0  501    0  0.00000000000E+00  0.00000000000E+00 -0.21174148592E+04  0.21174148592E+04  0.50400001928E-02 0. -1.
    10030    2    1    2    0    0  0.00000000000E+00  0.00000000000E+00 -0.98305976227E+03  0.32517699561E+04  0.30996130970E+04 0.  0.
        4    1    3    3  502    0  0.79375024204E+03 -0.12883418189E+04 -0.84267649139E+03  0.17320419657E+04  0.12699999809E+01 0. -1.
       -4    1    3    3    0  502 -0.79375024204E+03  0.12883418189E+04 -0.14038327088E+03  0.15197279903E+04  0.12699999809E+01 0.  1.
</event>
<event>
 5   0  0.1200286E-06  0.3107186E+04  0.7818609E-02  0.8213769E-01
        2   -1    0    0  501    0  0.00000000000E+00  0.00000000000E+00  0.23381246409E+04  0.23381246409E+04  0.25500000920E-02 0.  1.
       -2   -1    0    0    0  501  0.00000000000E+00  0.00000000000E+00 -0.10323019194E+04  0.10323019194E+04  0.25500000920E-02 0. -1.
    10030    2    1    2    0    0  0.00000000000E+00  0.00000000000E+00  0.13058227215E+04  0.33704265603E+04  0.31071855784E+04 0.  0.
        5    1    3    3  502    0 -0.88054756581E+03 -0.12753251259E+04  0.77079339709E+03  0.17308849596E+04  0.46999998093E+01 0.  1.
       -5    1    3    3    0  502  0.88054756581E+03  0.12753251259E+04  0.53502932436E+03  0.16395416007E+04  0.46999998093E+01 0. -1.
</event>
<event>
 5   0  0.3935852E-07  0.3101351E+04  0.7818609E-02  0.8215367E-01
        1   -1    0    0  501    0  0.00000000000E+00  0.00000000000E+00  0.12718302244E+04  0.12718302245E+04  0.50400001928E-02 0. -1.
       -1   -1    0    0    0  501  0.00000000000E+00  0.00000000000E+00 -0.18906565837E+04  0.18906565837E+04  0.50400001928E-02 0.  1.
    10030    2    1    2    0    0  0.00000000000E+00  0.00000000000E+00 -0.61882635928E+03  0.31624868082E+04  0.31013507942E+04 0.  0.
        5    1    3    3  502    0  0.52212136953E+02 -0.11765054711E+04  0.71927472910E+03  0.13799527009E+04  0.46999998093E+01 0. -1.
       -5    1    3    3    0  502 -0.52212136953E+02  0.11765054711E+04 -0.13381010884E+04  0.17825341073E+04  0.46999998093E+01 0.  1.
</event>
<event>
 5   0  0.4173905E-07  0.3082267E+04  0.7818609E-02  0.8220621E-01
        1   -1    0    0  501    0  0.00000000000E+00  0.00000000000E+00  0.13564388985E+04  0.13564388985E+04  0.50400001928E-02 0. -1.
       -1   -1    0    0    0  501  0.00000000000E+00  0.00000000000E+00 -0.17509768941E+04  0.17509768941E+04  0.50400001928E-02 0.  1.
    10030    2    1    2    0    0  0.00000000000E+00  0.00000000000E+00 -0.39453799556E+03  0.31074157926E+04  0.30822674573E+04 0.  0.
        3    1    3    3  502    0  0.94158120337E+03 -0.85519709113E+03  0.67997763974E+03  0.14423268797E+04  0.10100000352E+00 0. -1.
       -3    1    3    3    0  502 -0.94158120337E+03  0.85519709113E+03 -0.10745156353E+04  0.16650889129E+04  0.10100000352E+00 0.  1.
</event>
<event>
 5   0  0.1193123E-06  0.3139023E+04  0.7818609E-02  0.8205109E-01
        2   -1    0    0  501    0  0.00000000000E+00  0.00000000000E+00  0.13806715492E+04  0.13806715492E+04  0.25500000920E-02 0.  1.
       -2   -1    0    0    0  501  0.00000000000E+00  0.00000000000E+00 -0.17841797575E+04  0.17841797575E+04  0.25500000920E-02 0. -1.
    10030    2    1    2    0    0  0.00000000000E+00  0.00000000000E+00 -0.40350820824E+03  0.31648513067E+04  0.31390229243E+04 0.  0.
        3    1    3    3  502    0 -0.26333186790E+03 -0.10210039200E+04  0.97038367516E+03  0.14329819136E+04  0.10100000352E+00 0.  1.
       -3    1    3    3    0  502  0.26333186790E+03  0.10210039200E+04 -0.13738918834E+04  0.17318693931E+04  0.10100000352E+00 0. -1.
</event>
<event>
 5   0  0.1200286E-06  0.3098722E+04  0.7818609E-02  0.8216089E-01
        2   -1    0    0  501    0  0.00000000000E+00  0.00000000000E+00  0.26840763564E+04  0.26840763564E+04  0.25500000920E-02 0. -1.
       -2   -1    0    0    0  501  0.00000000000E+00  0.00000000000E+00 -0.89435588911E+03  0.89435588912E+03  0.25500000920E-02 0.  1.
    10030    2    1    2    0    0  0.00000000000E+00  0.00000000000E+00  0.17897204672E+04  0.35784322455E+04  0.30987219921E+04 0.  0.
        5    1    3    3  502    0  0.14207289316E+04 -0.45678938146E+03  0.13756966721E+04  0.20297021111E+04  0.46999998093E+01 0.  1.
       -5    1    3    3    0  502 -0.14207289316E+04  0.45678938146E+03  0.41402379510E+03  0.15487301344E+04  0.46999998093E+01 0. -1.
</event>
<event>
 5   0  0.3935852E-07  0.3097763E+04  0.7818609E-02  0.8216352E-01
       -1   -1    0    0    0  501  0.00000000000E+00  0.00000000000E+00  0.11931819713E+04  0.11931819713E+04  0.50400001928E-02 0.  1.
        1   -1    0    0  501    0  0.00000000000E+00  0.00000000000E+00 -0.20106191783E+04  0.20106191783E+04  0.50400001928E-02 0. -1.
    10030    2    1    2    0    0  0.00000000000E+00  0.00000000000E+00 -0.81743720698E+03  0.32038011496E+04  0.30977634221E+04 0.  0.
        5    1    3    3  502    0  0.89237995758E+03  0.10416988130E+04 -0.11527423100E+04  0.17917352843E+04  0.46999998093E+01 0. -1.
       -5    1    3    3    0  502 -0.89237995758E+03 -0.10416988130E+04  0.33530510307E+03  0.14120658653E+04  0.46999998093E+01 0.  1.
</event>
<event>
 5   0  0.4134019E-07  0.3086192E+04  0.7818609E-02  0.8219537E-01
        1   -1    0    0  501    0  0.00000000000E+00  0.00000000000E+00  0.27994126364E+04  0.27994126364E+04  0.50400001928E-02 0.  1.
       -1   -1    0    0    0  501  0.00000000000E+00  0.00000000000E+00 -0.85058772091E+03  0.85058772093E+03  0.50400001928E-02 0. -1.
    10030    2    1    2    0    0  0.00000000000E+00  0.00000000000E+00  0.19488249155E+04  0.36500003573E+04  0.30861924854E+04 0.  0.
        2    1    3    3  502    0 -0.72128171407E+03  0.10889399354E+03 -0.63379897347E+03  0.96633656231E+03  0.25500000920E-02 0. -1.
       -2    1    3    3    0  502  0.72128171407E+03 -0.10889399354E+03  0.25826238889E+04  0.26836637950E+04  0.25500000920E-02 0.  1.
</event>
<event>
 5   0  0.1237580E-06  0.3102114E+04  0.7818609E-02  0.8215158E-01
        2   -1    0    0  501    0  0.00000000000E+00  0.00000000000E+00  0.19252969189E+04  0.19252969189E+04  0.25500000920E-02 0. -1.
       -2   -1    0    0    0  501  0.00000000000E+00  0.00000000000E+00 -0.12495620880E+04  0.12495620880E+04  0.25500000920E-02 0.  1.
    10030    2    1    2    0    0  0.00000000000E+00  0.00000000000E+00  0.67573483091E+03  0.31748590068E+04  0.31021141423E+04 0.  0.
        4    1    3    3  502    0  0.43937987548E+03 -0.11723775188E+04  0.12748988299E+04  0.17868666321E+04  0.12699999809E+01 0. -1.
       -4    1    3    3    0  502 -0.43937987548E+03  0.11723775188E+04 -0.59916399904E+03  0.13879923747E+04  0.12699999809E+01 0.  1.
</event>
<event>
 5   0  0.1200286E-06  0.3098200E+04  0.7818609E-02  0.8216232E-01
       -2   -1    0    0    0  501  0.00000000000E+00  0.00000000000E+00  0.78534879429E+03  0.78534879430E+03  0.25500000920E-02 0.  1.
        2   -1    0    0  501    0  0.00000000000E+00  0.00000000000E+00 -0.30555997221E+04  0.30555997221E+04  0.25500000920E-02 0. -1.
    10030    2    1    2    0    0  0.00000000000E+00  0.00000000000E+00 -0.22702509278E+04  0.38409485164E+04  0.30982004826E+04 0.  0.
        5    1    3    3  502    0  0.15017651144E+04 -0.37207885006E+03 -0.12307406325E+04  0.19769890551E+04  0.46999998093E+01 0. -1.
       -5    1    3    3    0  502 -0.15017651144E+04  0.37207885006E+03 -0.10395102953E+04  0.18639594613E+04  0.46999998093E+01 0.  1.
</event>
<event>
 5   0  0.4330395E-07  0.3039247E+04  0.7818609E-02  0.8232612E-01
       -1   -1    0    0    0  501  0.00000000000E+00  0.00000000000E+00  0.11697479046E+04  0.11697479047E+04  0.50400001928E-02 0. -1.
        1   -1    0    0  501    0  0.00000000000E+00  0.00000000000E+00 -0.19741484189E+04  0.19741484189E+04  0.50400001928E-02 0.  1.
    10030    2    1    2    0    0  0.00000000000E+00  0.00000000000E+00 -0.80440051423E+03  0.31438963235E+04  0.30392472597E+04 0.  0.
        1    1    3    3  502    0 -0.13574275023E+04 -0.68147451812E+03 -0.45114797970E+03  0.15844719759E+04  0.50400001928E-02 0. -1.
       -1    1    3    3    0  502  0.13574275023E+04  0.68147451812E+03 -0.35325253452E+03  0.15594243476E+04  0.50400001928E-02 0.  1.
</event>
<event>
 5   0  0.1176002E-06  0.3096901E+04  0.7818609E-02  0.8216589E-01
        2   -1    0    0  501    0  0.00000000000E+00  0.00000000000E+00  0.19935510519E+04  0.19935510519E+04  0.25500000920E-02 0.  1.
       -2   -1    0    0    0  501  0.00000000000E+00  0.00000000000E+00 -0.12027275309E+04  0.12027275309E+04  0.25500000920E-02 0. -1.
    10030    2    1    2    0    0  0.00000000000E+00  0.00000000000E+00  0.79082352102E+03  0.31962785829E+04  0.30969008602E+04 0.  0.
        2    1    3    3  502    0 -0.22681892303E+03 -0.89514093189E+03 -0.88744449770E+03  0.12807348860E+04  0.25500000920E-02 0. -1.
       -2    1    3    3    0  502  0.22681892303E+03  0.89514093189E+03  0.16782680187E+04  0.19155436968E+04  0.25500000920E-02 0.  1.
</event>
<event>
 5   0  0.4134019E-07  0.3092592E+04  0.7818609E-02  0.8217774E-01
       -1   -1    0    0    0  501  0.00000000000E+00  0.00000000000E+00  0.12436899052E+04  0.12436899052E+04  0.50400001928E-02 0. -1.
        1   -1    0    0  501    0  0.00000000000E+00  0.00000000000E+00 -0.19225299258E+04  0.19225299258E+04  0.50400001928E-02 0.  1.
    10030    2    1    2    0    0  0.00000000000E+00  0.00000000000E+00 -0.67884002052E+03  0.31662198310E+04  0.30925918329E+04 0.  0.
        2    1    3    3  502    0  0.74565570741E+02 -0.12608712068E+04  0.57382282128E+03  0.13873099346E+04  0.25500000920E-02 0. -1.
       -2    1    3    3    0  502 -0.74565570741E+02  0.12608712068E+04 -0.12526628418E+04  0.17789098964E+04  0.25500000920E-02 0.  1.
</event>
<event>
 5   0  0.1258262E-06  0.3112168E+04  0.7818609E-02  0.8212406E-01
        2   -1    0    0  501    0  0.00000000000E+00  0.00000000000E+00  0.16201958187E+04  0.16201958187E+04  0.25500000920E-02 0.  1.
       -2   -1    0    0    0  501  0.00000000000E+00  0.00000000000E+00 -0.14945089074E+04  0.14945089074E+04  0.25500000920E-02 0. -1.
    10030    2    1    2    0    0  0.00000000000E+00  0.00000000000E+00  0.12568691134E+03  0.31147047261E+04  0.31121677864E+04 0.  0.
        1    1    3    3  502    0 -0.12995679277E+03 -0.15118097209E+04 -0.28231400576E+03  0.15434243091E+04  0.50400001928E-02 0. -1.
       -1    1    3    3    0  502  0.12995679277E+03  0.15118097209E+04  0.40800091710E+03  0.15712804169E+04  0.50400001928E-02 0.  1.
</event>
<event>
 5   0  0.4173905E-07  0.3079185E+04  0.7818609E-02  0.8221474E-01
       -1   -1    0    0    0  501  0.00000000000E+00  0.00000000000E+00  0.13527958153E+04  0.13527958153E+04  0.50400001928E-02 0. -1.
        1   -1    0    0  501    0  0.00000000000E+00  0.00000000000E+00 -0.17521827837E+04  0.17521827837E+04  0.50400001928E-02 0.  1.
    10030    2    1    2    0    0  0.00000000000E+00  0.00000000000E+00 -0.39938696840E+03  0.31049785990E+04  0.30791853061E+04 0.  0.
        3    1    3    3  502    0  0.60452195609E+03 -0.35185288617E+03  0.11833267322E+04  0.13745942726E+04  0.10100000352E+00 0. -1.
       -3    1    3    3    0  502 -0.60452195609E+03  0.35185288617E+03 -0.15827137006E+04  0.17303843264E+04  0.10100000352E+00 0.  1.
</event>
<event>
 5   0  0.4173905E-07  0.3096457E+04  0.7818609E-02  0.8216711E-01
        1   -1    0    0  501    0  0.00000000000E+00  0.00000000000E+00  0.20696029201E+04  0.20696029201E+04  0.50400001928E-02 0.  1.
       -1   -1    0    0    0  501  0.00000000000E+00  0.00000000000E+00 -0.11581985062E+04  0.11581985062E+04  0.50400001928E-02 0. -1.
    10030    2    1    2    0    0  0.00000000000E+00  0.00000000000E+00  0.91140441386E+03  0.32278014263E+04  0.30964566914E+04 0.  0.
        3    1    3    3  502    0 -0.12908964862E+02  0.15454636915E+04  0.55116364133E+03  0.16408552748E+04  0.10100000352E+00 0.  1.
       -3    1    3    3    0  502  0.12908964862E+02 -0.15454636915E+04  0.36024077253E+03  0.15869461514E+04  0.10100000352E+00 0. -1.
</event>
<event>
 5   0  0.1237580E-06  0.3099861E+04  0.7818609E-02  0.8215776E-01
        2   -1    0    0  501    0  0.00000000000E+00  0.00000000000E+00  0.26505173575E+04  0.26505173575E+04  0.25500000920E-02 0. -1.
       -2   -1    0    0    0  501  0.00000000000E+00  0.00000000000E+00 -0.90634580204E+03  0.90634580204E+03  0.25500000920E-02 0.  1.
    10030    2    1    2    0    0  0.00000000000E+00  0.00000000000E+00  0.17441715555E+04  0.35568631596E+04  0.30998614680E+04 0.  0.
        4    1    3    3  502    0  0.39571981966E+03 -0.11522064268E+04  0.19715274471E+04  0.23175624939E+04  0.12699999809E+01 0. -1.
       -4    1    3    3    0  502 -0.39571981966E+03  0.11522064268E+04 -0.22735589161E+03  0.12393006657E+04  0.12699999809E+01 0.  1.
</event>
<event>
 5   0  0.1258262E-06  0.3107101E+04  0.7818609E-02  0.8213792E-01
        2   -1    0    0  501    0  0.00000000000E+00  0.00000000000E+00  0.11066936935E+04  0.11066936935E+04  0.25500000920E-02 0.  1.
       -2   -1    0    0    0  501  0.00000000000E+00  0.00000000000E+00 -0.21808370209E+04  0.21808370209E+04  0.25500000920E-02 0. -1.
    10030    2    1    2    0    0  0.00000000000E+00  0.00000000000E+00 -0.10741433275E+04  0.32875307144E+04  0.31071006277E+04 0.  0.
        1    1    3    3  502    0  0.33258086389E+03  0.10922420267E+03  0.10644212393E+04  0.11205054807E+04  0.50400001928E-02 0.  1.
       -1    1    3    3    0  502 -0.33258086389E+03 -0.10922420267E+03 -0.21385645668E+04  0.21670252338E+04  0.50400001928E-02 0. -1.
</event>
<event>
 5   0  0.4134019E-07  0.2982313E+04  0.7818609E-02  0.8248800E-01
       -1   -1    0    0    0  501  0.00000000000E+00  0.00000000000E+00  0.86132383671E+03  0.86132383672E+03  0.50400001928E-02 0. -1.
        1   -1    0    0  501    0  0.00000000000E+00  0.00000000000E+00 -0.25815461884E+04  0.25815461885E+04  0.50400001928E-02 0.  1.
    10030    2    1    2    0    0  0.00000000000E+00  0.00000000000E+00 -0.17202223517E+04  0.34428700252E+04  0.29823127051E+04 0.  0.
        2    1    3    3  502    0 -0.84437976676E+03 -0.30535761712E+02  0.55830543098E+03  0.10127263093E+04  0.25500000920E-02 0. -1.
       -2    1    3    3    0  502  0.84437976676E+03  0.30535761712E+02 -0.22785277827E+04  0.24301437159E+04  0.25500000920E-02 0.  1.
</event>
<event>
 5   0  0.4219337E-07  0.3098309E+04  0.7818609E-02  0.8216202E-01
        1   -1    0    0  501    0  0.00000000000E+00  0.00000000000E+00  0.19535913104E+04  0.19535913104E+04  0.50400001928E-02 0.  1.
       -1   -1    0    0    0  501  0.00000000000E+00  0.00000000000E+00 -0.12284452567E+04  0.12284452567E+04  0.50400001928E-02 0. -1.
    10030    2    1    2    0    0  0.00000000000E+00  0.00000000000E+00  0.72514605364E+03  0.31820365671E+04  0.30983092027E+04 0.  0.
        4    1    3    3  502    0 -0.24841458359E+03  0.78897562043E+03  0.17078116158E+04  0.18975812137E+04  0.12699999809E+01 0.  1.
       -4    1    3    3    0  502  0.24841458359E+03 -0.78897562043E+03 -0.98266556211E+03  0.12844553534E+04  0.12699999809E+01 0. -1.
</event>
<event>
 5   0  0.3935852E-07  0.3108438E+04  0.7818609E-02  0.8213426E-01
        1   -1    0    0  501    0  0.00000000000E+00  0.00000000000E+00  0.18662115646E+04  0.18662115646E+04  0.50400001928E-02 0.  1.
       -1   -1    0    0    0  501  0.00000000000E+00  0.00000000000E+00 -0.12943854087E+04  0.12943854087E+04  0.50400001928E-02 0. -1.
    10030    2    1    2    0    0  0.00000000000E+00  0.00000000000E+00  0.57182615591E+03  0.31605969733E+04  0.31084382052E+04 0.  0.
        5    1    3    3  502    0  0.15326172057E+04 -0.23217706690E+03  0.40073825855E+03  0.16010730562E+04  0.46999998093E+01 0.  1.
       -5    1    3    3    0  502 -0.15326172057E+04  0.23217706690E+03  0.17108789736E+03  0.15595239171E+04  0.46999998093E+01 0. -1.
</event>
<event>
 5   0  0.1176002E-06  0.3106660E+04  0.7818609E-02  0.8213912E-01
       -2   -1    0    0    0  501  0.00000000000E+00  0.00000000000E+00  0.13722636781E+04  0.13722636781E+04  0.25500000920E-02 0. -1.
        2   -1    0    0  501    0  0.00000000000E+00  0.00000000000E+00 -0.17582880452E+04  0.17582880452E+04  0.25500000920E-02 0.  1.
    10030    2    1    2    0    0  0.00000000000E+00  0.00000000000E+00 -0.38602436709E+03  0.31305517232E+04  0.31066604706E+04 0.  0.
        2    1    3    3  502    0  0.12518907851E+04 -0.41968570726E+02  0.73266145908E+03  0.14511322174E+04  0.25500000920E-02 0. -1.
       -2    1    3    3    0  502 -0.12518907851E+04  0.41968570726E+02 -0.11186858262E+04  0.16794195058E+04  0.25500000920E-02 0.  1.
</event>
<event>
 5   0  0.4219337E-07  0.3099203E+04  0.7818609E-02  0.8215957E-01
        1   -1    0    0  501    0  0.00000000000E+00  0.00000000000E+00  0.13314112035E+04  0.13314112035E+04  0.50400001928E-02 0.  1.
       -1   -1    0    0    0  501  0.00000000000E+00  0.00000000000E+00 -0.18035483285E+04  0.18035483285E+04  0.50400001928E-02 0. -1.
    10030    2    1    2    0    0  0.00000000000E+00  0.00000000000E+00 -0.47213712499E+03  0.31349595320E+04  0.30992027689E+04 0.  0.
        4    1    3    3  502    0  0.50264940212E+03  0.11677463871E+04 -0.11322785982E+04  0.17024524906E+04  0.12699999809E+01 0. -1.
       -4    1    3    3    0  502 -0.50264940212E+03 -0.11677463871E+04  0.66014147321E+03  0.14325070414E+04  0.12699999809E+01 0.  1.
</event>
<event>
 5   0  0.1200286E-06  0.3097559E+04  0.7818609E-02  0.8216408E-01
       -2   -1    0    0    0  501  0.00000000000E+00  0.00000000000E+00  0.15575827694E+04  0.15575827694E+04  0.25500000920E-02 0. -1.
        2   -1    0    0  501    0  0.00000000000E+00  0.00000000000E+00 -0.15400259655E+04  0.15400259655E+04  0.25500000920E-02 0.  1.
    10030    2    1    2    0    0  0.00000000000E+00  0.00000000000E+00  0.17556803911E+02  0.30976087350E+04  0.30975589799E+04 0.  0.
        5    1    3    3  502    0  0.14103621988E+04  0.14657195510E+03  0.63175786888E+03  0.15523353261E+04  0.46999998093E+01 0. -1.
       -5    1    3    3    0  502 -0.14103621988E+04 -0.14657195510E+03 -0.61420106497E+03  0.15452734088E+04  0.46999998093E+01 0.  1.
</event>
<event>
 5   0  0.3935852E-07  0.3097121E+04  0.7818609E-02  0.8216529E-01
       -1   -1    0    0    0  501  0.00000000000E+00  0.00000000000E+00  0.10741522914E+04  0.10741522914E+04  0.50400001928E-02 0.  1.
        1   -1    0    0  501    0  0.00000000000E+00  0.00000000000E+00 -0.22324942895E+04  0.22324942895E+04  0.50400001928E-02 0. -1.
    10030    2    1    2    0    0  0.00000000000E+00  0.00000000000E+00 -0.11583419981E+04  0.33066465809E+04  0.30971205056E+04 0.  0.
        5    1    3    3  502    0 -0.10942418874E+04 -0.10894610718E+04 -0.45408688048E+03  0.16095054272E+04  0.46999998093E+01 0. -1.
       -5    1    3    3    0  502  0.10942418874E+04  0.10894610718E+04 -0.70425511767E+03  0.16971411538E+04  0.46999998093E+01 0.  1.
</event>
<event>
 5   0  0.4330395E-07  0.3093463E+04  0.7818609E-02  0.8217534E-01
       -1   -1    0    0    0  501  0.00000000000E+00  0.00000000000E+00  0.20763446073E+04  0.20763446073E+04  0.50400001928E-02 0. -1.
        1   -1    0    0  501    0  0.00000000000E+00  0.00000000000E+00 -0.11522070122E+04  0.11522070122E+04  0.50400001928E-02 0.  1.
    10030    2    1    2    0    0  0.00000000000E+00  0.00000000000E+00  0.92413759505E+03  0.32285516195E+04  0.30934633124E+04 0.  0.
        1    1    3    3  502    0  0.13460191087E+04  0.52755044913E+03 -0.11176114018E+03  0.14500232653E+04  0.50400001928E-02 0.  1.
       -1    1    3    3    0  502 -0.13460191087E+04 -0.52755044913E+03  0.10358987352E+04  0.17785283543E+04  0.50400001928E-02 0. -1.
</event>
<event>
 5   0  0.1176002E-06  0.3106427E+04  0.7818609E-02  0.8213976E-01
        2   -1    0    0  501    0  0.00000000000E+00  0.00000000000E+00  0.15761845911E+04  0.15761845911E+04  0.25500000920E-02 0.  1.
       -2   -1    0    0    0  501  0.00000000000E+00  0.00000000000E+00 -0.15305775263E+04  0.15305775263E+04  0.25500000920E-02 0. -1.
    10030    2    1    2    0    0  0.00000000000E+00  0.00000000000E+00  0.45607064820E+02  0.31067621175E+04  0.31064273450E+04 0.  0.
        2    1    3    3  502    0  0.14141189071E+04 -0.59629413659E+03 -0.21633252788E+03  0.15498705570E+04  0.25500000920E-02 0.  1.
       -2    1    3    3    0  502 -0.14141189071E+04  0.59629413659E+03  0.26193959271E+03  0.15568915605E+04  0.25500000920E-02 0. -1.
</event>
<event>
 5   0  0.3935852E-07  0.3101736E+04  0.7818609E-02  0.8215262E-01
       -1   -1    0    0    0  501  0.00000000000E+00  0.00000000000E+00  0.16699992288E+04  0.16699992288E+04  0.50400001928E-02 0.  1.
        1   -1    0    0  501    0  0.00000000000E+00  0.00000000000E+00 -0.14402355714E+04  0.14402355715E+04  0.50400001928E-02 0. -1.
    10030    2    1    2    0    0  0.00000000000E+00  0.00000000000E+00  0.22976365737E+03  0.31102348003E+04  0.31017364773E+04 0.  0.
        5    1    3    3  502    0  0.74985631630E+03 -0.15875451171E+03 -0.12370267296E+04  0.14552473020E+04  0.46999998093E+01 0. -1.
       -5    1    3    3    0  502 -0.74985631630E+03  0.15875451171E+03  0.14667903870E+04  0.16549874983E+04  0.46999998093E+01 0.  1.
</event>
<event>
 5   0  0.1258262E-06  0.3109202E+04  0.7818609E-02  0.8213217E-01
        2   -1    0    0  501    0  0.00000000000E+00  0.00000000000E+00  0.17927537052E+04  0.17927537052E+04  0.25500000920E-02 0. -1.
       -2   -1    0    0    0  501  0.00000000000E+00  0.00000000000E+00 -0.13480847808E+04  0.13480847808E+04  0.25500000920E-02 0.  1.
    10030    2    1    2    0    0  0.00000000000E+00  0.00000000000E+00  0.44466892447E+03  0.31408384860E+04  0.31092018176E+04 0.  0.
        1    1    3    3  502    0 -0.25214492370E+03  0.52361858641E+03  0.16788902430E+04  0.17766333146E+04  0.50400001928E-02 0. -1.
       -1    1    3    3    0  502  0.25214492370E+03 -0.52361858641E+03 -0.12342213185E+04  0.13642051714E+04  0.50400001928E-02 0.  1.
</event>
<event>
 5   0  0.4330395E-07  0.3102007E+04  0.7818609E-02  0.8215187E-01
       -1   -1    0    0    0  501  0.00000000000E+00  0.00000000000E+00  0.13816380056E+04  0.13816380057E+04  0.50400001928E-02 0. -1.
        1   -1    0    0  501    0  0.00000000000E+00  0.00000000000E+00 -0.17411304537E+04  0.17411304537E+04  0.50400001928E-02 0.  1.
    10030    2    1    2    0    0  0.00000000000E+00  0.00000000000E+00 -0.35949244803E+03  0.31227684593E+04  0.31020070971E+04 0.  0.
        1    1    3    3  502    0 -0.12819102697E+04 -0.48003553283E+03 -0.91393111367E+03  0.16459034397E+04  0.50400001928E-02 0.  1.
       -1    1    3    3    0  502  0.12819102697E+04  0.48003553283E+03  0.55443866565E+03  0.14768650196E+04  0.50400001928E-02 0. -1.
</event>
<event>
 5   0  0.4134019E-07  0.3115653E+04  0.7818609E-02  0.8211455E-01
        1   -1    0    0  501    0  0.00000000000E+00  0.00000000000E+00  0.92656978584E+03  0.92656978586E+03  0.50400001928E-02 0. -1.
       -1   -1    0    0    0  501  0.00000000000E+00  0.00000000000E+00 -0.26191481887E+04  0.26191481887E+04  0.50400001928E-02 0.  1.
    10030    2    1    2    0    0  0.00000000000E+00  0.00000000000E+00 -0.16925784028E+04  0.35457179745E+04  0.31156531105E+04 0.  0.
        2    1    3    3  502    0 -0.14195089742E+04  0.63931864046E+03 -0.90954508230E+03  0.18030547159E+04  0.25500000920E-02 0.  1.
       -2    1    3    3    0  502  0.14195089742E+04 -0.63931864046E+03 -0.78303332052E+03  0.17426632586E+04  0.25500000920E-02 0. -1.
</event>
<event>
 5   0  0.1237580E-06  0.3003911E+04  0.7818609E-02  0.8242615E-01
       -2   -1    0    0    0  501  0.00000000000E+00  0.00000000000E+00  0.23942288864E+04  0.23942288864E+04  0.25500000920E-02 0. -1.
        2   -1    0    0  501    0  0.00000000000E+00  0.00000000000E+00 -0.94221187115E+03  0.94221187115E+03  0.25500000920E-02 0.  1.
    10030    2    1    2    0    0  0.00000000000E+00  0.00000000000E+00  0.14520170153E+04  0.33364407576E+04  0.30039113696E+04 0.  0.
        4    1    3    3  502    0 -0.66186905528E+03 -0.90911641758E+03  0.18318685385E+04  0.21494900005E+04  0.12699999809E+01 0. -1.
       -4    1    3    3    0  502  0.66186905528E+03  0.90911641758E+03 -0.37985152325E+03  0.11869507570E+04  0.12699999809E+01 0.  1.
</event>
<event>
 5   0  0.1176002E-06  0.3098193E+04  0.7818609E-02  0.8216234E-01
       -2   -1    0    0    0  501  0.00000000000E+00  0.00000000000E+00  0.10312383393E+04  0.10312383393E+04  0.25500000920E-02 0. -1.
        2   -1    0    0  501    0  0.00000000000E+00  0.00000000000E+00 -0.23270078520E+04  0.23270078520E+04  0.25500000920E-02 0.  1.
    10030    2    1    2    0    0  0.00000000000E+00  0.00000000000E+00 -0.12957695128E+04  0.33582461913E+04  0.30981928363E+04 0.  0.
        2    1    3    3  502    0  0.12934312964E+04  0.37760081265E+03 -0.14763367062E+04  0.19987788678E+04  0.25500000920E-02 0.  1.
       -2    1    3    3    0  502 -0.12934312964E+04 -0.37760081265E+03  0.18056719342E+03  0.13594673235E+04  0.25500000920E-02 0. -1.
</event>
<event>
 5   0  0.1237580E-06  0.3116311E+04  0.7818609E-02  0.8211276E-01
       -2   -1    0    0    0  501  0.00000000000E+00  0.00000000000E+00  0.11845113855E+04  0.11845113855E+04  0.25500000920E-02 0. -1.
        2   -1    0    0  501    0  0.00000000000E+00  0.00000000000E+00 -0.20496627863E+04  0.20496627863E+04  0.25500000920E-02 0.  1.
    10030    2    1    2    0    0  0.00000000000E+00  0.00000000000E+00 -0.86515140079E+03  0.32341741719E+04  0.31163112212E+04 0.  0.
        4    1    3    3  502    0  0.10727371584E+04 -0.57484335631E+03  0.57717557429E+03  0.13469755572E+04  0.12699999809E+01 0. -1.
       -4    1    3    3    0  502 -0.10727371584E+04  0.57484335631E+03 -0.14423269751E+04  0.18871986147E+04  0.12699999809E+01 0.  1.
</event>
<event>
 5   0  0.4134019E-07  0.3104878E+04  0.7818609E-02  0.8214400E-01
        1   -1    0    0  501    0  0.00000000000E+00  0.00000000000E+00  0.19246397899E+04  0.19246397899E+04  0.50400001928E-02 0. -1.
       -1   -1    0    0    0  501  0.00000000000E+00  0.00000000000E+00 -0.12522170588E+04  0.12522170588E+04  0.50400001928E-02 0.  1.
    10030    2    1    2    0    0  0.00000000000E+00  0.00000000000E+00  0.67242273103E+03  0.31768568487E+04  0.31048779538E+04 0.  0.
        2    1    3    3  502    0 -0.14982230972E+04 -0.32384218882E+03  0.58792375837E+03  0.16417065992E+04  0.25500000920E-02 0.  1.
       -2    1    3    3    0  502  0.14982230972E+04  0.32384218882E+03  0.84498972660E+02  0.15351502495E+04  0.25500000920E-02 0. -1.
</event>
<event>
 5   0  0.1258262E-06  0.3094966E+04  0.7818609E-02  0.8217121E-01
       -2   -1    0    0    0  501  0.00000000000E+00  0.00000000000E+00  0.13015919273E+04  0.13015919273E+04  0.25500000920E-02 0.  1.
        2   -1    0    0  501    0  0.00000000000E+00  0.00000000000E+00 -0.18398264330E+04  0.18398264330E+04  0.25500000920E-02 0. -1.
    10030    2    1    2    0    0  0.00000000000E+00  0.00000000000E+00 -0.53823450568E+03  0.31414183603E+04  0.30949657400E+04 0.  0.
        1    1    3    3  502    0  0.36128175980E+03 -0.10211951928E+03  0.12546647262E+04  0.13096321932E+04  0.50400001928E-02 0.  1.
       -1    1    3    3    0  502 -0.36128175980E+03  0.10211951928E+03 -0.17928992319E+04  0.18317861671E+04  0.50400001928E-02 0. -1.
</event>
<event>
 5   0  0.4219337E-07  0.3090284E+04  0.7818609E-02  0.8218409E-01
        1   -1    0    0  501    0  0.00000000000E+00  0.00000000000E+00  0.11899846099E+04  0.11899846099E+04  0.50400001928E-02 0.  1.
       -1   -1    0    0    0  501  0.00000000000E+00  0.00000000000E+00 -0.20062979468E+04  0.20062979468E+04  0.50400001928E-02 0. -1.
    10030    2    1    2    0    0  0.00000000000E+00  0.00000000000E+00 -0.81631333686E+03  0.31962825567E+04  0.30902839219E+04 0.  0.
        4    1    3    3  502    0  0.63560756194E+03  0.12550294555E+03 -0.18590242660E+04  0.19686850425E+04  0.12699999809E+01 0. -1.
       -4    1    3    3    0  502 -0.63560756194E+03 -0.12550294555E+03  0.10427109291E+04  0.12275975142E+04  0.12699999809E+01 0.  1.
</event>
<event>
 5   0  0.4134019E-07  0.3097684E+04  0.7818609E-02  0.8216374E-01
       -1   -1    0    0    0  501  0.00000000000E+00  0.00000000000E+00  0.13595907267E+04  0.13595907268E+04  0.50400001928E-02 0.  1.
        1   -1    0    0  501    0  0.00000000000E+00  0.00000000000E+00 -0.17644364829E+04  0.17644364829E+04  0.50400001928E-02 0. -1.
    10030    2    1    2    0    0  0.00000000000E+00  0.00000000000E+00 -0.40484575614E+03  0.31240272097E+04  0.30976839607E+04 0.  0.
        2    1    3    3  502    0  0.66861266532E+03 -0.16392933046E+03  0.11968183380E+04  0.13806845606E+04  0.25500000920E-02 0.  1.
       -2    1    3    3    0  502 -0.66861266532E+03  0.16392933046E+03 -0.16016640941E+04  0.17433426491E+04  0.25500000920E-02 0. -1.
</event>
<event>
 5   0  0.4330395E-07  0.3089140E+04  0.7818609E-02  0.8218725E-01
       -1   -1    0    0    0  501  0.00000000000E+00  0.00000000000E+00  0.13891465465E+04  0.13891465465E+04  0.50400001928E-02 0. -1.
        1   -1    0    0  501    0  0.00000000000E+00  0.00000000000E+00 -0.17173830294E+04  0.17173830294E+04  0.50400001928E-02 0.  1.
    10030    2    1    2    0    0  0.00000000000E+00  0.00000000000E+00 -0.32823648294E+03  0.31065295759E+04  0.30891401421E+04 0.  0.
        1    1    3    3  502    0 -0.89515626922E+03  0.12229479272E+04  0.13553619037E+03  0.15216032459E+04  0.50400001928E-02 0. -1.
       -1    1    3    3    0  502  0.89515626922E+03 -0.12229479272E+04 -0.46377267331E+03  0.15849263300E+04  0.50400001928E-02 0.  1.
</event>
<event>
 5   0  0.1258262E-06  0.3103930E+04  0.7818609E-02  0.8214660E-01
        2   -1    0    0  501    0  0.00000000000E+00  0.00000000000E+00  0.19313000234E+04  0.19313000234E+04  0.25500000920E-02 0.  1.
       -2   -1    0    0    0  501  0.00000000000E+00  0.00000000000E+00 -0.12471365380E+04  0.12471365380E+04  0.25500000920E-02 0. -1.
    10030    2    1    2    0    0  0.00000000000E+00  0.00000000000E+00  0.68416348540E+03  0.31784365614E+04  0.31039296545E+04 0.  0.
        1    1    3    3  502    0 -0.77526162504E+03 -0.10529694513E+04  0.11981023262E+04  0.17734780621E+04  0.50400001928E-02 0.  1.
       -1    1    3    3    0  502  0.77526162504E+03  0.10529694513E+04 -0.51393884079E+03  0.14049584993E+04  0.50400001928E-02 0. -1.
</event>
<event>
 5   0  0.4173905E-07  0.3104268E+04  0.7818609E-02  0.8214568E-01
        1   -1    0    0  501    0  0.00000000000E+00  0.00000000000E+00  0.21945664027E+04  0.21945664027E+04  0.50400001928E-02 0.  1.
       -1   -1    0    0    0  501  0.00000000000E+00  0.00000000000E+00 -0.10977657057E+04  0.10977657057E+04  0.50400001928E-02 0. -1.
    10030    2    1    2    0    0  0.00000000000E+00  0.00000000000E+00  0.10968006970E+04  0.32923321083E+04  0.31042678594E+04 0.  0.
        3    1    3    3  502    0 -0.10595580982E+04 -0.76098446225E+03 -0.34359870600E+03  0.13490073373E+04  0.10100000352E+00 0.  1.
       -3    1    3    3    0  502  0.10595580982E+04  0.76098446225E+03  0.14403994030E+04  0.19433247710E+04  0.10100000352E+00 0. -1.
</event>
<event>
 5   0  0.3935852E-07  0.3101991E+04  0.7818609E-02  0.8215192E-01
        1   -1    0    0  501    0  0.00000000000E+00  0.00000000000E+00  0.16805955020E+04  0.16805955020E+04  0.50400001928E-02 0. -1.
       -1   -1    0    0    0  501  0.00000000000E+00  0.00000000000E+00 -0.14313893679E+04  0.14313893679E+04  0.50400001928E-02 0.  1.
    10030    2    1    2    0    0  0.00000000000E+00  0.00000000000E+00  0.24920613409E+03  0.31119848698E+04  0.31019906726E+04 0.  0.
        5    1    3    3  502    0 -0.27345433249E+03 -0.86705345700E+03  0.13852364601E+04  0.16569433031E+04  0.46999998093E+01 0. -1.
       -5    1    3    3    0  502  0.27345433249E+03  0.86705345700E+03 -0.11360303260E+04  0.14550415667E+04  0.46999998093E+01 0.  1.
</event>
<event>
 5   0  0.4173905E-07  0.3097271E+04  0.7818609E-02  0.8216487E-01
        1   -1    0    0  501    0  0.00000000000E+00  0.00000000000E+00  0.16268397081E+04  0.16268397081E+04  0.50400001928E-02 0. -1.
       -1   -1    0    0    0  501  0.00000000000E+00  0.00000000000E+00 -0.14741909284E+04  0.14741909284E+04  0.50400001928E-02 0.  1.
    10030    2    1    2    0    0  0.00000000000E+00  0.00000000000E+00  0.15264877970E+03  0.31010306364E+04  0.30972712762E+04 0.  0.
        3    1    3    3  502    0  0.11069003702E+04 -0.23907309905E+03  0.11339625364E+04  0.16025777424E+04  0.10100000352E+00 0. -1.
       -3    1    3    3    0  502 -0.11069003702E+04  0.23907309905E+03 -0.98131375674E+03  0.14984528940E+04  0.10100000352E+00 0.  1.
</event>
<event>
 5   0  0.1176002E-06  0.3095721E+04  0.7818609E-02  0.8216913E-01
       -2   -1    0    0    0  501  0.00000000000E+00  0.00000000000E+00  0.11114225257E+04  0.11114225257E+04  0.25500000920E-02 0.  1.
        2   -1    0    0  501    0  0.00000000000E+00  0.00000000000E+00 -0.21556812330E+04  0.21556812330E+04  0.25500000920E-02 0. -1.
    10030    2    1    2    0    0  0.00000000000E+00  0.00000000000E+00 -0.10442587073E+04  0.32671037587E+04  0.30957213573E+04 0.  0.
        2    1    3    3  502    0 -0.66486404020E+03  0.78602350738E+03  0.69771260375E+03  0.12436559104E+04  0.25500000920E-02 0.  1.
       -2    1    3    3    0  502  0.66486404020E+03 -0.78602350738E+03 -0.17419713111E+04  0.20234478483E+04  0.25500000920E-02 0. -1.
</event>
<event>
 5   0  0.1176002E-06  0.3092033E+04  0.7818609E-02  0.8217928E-01
       -2   -1    0    0    0  501  0.00000000000E+00  0.00000000000E+00  0.12121252030E+04  0.12121252030E+04  0.25500000920E-02 0. -1.
        2   -1    0    0  501    0  0.00000000000E+00  0.00000000000E+00 -0.19718809914E+04  0.19718809914E+04  0.25500000920E-02 0.  1.
    10030    2    1    2    0    0  0.00000000000E+00  0.00000000000E+00 -0.75975578840E+03  0.31840061944E+04  0.30920327599E+04 0.  0.
        2    1    3    3  502    0 -0.18678674579E+03  0.13567965636E+04 -0.11184145265E+04  0.17682299784E+04  0.25500000920E-02 0.  1.
       -2    1    3    3    0  502  0.18678674579E+03 -0.13567965636E+04  0.35865873810E+03  0.14157762160E+04  0.25500000920E-02 0. -1.
</event>
<event>
 5   0  0.1237580E-06  0.3173819E+04  0.7818609E-02  0.8195766E-01
        2   -1    0    0  501    0  0.00000000000E+00  0.00000000000E+00  0.34179469821E+04  0.34179469821E+04  0.25500000920E-02 0. -1.
       -2   -1    0    0    0  501  0.00000000000E+00  0.00000000000E+00 -0.73678194810E+03  0.73678194811E+03  0.25500000920E-02 0.  1.
    10030    2    1    2    0    0  0.00000000000E+00  0.00000000000E+00  0.26811650340E+04  0.41547289302E+04  0.31738189211E+04 0.  0.
        4    1    3    3  502    0  0.62155927929E+02 -0.21382758990E+03 -0.71622768294E+03  0.75004620144E+03  0.12699999809E+01 0.  1.
       -4    1    3    3    0  502 -0.62155927929E+02  0.21382758990E+03  0.33973927169E+04  0.34046827288E+04  0.12699999809E+01 0. -1.
</event>
<event>
 5   0  0.3902375E-07  0.3094143E+04  0.7818609E-02  0.8217347E-01
       -3   -1    0    0    0  501  0.00000000000E+00  0.00000000000E+00  0.24659669432E+04  0.24659669452E+04  0.10100000352E+00 0. -1.
        3   -1    0    0  501    0  0.00000000000E+00  0.00000000000E+00 -0.97058477344E+03  0.97058477870E+03  0.10100000352E+00 0.  1.
    10030    2    1    2    0    0  0.00000000000E+00  0.00000000000E+00  0.14953821697E+04  0.34365517239E+04  0.30941428405E+04 0.  0.
        3    1    3    3  502    0 -0.55546433973E+02 -0.40272316789E+03 -0.91019840183E+03  0.99686132294E+03  0.10100000352E+00 0.  1.
       -3    1    3    3    0  502  0.55546433973E+02  0.40272316789E+03  0.24055805715E+04  0.24396904010E+04  0.10100000352E+00 0. -1.
</event>
<event>
 5   0  0.4173905E-07  0.3099455E+04  0.7818609E-02  0.8215888E-01
       -1   -1    0    0    0  501  0.00000000000E+00  0.00000000000E+00  0.99666853757E+03  0.99666853758E+03  0.50400001928E-02 0. -1.
        1   -1    0    0  501    0  0.00000000000E+00  0.00000000000E+00 -0.24096830433E+04  0.24096830433E+04  0.50400001928E-02 0.  1.
    10030    2    1    2    0    0  0.00000000000E+00  0.00000000000E+00 -0.14130145057E+04  0.34063515809E+04  0.30994549681E+04 0.  0.
        3    1    3    3  502    0  0.85177138035E+03  0.17713449024E+03  0.70296313506E+03  0.11185027007E+04  0.10100000352E+00 0. -1.
       -3    1    3    3    0  502 -0.85177138035E+03 -0.17713449024E+03 -0.21159776408E+04  0.22878488802E+04  0.10100000352E+00 0.  1.
</event>
<event>
 5   0  0.4219337E-07  0.3099416E+04  0.7818609E-02  0.8215898E-01
       -1   -1    0    0    0  501  0.00000000000E+00  0.00000000000E+00  0.13451606907E+04  0.13451606907E+04  0.50400001928E-02 0. -1.
        1   -1    0    0  501    0  0.00000000000E+00  0.00000000000E+00 -0.17853594263E+04  0.17853594263E+04  0.50400001928E-02 0.  1.
    10030    2    1    2    0    0  0.00000000000E+00  0.00000000000E+00 -0.44019873553E+03  0.31305201170E+04  0.30994162799E+04 0.  0.
        4    1    3    3  502    0  0.14445702395E+03 -0.15426198623E+04 -0.18737305633E+03  0.15606582414E+04  0.12699999809E+01 0. -1.
       -4    1    3    3    0  502 -0.14445702395E+03  0.15426198623E+04 -0.25282567920E+03  0.15698618756E+04  0.12699999809E+01 0.  1.
</event>
<event>
 5   0  0.1200286E-06  0.3096651E+04  0.7818609E-02  0.8216658E-01
       -2   -1    0    0    0  501  0.00000000000E+00  0.00000000000E+00  0.92179839241E+03  0.92179839241E+03  0.25500000920E-02 0.  1.
        2   -1    0    0  501    0  0.00000000000E+00  0.00000000000E+00 -0.26006905663E+04  0.26006905663E+04  0.25500000920E-02 0. -1.
    10030    2    1    2    0    0  0.00000000000E+00  0.00000000000E+00 -0.16788921739E+04  0.35224889587E+04  0.30966513418E+04 0.  0.
        5    1    3    3  502    0 -0.69478301011E+02  0.70777884617E+03 -0.24038968509E+04  0.25068945509E+04  0.46999998093E+01 0. -1.
       -5    1    3    3    0  502  0.69478301011E+02 -0.70777884617E+03  0.72500467705E+03  0.10155944078E+04  0.46999998093E+01 0.  1.
</event>
<event>
 5   0  0.3935852E-07  0.3096118E+04  0.7818609E-02  0.8216804E-01
        1   -1    0    0  501    0  0.00000000000E+00  0.00000000000E+00  0.19786979163E+04  0.19786979163E+04  0.50400001928E-02 0.  1.
       -1   -1    0    0    0  501  0.00000000000E+00  0.00000000000E+00 -0.12111431646E+04  0.12111431646E+04  0.50400001928E-02 0. -1.
    10030    2    1    2    0    0  0.00000000000E+00  0.00000000000E+00  0.76755475166E+03  0.31898410809E+04  0.30961178635E+04 0.  0.
        5    1    3    3  502    0 -0.15212429574E+04 -0.10706472835E+03  0.65795609153E+03  0.16608947287E+04  0.46999998093E+01 0.  1.
       -5    1    3    3    0  502  0.15212429574E+04  0.10706472835E+03  0.10959866012E+03  0.15289463522E+04  0.46999998093E+01 0. -1.
</event>
<event>
 5   0  0.4134019E-07  0.3098197E+04  0.7818609E-02  0.8216233E-01
       -1   -1    0    0    0  501  0.00000000000E+00  0.00000000000E+00  0.19922173851E+04  0.19922173851E+04  0.50400001928E-02 0.  1.
        1   -1    0    0  501    0  0.00000000000E+00  0.00000000000E+00 -0.12045399450E+04  0.12045399450E+04  0.50400001928E-02 0. -1.
    10030    2    1    2    0    0  0.00000000000E+00  0.00000000000E+00  0.78767744011E+03  0.31967573301E+04  0.30981965202E+04 0.  0.
        2    1    3    3  502    0  0.11590423209E+04  0.99110026876E+03  0.11306710762E+03  0.15291968530E+04  0.25500000920E-02 0.  1.
       -2    1    3    3    0  502 -0.11590423209E+04 -0.99110026876E+03  0.67461033248E+03  0.16675604772E+04  0.25500000920E-02 0. -1.
</event>
<event>
 5   0  0.1200286E-06  0.3121197E+04  0.7818609E-02  0.8209945E-01
        2   -1    0    0  501    0  0.00000000000E+00  0.00000000000E+00  0.20013572059E+04  0.20013572059E+04  0.25500000920E-02 0.  1.
       -2   -1    0    0    0  501  0.00000000000E+00  0.00000000000E+00 -0.12169078052E+04  0.12169078052E+04  0.25500000920E-02 0. -1.
    10030    2    1    2    0    0  0.00000000000E+00  0.00000000000E+00  0.78444940065E+03  0.32182650111E+04  0.31211966967E+04 0.  0.
        5    1    3    3  502    0 -0.72166605832E+03  0.98574470592E+03 -0.60903130353E+03  0.13650771933E+04  0.46999998093E+01 0. -1.
       -5    1    3    3    0  502  0.72166605832E+03 -0.98574470592E+03  0.13934807042E+04  0.18531878178E+04  0.46999998093E+01 0.  1.
</event>
<event>
 5   0  0.4173905E-07  0.3071296E+04  0.7818609E-02  0.8223660E-01
       -1   -1    0    0    0  501  0.00000000000E+00  0.00000000000E+00  0.23922201977E+04  0.23922201977E+04  0.50400001928E-02 0.  1.
        1   -1    0    0  501    0  0.00000000000E+00  0.00000000000E+00 -0.98578500345E+03  0.98578500346E+03  0.50400001928E-02 0. -1.
    10030    2    1    2    0    0  0.00000000000E+00  0.00000000000E+00  0.14064351942E+04  0.33780052012E+04  0.30712960104E+04 0.  0.
        3    1    3    3  502    0  0.38112689821E+02 -0.51422406296E+02 -0.98431724059E+03  0.98639610772E+03  0.10100000352E+00 0. -1.
       -3    1    3    3    0  502 -0.38112689821E+02  0.51422406296E+02  0.23907524348E+04  0.23916090934E+04  0.10100000352E+00 0.  1.
</event>
<event>
 5   0  0.4173905E-07  0.3092258E+04  0.7818609E-02  0.8217866E-01
        1   -1    0    0  501    0  0.00000000000E+00  0.00000000000E+00  0.22601063791E+04  0.22601063791E+04  0.50400001928E-02 0.  1.
       -1   -1    0    0    0  501  0.00000000000E+00  0.00000000000E+00 -0.10577003667E+04  0.10577003667E+04  0.50400001928E-02 0. -1.
    10030    2    1    2    0    0  0.00000000000E+00  0.00000000000E+00  0.12024060124E+04  0.33178067458E+04  0.30922582984E+04 0.  0.
        3    1    3    3  502    0  0.11675000500E+04  0.89982368534E+02  0.16844801311E+04  0.20514937279E+04  0.10100000352E+00 0.  1.
       -3    1    3    3    0  502 -0.11675000500E+04 -0.89982368534E+02 -0.48207411867E+03  0.12663130179E+04  0.10100000352E+00 0. -1.
</event>
<event>
 5   0  0.4173905E-07  0.3098077E+04  0.7818609E-02  0.8216266E-01
        1   -1    0    0  501    0  0.00000000000E+00  0.00000000000E+00  0.17930663594E+04  0.17930663594E+04  0.50400001928E-02 0.  1.
       -1   -1    0    0    0  501  0.00000000000E+00  0.00000000000E+00 -0.13382220000E+04  0.13382220000E+04  0.50400001928E-02 0. -1.
    10030    2    1    2    0    0  0.00000000000E+00  0.00000000000E+00  0.45484435940E+03  0.31312883594E+04  0.30980773713E+04 0.  0.
        3    1    3    3  502    0 -0.58876763683E+03 -0.11013556385E+04 -0.69885682335E+03  0.14310948405E+04  0.10100000352E+00 0. -1.
       -3    1    3    3    0  502  0.58876763683E+03  0.11013556385E+04  0.11537011828E+04  0.17001935190E+04  0.10100000352E+00 0.  1.
</event>
<event>
 5   0  0.4134019E-07  0.3044169E+04  0.7818609E-02  0.8231229E-01
        1   -1    0    0  501    0  0.00000000000E+00  0.00000000000E+00  0.88191474190E+03  0.88191474192E+03  0.50400001928E-02 0. -1.
       -1   -1    0    0    0  501  0.00000000000E+00  0.00000000000E+00 -0.26269443673E+04  0.26269443673E+04  0.50400001928E-02 0.  1.
    10030    2    1    2    0    0  0.00000000000E+00  0.00000000000E+00 -0.17450296254E+04  0.35088591092E+04  0.30441688282E+04 0.  0.
        2    1    3    3  502    0 -0.40835930002E+03  0.39091895168E+03  0.75642215667E+03  0.94432485078E+03  0.25500000920E-02 0. -1.
       -2    1    3    3    0  502  0.40835930002E+03 -0.39091895168E+03 -0.25014517820E+04  0.25645342584E+04  0.25500000920E-02 0.  1.
</event>
<event>
 5   0  0.4219337E-07  0.3106926E+04  0.7818609E-02  0.8213840E-01
       -1   -1    0    0    0  501  0.00000000000E+00  0.00000000000E+00  0.13624391251E+04  0.13624391251E+04  0.50400001928E-02 0. -1.
        1   -1    0    0  501    0  0.00000000000E+00  0.00000000000E+00 -0.17712696196E+04  0.17712696196E+04  0.50400001928E-02 0.  1.
    10030    2    1    2    0    0  0.00000000000E+00  0.00000000000E+00 -0.40883049452E+03  0.31337087447E+04  0.31069258317E+04 0.  0.
        4    1    3    3  502    0 -0.11234833051E+04  0.34269779807E+03 -0.12298349597E+04  0.17006328701E+04  0.12699999809E+01 0.  1.
       -4    1    3    3    0  502  0.11234833051E+04 -0.34269779807E+03  0.82100446520E+03  0.14330758746E+04  0.12699999809E+01 0. -1.
</event>
<event>
 5   0  0.4219337E-07  0.3101024E+04  0.7818609E-02  0.8215457E-01
       -1   -1    0    0    0  501  0.00000000000E+00  0.00000000000E+00  0.81717561104E+03  0.81717561105E+03  0.50400001928E-02 0. -1.
        1   -1    0    0  501    0  0.00000000000E+00  0.00000000000E+00 -0.29419464183E+04  0.29419464183E+04  0.50400001928E-02 0.  1.
    10030    2    1    2    0    0  0.00000000000E+00  0.00000000000E+00 -0.21247708072E+04  0.37591220293E+04  0.31010236130E+04 0.  0.
        4    1    3    3  502    0  0.13399029798E+04 -0.49003027954E+03 -0.17983691000E+04  0.22955615224E+04  0.12699999809E+01 0.  1.
       -4    1    3    3    0  502 -0.13399029798E+04  0.49003027954E+03 -0.32640170722E+03  0.14635605070E+04  0.12699999809E+01 0. -1.
</event>
<event>
 5   0  0.1193123E-06  0.3096952E+04  0.7818609E-02  0.8216575E-01
        2   -1    0    0  501    0  0.00000000000E+00  0.00000000000E+00  0.13097687988E+04  0.13097687988E+04  0.25500000920E-02 0. -1.
       -2   -1    0    0    0  501  0.00000000000E+00  0.00000000000E+00 -0.18306877971E+04  0.18306877971E+04  0.25500000920E-02 0.  1.
    10030    2    1    2    0    0  0.00000000000E+00  0.00000000000E+00 -0.52091899830E+03  0.31404565959E+04  0.30969518931E+04 0.  0.
        3    1    3    3  502    0 -0.39902086018E+02 -0.11002291653E+04  0.84372674212E+03  0.13870728958E+04  0.10100000352E+00 0. -1.
       -3    1    3    3    0  502  0.39902086018E+02  0.11002291653E+04 -0.13646457404E+04  0.17533837001E+04  0.10100000352E+00 0.  1.
</event>
<event>
 5   0  0.1237580E-06  0.3110413E+04  0.7818609E-02  0.8212886E-01
        2   -1    0    0  501    0  0.00000000000E+00  0.00000000000E+00  0.69538901713E+03  0.69538901713E+03  0.25500000920E-02 0. -1.
       -2   -1    0    0    0  501  0.00000000000E+00  0.00000000000E+00 -0.34781501883E+04  0.34781501883E+04  0.25500000920E-02 0.  1.
    10030    2    1    2    0    0  0.00000000000E+00  0.00000000000E+00 -0.27827611712E+04  0.41735392054E+04  0.31104131178E+04 0.  0.
        4    1    3    3  502    0  0.13781301539E+04 -0.64048357969E+03 -0.94797058971E+03  0.17911202608E+04  0.12699999809E+01 0.  1.
       -4    1    3    3    0  502 -0.13781301539E+04  0.64048357969E+03 -0.18347905815E+04  0.23824189446E+04  0.12699999809E+01 0. -1.
</event>
<event>
 5   0  0.1237580E-06  0.3089086E+04  0.7818609E-02  0.8218740E-01
       -2   -1    0    0    0  501  0.00000000000E+00  0.00000000000E+00  0.88634329709E+03  0.88634329709E+03  0.25500000920E-02 0.  1.
        2   -1    0    0  501    0  0.00000000000E+00  0.00000000000E+00 -0.26915223570E+04  0.26915223570E+04  0.25500000920E-02 0. -1.
    10030    2    1    2    0    0  0.00000000000E+00  0.00000000000E+00 -0.18051790599E+04  0.35778656541E+04  0.30890858195E+04 0.  0.
        4    1    3    3  502    0 -0.11760270539E+04 -0.53967188659E+03  0.74261500513E+02  0.12960716647E+04  0.12699999809E+01 0.  1.
       -4    1    3    3    0  502  0.11760270539E+04  0.53967188659E+03 -0.18794405604E+04  0.22817939893E+04  0.12699999809E+01 0. -1.
</event>
<event>
 5   0  0.3935852E-07  0.3104288E+04  0.7818609E-02  0.8214562E-01
        1   -1    0    0  501    0  0.00000000000E+00  0.00000000000E+00  0.17941281763E+04  0.17941281763E+04  0.50400001928E-02 0.  1.
       -1   -1    0    0    0  501  0.00000000000E+00  0.00000000000E+00 -0.13427978674E+04  0.13427978674E+04  0.50400001928E-02 0. -1.
    10030    2    1    2    0    0  0.00000000000E+00  0.00000000000E+00  0.45133030893E+03  0.31369260437E+04  0.31042883172E+04 0.  0.
        5    1    3    3  502    0 -0.79315927043E+03  0.13340183317E+04  0.24644495160E+03  0.15714527488E+04  0.46999998093E+01 0.  1.
       -5    1    3    3    0  502  0.79315927043E+03 -0.13340183317E+04  0.20488535733E+03  0.15654732949E+04  0.46999998093E+01 0. -1.
</event>
<event>
 5   0  0.4173905E-07  0.3106026E+04  0.7818609E-02  0.8214086E-01
       -1   -1    0    0    0  501  0.00000000000E+00  0.00000000000E+00  0.14662987315E+04  0.14662987315E+04  0.50400001928E-02 0. -1.
        1   -1    0    0  501    0  0.00000000000E+00  0.00000000000E+00 -0.16448558233E+04  0.16448558233E+04  0.50400001928E-02 0.  1.
    10030    2    1    2    0    0  0.00000000000E+00  0.00000000000E+00 -0.17855709178E+03  0.31111545549E+04  0.31060264051E+04 0.  0.
        3    1    3    3  502    0  0.13783700583E+04  0.59406524747E+03 -0.48872570158E+03  0.15785025681E+04  0.10100000352E+00 0.  1.
       -3    1    3    3    0  502 -0.13783700583E+04 -0.59406524747E+03  0.31016860979E+03  0.15326519868E+04  0.10100000352E+00 0. -1.
</event>
<event>
 5   0  0.1237580E-06  0.3092959E+04  0.7818609E-02  0.8217673E-01
        2   -1    0    0  501    0  0.00000000000E+00  0.00000000000E+00  0.14820898986E+04  0.14820898986E+04  0.25500000920E-02 0.  1.
       -2   -1    0    0    0  501  0.00000000000E+00  0.00000000000E+00 -0.16136668302E+04  0.16136668302E+04  0.25500000920E-02 0. -1.
    10030    2    1    2    0    0  0.00000000000E+00  0.00000000000E+00 -0.13157693153E+03  0.30957567288E+04  0.30929593006E+04 0.  0.
        4    1    3    3  502    0  0.44686149056E+03 -0.12585659992E+04 -0.84618855636E+03  0.15810472011E+04  0.12699999809E+01 0. -1.
       -4    1    3    3    0  502 -0.44686149056E+03  0.12585659992E+04  0.71461162483E+03  0.15147095277E+04  0.12699999809E+01 0.  1.
</event>
<event>
 5   0  0.1200286E-06  0.3098492E+04  0.7818609E-02  0.8216152E-01
       -2   -1    0    0    0  501  0.00000000000E+00  0.00000000000E+00  0.25831888631E+04  0.25831888631E+04  0.25500000920E-02 0.  1.
        2   -1    0    0  501    0  0.00000000000E+00  0.00000000000E+00 -0.92914714986E+03  0.92914714986E+03  0.25500000920E-02 0. -1.
    10030    2    1    2    0    0  0.00000000000E+00  0.00000000000E+00  0.16540417132E+04  0.35123360129E+04  0.30984916135E+04 0.  0.
        5    1    3    3  502    0 -0.83019614205E+02 -0.73128343489E+03 -0.71831838058E+03  0.10284313805E+04  0.46999998093E+01 0. -1.
       -5    1    3    3    0  502  0.83019614205E+02  0.73128343489E+03  0.23723600938E+04  0.24839046324E+04  0.46999998093E+01 0.  1.
</event>
<event>
 5   0  0.3935852E-07  0.3120712E+04  0.7818609E-02  0.8210077E-01
        1   -1    0    0  501    0  0.00000000000E+00  0.00000000000E+00  0.12955647422E+04  0.12955647422E+04  0.50400001928E-02 0. -1.
       -1   -1    0    0    0  501  0.00000000000E+00  0.00000000000E+00 -0.18792655520E+04  0.18792655520E+04  0.50400001928E-02 0.  1.
    10030    2    1    2    0    0  0.00000000000E+00  0.00000000000E+00 -0.58370080979E+03  0.31748302942E+04  0.31207115793E+04 0.  0.
        5    1    3    3  502    0  0.11590705452E+04  0.40017242250E+03  0.68982148129E+03  0.14069322167E+04  0.46999998093E+01 0. -1.
       -5    1    3    3    0  502 -0.11590705452E+04 -0.40017242250E+03 -0.12735222911E+04  0.17678980774E+04  0.46999998093E+01 0.  1.
</event>
<event>
 5   0  0.4173905E-07  0.3109060E+04  0.7818609E-02  0.8213256E-01
        1   -1    0    0  501    0  0.00000000000E+00  0.00000000000E+00  0.20700864570E+04  0.20700864570E+04  0.50400001928E-02 0. -1.
       -1   -1    0    0    0  501  0.00000000000E+00  0.00000000000E+00 -0.11673731295E+04  0.11673731295E+04  0.50400001928E-02 0.  1.
    10030    2    1    2    0    0  0.00000000000E+00  0.00000000000E+00  0.90271332744E+03  0.32374595865E+04  0.31090598616E+04 0.  0.
        3    1    3    3  502    0  0.67002902763E+02  0.49581694284E+03 -0.10812422157E+04  0.11913893440E+04  0.10100000352E+00 0.  1.
       -3    1    3    3    0  502 -0.67002902763E+02 -0.49581694284E+03  0.19839555432E+04  0.20460702425E+04  0.10100000352E+00 0. -1.
</event>
<event>
 5   0  0.1176002E-06  0.3098789E+04  0.7818609E-02  0.8216070E-01
        2   -1    0    0  501    0  0.00000000000E+00  0.00000000000E+00  0.10796776758E+04  0.10796776758E+04  0.25500000920E-02 0.  1.
       -2   -1    0    0    0  501  0.00000000000E+00  0.00000000000E+00 -0.22234632922E+04  0.22234632922E+04  0.25500000920E-02 0. -1.
    10030    2    1    2    0    0  0.00000000000E+00  0.00000000000E+00 -0.11437856164E+04  0.33031409680E+04  0.30987892343E+04 0.  0.
        2    1    3    3  502    0  0.88143568548E+03  0.96016198467E+03 -0.14648625264E+04  0.19607809989E+04  0.25500000920E-02 0. -1.
       -2    1    3    3    0  502 -0.88143568548E+03 -0.96016198467E+03  0.32107691004E+03  0.13423599691E+04  0.25500000920E-02 0.  1.
</event>
<event>
 5   0  0.1200286E-06  0.3107460E+04  0.7818609E-02  0.8213693E-01
        2   -1    0    0  501    0  0.00000000000E+00  0.00000000000E+00  0.25136990395E+04  0.25136990395E+04  0.25500000920E-02 0.  1.
       -2   -1    0    0    0  501  0.00000000000E+00  0.00000000000E+00 -0.96036849695E+03  0.96036849695E+03  0.25500000920E-02 0. -1.
    10030    2    1    2    0    0  0.00000000000E+00  0.00000000000E+00  0.15533305426E+04  0.34740675365E+04  0.31074602932E+04 0.  0.
        5    1    3    3  502    0  0.13113922673E+03  0.28501836762E+03  0.24779089782E+04  0.24976965310E+04  0.46999998093E+01 0.  1.
       -5    1    3    3    0  502 -0.13113922673E+03 -0.28501836762E+03 -0.92457843564E+03  0.97637100547E+03  0.46999998093E+01 0. -1.
</event>
<event>
 5   0  0.1258262E-06  0.3093937E+04  0.7818609E-02  0.8217404E-01
       -2   -1    0    0    0  501  0.00000000000E+00  0.00000000000E+00  0.10896917451E+04  0.10896917451E+04  0.25500000920E-02 0. -1.
        2   -1    0    0  501    0  0.00000000000E+00  0.00000000000E+00 -0.21961369502E+04  0.21961369502E+04  0.25500000920E-02 0.  1.
    10030    2    1    2    0    0  0.00000000000E+00  0.00000000000E+00 -0.11064452051E+04  0.32858286953E+04  0.30939374950E+04 0.  0.
        1    1    3    3  502    0 -0.74522890573E+02 -0.14123335264E+04  0.11244785447E+03  0.14187614919E+04  0.50400001928E-02 0. -1.
       -1    1    3    3    0  502  0.74522890573E+02  0.14123335264E+04 -0.12188930596E+04  0.18670672033E+04  0.50400001928E-02 0.  1.
</event>
<event>
 5   0  0.1237580E-06  0.3100816E+04  0.7818609E-02  0.8215514E-01
        2   -1    0    0  501    0  0.00000000000E+00  0.00000000000E+00  0.29134770915E+04  0.29134770915E+04  0.25500000920E-02 0. -1.
       -2   -1    0    0    0  501  0.00000000000E+00  0.00000000000E+00 -0.82505046111E+03  0.82505046111E+03  0.25500000920E-02 0.  1.
    10030    2    1    2    0    0  0.00000000000E+00  0.00000000000E+00  0.20884266304E+04  0.37385275526E+04  0.31008164201E+04 0.  0.
        4    1    3    3  502    0 -0.12775387502E+04 -0.87166241302E+03  0.91289393255E+03  0.17959057785E+04  0.12699999809E+01 0.  1.
       -4    1    3    3    0  502  0.12775387502E+04  0.87166241302E+03  0.11755326978E+04  0.19426217740E+04  0.12699999809E+01 0. -1.
</event>
<event>
 5   0  0.1200286E-06  0.3112083E+04  0.7818609E-02  0.8212430E-01
       -2   -1    0    0    0  501  0.00000000000E+00  0.00000000000E+00  0.33846540617E+04  0.33846540617E+04  0.25500000920E-02 0. -1.
        2   -1    0    0  501    0  0.00000000000E+00  0.00000000000E+00 -0.71536575673E+03  0.71536575674E+03  0.25500000920E-02 0.  1.
    10030    2    1    2    0    0  0.00000000000E+00  0.00000000000E+00  0.26692883050E+04  0.41000198185E+04  0.31120832985E+04 0.  0.
        5    1    3    3  502    0  0.86538775159E+03  0.23823148972E+03  0.30092043630E+04  0.31402202457E+04  0.46999998093E+01 0. -1.
       -5    1    3    3    0  502 -0.86538775159E+03 -0.23823148972E+03 -0.33991605803E+03  0.95979957272E+03  0.46999998093E+01 0.  1.
</event>
<event>
 5   0  0.1193123E-06  0.3113201E+04  0.7818609E-02  0.8212124E-01
       -2   -1    0    0    0  501  0.00000000000E+00  0.00000000000E+00  0.15563765081E+04  0.15563765081E+04  0.25500000920E-02 0. -1.
        2   -1    0    0  501    0  0.00000000000E+00  0.00000000000E+00 -0.15568241677E+04  0.15568241677E+04  0.25500000920E-02 0.  1.
    10030    2    1    2    0    0  0.00000000000E+00  0.00000000000E+00 -0.44765959843E+00  0.31132006757E+04  0.31132006435E+04 0.  0.
        3    1    3    3  502    0 -0.75552988168E+03 -0.10661352289E+04 -0.84611675320E+03  0.15567219722E+04  0.10100000352E+00 0.  1.
       -3    1    3    3    0  502  0.75552988168E+03  0.10661352289E+04  0.84566909360E+03  0.15564787035E+04  0.10100000352E+00 0. -1.
</event>
<event>
 5   0  0.4219337E-07  0.3060347E+04  0.7818609E-02  0.8226705E-01
       -1   -1    0    0    0  501  0.00000000000E+00  0.00000000000E+00  0.15480332610E+04  0.15480332610E+04  0.50400001928E-02 0.  1.
        1   -1    0    0  501    0  0.00000000000E+00  0.00000000000E+00 -0.15125196328E+04  0.15125196329E+04  0.50400001928E-02 0. -1.
    10030    2    1    2    0    0  0.00000000000E+00  0.00000000000E+00  0.35513628176E+02  0.30605528939E+04  0.30603468428E+04 0.  0.
        4    1    3    3  502    0 -0.42551897695E+03  0.67877153445E+03  0.13215439013E+04  0.15454051545E+04  0.12699999809E+01 0.  1.
       -4    1    3    3    0  502  0.42551897695E+03 -0.67877153445E+03 -0.12860302731E+04  0.15151477393E+04  0.12699999809E+01 0. -1.
</event>
<event>
 5   0  0.1200286E-06  0.3096544E+04  0.7818609E-02  0.8216687E-01
       -2   -1    0    0    0  501  0.00000000000E+00  0.00000000000E+00  0.10329912190E+04  0.10329912190E+04  0.25500000920E-02 0.  1.
        2   -1    0    0  501    0  0.00000000000E+00  0.00000000000E+00 -0.23205877282E+04  0.23205877282E+04  0.25500000920E-02 0. -1.
    10030    2    1    2    0    0  0.00000000000E+00  0.00000000000E+00 -0.12875965092E+04  0.33535789472E+04  0.30965443618E+04 0.  0.
        5    1    3    3  502    0 -0.46096261809E+03  0.53595377339E+03 -0.21355952346E+04  0.22495604189E+04  0.46999998093E+01 0. -1.
       -5    1    3    3    0  502  0.46096261809E+03 -0.53595377339E+03  0.84799872537E+03  0.11040185282E+04  0.46999998093E+01 0.  1.
</event>
<event>
 5   0  0.3935852E-07  0.3089881E+04  0.7818609E-02  0.8218520E-01
        1   -1    0    0  501    0  0.00000000000E+00  0.00000000000E+00  0.18221809636E+04  0.18221809636E+04  0.50400001928E-02 0.  1.
       -1   -1    0    0    0  501  0.00000000000E+00  0.00000000000E+00 -0.13098814936E+04  0.13098814936E+04  0.50400001928E-02 0. -1.
    10030    2    1    2    0    0  0.00000000000E+00  0.00000000000E+00  0.51229947002E+03  0.31320624571E+04  0.30898809829E+04 0.  0.
        5    1    3    3  502    0 -0.50040765996E+03 -0.32196595001E+03 -0.11890589228E+04  0.13296439791E+04  0.46999998093E+01 0. -1.
       -5    1    3    3    0  502  0.50040765996E+03  0.32196595001E+03  0.17013583929E+04  0.18024184781E+04  0.46999998093E+01 0.  1.
</event>
<event>
 5   0  0.3935852E-07  0.3101727E+04  0.7818609E-02  0.8215264E-01
       -1   -1    0    0    0  501  0.00000000000E+00  0.00000000000E+00  0.11422245557E+04  0.11422245558E+04  0.50400001928E-02 0.  1.
        1   -1    0    0  501    0  0.00000000000E+00  0.00000000000E+00 -0.21056962880E+04  0.21056962880E+04  0.50400001928E-02 0. -1.
    10030    2    1    2    0    0  0.00000000000E+00  0.00000000000E+00 -0.96347173222E+03  0.32479208437E+04  0.31017272653E+04 0.  0.
        5    1    3    3  502    0  0.77311219922E+03  0.31514764046E+03 -0.18502931375E+04  0.20299328295E+04  0.46999998093E+01 0. -1.
       -5    1    3    3    0  502 -0.77311219922E+03 -0.31514764046E+03  0.88682140525E+03  0.12179880142E+04  0.46999998093E+01 0.  1.
</event>
<event>
 5   0  0.3935852E-07  0.3090666E+04  0.7818609E-02  0.8218304E-01
       -1   -1    0    0    0  501  0.00000000000E+00  0.00000000000E+00  0.10830804482E+04  0.10830804482E+04  0.50400001928E-02 0.  1.
        1   -1    0    0  501    0  0.00000000000E+00  0.00000000000E+00 -0.22048715979E+04  0.22048715979E+04  0.50400001928E-02 0. -1.
    10030    2    1    2    0    0  0.00000000000E+00  0.00000000000E+00 -0.11217911497E+04  0.32879520461E+04  0.30906655066E+04 0.  0.
        5    1    3    3  502    0  0.10222032885E+03 -0.66649117241E+03 -0.20401100698E+04  0.21486578753E+04  0.46999998093E+01 0. -1.
       -5    1    3    3    0  502 -0.10222032885E+03  0.66649117241E+03  0.91831892006E+03  0.11392941707E+04  0.46999998093E+01 0.  1.
</event>
<event>
 5   0  0.4330395E-07  0.3096046E+04  0.7818609E-02  0.8216824E-01
       -1   -1    0    0    0  501  0.00000000000E+00  0.00000000000E+00  0.18637763286E+04  0.18637763286E+04  0.50400001928E-02 0.  1.
        1   -1    0    0  501    0  0.00000000000E+00  0.00000000000E+00 -0.12857632358E+04  0.12857632358E+04  0.50400001928E-02 0. -1.
    10030    2    1    2    0    0  0.00000000000E+00  0.00000000000E+00  0.57801309273E+03  0.31495395644E+04  0.30960459190E+04 0.  0.
        1    1    3    3  502    0  0.14244114098E+04  0.60547926925E+03  0.31817376010E+03  0.15801226381E+04  0.50400001928E-02 0. -1.
       -1    1    3    3    0  502 -0.14244114098E+04 -0.60547926925E+03  0.25983933263E+03  0.15694169263E+04  0.50400001928E-02 0.  1.
</event>
<event>
 5   0  0.1193123E-06  0.3073779E+04  0.7818609E-02  0.8222971E-01
       -2   -1    0    0    0  501  0.00000000000E+00  0.00000000000E+00  0.98147709314E+03  0.98147709314E+03  0.25500000920E-02 0.  1.
        2   -1    0    0  501    0  0.00000000000E+00  0.00000000000E+00 -0.24066063096E+04  0.24066063096E+04  0.25500000920E-02 0. -1.
    10030    2    1    2    0    0  0.00000000000E+00  0.00000000000E+00 -0.14251292165E+04  0.33880834028E+04  0.30737787592E+04 0.  0.
        3    1    3    3  502    0 -0.93201212522E+02  0.35207690449E+03  0.93322365450E+03  0.10017739327E+04  0.10100000352E+00 0.  1.
       -3    1    3    3    0  502  0.93201212522E+02 -0.35207690449E+03 -0.23583528710E+04  0.23863094701E+04  0.10100000352E+00 0. -1.
</event>
<event>
 5   0  0.4134019E-07  0.3101670E+04  0.7818609E-02  0.8215280E-01
        1   -1    0    0  501    0  0.00000000000E+00  0.00000000000E+00  0.23618300356E+04  0.23618300356E+04  0.50400001928E-02 0.  1.
       -1   -1    0    0    0  501  0.00000000000E+00  0.00000000000E+00 -0.10183157351E+04  0.10183157352E+04  0.50400001928E-02 0. -1.
    10030    2    1    2    0    0  0.00000000000E+00  0.00000000000E+00  0.13435143004E+04  0.33801457707E+04  0.31016696723E+04 0.  0.
        2    1    3    3  502    0  0.74155502842E+03 -0.11500621968E+04 -0.12351674297E+03  0.13739735451E+04  0.25500000920E-02 0. -1.
       -2    1    3    3    0  502 -0.74155502842E+03  0.11500621968E+04  0.14670310434E+04  0.20061722257E+04  0.25500000920E-02 0.  1.
</event>
<event>
 5   0  0.4219337E-07  0.3075686E+04  0.7818609E-02  0.8222442E-01
       -1   -1    0    0    0  501  0.00000000000E+00  0.00000000000E+00  0.16819569837E+04  0.16819569837E+04  0.50400001928E-02 0. -1.
        1   -1    0    0  501    0  0.00000000000E+00  0.00000000000E+00 -0.14060774157E+04  0.14060774157E+04  0.50400001928E-02 0.  1.
    10030    2    1    2    0    0  0.00000000000E+00  0.00000000000E+00  0.27587956794E+03  0.30880343994E+04  0.30756864138E+04 0.  0.
        4    1    3    3  502    0  0.14343990445E+04 -0.17608642388E+03  0.66583871519E+03  0.15911787628E+04  0.12699999809E+01 0. -1.
       -4    1    3    3    0  502 -0.14343990445E+04  0.17608642388E+03 -0.38995914725E+03  0.14968556367E+04  0.12699999809E+01 0.  1.
</event>
<event>
 5   0  0.1176002E-06  0.3098953E+04  0.7818609E-02  0.8216025E-01
        2   -1    0    0  501    0  0.00000000000E+00  0.00000000000E+00  0.16034677338E+04  0.16034677338E+04  0.25500000920E-02 0. -1.
       -2   -1    0    0    0  501  0.00000000000E+00  0.00000000000E+00 -0.14973035550E+04  0.14973035550E+04  0.25500000920E-02 0.  1.
    10030    2    1    2    0    0  0.00000000000E+00  0.00000000000E+00  0.10616417879E+03  0.31007712888E+04  0.30989533318E+04 0.  0.
        2    1    3    3  502    0  0.86595131664E+03  0.43905329757E+03 -0.11552017634E+04  0.15090164330E+04  0.25500000920E-02 0.  1.
       -2    1    3    3    0  502 -0.86595131664E+03 -0.43905329757E+03  0.12613659422E+04  0.15917548558E+04  0.25500000920E-02 0. -1.
</event>
<event>
 5   0  0.1176002E-06  0.3083602E+04  0.7818609E-02  0.8220253E-01
        2   -1    0    0  501    0  0.00000000000E+00  0.00000000000E+00  0.17604138016E+04  0.17604138016E+04  0.25500000920E-02 0.  1.
       -2   -1    0    0    0  501  0.00000000000E+00  0.00000000000E+00 -0.13503360760E+04  0.13503360760E+04  0.25500000920E-02 0. -1.
    10030    2    1    2    0    0  0.00000000000E+00  0.00000000000E+00  0.41007772559E+03  0.31107498776E+04  0.30836019620E+04 0.  0.
        2    1    3    3  502    0 -0.11778069049E+04 -0.10063386215E+03 -0.79352113438E+03  0.14237387647E+04  0.25500000920E-02 0. -1.
       -2    1    3    3    0  502  0.11778069049E+04  0.10063386215E+03  0.12035988600E+04  0.16870111129E+04  0.25500000920E-02 0.  1.
</event>
<event>
 5   0  0.4330395E-07  0.3101420E+04  0.7818609E-02  0.8215348E-01
        1   -1    0    0  501    0  0.00000000000E+00  0.00000000000E+00  0.20605866881E+04  0.20605866881E+04  0.50400001928E-02 0.  1.
       -1   -1    0    0    0  501  0.00000000000E+00  0.00000000000E+00 -0.11669983052E+04  0.11669983052E+04  0.50400001928E-02 0. -1.
    10030    2    1    2    0    0  0.00000000000E+00  0.00000000000E+00  0.89358838296E+03  0.32275849933E+04  0.31014197863E+04 0.  0.
        1    1    3    3  502    0  0.47149942528E+03  0.27499567077E+03  0.19573103377E+04  0.20319936233E+04  0.50400001928E-02 0.  1.
       -1    1    3    3    0  502 -0.47149942528E+03 -0.27499567077E+03 -0.10637219548E+04  0.11955913700E+04  0.50400001928E-02 0. -1.
</event>
<event>
 5   0  0.1200286E-06  0.3085702E+04  0.7818609E-02  0.8219673E-01
       -2   -1    0    0    0  501  0.00000000000E+00  0.00000000000E+00  0.91372475490E+03  0.91372475491E+03  0.25500000920E-02 0. -1.
        2   -1    0    0  501    0  0.00000000000E+00  0.00000000000E+00 -0.26051487601E+04  0.26051487601E+04  0.25500000920E-02 0.  1.
    10030    2    1    2    0    0  0.00000000000E+00  0.00000000000E+00 -0.16914240051E+04  0.35188735150E+04  0.30857018082E+04 0.  0.
        5    1    3    3  502    0 -0.84395438778E+03 -0.12417659495E+04 -0.12507078150E+04  0.19541069087E+04  0.46999998093E+01 0. -1.
       -5    1    3    3    0  502  0.84395438778E+03  0.12417659495E+04 -0.44071619011E+03  0.15647666063E+04  0.46999998093E+01 0.  1.
</event>
<event>
 5   0  0.4173905E-07  0.3084990E+04  0.7818609E-02  0.8219869E-01
       -1   -1    0    0    0  501  0.00000000000E+00  0.00000000000E+00  0.18632849060E+04  0.18632849060E+04  0.50400001928E-02 0.  1.
        1   -1    0    0  501    0  0.00000000000E+00  0.00000000000E+00 -0.12769336472E+04  0.12769336473E+04  0.50400001928E-02 0. -1.
    10030    2    1    2    0    0  0.00000000000E+00  0.00000000000E+00  0.58635125872E+03  0.31402185532E+04  0.30849902372E+04 0.  0.
        3    1    3    3  502    0 -0.11967493261E+04 -0.95878666933E+03  0.46292545570E+03  0.16018054859E+04  0.10100000352E+00 0.  1.
       -3    1    3    3    0  502  0.11967493261E+04  0.95878666933E+03  0.12342580302E+03  0.15384130674E+04  0.10100000352E+00 0. -1.
</event>
<event>
 5   0  0.1237580E-06  0.3106645E+04  0.7818609E-02  0.8213917E-01
        2   -1    0    0  501    0  0.00000000000E+00  0.00000000000E+00  0.18979931265E+04  0.18979931265E+04  0.25500000920E-02 0. -1.
       -2   -1    0    0    0  501  0.00000000000E+00  0.00000000000E+00 -0.12712432082E+04  0.12712432082E+04  0.25500000920E-02 0.  1.
    10030    2    1    2    0    0  0.00000000000E+00  0.00000000000E+00  0.62674991828E+03  0.31692363347E+04  0.31066450530E+04 0.  0.
        4    1    3    3  502    0  0.30682627521E+03 -0.47380864365E+03  0.17896565085E+04  0.18765684174E+04  0.12699999809E+01 0. -1.
       -4    1    3    3    0  502 -0.30682627521E+03  0.47380864365E+03 -0.11629065902E+04  0.12926679173E+04  0.12699999809E+01 0.  1.
</event>
<event>
 5   0  0.4134019E-07  0.3105576E+04  0.7818609E-02  0.8214209E-01
        1   -1    0    0  501    0  0.00000000000E+00  0.00000000000E+00  0.30148800061E+04  0.30148800061E+04  0.50400001928E-02 0.  1.
       -1   -1    0    0    0  501  0.00000000000E+00  0.00000000000E+00 -0.79975013004E+03  0.79975013006E+03  0.50400001928E-02 0. -1.
    10030    2    1    2    0    0  0.00000000000E+00  0.00000000000E+00  0.22151298761E+04  0.38146301362E+04  0.31055760670E+04 0.  0.
        2    1    3    3  502    0  0.31780313904E+03 -0.15930739546E+03 -0.74909254712E+03  0.82916664525E+03  0.25500000920E-02 0. -1.
       -2    1    3    3    0  502 -0.31780313904E+03  0.15930739546E+03  0.29642224232E+04  0.29854634909E+04  0.25500000920E-02 0.  1.
</event>
<event>
 5   0  0.4173905E-07  0.3122459E+04  0.7818609E-02  0.8209601E-01
       -1   -1    0    0    0  501  0.00000000000E+00  0.00000000000E+00  0.17670384297E+04  0.17670384297E+04  0.50400001928E-02 0.  1.
        1   -1    0    0  501    0  0.00000000000E+00  0.00000000000E+00 -0.13793915843E+04  0.13793915843E+04  0.50400001928E-02 0. -1.
    10030    2    1    2    0    0  0.00000000000E+00  0.00000000000E+00  0.38764684544E+03  0.31464300140E+04  0.31224592482E+04 0.  0.
        3    1    3    3  502    0  0.44814805286E+03 -0.14853210259E+04  0.18063365067E+02  0.15515609955E+04  0.10100000352E+00 0. -1.
       -3    1    3    3    0  502 -0.44814805286E+03  0.14853210259E+04  0.36958348037E+03  0.15948690186E+04  0.10100000352E+00 0.  1.
</event>
<event>
 5   0  0.4330395E-07  0.3103216E+04  0.7818609E-02  0.8214856E-01
       -1   -1    0    0    0  501  0.00000000000E+00  0.00000000000E+00  0.14115932413E+04  0.14115932413E+04  0.50400001928E-02 0.  1.
        1   -1    0    0  501    0  0.00000000000E+00  0.00000000000E+00 -0.17055106464E+04  0.17055106465E+04  0.50400001928E-02 0. -1.
    10030    2    1    2    0    0  0.00000000000E+00  0.00000000000E+00 -0.29391740519E+03  0.31171038877E+04  0.31032159457E+04 0.  0.
        1    1    3    3  502    0 -0.10131326125E+04 -0.71187975069E+03  0.79225357998E+03  0.14699919064E+04  0.50400001928E-02 0.  1.
       -1    1    3    3    0  502  0.10131326125E+04  0.71187975069E+03 -0.10861709852E+04  0.16471119813E+04  0.50400001928E-02 0. -1.
</event>
<event>
 5   0  0.4173905E-07  0.3113386E+04  0.7818609E-02  0.8212074E-01
       -1   -1    0    0    0  501  0.00000000000E+00  0.00000000000E+00  0.15174121708E+04  0.15174121708E+04  0.50400001928E-02 0.  1.
        1   -1    0    0  501    0  0.00000000000E+00  0.00000000000E+00 -0.15969906428E+04  0.15969906428E+04  0.50400001928E-02 0. -1.
    10030    2    1    2    0    0  0.00000000000E+00  0.00000000000E+00 -0.79578471994E+02  0.31144028136E+04  0.31133859626E+04 0.  0.
        3    1    3    3  502    0 -0.10288467931E+04  0.43832812838E+03 -0.11230259882E+04  0.15848800119E+04  0.10100000352E+00 0. -1.
       -3    1    3    3    0  502  0.10288467931E+04 -0.43832812838E+03  0.10434475162E+04  0.15295228017E+04  0.10100000352E+00 0.  1.
</event>
<event>
 5   0  0.1237580E-06  0.3097350E+04  0.7818609E-02  0.8216466E-01
        2   -1    0    0  501    0  0.00000000000E+00  0.00000000000E+00  0.16064836891E+04  0.16064836891E+04  0.25500000920E-02 0.  1.
       -2   -1    0    0    0  501  0.00000000000E+00  0.00000000000E+00 -0.14929465353E+04  0.14929465353E+04  0.25500000920E-02 0. -1.
    10030    2    1    2    0    0  0.00000000000E+00  0.00000000000E+00  0.11353715374E+03  0.30994302244E+04  0.30973500013E+04 0.  0.
        4    1    3    3  502    0 -0.25234818117E+03 -0.11254284526E+04 -0.97742630488E+03  0.15118308771E+04  0.12699999809E+01 0.  1.
       -4    1    3    3    0  502  0.25234818117E+03  0.11254284526E+04  0.10909634586E+04  0.15875993473E+04  0.12699999809E+01 0. -1.
</event>
<event>
 5   0  0.1258262E-06  0.3109083E+04  0.7818609E-02  0.8213250E-01
        2   -1    0    0  501    0  0.00000000000E+00  0.00000000000E+00  0.24578013546E+04  0.24578013546E+04  0.25500000920E-02 0.  1.
       -2   -1    0    0    0  501  0.00000000000E+00  0.00000000000E+00 -0.98323620030E+03  0.98323620031E+03  0.25500000920E-02 0. -1.
    10030    2    1    2    0    0  0.00000000000E+00  0.00000000000E+00  0.14745651543E+04  0.34410375549E+04  0.31090829934E+04 0.  0.
        1    1    3    3  502    0 -0.26602830106E+03  0.13518331210E+04 -0.59572415073E+02  0.13790477572E+04  0.50400001928E-02 0. -1.
       -1    1    3    3    0  502  0.26602830106E+03 -0.13518331210E+04  0.15341375693E+04  0.20619897977E+04  0.50400001928E-02 0.  1.
</event>
<event>
 5   0  0.4134019E-07  0.3047805E+04  0.7818609E-02  0.8230210E-01
       -1   -1    0    0    0  501  0.00000000000E+00  0.00000000000E+00  0.26777167180E+04  0.26777167180E+04  0.50400001928E-02 0.  1.
        1   -1    0    0  501    0  0.00000000000E+00  0.00000000000E+00 -0.86726102710E+03  0.86726102711E+03  0.50400001928E-02 0. -1.
    10030    2    1    2    0    0  0.00000000000E+00  0.00000000000E+00  0.18104556909E+04  0.35449777451E+04  0.30478053423E+04 0.  0.
        2    1    3    3  502    0  0.96547242360E+03 -0.11401477309E+04  0.12545634098E+04  0.19508980491E+04  0.25500000920E-02 0. -1.
       -2    1    3    3    0  502 -0.96547242360E+03  0.11401477309E+04  0.55589228108E+03  0.15940796960E+04  0.25500000920E-02 0.  1.
</event>
<event>
 5   0  0.4134019E-07  0.3099833E+04  0.7818609E-02  0.8215784E-01
        1   -1    0    0  501    0  0.00000000000E+00  0.00000000000E+00  0.15917395317E+04  0.15917395317E+04  0.50400001928E-02 0.  1.
       -1   -1    0    0    0  501  0.00000000000E+00  0.00000000000E+00 -0.15091925182E+04  0.15091925182E+04  0.50400001928E-02 0. -1.
    10030    2    1    2    0    0  0.00000000000E+00  0.00000000000E+00  0.82547013539E+02  0.31009320499E+04  0.30998331518E+04 0.  0.
        2    1    3    3  502    0  0.90696911254E+03 -0.46127931765E+03  0.12108200433E+04  0.15815994301E+04  0.25500000920E-02 0.  1.
       -2    1    3    3    0  502 -0.90696911254E+03  0.46127931765E+03 -0.11282730298E+04  0.15193326198E+04  0.25500000920E-02 0. -1.
</event>
<event>
 5   0  0.3902375E-07  0.3115422E+04  0.7818609E-02  0.8211518E-01
       -3   -1    0    0    0  501  0.00000000000E+00  0.00000000000E+00  0.99979758477E+03  0.99979758987E+03  0.10100000352E+00 0.  1.
        3   -1    0    0  501    0  0.00000000000E+00  0.00000000000E+00 -0.24269551295E+04  0.24269551316E+04  0.10100000352E+00 0. -1.
    10030    2    1    2    0    0  0.00000000000E+00  0.00000000000E+00 -0.14271575447E+04  0.34267527215E+04  0.31154222116E+04 0.  0.
        2    1    3    3  502    0  0.98091152633E+03 -0.12018600079E+04 -0.86838805584E+03  0.17778505889E+04  0.25500000920E-02 0. -1.
       -2    1    3    3    0  502 -0.98091152633E+03  0.12018600079E+04 -0.55876948890E+03  0.16489021325E+04  0.25500000920E-02 0.  1.
</event>
<event>
 5   0  0.1237580E-06  0.3110260E+04  0.7818609E-02  0.8212928E-01
       -2   -1    0    0    0  501  0.00000000000E+00  0.00000000000E+00  0.11678408349E+04  0.11678408349E+04  0.25500000920E-02 0.  1.
        2   -1    0    0  501    0  0.00000000000E+00  0.00000000000E+00 -0.20708556551E+04  0.20708556551E+04  0.25500000920E-02 0. -1.
    10030    2    1    2    0    0  0.00000000000E+00  0.00000000000E+00 -0.90301482015E+03  0.32386964900E+04  0.31102603089E+04 0.  0.
        4    1    3    3  502    0 -0.34402333144E+03 -0.89100962621E+03  0.82643610672E+03  0.12630314556E+04  0.12699999809E+01 0. -1.
       -4    1    3    3    0  502  0.34402333144E+03  0.89100962621E+03 -0.17294509269E+04  0.19756650343E+04  0.12699999809E+01 0.  1.
</event>
<event>
 5   0  0.4173905E-07  0.3089014E+04  0.7818609E-02  0.8218759E-01
       -1   -1    0    0    0  501  0.00000000000E+00  0.00000000000E+00  0.14245874185E+04  0.14245874186E+04  0.50400001928E-02 0.  1.
        1   -1    0    0  501    0  0.00000000000E+00  0.00000000000E+00 -0.16745208898E+04  0.16745208898E+04  0.50400001928E-02 0. -1.
    10030    2    1    2    0    0  0.00000000000E+00  0.00000000000E+00 -0.24993347125E+03  0.30991083083E+04  0.30890136884E+04 0.  0.
        3    1    3    3  502    0  0.64238583600E+03  0.35576973927E+02  0.12837500639E+04  0.14359455143E+04  0.10100000352E+00 0.  1.
       -3    1    3    3    0  502 -0.64238583600E+03 -0.35576973927E+02 -0.15336835351E+04  0.16631627940E+04  0.10100000352E+00 0. -1.
</event>
<event>
 5   0  0.1237580E-06  0.3102901E+04  0.7818609E-02  0.8214942E-01
       -2   -1    0    0    0  501  0.00000000000E+00  0.00000000000E+00  0.18458803977E+04  0.18458803977E+04  0.25500000920E-02 0. -1.
        2   -1    0    0  501    0  0.00000000000E+00  0.00000000000E+00 -0.13039837699E+04  0.13039837699E+04  0.25500000920E-02 0.  1.
    10030    2    1    2    0    0  0.00000000000E+00  0.00000000000E+00  0.54189662771E+03  0.31498641676E+04  0.31029006299E+04 0.  0.
        4    1    3    3  502    0  0.25189235833E+02  0.22997868321E+03 -0.12863738176E+04  0.13070133526E+04  0.12699999809E+01 0.  1.
       -4    1    3    3    0  502 -0.25189235833E+02 -0.22997868321E+03  0.18282704453E+04  0.18428508150E+04  0.12699999809E+01 0. -1.
</event>
<event>
 5   0  0.4173905E-07  0.3104319E+04  0.7818609E-02  0.8214554E-01
       -1   -1    0    0    0  501  0.00000000000E+00  0.00000000000E+00  0.13110764574E+04  0.13110764574E+04  0.50400001928E-02 0. -1.
        1   -1    0    0  501    0  0.00000000000E+00  0.00000000000E+00 -0.18375733730E+04  0.18375733730E+04  0.50400001928E-02 0.  1.
    10030    2    1    2    0    0  0.00000000000E+00  0.00000000000E+00 -0.52649691558E+03  0.31486498304E+04  0.31043190481E+04 0.  0.
        3    1    3    3  502    0  0.58486383244E+03 -0.16182912417E+03 -0.17122660061E+04  0.18166202833E+04  0.10100000352E+00 0.  1.
       -3    1    3    3    0  502 -0.58486383244E+03  0.16182912417E+03  0.11857690905E+04  0.13320295470E+04  0.10100000352E+00 0. -1.
</event>
<event>
 5   0  0.4173905E-07  0.3104186E+04  0.7818609E-02  0.8214590E-01
        1   -1    0    0  501    0  0.00000000000E+00  0.00000000000E+00  0.10455665242E+04  0.10455665242E+04  0.50400001928E-02 0.  1.
       -1   -1    0    0    0  501  0.00000000000E+00  0.00000000000E+00 -0.23040067111E+04  0.23040067112E+04  0.50400001928E-02 0. -1.
    10030    2    1    2    0    0  0.00000000000E+00  0.00000000000E+00 -0.12584401870E+04  0.33495732354E+04  0.31041857475E+04 0.  0.
        3    1    3    3  502    0 -0.11127437145E+04  0.93672446901E+03 -0.12136442268E+04  0.18943557281E+04  0.10100000352E+00 0. -1.
       -3    1    3    3    0  502  0.11127437145E+04 -0.93672446901E+03 -0.44795960115E+02  0.14552175072E+04  0.10100000352E+00 0.  1.
</event>
<event>
 5   0  0.1237580E-06  0.3068485E+04  0.7818609E-02  0.8224441E-01
       -2   -1    0    0    0  501  0.00000000000E+00  0.00000000000E+00  0.18260532108E+04  0.18260532108E+04  0.25500000920E-02 0.  1.
        2   -1    0    0  501    0  0.00000000000E+00  0.00000000000E+00 -0.12890641581E+04  0.12890641581E+04  0.25500000920E-02 0. -1.
    10030    2    1    2    0    0  0.00000000000E+00  0.00000000000E+00  0.53698905272E+03  0.31151173689E+04  0.30684848019E+04 0.  0.
        4    1    3    3  502    0 -0.11827428065E+04  0.31968253259E+03  0.12060118363E+04  0.17191694595E+04  0.12699999809E+01 0.  1.
       -4    1    3    3    0  502  0.11827428065E+04 -0.31968253259E+03 -0.66902278362E+03  0.13959479095E+04  0.12699999809E+01 0. -1.
</event>
<event>
 5   0  0.1258262E-06  0.3083567E+04  0.7818609E-02  0.8220262E-01
        2   -1    0    0  501    0  0.00000000000E+00  0.00000000000E+00  0.15222803544E+04  0.15222803544E+04  0.25500000920E-02 0.  1.
       -2   -1    0    0    0  501  0.00000000000E+00  0.00000000000E+00 -0.15615365294E+04  0.15615365294E+04  0.25500000920E-02 0. -1.
    10030    2    1    2    0    0  0.00000000000E+00  0.00000000000E+00 -0.39256174982E+02  0.30838168837E+04  0.30835670132E+04 0.  0.
        1    1    3    3  502    0  0.13111225512E+04  0.11916678701E+03 -0.82209781570E+03  0.15521236697E+04  0.50400001928E-02 0. -1.
       -1    1    3    3    0  502 -0.13111225512E+04 -0.11916678701E+03  0.78284164072E+03  0.15316932140E+04  0.50400001928E-02 0.  1.
</event>
<event>
 5   0  0.1176002E-06  0.3098246E+04  0.7818609E-02  0.8216219E-01
       -2   -1    0    0    0  501  0.00000000000E+00  0.00000000000E+00  0.12286950949E+04  0.12286950949E+04  0.25500000920E-02 0.  1.
        2   -1    0    0  501    0  0.00000000000E+00  0.00000000000E+00 -0.19531146533E+04  0.19531146533E+04  0.25500000920E-02 0. -1.
    10030    2    1    2    0    0  0.00000000000E+00  0.00000000000E+00 -0.72441955841E+03  0.31818097482E+04  0.30982462099E+04 0.  0.
        2    1    3    3  502    0  0.24769327756E+03  0.13681038463E+04  0.33938695222E+03  0.14311686125E+04  0.25500000920E-02 0.  1.
       -2    1    3    3    0  502 -0.24769327756E+03 -0.13681038463E+04 -0.10638065106E+04  0.17506411357E+04  0.25500000920E-02 0. -1.
</event>
<event>
 5   0  0.1237580E-06  0.3099183E+04  0.7818609E-02  0.8215962E-01
       -2   -1    0    0    0  501  0.00000000000E+00  0.00000000000E+00  0.18158956631E+04  0.18158956631E+04  0.25500000920E-02 0.  1.
        2   -1    0    0  501    0  0.00000000000E+00  0.00000000000E+00 -0.13223414991E+04  0.13223414991E+04  0.25500000920E-02 0. -1.
    10030    2    1    2    0    0  0.00000000000E+00  0.00000000000E+00  0.49355416404E+03  0.31382371623E+04  0.30991832430E+04 0.  0.
        4    1    3    3  502    0 -0.15247995299E+04 -0.65131883309E+02 -0.24888618166E+02  0.15263934043E+04  0.12699999809E+01 0. -1.
       -4    1    3    3    0  502  0.15247995299E+04  0.65131883309E+02  0.51844278221E+03  0.16118437579E+04  0.12699999809E+01 0.  1.
</event>
<event>
 5   0  0.4330395E-07  0.3098204E+04  0.7818609E-02  0.8216231E-01
        1   -1    0    0  501    0  0.00000000000E+00  0.00000000000E+00  0.16852852061E+04  0.16852852061E+04  0.50400001928E-02 0.  1.
       -1   -1    0    0    0  501  0.00000000000E+00  0.00000000000E+00 -0.14239231145E+04  0.14239231145E+04  0.50400001928E-02 0. -1.
    10030    2    1    2    0    0  0.00000000000E+00  0.00000000000E+00  0.26136209159E+03  0.31092083207E+04  0.30982037116E+04 0.  0.
        1    1    3    3  502    0  0.31781935552E+03 -0.10844017686E+04  0.11940579614E+04  0.16439923216E+04  0.50400001928E-02 0.  1.
       -1    1    3    3    0  502 -0.31781935552E+03  0.10844017686E+04 -0.93269586977E+03  0.14652159991E+04  0.50400001928E-02 0. -1.
</event>
<event>
 5   0  0.4173905E-07  0.3096408E+04  0.7818609E-02  0.8216724E-01
       -1   -1    0    0    0  501  0.00000000000E+00  0.00000000000E+00  0.10391485016E+04  0.10391485016E+04  0.50400001928E-02 0.  1.
        1   -1    0    0  501    0  0.00000000000E+00  0.00000000000E+00 -0.23066339044E+04  0.23066339044E+04  0.50400001928E-02 0. -1.
    10030    2    1    2    0    0  0.00000000000E+00  0.00000000000E+00 -0.12674854028E+04  0.33457824060E+04  0.30964077028E+04 0.  0.
        3    1    3    3  502    0  0.10458795754E+04 -0.43179372047E+03 -0.17755512137E+04  0.21054434274E+04  0.10100000352E+00 0. -1.
       -3    1    3    3    0  502 -0.10458795754E+04  0.43179372047E+03  0.50806581095E+03  0.12403389786E+04  0.10100000352E+00 0.  1.
</event>
<event>
 5   0  0.1176002E-06  0.3062271E+04  0.7818609E-02  0.8226169E-01
        2   -1    0    0  501    0  0.00000000000E+00  0.00000000000E+00  0.20772114803E+04  0.20772114803E+04  0.25500000920E-02 0.  1.
       -2   -1    0    0    0  501  0.00000000000E+00  0.00000000000E+00 -0.11286168679E+04  0.11286168679E+04  0.25500000920E-02 0. -1.
    10030    2    1    2    0    0  0.00000000000E+00  0.00000000000E+00  0.94859461245E+03  0.32058283482E+04  0.30622709971E+04 0.  0.
        2    1    3    3  502    0 -0.67056686215E+03 -0.71473808205E+03  0.17058232936E+04  0.19673188739E+04  0.25500000920E-02 0.  1.
       -2    1    3    3    0  502  0.67056686215E+03  0.71473808205E+03 -0.75722868113E+03  0.12385094744E+04  0.25500000920E-02 0. -1.
</event>
<event>
 5   0  0.4134019E-07  0.3142454E+04  0.7818609E-02  0.8204183E-01
        1   -1    0    0  501    0  0.00000000000E+00  0.00000000000E+00  0.11265248785E+04  0.11265248785E+04  0.50400001928E-02 0.  1.
       -1   -1    0    0    0  501  0.00000000000E+00  0.00000000000E+00 -0.21914774411E+04  0.21914774411E+04  0.50400001928E-02 0. -1.
    10030    2    1    2    0    0  0.00000000000E+00  0.00000000000E+00 -0.10649525626E+04  0.33180023196E+04  0.31424537280E+04 0.  0.
        2    1    3    3  502    0  0.36338923115E+03  0.12383657551E+04 -0.14787281921E+04  0.19627120377E+04  0.25500000920E-02 0. -1.
       -2    1    3    3    0  502 -0.36338923115E+03 -0.12383657551E+04  0.41377562952E+03  0.13552902819E+04  0.25500000920E-02 0.  1.
</event>
<event>
 5   0  0.4219337E-07  0.3104012E+04  0.7818609E-02  0.8214638E-01
        1   -1    0    0  501    0  0.00000000000E+00  0.00000000000E+00  0.12472778001E+04  0.12472778001E+04  0.50400001928E-02 0. -1.
       -1   -1    0    0    0  501  0.00000000000E+00  0.00000000000E+00 -0.19311843034E+04  0.19311843034E+04  0.50400001928E-02 0.  1.
    10030    2    1    2    0    0  0.00000000000E+00  0.00000000000E+00 -0.68390650333E+03  0.31784621035E+04  0.31040124417E+04 0.  0.
        4    1    3    3  502    0 -0.95152989975E+03  0.16694655438E+03 -0.15857647470E+04  0.18568607239E+04  0.12699999809E+01 0.  1.
       -4    1    3    3    0  502  0.95152989975E+03 -0.16694655438E+03  0.90185824367E+03  0.13216013797E+04  0.12699999809E+01 0. -1.
</event>
<event>
 5   0  0.4219337E-07  0.3095864E+04  0.7818609E-02  0.8216874E-01
        1   -1    0    0  501    0  0.00000000000E+00  0.00000000000E+00  0.25291507087E+04  0.25291507088E+04  0.50400001928E-02 0.  1.
       -1   -1    0    0    0  501  0.00000000000E+00  0.00000000000E+00 -0.94739060160E+03  0.94739060161E+03  0.50400001928E-02 0. -1.
    10030    2    1    2    0    0  0.00000000000E+00  0.00000000000E+00  0.15817601072E+04  0.34765413104E+04  0.30958640871E+04 0.  0.
        4    1    3    3  502    0  0.52180184474E+03  0.11008063790E+04 -0.28155866867E+03  0.12503314545E+04  0.12699999809E+01 0. -1.
       -4    1    3    3    0  502 -0.52180184474E+03 -0.11008063790E+04  0.18633187758E+04  0.22262098559E+04  0.12699999809E+01 0.  1.
</event>
<event>
 5   0  0.1176002E-06  0.3087403E+04  0.7818609E-02  0.8219204E-01
        2   -1    0    0  501    0  0.00000000000E+00  0.00000000000E+00  0.10129776990E+04  0.10129776990E+04  0.25500000920E-02 0. -1.
       -2   -1    0    0    0  501  0.00000000000E+00  0.00000000000E+00 -0.23524840734E+04  0.23524840734E+04  0.25500000920E-02 0.  1.
    10030    2    1    2    0    0  0.00000000000E+00  0.00000000000E+00 -0.13395063744E+04  0.33654617723E+04  0.30874027295E+04 0.  0.
        2    1    3    3  502    0 -0.11539054095E+04 -0.33549958028E+03  0.38651464666E+03  0.12623197830E+04  0.25500000920E-02 0. -1.
       -2    1    3    3    0  502  0.11539054095E+04  0.33549958028E+03 -0.17260210210E+04  0.21031419894E+04  0.25500000920E-02 0.  1.
</event>
<event>
 5   0  0.4330395E-07  0.3119541E+04  0.7818609E-02  0.8210395E-01
        1   -1    0    0  501    0  0.00000000000E+00  0.00000000000E+00  0.15781988897E+04  0.15781988897E+04  0.50400001928E-02 0.  1.
       -1   -1    0    0    0  501  0.00000000000E+00  0.00000000000E+00 -0.15415576570E+04  0.15415576570E+04  0.50400001928E-02 0. -1.
    10030    2    1    2    0    0  0.00000000000E+00  0.00000000000E+00  0.36641232755E+02  0.31197565467E+04  0.31195413655E+04 0.  0.
        1    1    3    3  502    0  0.10672018819E+04  0.23726671098E+03 -0.10942619580E+04  0.15468111008E+04  0.50400001928E-02 0. -1.
       -1    1    3    3    0  502 -0.10672018819E+04 -0.23726671098E+03  0.11309031908E+04  0.15729454459E+04  0.50400001928E-02 0.  1.
</event>
<event>
 5   0  0.1176002E-06  0.3116384E+04  0.7818609E-02  0.8211256E-01
        2   -1    0    0  501    0  0.00000000000E+00  0.00000000000E+00  0.14553067873E+04  0.14553067873E+04  0.25500000920E-02 0.  1.
       -2   -1    0    0    0  501  0.00000000000E+00  0.00000000000E+00 -0.16683512970E+04  0.16683512970E+04  0.25500000920E-02 0. -1.
    10030    2    1    2    0    0  0.00000000000E+00  0.00000000000E+00 -0.21304450975E+03  0.31236580843E+04  0.31163844218E+04 0.  0.
        2    1    3    3  502    0  0.71554212326E+03  0.10830681141E+04  0.75742099072E+03  0.15029050626E+04  0.25500000920E-02 0.  1.
       -2    1    3    3    0  502 -0.71554212326E+03 -0.10830681141E+04 -0.97046550047E+03  0.16207530218E+04  0.25500000920E-02 0. -1.
</event>
<event>
 5   0  0.1176002E-06  0.3123047E+04  0.7818609E-02  0.8209441E-01
        2   -1    0    0  501    0  0.00000000000E+00  0.00000000000E+00  0.13127567579E+04  0.13127567579E+04  0.25500000920E-02 0.  1.
       -2   -1    0    0    0  501  0.00000000000E+00  0.00000000000E+00 -0.18574315945E+04  0.18574315945E+04  0.25500000920E-02 0. -1.
    10030    2    1    2    0    0  0.00000000000E+00  0.00000000000E+00 -0.54467483661E+03  0.31701883523E+04  0.31230471517E+04 0.  0.
        2    1    3    3  502    0 -0.12849255128E+03  0.13522659927E+04  0.50949780475E+03  0.14507658887E+04  0.25500000920E-02 0.  1.
       -2    1    3    3    0  502  0.12849255128E+03 -0.13522659927E+04 -0.10541726414E+04  0.17194224636E+04  0.25500000920E-02 0. -1.
</event>
<event>
 5   0  0.1176002E-06  0.3116062E+04  0.7818609E-02  0.8211344E-01
       -2   -1    0    0    0  501  0.00000000000E+00  0.00000000000E+00  0.14196485045E+04  0.14196485045E+04  0.25500000920E-02 0. -1.
        2   -1    0    0  501    0  0.00000000000E+00  0.00000000000E+00 -0.17099030134E+04  0.17099030134E+04  0.25500000920E-02 0.  1.
    10030    2    1    2    0    0  0.00000000000E+00  0.00000000000E+00 -0.29025450892E+03  0.31295515180E+04  0.31160624229E+04 0.  0.
        2    1    3    3  502    0 -0.32090924199E+03  0.45668606997E+03  0.13157886027E+04  0.14292811323E+04  0.25500000920E-02 0. -1.
       -2    1    3    3    0  502  0.32090924199E+03 -0.45668606997E+03 -0.16060431116E+04  0.17002703857E+04  0.25500000920E-02 0.  1.
</event>
<event>
 5   0  0.1258262E-06  0.3095205E+04  0.7818609E-02  0.8217055E-01
        2   -1    0    0  501    0  0.00000000000E+00  0.00000000000E+00  0.14974392413E+04  0.14974392413E+04  0.25500000920E-02 0. -1.
       -2   -1    0    0    0  501  0.00000000000E+00  0.00000000000E+00 -0.15994458653E+04  0.15994458653E+04  0.25500000920E-02 0.  1.
    10030    2    1    2    0    0  0.00000000000E+00  0.00000000000E+00 -0.10200662404E+03  0.30968851066E+04  0.30952046802E+04 0.  0.
        1    1    3    3  502    0 -0.92906338810E+03 -0.67399063573E+03 -0.10896665421E+04  0.15826545198E+04  0.50400001928E-02 0.  1.
       -1    1    3    3    0  502  0.92906338810E+03  0.67399063573E+03  0.98765991807E+03  0.15142305868E+04  0.50400001928E-02 0. -1.
</event>
<event>
 5   0  0.4134019E-07  0.3089755E+04  0.7818609E-02  0.8218555E-01
        1   -1    0    0  501    0  0.00000000000E+00  0.00000000000E+00  0.23019907557E+04  0.23019907558E+04  0.50400001928E-02 0. -1.
       -1   -1    0    0    0  501  0.00000000000E+00  0.00000000000E+00 -0.10367749983E+04  0.10367749983E+04  0.50400001928E-02 0.  1.
    10030    2    1    2    0    0  0.00000000000E+00  0.00000000000E+00  0.12652157574E+04  0.33387657541E+04  0.30897549818E+04 0.  0.
        2    1    3    3  502    0  0.14309363979E+04 -0.48256778675E+03  0.98474808723E+03  0.18028254044E+04  0.25500000920E-02 0. -1.
       -2    1    3    3    0  502 -0.14309363979E+04  0.48256778675E+03  0.28046767020E+03  0.15359403496E+04  0.25500000920E-02 0.  1.
</event>
<event>
 5   0  0.1237580E-06  0.3102513E+04  0.7818609E-02  0.8215049E-01
        2   -1    0    0  501    0  0.00000000000E+00  0.00000000000E+00  0.21489377150E+04  0.21489377150E+04  0.25500000920E-02 0.  1.
       -2   -1    0    0    0  501  0.00000000000E+00  0.00000000000E+00 -0.11198075426E+04  0.11198075426E+04  0.25500000920E-02 0. -1.
    10030    2    1    2    0    0  0.00000000000E+00  0.00000000000E+00  0.10291301724E+04  0.32687452576E+04  0.31025129568E+04 0.  0.
        4    1    3    3  502    0 -0.72116792908E+03 -0.10275650076E+04 -0.44553586753E+03  0.13320949099E+04  0.12699999809E+01 0. -1.
       -4    1    3    3    0  502  0.72116792908E+03  0.10275650076E+04  0.14746660400E+04  0.19366503477E+04  0.12699999809E+01 0.  1.
</event>
<event>
 5   0  0.1200286E-06  0.3104695E+04  0.7818609E-02  0.8214451E-01
       -2   -1    0    0    0  501  0.00000000000E+00  0.00000000000E+00  0.18774936897E+04  0.18774936897E+04  0.25500000920E-02 0. -1.
        2   -1    0    0  501    0  0.00000000000E+00  0.00000000000E+00 -0.12835101465E+04  0.12835101465E+04  0.25500000920E-02 0.  1.
    10030    2    1    2    0    0  0.00000000000E+00  0.00000000000E+00  0.59398354319E+03  0.31610038362E+04  0.31046946393E+04 0.  0.
        5    1    3    3  502    0 -0.81377754138E+02  0.14858695227E+04 -0.15298499160E+03  0.14959468824E+04  0.46999998093E+01 0.  1.
       -5    1    3    3    0  502  0.81377754138E+02 -0.14858695227E+04  0.74696853479E+03  0.16650569538E+04  0.46999998093E+01 0. -1.
</event>
<event>
 5   0  0.3935852E-07  0.3088057E+04  0.7818609E-02  0.8219023E-01
        1   -1    0    0  501    0  0.00000000000E+00  0.00000000000E+00  0.20385028417E+04  0.20385028417E+04  0.50400001928E-02 0. -1.
       -1   -1    0    0    0  501  0.00000000000E+00  0.00000000000E+00 -0.11694976491E+04  0.11694976491E+04  0.50400001928E-02 0.  1.
    10030    2    1    2    0    0  0.00000000000E+00  0.00000000000E+00  0.86900519261E+03  0.32080004908E+04  0.30880571764E+04 0.  0.
        5    1    3    3  502    0 -0.10568261116E+04 -0.26502933750E+03  0.15710156715E+04  0.19118667082E+04  0.46999998093E+01 0. -1.
       -5    1    3    3    0  502  0.10568261116E+04  0.26502933750E+03 -0.70201047893E+03  0.12961337826E+04  0.46999998093E+01 0.  1.
</event>
<event>
 5   0  0.1200286E-06  0.3098391E+04  0.7818609E-02  0.8216180E-01
       -2   -1    0    0    0  501  0.00000000000E+00  0.00000000000E+00  0.11500073439E+04  0.11500073439E+04  0.25500000920E-02 0. -1.
        2   -1    0    0  501    0  0.00000000000E+00  0.00000000000E+00 -0.20869491098E+04  0.20869491098E+04  0.25500000920E-02 0.  1.
    10030    2    1    2    0    0  0.00000000000E+00  0.00000000000E+00 -0.93694176584E+03  0.32369564537E+04  0.30983910681E+04 0.  0.
        5    1    3    3  502    0 -0.31456408264E+02  0.15865347566E+03  0.11411548590E+04  0.11525697086E+04  0.46999998093E+01 0. -1.
       -5    1    3    3    0  502  0.31456408264E+02 -0.15865347566E+03 -0.20780966249E+04  0.20843867451E+04  0.46999998093E+01 0.  1.
</event>
<event>
 5   0  0.3935852E-07  0.3082225E+04  0.7818609E-02  0.8220633E-01
        1   -1    0    0  501    0  0.00000000000E+00  0.00000000000E+00  0.20332713347E+04  0.20332713347E+04  0.50400001928E-02 0.  1.
       -1   -1    0    0    0  501  0.00000000000E+00  0.00000000000E+00 -0.11680821067E+04  0.11680821067E+04  0.50400001928E-02 0. -1.
    10030    2    1    2    0    0  0.00000000000E+00  0.00000000000E+00  0.86518922807E+03  0.32013534414E+04  0.30822250821E+04 0.  0.
        5    1    3    3  502    0 -0.57301018070E+03 -0.13932687002E+04  0.76990403294E+03  0.16918370631E+04  0.46999998093E+01 0.  1.
       -5    1    3    3    0  502  0.57301018070E+03  0.13932687002E+04  0.95285195130E+02  0.15095163783E+04  0.46999998093E+01 0. -1.
</event>
<event>
 5   0  0.1200286E-06  0.3098479E+04  0.7818609E-02  0.8216155E-01
       -2   -1    0    0    0  501  0.00000000000E+00  0.00000000000E+00  0.13424236166E+04  0.13424236166E+04  0.25500000920E-02 0. -1.
        2   -1    0    0  501    0  0.00000000000E+00  0.00000000000E+00 -0.17879176235E+04  0.17879176235E+04  0.25500000920E-02 0.  1.
    10030    2    1    2    0    0  0.00000000000E+00  0.00000000000E+00 -0.44549400689E+03  0.31303412400E+04  0.30984788798E+04 0.  0.
        5    1    3    3  502    0 -0.96038626594E+03 -0.62156668768E+03  0.83271316209E+03  0.14149629774E+04  0.46999998093E+01 0. -1.
       -5    1    3    3    0  502  0.96038626594E+03  0.62156668768E+03 -0.12782071690E+04  0.17153782626E+04  0.46999998093E+01 0.  1.
</event>
<event>
 5   0  0.1176002E-06  0.3096112E+04  0.7818609E-02  0.8216806E-01
       -2   -1    0    0    0  501  0.00000000000E+00  0.00000000000E+00  0.10586325130E+04  0.10586325130E+04  0.25500000920E-02 0. -1.
        2   -1    0    0  501    0  0.00000000000E+00  0.00000000000E+00 -0.22637476810E+04  0.22637476810E+04  0.25500000920E-02 0.  1.
    10030    2    1    2    0    0  0.00000000000E+00  0.00000000000E+00 -0.12051151680E+04  0.33223801939E+04  0.30961116881E+04 0.  0.
        2    1    3    3  502    0 -0.12894752647E+04 -0.41662704086E+03 -0.14056874755E+04  0.19525065501E+04  0.25500000920E-02 0.  1.
       -2    1    3    3    0  502  0.12894752647E+04  0.41662704086E+03  0.20057230752E+03  0.13698736438E+04  0.25500000920E-02 0. -1.
</event>
<event>
 5   0  0.4330395E-07  0.3087902E+04  0.7818609E-02  0.8219066E-01
       -1   -1    0    0    0  501  0.00000000000E+00  0.00000000000E+00  0.12959268580E+04  0.12959268580E+04  0.50400001928E-02 0. -1.
        1   -1    0    0  501    0  0.00000000000E+00  0.00000000000E+00 -0.18394439048E+04  0.18394439048E+04  0.50400001928E-02 0.  1.
    10030    2    1    2    0    0  0.00000000000E+00  0.00000000000E+00 -0.54351704683E+03  0.31353707627E+04  0.30879020450E+04 0.  0.
        1    1    3    3  502    0 -0.11293621327E+03  0.85180608147E+03  0.10307140930E+04  0.13419015352E+04  0.50400001928E-02 0. -1.
       -1    1    3    3    0  502  0.11293621327E+03 -0.85180608147E+03 -0.15742311398E+04  0.17934692276E+04  0.50400001928E-02 0.  1.
</event>
<event>
 5   0  0.4173905E-07  0.3097614E+04  0.7818609E-02  0.8216393E-01
        1   -1    0    0  501    0  0.00000000000E+00  0.00000000000E+00  0.20464798519E+04  0.20464798519E+04  0.50400001928E-02 0. -1.
       -1   -1    0    0    0  501  0.00000000000E+00  0.00000000000E+00 -0.11721607226E+04  0.11721607226E+04  0.50400001928E-02 0.  1.
    10030    2    1    2    0    0  0.00000000000E+00  0.00000000000E+00  0.87431912935E+03  0.32186405745E+04  0.30976141154E+04 0.  0.
        3    1    3    3  502    0  0.12655054161E+04  0.64088174376E+03 -0.20888012241E+03  0.14338285405E+04  0.10100000352E+00 0. -1.
       -3    1    3    3    0  502 -0.12655054161E+04 -0.64088174376E+03  0.10831992518E+04  0.17848120341E+04  0.10100000352E+00 0.  1.
</event>
<event>
 5   0  0.1237580E-06  0.3096145E+04  0.7818609E-02  0.8216797E-01
        2   -1    0    0  501    0  0.00000000000E+00  0.00000000000E+00  0.15814753789E+04  0.15814753789E+04  0.25500000920E-02 0. -1.
       -2   -1    0    0    0  501  0.00000000000E+00  0.00000000000E+00 -0.15153746680E+04  0.15153746680E+04  0.25500000920E-02 0.  1.
    10030    2    1    2    0    0  0.00000000000E+00  0.00000000000E+00  0.66100710848E+02  0.30968500469E+04  0.30961445233E+04 0.  0.
        4    1    3    3  502    0  0.49083823736E+03  0.25174835023E+03  0.14798331084E+04  0.15793058756E+04  0.12699999809E+01 0. -1.
       -4    1    3    3    0  502 -0.49083823736E+03 -0.25174835023E+03 -0.14137323975E+04  0.15175441713E+04  0.12699999809E+01 0.  1.
</event>
<event>
 5   0  0.1237580E-06  0.3098911E+04  0.7818609E-02  0.8216037E-01
       -2   -1    0    0    0  501  0.00000000000E+00  0.00000000000E+00  0.85712847413E+03  0.85712847414E+03  0.25500000920E-02 0. -1.
        2   -1    0    0  501    0  0.00000000000E+00  0.00000000000E+00 -0.28009949697E+04  0.28009949697E+04  0.25500000920E-02 0.  1.
    10030    2    1    2    0    0  0.00000000000E+00  0.00000000000E+00 -0.19438664956E+04  0.36581234438E+04  0.30989111278E+04 0.  0.
        4    1    3    3  502    0 -0.34440615494E+01  0.38027547433E+03 -0.27450487832E+04  0.27712660884E+04  0.12699999809E+01 0.  1.
       -4    1    3    3    0  502  0.34440615494E+01 -0.38027547433E+03  0.80118228762E+03  0.88685735540E+03  0.12699999809E+01 0. -1.
</event>
<event>
 5   0  0.1258262E-06  0.3078868E+04  0.7818609E-02  0.8221561E-01
       -2   -1    0    0    0  501  0.00000000000E+00  0.00000000000E+00  0.11509970356E+04  0.11509970356E+04  0.25500000920E-02 0. -1.
        2   -1    0    0  501    0  0.00000000000E+00  0.00000000000E+00 -0.20589598319E+04  0.20589598319E+04  0.25500000920E-02 0.  1.
    10030    2    1    2    0    0  0.00000000000E+00  0.00000000000E+00 -0.90796279629E+03  0.32099568675E+04  0.30788677548E+04 0.  0.
        1    1    3    3  502    0 -0.13055011102E+04 -0.32503673920E+03 -0.12340872876E+04  0.18256378239E+04  0.50400001928E-02 0. -1.
       -1    1    3    3    0  502  0.13055011102E+04  0.32503673920E+03  0.32612449134E+03  0.13843190436E+04  0.50400001928E-02 0.  1.
</event>
<event>
 5   0  0.3902375E-07  0.3058154E+04  0.7818609E-02  0.8227317E-01
       -4   -1    0    0    0  501  0.00000000000E+00  0.00000000000E+00  0.10019116673E+04  0.10019124723E+04  0.12699999809E+01 0.  1.
        4   -1    0    0  501    0  0.00000000000E+00  0.00000000000E+00 -0.23336132252E+04  0.23336135708E+04  0.12699999809E+01 0. -1.
    10030    2    1    2    0    0  0.00000000000E+00  0.00000000000E+00 -0.13317015578E+04  0.33355260430E+04  0.30581538458E+04 0.  0.
        3    1    3    3  502    0 -0.86548847932E+03 -0.98091062675E+03 -0.15293789676E+04  0.20125247830E+04  0.10100000352E+00 0. -1.
       -3    1    3    3    0  502  0.86548847932E+03  0.98091062675E+03  0.19767740974E+03  0.13230012600E+04  0.10100000352E+00 0.  1.
</event>
<event>
 5   0  0.4173905E-07  0.3068690E+04  0.7818609E-02  0.8224384E-01
       -1   -1    0    0    0  501  0.00000000000E+00  0.00000000000E+00  0.14071496522E+04  0.14071496522E+04  0.50400001928E-02 0.  1.
        1   -1    0    0  501    0  0.00000000000E+00  0.00000000000E+00 -0.16730378272E+04  0.16730378272E+04  0.50400001928E-02 0. -1.
    10030    2    1    2    0    0  0.00000000000E+00  0.00000000000E+00 -0.26588817494E+03  0.30801874794E+04  0.30686900115E+04 0.  0.
        3    1    3    3  502    0 -0.27940030752E+03 -0.14710574716E+04 -0.46907182227E+03  0.15691089833E+04  0.10100000352E+00 0.  1.
       -3    1    3    3    0  502  0.27940030752E+03  0.14710574716E+04  0.20318364733E+03  0.15110784961E+04  0.10100000352E+00 0. -1.
</event>
<event>
 5   0  0.4330395E-07  0.3100425E+04  0.7818609E-02  0.8215621E-01
        1   -1    0    0  501    0  0.00000000000E+00  0.00000000000E+00  0.11023773597E+04  0.11023773597E+04  0.50400001928E-02 0. -1.
       -1   -1    0    0    0  501  0.00000000000E+00  0.00000000000E+00 -0.21799778433E+04  0.21799778433E+04  0.50400001928E-02 0.  1.
    10030    2    1    2    0    0  0.00000000000E+00  0.00000000000E+00 -0.10776004836E+04  0.32823552030E+04  0.31004246285E+04 0.  0.
        1    1    3    3  502    0  0.80013325562E+03 -0.12212246141E+04 -0.10904883820E+04  0.18222973676E+04  0.50400001928E-02 0.  1.
       -1    1    3    3    0  502 -0.80013325562E+03  0.12212246141E+04  0.12887898383E+02  0.14600578354E+04  0.50400001928E-02 0. -1.
</event>
<event>
 5   0  0.1176002E-06  0.3099818E+04  0.7818609E-02  0.8215788E-01
       -2   -1    0    0    0  501  0.00000000000E+00  0.00000000000E+00  0.17048845643E+04  0.17048845643E+04  0.25500000920E-02 0. -1.
        2   -1    0    0  501    0  0.00000000000E+00  0.00000000000E+00 -0.14090206234E+04  0.14090206234E+04  0.25500000920E-02 0.  1.
    10030    2    1    2    0    0  0.00000000000E+00  0.00000000000E+00  0.29586394083E+03  0.31139051877E+04  0.30998177441E+04 0.  0.
        2    1    3    3  502    0 -0.65518672967E+03  0.13916019917E+04  0.33956516546E+03  0.15751603904E+04  0.25500000920E-02 0. -1.
       -2    1    3    3    0  502  0.65518672967E+03 -0.13916019917E+04 -0.43701224637E+02  0.15387447972E+04  0.25500000920E-02 0.  1.
</event>
<event>
 5   0  0.3935852E-07  0.3098254E+04  0.7818609E-02  0.8216217E-01
        1   -1    0    0  501    0  0.00000000000E+00  0.00000000000E+00  0.16236190335E+04  0.16236190335E+04  0.50400001928E-02 0.  1.
       -1   -1    0    0    0  501  0.00000000000E+00  0.00000000000E+00 -0.14780528864E+04  0.14780528864E+04  0.50400001928E-02 0. -1.
    10030    2    1    2    0    0  0.00000000000E+00  0.00000000000E+00  0.14556614706E+03  0.31016719199E+04  0.30982542174E+04 0.  0.
        5    1    3    3  502    0 -0.94488396778E+03 -0.10314318868E+04  0.73918640822E+03  0.15821112748E+04  0.46999998093E+01 0.  1.
       -5    1    3    3    0  502  0.94488396778E+03  0.10314318868E+04 -0.59362026115E+03  0.15195606451E+04  0.46999998093E+01 0. -1.
</event>
<event>
 5   0  0.4173905E-07  0.3095773E+04  0.7818609E-02  0.8216899E-01
       -1   -1    0    0    0  501  0.00000000000E+00  0.00000000000E+00  0.25200481073E+04  0.25200481073E+04  0.50400001928E-02 0. -1.
        1   -1    0    0  501    0  0.00000000000E+00  0.00000000000E+00 -0.95075676395E+03  0.95075676397E+03  0.50400001928E-02 0.  1.
    10030    2    1    2    0    0  0.00000000000E+00  0.00000000000E+00  0.15692913434E+04  0.34708048713E+04  0.30957731077E+04 0.  0.
        3    1    3    3  502    0 -0.14322803325E+03  0.14377200725E+04  0.16203307139E+03  0.14538940824E+04  0.10100000352E+00 0.  1.
       -3    1    3    3    0  502  0.14322803325E+03 -0.14377200725E+04  0.14072582720E+04  0.20169107889E+04  0.10100000352E+00 0. -1.
</event>
<event>
 5   0  0.4134019E-07  0.3095217E+04  0.7818609E-02  0.8217052E-01
       -1   -1    0    0    0  501  0.00000000000E+00  0.00000000000E+00  0.14030039998E+04  0.14030039998E+04  0.50400001928E-02 0.  1.
        1   -1    0    0  501    0  0.00000000000E+00  0.00000000000E+00 -0.17071169888E+04  0.17071169888E+04  0.50400001928E-02 0. -1.
    10030    2    1    2    0    0  0.00000000000E+00  0.00000000000E+00 -0.30411298893E+03  0.31101209886E+04  0.30952169316E+04 0.  0.
        2    1    3    3  502    0  0.89070181470E+03  0.56237683182E+03  0.98719060456E+03  0.14436629501E+04  0.25500000920E-02 0.  1.
       -2    1    3    3    0  502 -0.89070181470E+03 -0.56237683182E+03 -0.12913035935E+04  0.16664580385E+04  0.25500000920E-02 0. -1.
</event>
<event>
 5   0  0.1176002E-06  0.3097272E+04  0.7818609E-02  0.8216487E-01
       -2   -1    0    0    0  501  0.00000000000E+00  0.00000000000E+00  0.17020341599E+04  0.17020341599E+04  0.25500000920E-02 0.  1.
        2   -1    0    0  501    0  0.00000000000E+00  0.00000000000E+00 -0.14090627479E+04  0.14090627479E+04  0.25500000920E-02 0. -1.
    10030    2    1    2    0    0  0.00000000000E+00  0.00000000000E+00  0.29297141194E+03  0.31110969078E+04  0.30972716577E+04 0.  0.
        2    1    3    3  502    0  0.10964033222E+04  0.10713894173E+04  0.36723337466E+03  0.15763362204E+04  0.25500000920E-02 0.  1.
       -2    1    3    3    0  502 -0.10964033222E+04 -0.10713894173E+04 -0.74261962714E+02  0.15347606874E+04  0.25500000920E-02 0. -1.
</event>
<event>
 5   0  0.1193123E-06  0.3104448E+04  0.7818609E-02  0.8214518E-01
       -2   -1    0    0    0  501  0.00000000000E+00  0.00000000000E+00  0.13532976291E+04  0.13532976291E+04  0.25500000920E-02 0.  1.
        2   -1    0    0  501    0  0.00000000000E+00  0.00000000000E+00 -0.17803918576E+04  0.17803918576E+04  0.25500000920E-02 0. -1.
    10030    2    1    2    0    0  0.00000000000E+00  0.00000000000E+00 -0.42709422851E+03  0.31336894868E+04  0.31044484727E+04 0.  0.
        3    1    3    3  502    0 -0.33080462319E+03 -0.10131275299E+04 -0.13526893822E+04  0.17220997839E+04  0.10100000352E+00 0. -1.
       -3    1    3    3    0  502  0.33080462319E+03  0.10131275299E+04  0.92559515372E+03  0.14115897029E+04  0.10100000352E+00 0.  1.
</event>
<event>
 5   0  0.3935852E-07  0.3061858E+04  0.7818609E-02  0.8226284E-01
        1   -1    0    0  501    0  0.00000000000E+00  0.00000000000E+00  0.14162024403E+04  0.14162024403E+04  0.50400001928E-02 0.  1.
       -1   -1    0    0    0  501  0.00000000000E+00  0.00000000000E+00 -0.16549496983E+04  0.16549496983E+04  0.50400001928E-02 0. -1.
    10030    2    1    2    0    0  0.00000000000E+00  0.00000000000E+00 -0.23874725797E+03  0.30711521386E+04  0.30618581295E+04 0.  0.
        5    1    3    3  502    0  0.86831439187E+03 -0.10484598522E+04 -0.82184493004E+03  0.15901852483E+04  0.46999998093E+01 0. -1.
       -5    1    3    3    0  502 -0.86831439187E+03  0.10484598522E+04  0.58309767208E+03  0.14809668903E+04  0.46999998093E+01 0.  1.
</event>
<event>
 5   0  0.4330395E-07  0.3078316E+04  0.7818609E-02  0.8221714E-01
       -1   -1    0    0    0  501  0.00000000000E+00  0.00000000000E+00  0.11539544137E+04  0.11539544137E+04  0.50400001928E-02 0.  1.
        1   -1    0    0  501    0  0.00000000000E+00  0.00000000000E+00 -0.20529470660E+04  0.20529470660E+04  0.50400001928E-02 0. -1.
    10030    2    1    2    0    0  0.00000000000E+00  0.00000000000E+00 -0.89899265228E+03  0.32069014796E+04  0.30783159863E+04 0.  0.
        1    1    3    3  502    0 -0.32161563061E+03 -0.51723316999E+03 -0.19220616538E+04  0.20162558784E+04  0.50400001928E-02 0. -1.
       -1    1    3    3    0  502  0.32161563061E+03  0.51723316999E+03  0.10230690015E+04  0.11906456013E+04  0.50400001928E-02 0.  1.
</event>
<event>
 5   0  0.3935852E-07  0.3117452E+04  0.7818609E-02  0.8210965E-01
       -1   -1    0    0    0  501  0.00000000000E+00  0.00000000000E+00  0.12018829831E+04  0.12018829831E+04  0.50400001928E-02 0.  1.
        1   -1    0    0  501    0  0.00000000000E+00  0.00000000000E+00 -0.20215166222E+04  0.20215166222E+04  0.50400001928E-02 0. -1.
    10030    2    1    2    0    0  0.00000000000E+00  0.00000000000E+00 -0.81963363908E+03  0.32233996053E+04  0.31174517980E+04 0.  0.
        5    1    3    3  502    0 -0.14119363166E+03 -0.66664724407E+03  0.10397002038E+04  0.12431221957E+04  0.46999998093E+01 0.  1.
       -5    1    3    3    0  502  0.14119363166E+03  0.66664724407E+03 -0.18593338429E+04  0.19802774096E+04  0.46999998093E+01 0. -1.
</event>
<event>
 5   0  0.1200286E-06  0.3098635E+04  0.7818609E-02  0.8216113E-01
       -2   -1    0    0    0  501  0.00000000000E+00  0.00000000000E+00  0.12809201513E+04  0.12809201513E+04  0.25500000920E-02 0.  1.
        2   -1    0    0  501    0  0.00000000000E+00  0.00000000000E+00 -0.18739538059E+04  0.18739538059E+04  0.25500000920E-02 0. -1.
    10030    2    1    2    0    0  0.00000000000E+00  0.00000000000E+00 -0.59303365460E+03  0.31548739571E+04  0.30986353077E+04 0.  0.
        5    1    3    3  502    0  0.14053721466E+04  0.37688699764E+03  0.24535341060E+03  0.14755795694E+04  0.46999998093E+01 0.  1.
       -5    1    3    3    0  502 -0.14053721466E+04 -0.37688699764E+03 -0.83838706520E+03  0.16792943877E+04  0.46999998093E+01 0. -1.
</event>
<event>
 5   0  0.3902375E-07  0.3089075E+04  0.7818609E-02  0.8218743E-01
        3   -1    0    0  501    0  0.00000000000E+00  0.00000000000E+00  0.20530055798E+04  0.20530055823E+04  0.10100000352E+00 0.  1.
       -3   -1    0    0    0  501  0.00000000000E+00  0.00000000000E+00 -0.11620014810E+04  0.11620014854E+04  0.10100000352E+00 0. -1.
    10030    2    1    2    0    0  0.00000000000E+00  0.00000000000E+00  0.89100409882E+03  0.32150070677E+04  0.30890746416E+04 0.  0.
        5    1    3    3  502    0 -0.14974002938E+03 -0.10349168334E+03 -0.11507919641E+04  0.11651080806E+04  0.46999998093E+01 0. -1.
       -5    1    3    3    0  502  0.14974002938E+03  0.10349168334E+03  0.20417960629E+04  0.20498989871E+04  0.46999998093E+01 0.  1.
</event>
<event>
 5   0  0.1176002E-06  0.3105455E+04  0.7818609E-02  0.8214242E-01
       -2   -1    0    0    0  501  0.00000000000E+00  0.00000000000E+00  0.17098798471E+04  0.17098798471E+04  0.25500000920E-02 0.  1.
        2   -1    0    0  501    0  0.00000000000E+00  0.00000000000E+00 -0.14100188592E+04  0.14100188592E+04  0.25500000920E-02 0. -1.
    10030    2    1    2    0    0  0.00000000000E+00  0.00000000000E+00  0.29986098788E+03  0.31198987063E+04  0.31054550915E+04 0.  0.
        2    1    3    3  502    0 -0.45607257033E+03  0.12949938136E+04 -0.57866781311E+03  0.14899220129E+04  0.25500000920E-02 0. -1.
       -2    1    3    3    0  502  0.45607257033E+03 -0.12949938136E+04  0.87852880098E+03  0.16299766933E+04  0.25500000920E-02 0.  1.
</event>
<event>
 5   0  0.1176002E-06  0.3090811E+04  0.7818609E-02  0.8218264E-01
        2   -1    0    0  501    0  0.00000000000E+00  0.00000000000E+00  0.14938380786E+04  0.14938380786E+04  0.25500000920E-02 0. -1.
       -2   -1    0    0    0  501  0.00000000000E+00  0.00000000000E+00 -0.15987531620E+04  0.15987531620E+04  0.25500000920E-02 0.  1.
    10030    2    1    2    0    0  0.00000000000E+00  0.00000000000E+00 -0.10491508345E+03  0.30925912406E+04  0.30908111244E+04 0.  0.
        2    1    3    3  502    0 -0.69551880840E+03 -0.26844749716E+03  0.13020088714E+04  0.15003458178E+04  0.25500000920E-02 0. -1.
       -2    1    3    3    0  502  0.69551880840E+03  0.26844749716E+03 -0.14069239549E+04  0.15922454228E+04  0.25500000920E-02 0.  1.
</event>
<event>
 5   0  0.1200286E-06  0.3095942E+04  0.7818609E-02  0.8216852E-01
        2   -1    0    0  501    0  0.00000000000E+00  0.00000000000E+00  0.17164553114E+04  0.17164553114E+04  0.25500000920E-02 0.  1.
       -2   -1    0    0    0  501  0.00000000000E+00  0.00000000000E+00 -0.13960250442E+04  0.13960250442E+04  0.25500000920E-02 0. -1.
    10030    2    1    2    0    0  0.00000000000E+00  0.00000000000E+00  0.32043026722E+03  0.31124803555E+04  0.30959422487E+04 0.  0.
        5    1    3    3  502    0 -0.14338982281E+04  0.42826976376E+03 -0.23776997728E+03  0.15152675576E+04  0.46999998093E+01 0. -1.
       -5    1    3    3    0  502  0.14338982281E+04 -0.42826976376E+03  0.55820024451E+03  0.15972127980E+04  0.46999998093E+01 0.  1.
</event>
<event>
 5   0  0.1258262E-06  0.3112963E+04  0.7818609E-02  0.8212189E-01
        2   -1    0    0  501    0  0.00000000000E+00  0.00000000000E+00  0.22536538920E+04  0.22536538920E+04  0.25500000920E-02 0. -1.
       -2   -1    0    0    0  501  0.00000000000E+00  0.00000000000E+00 -0.10749807822E+04  0.10749807822E+04  0.25500000920E-02 0.  1.
    10030    2    1    2    0    0  0.00000000000E+00  0.00000000000E+00  0.11786731098E+04  0.33286346743E+04  0.31129629768E+04 0.  0.
        1    1    3    3  502    0  0.57116015444E+03  0.12356888675E+04 -0.21758782228E+03  0.13785845493E+04  0.50400001928E-02 0.  1.
       -1    1    3    3    0  502 -0.57116015444E+03 -0.12356888675E+04  0.13962609321E+04  0.19500501249E+04  0.50400001928E-02 0. -1.
</event>
<event>
 5   0  0.1176002E-06  0.3105133E+04  0.7818609E-02  0.8214330E-01
        2   -1    0    0  501    0  0.00000000000E+00  0.00000000000E+00  0.21282967224E+04  0.21282967224E+04  0.25500000920E-02 0. -1.
       -2   -1    0    0    0  501  0.00000000000E+00  0.00000000000E+00 -0.11325786857E+04  0.11325786857E+04  0.25500000920E-02 0.  1.
    10030    2    1    2    0    0  0.00000000000E+00  0.00000000000E+00  0.99571803670E+03  0.32608754082E+04  0.31051334945E+04 0.  0.
        2    1    3    3  502    0  0.70336090421E+03  0.69734990234E+03  0.17534217689E+04  0.20138275367E+04  0.25500000920E-02 0. -1.
       -2    1    3    3    0  502 -0.70336090421E+03 -0.69734990234E+03 -0.75770373222E+03  0.12470478715E+04  0.25500000920E-02 0.  1.
</event>
<event>
 5   0  0.1258262E-06  0.3088629E+04  0.7818609E-02  0.8218865E-01
        2   -1    0    0  501    0  0.00000000000E+00  0.00000000000E+00  0.18857656345E+04  0.18857656345E+04  0.25500000920E-02 0.  1.
       -2   -1    0    0    0  501  0.00000000000E+00  0.00000000000E+00 -0.12646892224E+04  0.12646892224E+04  0.25500000920E-02 0. -1.
    10030    2    1    2    0    0  0.00000000000E+00  0.00000000000E+00  0.62107641212E+03  0.31504548569E+04  0.30886291289E+04 0.  0.
        1    1    3    3  502    0  0.19804099459E+03 -0.15263571997E+04  0.43924213695E+03  0.16005999474E+04  0.50400001928E-02 0. -1.
       -1    1    3    3    0  502 -0.19804099459E+03  0.15263571997E+04  0.18183427517E+03  0.15498549095E+04  0.50400001928E-02 0.  1.
</event>
<event>
 5   0  0.4219337E-07  0.3099123E+04  0.7818609E-02  0.8215979E-01
       -1   -1    0    0    0  501  0.00000000000E+00  0.00000000000E+00  0.15233404614E+04  0.15233404614E+04  0.50400001928E-02 0. -1.
        1   -1    0    0  501    0  0.00000000000E+00  0.00000000000E+00 -0.15762340758E+04  0.15762340758E+04  0.50400001928E-02 0.  1.
    10030    2    1    2    0    0  0.00000000000E+00  0.00000000000E+00 -0.52893614435E+02  0.30995745372E+04  0.30991231949E+04 0.  0.
        4    1    3    3  502    0  0.11436242364E+04  0.83220090763E+03  0.60665785144E+03  0.15389834653E+04  0.12699999809E+01 0.  1.
       -4    1    3    3    0  502 -0.11436242364E+04 -0.83220090763E+03 -0.65955146588E+03  0.15605910719E+04  0.12699999809E+01 0. -1.
</event>
<event>
 5   0  0.4330395E-07  0.3047824E+04  0.7818609E-02  0.8230205E-01
        1   -1    0    0  501    0  0.00000000000E+00  0.00000000000E+00  0.18527224915E+04  0.18527224915E+04  0.50400001928E-02 0. -1.
       -1   -1    0    0    0  501  0.00000000000E+00  0.00000000000E+00 -0.12534570084E+04  0.12534570084E+04  0.50400001928E-02 0.  1.
    10030    2    1    2    0    0  0.00000000000E+00  0.00000000000E+00  0.59926548311E+03  0.31061795000E+04  0.30478241365E+04 0.  0.
        1    1    3    3  502    0 -0.57487285015E+03 -0.57880154054E+03 -0.10121866423E+04  0.13000045446E+04  0.50400001928E-02 0.  1.
       -1    1    3    3    0  502  0.57487285015E+03  0.57880154054E+03  0.16114521254E+04  0.18061749554E+04  0.50400001928E-02 0. -1.
</event>
<event>
 5   0  0.4219337E-07  0.3073168E+04  0.7818609E-02  0.8223141E-01
        1   -1    0    0  501    0  0.00000000000E+00  0.00000000000E+00  0.15837281809E+04  0.15837281809E+04  0.50400001928E-02 0.  1.
       -1   -1    0    0    0  501  0.00000000000E+00  0.00000000000E+00 -0.14908431521E+04  0.14908431521E+04  0.50400001928E-02 0. -1.
    10030    2    1    2    0    0  0.00000000000E+00  0.00000000000E+00  0.92885028731E+02  0.30745713330E+04  0.30731679507E+04 0.  0.
        4    1    3    3  502    0  0.11124212372E+04 -0.66629511188E+03 -0.77834800336E+03  0.15123681471E+04  0.12699999809E+01 0. -1.
       -4    1    3    3    0  502 -0.11124212372E+04  0.66629511188E+03  0.87123303209E+03  0.15622031859E+04  0.12699999809E+01 0.  1.
</event>
<event>
 5   0  0.1237580E-06  0.3100048E+04  0.7818609E-02  0.8215725E-01
        2   -1    0    0  501    0  0.00000000000E+00  0.00000000000E+00  0.99476324466E+03  0.99476324466E+03  0.25500000920E-02 0. -1.
       -2   -1    0    0    0  501  0.00000000000E+00  0.00000000000E+00 -0.24152222478E+04  0.24152222478E+04  0.25500000920E-02 0.  1.
    10030    2    1    2    0    0  0.00000000000E+00  0.00000000000E+00 -0.14204590032E+04  0.34099854925E+04  0.31000479479E+04 0.  0.
        4    1    3    3  502    0  0.98488759769E+03 -0.36524289639E+03 -0.19639957355E+04  0.22272599344E+04  0.12699999809E+01 0.  1.
       -4    1    3    3    0  502 -0.98488759769E+03  0.36524289639E+03  0.54353673234E+03  0.11827255581E+04  0.12699999809E+01 0. -1.
</event>
<event>
 5   0  0.3935852E-07  0.3096638E+04  0.7818609E-02  0.8216661E-01
        1   -1    0    0  501    0  0.00000000000E+00  0.00000000000E+00  0.22351207662E+04  0.22351207662E+04  0.50400001928E-02 0.  1.
       -1   -1    0    0    0  501  0.00000000000E+00  0.00000000000E+00 -0.10725557937E+04  0.10725557937E+04  0.50400001928E-02 0. -1.
    10030    2    1    2    0    0  0.00000000000E+00  0.00000000000E+00  0.11625649724E+04  0.33076765599E+04  0.30966380011E+04 0.  0.
        5    1    3    3  502    0  0.10868138655E+04 -0.40100321295E+03  0.16785711989E+04  0.20395076158E+04  0.46999998093E+01 0.  1.
       -5    1    3    3    0  502 -0.10868138655E+04  0.40100321295E+03 -0.51600622649E+03  0.12681689441E+04  0.46999998093E+01 0. -1.
</event>
<event>
 5   0  0.4134019E-07  0.3112192E+04  0.7818609E-02  0.8212400E-01
       -1   -1    0    0    0  501  0.00000000000E+00  0.00000000000E+00  0.16153597074E+04  0.16153597074E+04  0.50400001928E-02 0.  1.
        1   -1    0    0  501    0  0.00000000000E+00  0.00000000000E+00 -0.14990066115E+04  0.14990066115E+04  0.50400001928E-02 0. -1.
    10030    2    1    2    0    0  0.00000000000E+00  0.00000000000E+00  0.11635309589E+03  0.31143663188E+04  0.31121920771E+04 0.  0.
        2    1    3    3  502    0 -0.10813953113E+04 -0.65581021810E+03 -0.84906149044E+03  0.15232886385E+04  0.25500000920E-02 0. -1.
       -2    1    3    3    0  502  0.10813953113E+04  0.65581021810E+03  0.96541458633E+03  0.15910776804E+04  0.25500000920E-02 0.  1.
</event>
<event>
 5   0  0.4219337E-07  0.3104084E+04  0.7818609E-02  0.8214618E-01
        1   -1    0    0  501    0  0.00000000000E+00  0.00000000000E+00  0.27296096058E+04  0.27296096058E+04  0.50400001928E-02 0. -1.
       -1   -1    0    0    0  501  0.00000000000E+00  0.00000000000E+00 -0.88248337517E+03  0.88248337519E+03  0.50400001928E-02 0.  1.
    10030    2    1    2    0    0  0.00000000000E+00  0.00000000000E+00  0.18471262307E+04  0.36120929810E+04  0.31040844691E+04 0.  0.
        4    1    3    3  502    0  0.26680467256E+03 -0.83616179399E+03 -0.56595659674E+03  0.10443465715E+04  0.12699999809E+01 0.  1.
       -4    1    3    3    0  502 -0.26680467256E+03  0.83616179399E+03  0.24130828274E+04  0.25677464096E+04  0.12699999809E+01 0. -1.
</event>
<event>
 5   0  0.4219337E-07  0.3101677E+04  0.7818609E-02  0.8215278E-01
       -1   -1    0    0    0  501  0.00000000000E+00  0.00000000000E+00  0.16462524609E+04  0.16462524609E+04  0.50400001928E-02 0. -1.
        1   -1    0    0  501    0  0.00000000000E+00  0.00000000000E+00 -0.14609545574E+04  0.14609545574E+04  0.50400001928E-02 0.  1.
    10030    2    1    2    0    0  0.00000000000E+00  0.00000000000E+00  0.18529790350E+03  0.31072070184E+04  0.31016769886E+04 0.  0.
        4    1    3    3  502    0  0.22463282954E+03 -0.10190556230E+04  0.12419363639E+04  0.16221411208E+04  0.12699999809E+01 0. -1.
       -4    1    3    3    0  502 -0.22463282954E+03  0.10190556230E+04 -0.10566384604E+04  0.14850658975E+04  0.12699999809E+01 0.  1.
</event>
<event>
 5   0  0.1193123E-06  0.3094064E+04  0.7818609E-02  0.8217369E-01
        2   -1    0    0  501    0  0.00000000000E+00  0.00000000000E+00  0.28935954814E+04  0.28935954814E+04  0.25500000920E-02 0. -1.
       -2   -1    0    0    0  501  0.00000000000E+00  0.00000000000E+00 -0.82710517208E+03  0.82710517208E+03  0.25500000920E-02 0.  1.
    10030    2    1    2    0    0  0.00000000000E+00  0.00000000000E+00  0.20664903093E+04  0.37207006535E+04  0.30940638575E+04 0.  0.
        3    1    3    3  502    0 -0.10849601598E+04 -0.37266541635E+03 -0.21489028600E+03  0.11671314862E+04  0.10100000352E+00 0.  1.
       -3    1    3    3    0  502  0.10849601598E+04  0.37266541635E+03  0.22813805953E+04  0.25535691672E+04  0.10100000352E+00 0. -1.
</event>
<event>
 5   0  0.4134019E-07  0.3098474E+04  0.7818609E-02  0.8216157E-01
        1   -1    0    0  501    0  0.00000000000E+00  0.00000000000E+00  0.16969008473E+04  0.16969008473E+04  0.50400001928E-02 0. -1.
       -1   -1    0    0    0  501  0.00000000000E+00  0.00000000000E+00 -0.14144230702E+04  0.14144230702E+04  0.50400001928E-02 0.  1.
    10030    2    1    2    0    0  0.00000000000E+00  0.00000000000E+00  0.28247777712E+03  0.31113239176E+04  0.30984742738E+04 0.  0.
        2    1    3    3  502    0 -0.13593062059E+04  0.62561466821E+03  0.54418677715E+03  0.15922456855E+04  0.25500000920E-02 0. -1.
       -2    1    3    3    0  502  0.13593062059E+04 -0.62561466821E+03 -0.26170900003E+03  0.15190782321E+04  0.25500000920E-02 0.  1.
</event>
<event>
 5   0  0.1193123E-06  0.3085795E+04  0.7818609E-02  0.8219647E-01
       -2   -1    0    0    0  501  0.00000000000E+00  0.00000000000E+00  0.19084411864E+04  0.19084411864E+04  0.25500000920E-02 0. -1.
        2   -1    0    0  501    0  0.00000000000E+00  0.00000000000E+00 -0.12473703664E+04  0.12473703664E+04  0.25500000920E-02 0.  1.
    10030    2    1    2    0    0  0.00000000000E+00  0.00000000000E+00  0.66107082002E+03  0.31558115529E+04  0.30857951857E+04 0.  0.
        3    1    3    3  502    0  0.29421462052E+03  0.14345941819E+04 -0.16619114850E+03  0.14738528481E+04  0.10100000352E+00 0. -1.
       -3    1    3    3    0  502 -0.29421462052E+03 -0.14345941819E+04  0.82726196852E+03  0.16819587048E+04  0.10100000352E+00 0.  1.
</event>
<event>
 5   0  0.3935852E-07  0.3065183E+04  0.7818609E-02  0.8225359E-01
        1   -1    0    0  501    0  0.00000000000E+00  0.00000000000E+00  0.19259097575E+04  0.19259097575E+04  0.50400001928E-02 0. -1.
       -1   -1    0    0    0  501  0.00000000000E+00  0.00000000000E+00 -0.12195987692E+04  0.12195987692E+04  0.50400001928E-02 0.  1.
    10030    2    1    2    0    0  0.00000000000E+00  0.00000000000E+00  0.70631098836E+03  0.31455085267E+04  0.30651833027E+04 0.  0.
        5    1    3    3  502    0  0.51596027830E+03 -0.56409975212E+03  0.17162686180E+04  0.18788357028E+04  0.46999998093E+01 0. -1.
       -5    1    3    3    0  502 -0.51596027830E+03  0.56409975212E+03 -0.10099576296E+04  0.12666728239E+04  0.46999998093E+01 0.  1.
</event>
<event>
 5   0  0.1193123E-06  0.3103910E+04  0.7818609E-02  0.8214666E-01
       -2   -1    0    0    0  501  0.00000000000E+00  0.00000000000E+00  0.19602471484E+04  0.19602471484E+04  0.25500000920E-02 0.  1.
        2   -1    0    0  501    0  0.00000000000E+00  0.00000000000E+00 -0.12287042360E+04  0.12287042360E+04  0.25500000920E-02 0. -1.
    10030    2    1    2    0    0  0.00000000000E+00  0.00000000000E+00  0.73154291239E+03  0.31889513844E+04  0.31039097763E+04 0.  0.
        3    1    3    3  502    0 -0.57355010958E+03  0.58968746936E+03 -0.98629121016E+03  0.12843135914E+04  0.10100000352E+00 0. -1.
       -3    1    3    3    0  502  0.57355010958E+03 -0.58968746936E+03  0.17178341226E+04  0.19046377930E+04  0.10100000352E+00 0.  1.
</event>
<event>
 5   0  0.4173905E-07  0.3126468E+04  0.7818609E-02  0.8208511E-01
        1   -1    0    0  501    0  0.00000000000E+00  0.00000000000E+00  0.23449930617E+04  0.23449930617E+04  0.50400001928E-02 0.  1.
       -1   -1    0    0    0  501  0.00000000000E+00  0.00000000000E+00 -0.10420926162E+04  0.10420926162E+04  0.50400001928E-02 0. -1.
    10030    2    1    2    0    0  0.00000000000E+00  0.00000000000E+00  0.13029004455E+04  0.33870856779E+04  0.31264676263E+04 0.  0.
        3    1    3    3  502    0  0.10421201581E+04  0.32062020963E+03  0.18650479780E+04  0.21603739753E+04  0.10100000352E+00 0.  1.
       -3    1    3    3    0  502 -0.10421201581E+04 -0.32062020963E+03 -0.56214753254E+03  0.12267117026E+04  0.10100000352E+00 0. -1.
</event>
<event>
 5   0  0.3935852E-07  0.3091782E+04  0.7818609E-02  0.8217997E-01
       -1   -1    0    0    0  501  0.00000000000E+00  0.00000000000E+00  0.10426987921E+04  0.10426987921E+04  0.50400001928E-02 0. -1.
        1   -1    0    0  501    0  0.00000000000E+00  0.00000000000E+00 -0.22919162156E+04  0.22919162156E+04  0.50400001928E-02 0.  1.
    10030    2    1    2    0    0  0.00000000000E+00  0.00000000000E+00 -0.12492174235E+04  0.33346150077E+04  0.30917815379E+04 0.  0.
        5    1    3    3  502    0 -0.13797157408E+04  0.62137838662E+03 -0.28349351411E+03  0.15395185245E+04  0.46999998093E+01 0.  1.
       -5    1    3    3    0  502  0.13797157408E+04 -0.62137838662E+03 -0.96572390935E+03  0.17950964832E+04  0.46999998093E+01 0. -1.
</event>
<event>
 5   0  0.1200286E-06  0.3095856E+04  0.7818609E-02  0.8216876E-01
       -2   -1    0    0    0  501  0.00000000000E+00  0.00000000000E+00  0.23499689433E+04  0.23499689433E+04  0.25500000920E-02 0.  1.
        2   -1    0    0  501    0  0.00000000000E+00  0.00000000000E+00 -0.10196226466E+04  0.10196226466E+04  0.25500000920E-02 0. -1.
    10030    2    1    2    0    0  0.00000000000E+00  0.00000000000E+00  0.13303462967E+04  0.33695915899E+04  0.30958562973E+04 0.  0.
        5    1    3    3  502    0 -0.58101404160E+03  0.10395435201E+02 -0.89638666686E+03  0.10682773648E+04  0.46999998093E+01 0. -1.
       -5    1    3    3    0  502  0.58101404160E+03 -0.10395435201E+02  0.22267329636E+04  0.23013142251E+04  0.46999998093E+01 0.  1.
</event>
<event>
 5   0  0.4173905E-07  0.3007136E+04  0.7818609E-02  0.8241696E-01
       -1   -1    0    0    0  501  0.00000000000E+00  0.00000000000E+00  0.10984658176E+04  0.10984658176E+04  0.50400001928E-02 0. -1.
        1   -1    0    0  501    0  0.00000000000E+00  0.00000000000E+00 -0.20580677128E+04  0.20580677128E+04  0.50400001928E-02 0.  1.
    10030    2    1    2    0    0  0.00000000000E+00  0.00000000000E+00 -0.95960189515E+03  0.31565335304E+04  0.30071362010E+04 0.  0.
        3    1    3    3  502    0 -0.38154092309E+03  0.52345762229E+03  0.94449488475E+03  0.11452737471E+04  0.10100000352E+00 0. -1.
       -3    1    3    3    0  502  0.38154092309E+03 -0.52345762229E+03 -0.19040967799E+04  0.20112597833E+04  0.10100000352E+00 0.  1.
</event>
<event>
 5   0  0.4134019E-07  0.3109593E+04  0.7818609E-02  0.8213110E-01
       -1   -1    0    0    0  501  0.00000000000E+00  0.00000000000E+00  0.12737863387E+04  0.12737863387E+04  0.50400001928E-02 0. -1.
        1   -1    0    0  501    0  0.00000000000E+00  0.00000000000E+00 -0.18977998951E+04  0.18977998951E+04  0.50400001928E-02 0.  1.
    10030    2    1    2    0    0  0.00000000000E+00  0.00000000000E+00 -0.62401355639E+03  0.31715862338E+04  0.31095926292E+04 0.  0.
        2    1    3    3  502    0  0.59670802854E+03 -0.26498018821E+03  0.11271939610E+04  0.13026285722E+04  0.25500000920E-02 0. -1.
       -2    1    3    3    0  502 -0.59670802854E+03  0.26498018821E+03 -0.17512075174E+04  0.18689576615E+04  0.25500000920E-02 0.  1.
</event>
<event>
 5   0  0.1176002E-06  0.3096747E+04  0.7818609E-02  0.8216631E-01
       -2   -1    0    0    0  501  0.00000000000E+00  0.00000000000E+00  0.11155152109E+04  0.11155152109E+04  0.25500000920E-02 0.  1.
        2   -1    0    0  501    0  0.00000000000E+00  0.00000000000E+00 -0.21491958751E+04  0.21491958751E+04  0.25500000920E-02 0. -1.
    10030    2    1    2    0    0  0.00000000000E+00  0.00000000000E+00 -0.10336806642E+04  0.32647110860E+04  0.30967471255E+04 0.  0.
        2    1    3    3  502    0  0.47910025398E+03 -0.12998897254E+03  0.10293462196E+04  0.11427982438E+04  0.25500000920E-02 0.  1.
       -2    1    3    3    0  502 -0.47910025398E+03  0.12998897254E+03 -0.20630268838E+04  0.21219128421E+04  0.25500000920E-02 0. -1.
</event>
<event>
 5   0  0.1176002E-06  0.3067462E+04  0.7818609E-02  0.8224725E-01
        2   -1    0    0  501    0  0.00000000000E+00  0.00000000000E+00  0.13988775054E+04  0.13988775054E+04  0.25500000920E-02 0.  1.
       -2   -1    0    0    0  501  0.00000000000E+00  0.00000000000E+00 -0.16815849460E+04  0.16815849460E+04  0.25500000920E-02 0. -1.
    10030    2    1    2    0    0  0.00000000000E+00  0.00000000000E+00 -0.28270744068E+03  0.30804624514E+04  0.30674623742E+04 0.  0.
        2    1    3    3  502    0 -0.89307249623E+02 -0.57300730339E+03 -0.15672367469E+04  0.16710907143E+04  0.25500000920E-02 0. -1.
       -2    1    3    3    0  502  0.89307249623E+02  0.57300730339E+03  0.12845293063E+04  0.14093717371E+04  0.25500000920E-02 0.  1.
</event>
<event>
 5   0  0.1237580E-06  0.3094251E+04  0.7818609E-02  0.8217317E-01
       -2   -1    0    0    0  501  0.00000000000E+00  0.00000000000E+00  0.14160522744E+04  0.14160522744E+04  0.25500000920E-02 0. -1.
        2   -1    0    0  501    0  0.00000000000E+00  0.00000000000E+00 -0.16903315280E+04  0.16903315280E+04  0.25500000920E-02 0.  1.
    10030    2    1    2    0    0  0.00000000000E+00  0.00000000000E+00 -0.27427925362E+03  0.31063838024E+04  0.30942513180E+04 0.  0.
        4    1    3    3  502    0  0.32751382400E+03  0.81549189805E+03 -0.14154365263E+04  0.16660595769E+04  0.12699999809E+01 0.  1.
       -4    1    3    3    0  502 -0.32751382400E+03 -0.81549189805E+03  0.11411572727E+04  0.14403242255E+04  0.12699999809E+01 0. -1.
</event>
<event>
 5   0  0.1258262E-06  0.2895824E+04  0.7818609E-02  0.8274121E-01
       -2   -1    0    0    0  501  0.00000000000E+00  0.00000000000E+00  0.94864574891E+03  0.94864574891E+03  0.25500000920E-02 0.  1.
        2   -1    0    0  501    0  0.00000000000E+00  0.00000000000E+00 -0.22099395079E+04  0.22099395079E+04  0.25500000920E-02 0. -1.
    10030    2    1    2    0    0  0.00000000000E+00  0.00000000000E+00 -0.12612937589E+04  0.31585852568E+04  0.28958243866E+04 0.  0.
        1    1    3    3  502    0 -0.43161818153E+03 -0.43487921068E+03  0.80027294891E+03  0.10078943274E+04  0.50400001928E-02 0.  1.
       -1    1    3    3    0  502  0.43161818153E+03  0.43487921068E+03 -0.20615667079E+04  0.21506909293E+04  0.50400001928E-02 0. -1.
</event>
<event>
 5   0  0.4134019E-07  0.3092553E+04  0.7818609E-02  0.8217785E-01
        1   -1    0    0  501    0  0.00000000000E+00  0.00000000000E+00  0.15921912265E+04  0.15921912265E+04  0.50400001928E-02 0.  1.
       -1   -1    0    0    0  501  0.00000000000E+00  0.00000000000E+00 -0.15016859957E+04  0.15016859957E+04  0.50400001928E-02 0. -1.
    10030    2    1    2    0    0  0.00000000000E+00  0.00000000000E+00  0.90505230870E+02  0.30938772222E+04  0.30925531635E+04 0.  0.
        2    1    3    3  502    0  0.12529980274E+04 -0.21504712290E+03  0.92581236519E+03  0.15726976370E+04  0.25500000920E-02 0.  1.
       -2    1    3    3    0  502 -0.12529980274E+04  0.21504712290E+03 -0.83530713432E+03  0.15211795852E+04  0.25500000920E-02 0. -1.
</event>
<event>
 5   0  0.1176002E-06  0.3101077E+04  0.7818609E-02  0.8215442E-01
       -2   -1    0    0    0  501  0.00000000000E+00  0.00000000000E+00  0.16640555491E+04  0.16640555491E+04  0.25500000920E-02 0.  1.
        2   -1    0    0  501    0  0.00000000000E+00  0.00000000000E+00 -0.14447654569E+04  0.14447654569E+04  0.25500000920E-02 0. -1.
    10030    2    1    2    0    0  0.00000000000E+00  0.00000000000E+00  0.21929009215E+03  0.31088210060E+04  0.31010772165E+04 0.  0.
        2    1    3    3  502    0 -0.64098973890E+03 -0.13991159454E+04  0.29926467287E+03  0.15677858969E+04  0.25500000920E-02 0.  1.
       -2    1    3    3    0  502  0.64098973890E+03  0.13991159454E+04 -0.79974580723E+02  0.15410351091E+04  0.25500000920E-02 0. -1.
</event>
<event>
 5   0  0.1193123E-06  0.3093879E+04  0.7818609E-02  0.8217420E-01
        2   -1    0    0  501    0  0.00000000000E+00  0.00000000000E+00  0.24796109624E+04  0.24796109624E+04  0.25500000920E-02 0.  1.
       -2   -1    0    0    0  501  0.00000000000E+00  0.00000000000E+00 -0.96507969702E+03  0.96507969702E+03  0.25500000920E-02 0. -1.
    10030    2    1    2    0    0  0.00000000000E+00  0.00000000000E+00  0.15145312654E+04  0.34446906595E+04  0.30938792454E+04 0.  0.
        3    1    3    3  502    0  0.68478074196E+02  0.28035871691E+03 -0.93484072531E+03  0.97837490191E+03  0.10100000352E+00 0. -1.
       -3    1    3    3    0  502 -0.68478074196E+02 -0.28035871691E+03  0.24493719907E+04  0.24663157575E+04  0.10100000352E+00 0.  1.
</event>
<event>
 5   0  0.4173905E-07  0.3088596E+04  0.7818609E-02  0.8218875E-01
        1   -1    0    0  501    0  0.00000000000E+00  0.00000000000E+00  0.12587088866E+04  0.12587088866E+04  0.50400001928E-02 0.  1.
       -1   -1    0    0    0  501  0.00000000000E+00  0.00000000000E+00 -0.18946847059E+04  0.18946847059E+04  0.50400001928E-02 0. -1.
    10030    2    1    2    0    0  0.00000000000E+00  0.00000000000E+00 -0.63597581938E+03  0.31533935925E+04  0.30885961061E+04 0.  0.
        3    1    3    3  502    0  0.30367940310E+03  0.44055152903E+03 -0.17970168919E+04  0.18749870798E+04  0.10100000352E+00 0. -1.
       -3    1    3    3    0  502 -0.30367940310E+03 -0.44055152903E+03  0.11610410725E+04  0.12784065127E+04  0.10100000352E+00 0.  1.
</event>
<event>
 5   0  0.1200286E-06  0.3092382E+04  0.7818609E-02  0.8217832E-01
        2   -1    0    0  501    0  0.00000000000E+00  0.00000000000E+00  0.22230207020E+04  0.22230207020E+04  0.25500000920E-02 0. -1.
       -2   -1    0    0    0  501  0.00000000000E+00  0.00000000000E+00 -0.10754317906E+04  0.10754317906E+04  0.25500000920E-02 0.  1.
    10030    2    1    2    0    0  0.00000000000E+00  0.00000000000E+00  0.11475889114E+04  0.32984524926E+04  0.30923823399E+04 0.  0.
        5    1    3    3  502    0  0.15018401100E+04  0.32662179545E+03  0.75379899796E+03  0.17118529530E+04  0.46999998093E+01 0.  1.
       -5    1    3    3    0  502 -0.15018401100E+04 -0.32662179545E+03  0.39378991344E+03  0.15865995396E+04  0.46999998093E+01 0. -1.
</event>
<event>
 5   0  0.4219337E-07  0.3101222E+04  0.7818609E-02  0.8215403E-01
       -1   -1    0    0    0  501  0.00000000000E+00  0.00000000000E+00  0.12263099318E+04  0.12263099318E+04  0.50400001928E-02 0.  1.
        1   -1    0    0  501    0  0.00000000000E+00  0.00000000000E+00 -0.19606743108E+04  0.19606743108E+04  0.50400001928E-02 0. -1.
    10030    2    1    2    0    0  0.00000000000E+00  0.00000000000E+00 -0.73436437904E+03  0.31869842426E+04  0.31012219401E+04 0.  0.
        4    1    3    3  502    0 -0.10621980150E+04  0.20811175051E+03  0.77384630235E+03  0.13305693655E+04  0.12699999809E+01 0.  1.
       -4    1    3    3    0  502  0.10621980150E+04 -0.20811175051E+03 -0.15082106814E+04  0.18564148772E+04  0.12699999809E+01 0. -1.
</event>
<event>
 5   0  0.1258262E-06  0.3014884E+04  0.7818609E-02  0.8239493E-01
       -2   -1    0    0    0  501  0.00000000000E+00  0.00000000000E+00  0.10130605643E+04  0.10130605643E+04  0.25500000920E-02 0. -1.
        2   -1    0    0  501    0  0.00000000000E+00  0.00000000000E+00 -0.22430859544E+04  0.22430859544E+04  0.25500000920E-02 0.  1.
    10030    2    1    2    0    0  0.00000000000E+00  0.00000000000E+00 -0.12300253901E+04  0.32561465187E+04  0.30148843578E+04 0.  0.
        1    1    3    3  502    0  0.60376260788E+03 -0.77600653846E+03 -0.18491100147E+04  0.20942596021E+04  0.50400001928E-02 0.  1.
       -1    1    3    3    0  502 -0.60376260788E+03  0.77600653846E+03  0.61908462461E+03  0.11618869166E+04  0.50400001928E-02 0. -1.
</event>
<event>
 5   0  0.1176002E-06  0.3097685E+04  0.7818609E-02  0.8216373E-01
       -2   -1    0    0    0  501  0.00000000000E+00  0.00000000000E+00  0.11860447514E+04  0.11860447514E+04  0.25500000920E-02 0.  1.
        2   -1    0    0  501    0  0.00000000000E+00  0.00000000000E+00 -0.20226164970E+04  0.20226164970E+04  0.25500000920E-02 0. -1.
    10030    2    1    2    0    0  0.00000000000E+00  0.00000000000E+00 -0.83657174559E+03  0.32086612485E+04  0.30976853814E+04 0.  0.
        2    1    3    3  502    0  0.11434515363E+03  0.55088824783E+03 -0.19130221474E+04  0.19940427308E+04  0.25500000920E-02 0. -1.
       -2    1    3    3    0  502 -0.11434515363E+03 -0.55088824783E+03  0.10764504018E+04  0.12146185176E+04  0.25500000920E-02 0.  1.
</event>
<event>
 5   0  0.3935852E-07  0.3122772E+04  0.7818609E-02  0.8209516E-01
       -1   -1    0    0    0  501  0.00000000000E+00  0.00000000000E+00  0.15132076245E+04  0.15132076245E+04  0.50400001928E-02 0. -1.
        1   -1    0    0  501    0  0.00000000000E+00  0.00000000000E+00 -0.16110981808E+04  0.16110981808E+04  0.50400001928E-02 0.  1.
    10030    2    1    2    0    0  0.00000000000E+00  0.00000000000E+00 -0.97890556373E+02  0.31243058053E+04  0.31227718783E+04 0.  0.
        5    1    3    3  502    0 -0.82829340594E+03 -0.93818933312E+03 -0.98301769840E+03  0.15914192020E+04  0.46999998093E+01 0.  1.
       -5    1    3    3    0  502  0.82829340594E+03  0.93818933312E+03  0.88512714203E+03  0.15328866033E+04  0.46999998093E+01 0. -1.
</event>
<event>
 5   0  0.1237580E-06  0.3098445E+04  0.7818609E-02  0.8216165E-01
        2   -1    0    0  501    0  0.00000000000E+00  0.00000000000E+00  0.27455296242E+04  0.27455296242E+04  0.25500000920E-02 0.  1.
       -2   -1    0    0    0  501  0.00000000000E+00  0.00000000000E+00 -0.87418137779E+03  0.87418137779E+03  0.25500000920E-02 0. -1.
    10030    2    1    2    0    0  0.00000000000E+00  0.00000000000E+00  0.18713482464E+04  0.36197110020E+04  0.30984453325E+04 0.  0.
        4    1    3    3  502    0 -0.17520073834E+03  0.72151229795E+03 -0.65278727685E+03  0.98863953822E+03  0.12699999809E+01 0. -1.
       -4    1    3    3    0  502  0.17520073834E+03 -0.72151229795E+03  0.25241355232E+04  0.26310714638E+04  0.12699999809E+01 0.  1.
</event>
<event>
 5   0  0.1200286E-06  0.3126971E+04  0.7818609E-02  0.8208375E-01
        2   -1    0    0  501    0  0.00000000000E+00  0.00000000000E+00  0.19704896521E+04  0.19704896521E+04  0.25500000920E-02 0.  1.
       -2   -1    0    0    0  501  0.00000000000E+00  0.00000000000E+00 -0.12405482116E+04  0.12405482116E+04  0.25500000920E-02 0. -1.
    10030    2    1    2    0    0  0.00000000000E+00  0.00000000000E+00  0.72994144057E+03  0.32110378637E+04  0.31269713231E+04 0.  0.
        5    1    3    3  502    0 -0.14121954610E+04  0.19283242892E+03  0.10248867007E+04  0.17555327411E+04  0.46999998093E+01 0.  1.
       -5    1    3    3    0  502  0.14121954610E+04 -0.19283242892E+03 -0.29494526016E+03  0.14555051227E+04  0.46999998093E+01 0. -1.
</event>
<event>
 5   0  0.4219337E-07  0.3106681E+04  0.7818609E-02  0.8213907E-01
        1   -1    0    0  501    0  0.00000000000E+00  0.00000000000E+00  0.20721573654E+04  0.20721573654E+04  0.50400001928E-02 0.  1.
       -1   -1    0    0    0  501  0.00000000000E+00  0.00000000000E+00 -0.11644224959E+04  0.11644224959E+04  0.50400001928E-02 0. -1.
    10030    2    1    2    0    0  0.00000000000E+00  0.00000000000E+00  0.90773486951E+03  0.32365798613E+04  0.31066809629E+04 0.  0.
        4    1    3    3  502    0 -0.14069223843E+04  0.36215039402E+03 -0.11892263605E+03  0.14576445758E+04  0.12699999809E+01 0. -1.
       -4    1    3    3    0  502  0.14069223843E+04 -0.36215039402E+03  0.10266575056E+04  0.17789352855E+04  0.12699999809E+01 0.  1.
</event>
<event>
 5   0  0.1193123E-06  0.3080373E+04  0.7818609E-02  0.8221145E-01
        2   -1    0    0  501    0  0.00000000000E+00  0.00000000000E+00  0.25334948378E+04  0.25334948378E+04  0.25500000920E-02 0.  1.
       -2   -1    0    0    0  501  0.00000000000E+00  0.00000000000E+00 -0.93632508926E+03  0.93632508926E+03  0.25500000920E-02 0. -1.
    10030    2    1    2    0    0  0.00000000000E+00  0.00000000000E+00  0.15971697486E+04  0.34698199271E+04  0.30803732113E+04 0.  0.
        3    1    3    3  502    0  0.82297864280E+03 -0.52773710124E+02 -0.66667980292E+03  0.10604437188E+04  0.10100000352E+00 0. -1.
       -3    1    3    3    0  502 -0.82297864280E+03  0.52773710124E+02  0.22638495515E+04  0.24093762083E+04  0.10100000352E+00 0.  1.
</event>
<event>
 5   0  0.3935852E-07  0.3100881E+04  0.7818609E-02  0.8215496E-01
        1   -1    0    0  501    0  0.00000000000E+00  0.00000000000E+00  0.21291472380E+04  0.21291472380E+04  0.50400001928E-02 0. -1.
       -1   -1    0    0    0  501  0.00000000000E+00  0.00000000000E+00 -0.11290277270E+04  0.11290277270E+04  0.50400001928E-02 0.  1.
    10030    2    1    2    0    0  0.00000000000E+00  0.00000000000E+00  0.10001195110E+04  0.32581749650E+04  0.31008813370E+04 0.  0.
        5    1    3    3  502    0 -0.10417827134E+03 -0.11635402546E+04 -0.57104399465E+03  0.13003047221E+04  0.46999998093E+01 0.  1.
       -5    1    3    3    0  502  0.10417827134E+03  0.11635402546E+04  0.15711635057E+04  0.19578702429E+04  0.46999998093E+01 0. -1.
</event>
<event>
 5   0  0.4173905E-07  0.3100424E+04  0.7818609E-02  0.8215622E-01
        1   -1    0    0  501    0  0.00000000000E+00  0.00000000000E+00  0.14532890171E+04  0.14532890172E+04  0.50400001928E-02 0. -1.
       -1   -1    0    0    0  501  0.00000000000E+00  0.00000000000E+00 -0.16535988880E+04  0.16535988880E+04  0.50400001928E-02 0.  1.
    10030    2    1    2    0    0  0.00000000000E+00  0.00000000000E+00 -0.20030987086E+03  0.31068879052E+04  0.31004239083E+04 0.  0.
        3    1    3    3  502    0  0.75681351011E+03 -0.12980446556E+04  0.28204616787E+03  0.15288023640E+04  0.10100000352E+00 0. -1.
       -3    1    3    3    0  502 -0.75681351011E+03  0.12980446556E+04 -0.48235603873E+03  0.15780855412E+04  0.10100000352E+00 0.  1.
</event>
<event>
 5   0  0.4173905E-07  0.2954134E+04  0.7818609E-02  0.8256951E-01
       -1   -1    0    0    0  501  0.00000000000E+00  0.00000000000E+00  0.13264857341E+04  0.13264857341E+04  0.50400001928E-02 0. -1.
        1   -1    0    0  501    0  0.00000000000E+00  0.00000000000E+00 -0.16447420159E+04  0.16447420159E+04  0.50400001928E-02 0.  1.
    10030    2    1    2    0    0  0.00000000000E+00  0.00000000000E+00 -0.31825628181E+03  0.29712277500E+04  0.29541339308E+04 0.  0.
        3    1    3    3  502    0 -0.12659511296E+04  0.10482045117E+03 -0.91721839976E+03  0.15668149835E+04  0.10100000352E+00 0.  1.
       -3    1    3    3    0  502  0.12659511296E+04 -0.10482045117E+03  0.59896211794E+03  0.14044127664E+04  0.10100000352E+00 0. -1.
</event>
<event>
 5   0  0.4330395E-07  0.3100504E+04  0.7818609E-02  0.8215600E-01
       -1   -1    0    0    0  501  0.00000000000E+00  0.00000000000E+00  0.11468777891E+04  0.11468777891E+04  0.50400001928E-02 0. -1.
        1   -1    0    0  501    0  0.00000000000E+00  0.00000000000E+00 -0.20954987574E+04  0.20954987574E+04  0.50400001928E-02 0.  1.
    10030    2    1    2    0    0  0.00000000000E+00  0.00000000000E+00 -0.94862096835E+03  0.32423765465E+04  0.31005038183E+04 0.  0.
        1    1    3    3  502    0  0.10229080118E+04  0.87831312927E+03 -0.12745075201E+04  0.18553016392E+04  0.50400001928E-02 0.  1.
       -1    1    3    3    0  502 -0.10229080118E+04 -0.87831312927E+03  0.32588655177E+03  0.13870749072E+04  0.50400001928E-02 0. -1.
</event>
<event>
 5   0  0.1193123E-06  0.3096108E+04  0.7818609E-02  0.8216807E-01
       -2   -1    0    0    0  501  0.00000000000E+00  0.00000000000E+00  0.90506325139E+03  0.90506325139E+03  0.25500000920E-02 0. -1.
        2   -1    0    0  501    0  0.00000000000E+00  0.00000000000E+00 -0.26478499652E+04  0.26478499652E+04  0.25500000920E-02 0.  1.
    10030    2    1    2    0    0  0.00000000000E+00  0.00000000000E+00 -0.17427867138E+04  0.35529132166E+04  0.30961083306E+04 0.  0.
        3    1    3    3  502    0  0.14617307545E+04 -0.80009216135E+02 -0.29371878310E+03  0.14930937703E+04  0.10100000352E+00 0. -1.
       -3    1    3    3    0  502 -0.14617307545E+04  0.80009216135E+02 -0.14490679307E+04  0.20598194463E+04  0.10100000352E+00 0.  1.
</event>
<event>
 5   0  0.3902375E-07  0.3162569E+04  0.7818609E-02  0.8198773E-01
        3   -1    0    0  501    0  0.00000000000E+00  0.00000000000E+00  0.12274440725E+04  0.12274440766E+04  0.10100000352E+00 0.  1.
       -3   -1    0    0    0  501  0.00000000000E+00  0.00000000000E+00 -0.20371282334E+04  0.20371282359E+04  0.10100000352E+00 0. -1.
    10030    2    1    2    0    0  0.00000000000E+00  0.00000000000E+00 -0.80968416088E+03  0.32645723125E+04  0.31625691997E+04 0.  0.
        3    1    3    3  502    0 -0.35086702222E+02 -0.15780256790E+04 -0.50312243100E+03  0.16566617974E+04  0.10100000352E+00 0.  1.
       -3    1    3    3    0  502  0.35086702222E+02  0.15780256790E+04 -0.30656172988E+03  0.16079105151E+04  0.10100000352E+00 0. -1.
</event>
<event>
 5   0  0.1193123E-06  0.3104695E+04  0.7818609E-02  0.8214451E-01
       -2   -1    0    0    0  501  0.00000000000E+00  0.00000000000E+00  0.13151202427E+04  0.13151202427E+04  0.25500000920E-02 0.  1.
        2   -1    0    0  501    0  0.00000000000E+00  0.00000000000E+00 -0.18323672189E+04  0.18323672189E+04  0.25500000920E-02 0. -1.
    10030    2    1    2    0    0  0.00000000000E+00  0.00000000000E+00 -0.51724697616E+03  0.31474874616E+04  0.31046952969E+04 0.  0.
        3    1    3    3  502    0  0.79100314742E+03 -0.91382868963E+03  0.72897727436E+03  0.14114449086E+04  0.10100000352E+00 0.  1.
       -3    1    3    3    0  502 -0.79100314742E+03  0.91382868963E+03 -0.12462242505E+04  0.17360425531E+04  0.10100000352E+00 0. -1.
</event>
<event>
 5   0  0.1200286E-06  0.3103753E+04  0.7818609E-02  0.8214709E-01
        2   -1    0    0  501    0  0.00000000000E+00  0.00000000000E+00  0.20913779574E+04  0.20913779574E+04  0.25500000920E-02 0.  1.
       -2   -1    0    0    0  501  0.00000000000E+00  0.00000000000E+00 -0.11515475258E+04  0.11515475258E+04  0.25500000920E-02 0. -1.
    10030    2    1    2    0    0  0.00000000000E+00  0.00000000000E+00  0.93983043162E+03  0.32429254833E+04  0.31037532843E+04 0.  0.
        5    1    3    3  502    0 -0.16916300499E+02  0.73801990354E+03  0.18961655875E+04  0.20348035690E+04  0.46999998093E+01 0.  1.
       -5    1    3    3    0  502  0.16916300499E+02 -0.73801990354E+03 -0.95633515590E+03  0.12081219142E+04  0.46999998093E+01 0. -1.
</event>
<event>
 5   0  0.4219337E-07  0.3083016E+04  0.7818609E-02  0.8220414E-01
       -1   -1    0    0    0  501  0.00000000000E+00  0.00000000000E+00  0.11078141195E+04  0.11078141195E+04  0.50400001928E-02 0.  1.
        1   -1    0    0  501    0  0.00000000000E+00  0.00000000000E+00 -0.21449876054E+04  0.21449876054E+04  0.50400001928E-02 0. -1.
    10030    2    1    2    0    0  0.00000000000E+00  0.00000000000E+00 -0.10371734859E+04  0.32528017249E+04  0.30830164160E+04 0.  0.
        4    1    3    3  502    0  0.11758322658E+04  0.75424673214E+03 -0.12062279426E+04  0.18456589914E+04  0.12699999809E+01 0. -1.
       -4    1    3    3    0  502 -0.11758322658E+04 -0.75424673214E+03  0.16905445668E+03  0.14071427335E+04  0.12699999809E+01 0.  1.
</event>
<event>
 5   0  0.4219337E-07  0.3100419E+04  0.7818609E-02  0.8215623E-01
        1   -1    0    0  501    0  0.00000000000E+00  0.00000000000E+00  0.18270903801E+04  0.18270903801E+04  0.50400001928E-02 0.  1.
       -1   -1    0    0    0  501  0.00000000000E+00  0.00000000000E+00 -0.13152880354E+04  0.13152880355E+04  0.50400001928E-02 0. -1.
    10030    2    1    2    0    0  0.00000000000E+00  0.00000000000E+00  0.51180234466E+03  0.31423784156E+04  0.31004194017E+04 0.  0.
        4    1    3    3  502    0  0.75287040179E+02  0.99800079171E+03  0.14557614649E+04  0.17666116649E+04  0.12699999809E+01 0.  1.
       -4    1    3    3    0  502 -0.75287040179E+02 -0.99800079171E+03 -0.94395912029E+03  0.13757667507E+04  0.12699999809E+01 0. -1.
</event>
<event>
 5   0  0.1176002E-06  0.3114167E+04  0.7818609E-02  0.8211861E-01
        2   -1    0    0  501    0  0.00000000000E+00  0.00000000000E+00  0.14883475126E+04  0.14883475126E+04  0.25500000920E-02 0. -1.
       -2   -1    0    0    0  501  0.00000000000E+00  0.00000000000E+00 -0.16289937979E+04  0.16289937979E+04  0.25500000920E-02 0.  1.
    10030    2    1    2    0    0  0.00000000000E+00  0.00000000000E+00 -0.14064628531E+03  0.31173413106E+04  0.31141668981E+04 0.  0.
        2    1    3    3  502    0 -0.19699066581E+03  0.98602983100E+03  0.11197742363E+04  0.15049765747E+04  0.25500000920E-02 0. -1.
       -2    1    3    3    0  502  0.19699066581E+03 -0.98602983100E+03 -0.12604205217E+04  0.16123647359E+04  0.25500000920E-02 0.  1.
</event>
<event>
 5   0  0.1193123E-06  0.3108162E+04  0.7818609E-02  0.8213502E-01
        2   -1    0    0  501    0  0.00000000000E+00  0.00000000000E+00  0.18222429781E+04  0.18222429781E+04  0.25500000920E-02 0.  1.
       -2   -1    0    0    0  501  0.00000000000E+00  0.00000000000E+00 -0.13253814213E+04  0.13253814213E+04  0.25500000920E-02 0. -1.
    10030    2    1    2    0    0  0.00000000000E+00  0.00000000000E+00  0.49686155686E+03  0.31476243994E+04  0.31081615069E+04 0.  0.
        3    1    3    3  502    0 -0.43803586672E+03  0.65941039189E+03  0.16027470419E+04  0.17875949138E+04  0.10100000352E+00 0.  1.
       -3    1    3    3    0  502  0.43803586672E+03 -0.65941039189E+03 -0.11058854850E+04  0.13600294856E+04  0.10100000352E+00 0. -1.
</event>
<event>
 5   0  0.4330395E-07  0.3071435E+04  0.7818609E-02  0.8223621E-01
        1   -1    0    0  501    0  0.00000000000E+00  0.00000000000E+00  0.18336560488E+04  0.18336560488E+04  0.50400001928E-02 0.  1.
       -1   -1    0    0    0  501  0.00000000000E+00  0.00000000000E+00 -0.12861894000E+04  0.12861894000E+04  0.50400001928E-02 0. -1.
    10030    2    1    2    0    0  0.00000000000E+00  0.00000000000E+00  0.54746664877E+03  0.31198454487E+04  0.30714354775E+04 0.  0.
        1    1    3    3  502    0 -0.33325099123E+03 -0.96325836843E+03  0.14405359010E+04  0.17646718079E+04  0.50400001928E-02 0.  1.
       -1    1    3    3    0  502  0.33325099123E+03  0.96325836843E+03 -0.89306925223E+03  0.13551736408E+04  0.50400001928E-02 0. -1.
</event>
<event>
 5   0  0.1200286E-06  0.3102108E+04  0.7818609E-02  0.8215160E-01
        2   -1    0    0  501    0  0.00000000000E+00  0.00000000000E+00  0.27328472350E+04  0.27328472350E+04  0.25500000920E-02 0. -1.
       -2   -1    0    0    0  501  0.00000000000E+00  0.00000000000E+00 -0.88031552732E+03  0.88031552732E+03  0.25500000920E-02 0.  1.
    10030    2    1    2    0    0  0.00000000000E+00  0.00000000000E+00  0.18525317077E+04  0.36131627623E+04  0.31021075770E+04 0.  0.
        5    1    3    3  502    0 -0.57629960035E+03 -0.12363266353E+03 -0.74478310963E+03  0.94980536703E+03  0.46999998093E+01 0.  1.
       -5    1    3    3    0  502  0.57629960035E+03  0.12363266353E+03  0.25973148173E+04  0.26633573953E+04  0.46999998093E+01 0. -1.
</event>
<event>
 5   0  0.4219337E-07  0.3113190E+04  0.7818609E-02  0.8212127E-01
        1   -1    0    0  501    0  0.00000000000E+00  0.00000000000E+00  0.18765525059E+04  0.18765525059E+04  0.50400001928E-02 0.  1.
       -1   -1    0    0    0  501  0.00000000000E+00  0.00000000000E+00 -0.12911908705E+04  0.12911908705E+04  0.50400001928E-02 0. -1.
    10030    2    1    2    0    0  0.00000000000E+00  0.00000000000E+00  0.58536163539E+03  0.31677433764E+04  0.31131896593E+04 0.  0.
        4    1    3    3  502    0  0.79484796719E+03  0.19842631688E+03  0.16394412147E+04  0.18327371343E+04  0.12699999809E+01 0.  1.
       -4    1    3    3    0  502 -0.79484796719E+03 -0.19842631688E+03 -0.10540795793E+04  0.13350062421E+04  0.12699999809E+01 0. -1.
</event>
<event>
 5   0  0.3935852E-07  0.3104816E+04  0.7818609E-02  0.8214418E-01
        1   -1    0    0  501    0  0.00000000000E+00  0.00000000000E+00  0.23727591492E+04  0.23727591492E+04  0.50400001928E-02 0. -1.
       -1   -1    0    0    0  501  0.00000000000E+00  0.00000000000E+00 -0.10156825167E+04  0.10156825167E+04  0.50400001928E-02 0.  1.
    10030    2    1    2    0    0  0.00000000000E+00  0.00000000000E+00  0.13570766325E+04  0.33884416660E+04  0.31048156044E+04 0.  0.
        5    1    3    3  502    0  0.57248845437E+03  0.12327549364E+04  0.14970657418E+04  0.20220424548E+04  0.46999998093E+01 0. -1.
       -5    1    3    3    0  502 -0.57248845437E+03 -0.12327549364E+04 -0.13998910929E+03  0.13663992112E+04  0.46999998093E+01 0.  1.
</event>
<event>
 5   0  0.1176002E-06  0.3097691E+04  0.7818609E-02  0.8216372E-01
        2   -1    0    0  501    0  0.00000000000E+00  0.00000000000E+00  0.10955524191E+04  0.10955524191E+04  0.25500000920E-02 0.  1.
       -2   -1    0    0    0  501  0.00000000000E+00  0.00000000000E+00 -0.21896925914E+04  0.21896925914E+04  0.25500000920E-02 0. -1.
    10030    2    1    2    0    0  0.00000000000E+00  0.00000000000E+00 -0.10941401723E+04  0.32852450105E+04  0.30976914085E+04 0.  0.
        2    1    3    3  502    0 -0.58293277800E+03 -0.11758859010E+04 -0.14193039307E+04  0.19331171520E+04  0.25500000920E-02 0. -1.
       -2    1    3    3    0  502  0.58293277800E+03  0.11758859010E+04  0.32516375836E+03  0.13521278585E+04  0.25500000920E-02 0.  1.
</event>
<event>
 5   0  0.4330395E-07  0.3090815E+04  0.7818609E-02  0.8218263E-01
       -1   -1    0    0    0  501  0.00000000000E+00  0.00000000000E+00  0.10668299237E+04  0.10668299237E+04  0.50400001928E-02 0. -1.
        1   -1    0    0  501    0  0.00000000000E+00  0.00000000000E+00 -0.22386733410E+04  0.22386733410E+04  0.50400001928E-02 0.  1.
    10030    2    1    2    0    0  0.00000000000E+00  0.00000000000E+00 -0.11718434173E+04  0.33055032647E+04  0.30908145914E+04 0.  0.
        1    1    3    3  502    0  0.76551601562E+03 -0.10208876657E+04 -0.15182906707E+04  0.19832884200E+04  0.50400001928E-02 0.  1.
       -1    1    3    3    0  502 -0.76551601562E+03  0.10208876657E+04  0.34644725337E+03  0.13222148447E+04  0.50400001928E-02 0. -1.
</event>
<event>
 5   0  0.4134019E-07  0.3104007E+04  0.7818609E-02  0.8214639E-01
        1   -1    0    0  501    0  0.00000000000E+00  0.00000000000E+00  0.17664888046E+04  0.17664888046E+04  0.50400001928E-02 0. -1.
       -1   -1    0    0    0  501  0.00000000000E+00  0.00000000000E+00 -0.13635611294E+04  0.13635611294E+04  0.50400001928E-02 0.  1.
    10030    2    1    2    0    0  0.00000000000E+00  0.00000000000E+00  0.40292767519E+03  0.31300499341E+04  0.31040073902E+04 0.  0.
        2    1    3    3  502    0  0.14987789821E+04 -0.23449888574E+03  0.53191325545E+03  0.16075633349E+04  0.25500000920E-02 0.  1.
       -2    1    3    3    0  502 -0.14987789821E+04  0.23449888574E+03 -0.12898558027E+03  0.15224865991E+04  0.25500000920E-02 0. -1.
</event>
<event>
 5   0  0.1200286E-06  0.3098908E+04  0.7818609E-02  0.8216038E-01
       -2   -1    0    0    0  501  0.00000000000E+00  0.00000000000E+00  0.22634645900E+04  0.22634645900E+04  0.25500000920E-02 0.  1.
        2   -1    0    0  501    0  0.00000000000E+00  0.00000000000E+00 -0.10606784459E+04  0.10606784459E+04  0.25500000920E-02 0. -1.
    10030    2    1    2    0    0  0.00000000000E+00  0.00000000000E+00  0.12027861441E+04  0.33241430359E+04  0.30989082618E+04 0.  0.
        5    1    3    3  502    0 -0.86961620973E+03  0.12770691526E+04  0.72670896119E+03  0.17074149985E+04  0.46999998093E+01 0.  1.
       -5    1    3    3    0  502  0.86961620973E+03 -0.12770691526E+04  0.47607718292E+03  0.16167280374E+04  0.46999998093E+01 0. -1.
</event>
<event>
 5   0  0.1237580E-06  0.3088620E+04  0.7818609E-02  0.8218868E-01
       -2   -1    0    0    0  501  0.00000000000E+00  0.00000000000E+00  0.22352237413E+04  0.22352237413E+04  0.25500000920E-02 0. -1.
        2   -1    0    0  501    0  0.00000000000E+00  0.00000000000E+00 -0.10669595267E+04  0.10669595267E+04  0.25500000920E-02 0.  1.
    10030    2    1    2    0    0  0.00000000000E+00  0.00000000000E+00  0.11682642146E+04  0.33021832680E+04  0.30886199281E+04 0.  0.
        4    1    3    3  502    0 -0.20580211292E+02 -0.30685101193E+03  0.22021521291E+04  0.22235234879E+04  0.12699999809E+01 0. -1.
       -4    1    3    3    0  502  0.20580211292E+02  0.30685101193E+03 -0.10338879145E+04  0.10786597801E+04  0.12699999809E+01 0.  1.
</event>
<event>
 5   0  0.4134019E-07  0.3091538E+04  0.7818609E-02  0.8218064E-01
       -1   -1    0    0    0  501  0.00000000000E+00  0.00000000000E+00  0.12476926434E+04  0.12476926434E+04  0.50400001928E-02 0. -1.
        1   -1    0    0  501    0  0.00000000000E+00  0.00000000000E+00 -0.19150558939E+04  0.19150558939E+04  0.50400001928E-02 0.  1.
    10030    2    1    2    0    0  0.00000000000E+00  0.00000000000E+00 -0.66736325053E+03  0.31627485373E+04  0.30915375790E+04 0.  0.
        2    1    3    3  502    0 -0.30240896090E+03  0.15158523378E+04 -0.32150533075E+03  0.15788049808E+04  0.25500000920E-02 0.  1.
       -2    1    3    3    0  502  0.30240896090E+03 -0.15158523378E+04 -0.34585791978E+03  0.15839435565E+04  0.25500000920E-02 0. -1.
</event>
<event>
 5   0  0.4173905E-07  0.3089386E+04  0.7818609E-02  0.8218657E-01
        1   -1    0    0  501    0  0.00000000000E+00  0.00000000000E+00  0.13138737676E+04  0.13138737676E+04  0.50400001928E-02 0. -1.
       -1   -1    0    0    0  501  0.00000000000E+00  0.00000000000E+00 -0.18160619573E+04  0.18160619573E+04  0.50400001928E-02 0.  1.
    10030    2    1    2    0    0  0.00000000000E+00  0.00000000000E+00 -0.50218818974E+03  0.31299357250E+04  0.30893858070E+04 0.  0.
        3    1    3    3  502    0 -0.79971698684E+03 -0.13209368357E+04 -0.29230692853E+03  0.15715803300E+04  0.10100000352E+00 0. -1.
       -3    1    3    3    0  502  0.79971698684E+03  0.13209368357E+04 -0.20988126120E+03  0.15583553950E+04  0.10100000352E+00 0.  1.
</event>
<event>
 5   0  0.4134019E-07  0.3102959E+04  0.7818609E-02  0.8214926E-01
       -1   -1    0    0    0  501  0.00000000000E+00  0.00000000000E+00  0.11835096726E+04  0.11835096726E+04  0.50400001928E-02 0. -1.
        1   -1    0    0  501    0  0.00000000000E+00  0.00000000000E+00 -0.20338565607E+04  0.20338565607E+04  0.50400001928E-02 0.  1.
    10030    2    1    2    0    0  0.00000000000E+00  0.00000000000E+00 -0.85034688807E+03  0.32173662333E+04  0.31029591762E+04 0.  0.
        2    1    3    3  502    0 -0.44975384607E+03 -0.12021643541E+04 -0.13288648110E+04  0.18475279002E+04  0.25500000920E-02 0.  1.
       -2    1    3    3    0  502  0.44975384607E+03  0.12021643541E+04  0.47851792295E+03  0.13698383331E+04  0.25500000920E-02 0. -1.
</event>
<event>
 5   0  0.1193123E-06  0.3097964E+04  0.7818609E-02  0.8216297E-01
        2   -1    0    0  501    0  0.00000000000E+00  0.00000000000E+00  0.15952633245E+04  0.15952633245E+04  0.25500000920E-02 0.  1.
       -2   -1    0    0    0  501  0.00000000000E+00  0.00000000000E+00 -0.15040438202E+04  0.15040438202E+04  0.25500000920E-02 0. -1.
    10030    2    1    2    0    0  0.00000000000E+00  0.00000000000E+00  0.91219504297E+02  0.30993071448E+04  0.30979644575E+04 0.  0.
        3    1    3    3  502    0  0.39822406833E+03  0.14036382012E+04  0.56599221400E+03  0.15649695859E+04  0.10100000352E+00 0.  1.
       -3    1    3    3    0  502 -0.39822406833E+03 -0.14036382012E+04 -0.47477270970E+03  0.15343375588E+04  0.10100000352E+00 0. -1.
</event>
<event>
 5   0  0.3902375E-07  0.3091707E+04  0.7818609E-02  0.8218018E-01
        3   -1    0    0  501    0  0.00000000000E+00  0.00000000000E+00  0.22459546875E+04  0.22459546897E+04  0.10100000352E+00 0.  1.
       -3   -1    0    0    0  501  0.00000000000E+00  0.00000000000E+00 -0.10639854908E+04  0.10639854956E+04  0.10100000352E+00 0. -1.
    10030    2    1    2    0    0  0.00000000000E+00  0.00000000000E+00  0.11819691967E+04  0.33099401853E+04  0.30917071091E+04 0.  0.
        2    1    3    3  502    0  0.82768565144E+03 -0.13047407370E+04  0.64178146569E+03  0.16731094937E+04  0.25500000920E-02 0.  1.
       -2    1    3    3    0  502 -0.82768565144E+03  0.13047407370E+04  0.54018773098E+03  0.16368306916E+04  0.25500000920E-02 0. -1.
</event>
<event>
 5   0  0.4219337E-07  0.3089511E+04  0.7818609E-02  0.8218622E-01
        1   -1    0    0  501    0  0.00000000000E+00  0.00000000000E+00  0.28368803523E+04  0.28368803523E+04  0.50400001928E-02 0.  1.
       -1   -1    0    0    0  501  0.00000000000E+00  0.00000000000E+00 -0.84115967489E+03  0.84115967491E+03  0.50400001928E-02 0. -1.
    10030    2    1    2    0    0  0.00000000000E+00  0.00000000000E+00  0.19957206774E+04  0.36780400272E+04  0.30895108706E+04 0.  0.
        4    1    3    3  502    0  0.15151554668E+04 -0.29743107401E+03  0.94322191860E+03  0.18093729668E+04  0.12699999809E+01 0.  1.
       -4    1    3    3    0  502 -0.15151554668E+04  0.29743107401E+03  0.10524987588E+04  0.18686670604E+04  0.12699999809E+01 0. -1.
</event>
<event>
 5   0  0.4173905E-07  0.3095869E+04  0.7818609E-02  0.8216873E-01
        1   -1    0    0  501    0  0.00000000000E+00  0.00000000000E+00  0.16878068002E+04  0.16878068002E+04  0.50400001928E-02 0.  1.
       -1   -1    0    0    0  501  0.00000000000E+00  0.00000000000E+00 -0.14196533265E+04  0.14196533265E+04  0.50400001928E-02 0. -1.
    10030    2    1    2    0    0  0.00000000000E+00  0.00000000000E+00  0.26815347371E+03  0.31074601267E+04  0.30958685621E+04 0.  0.
        3    1    3    3  502    0 -0.12150434144E+04 -0.72776911399E+02 -0.82578487938E+03  0.14709002872E+04  0.10100000352E+00 0. -1.
       -3    1    3    3    0  502  0.12150434144E+04  0.72776911399E+02  0.10939383531E+04  0.16365598395E+04  0.10100000352E+00 0.  1.
</event>
<event>
 5   0  0.1258262E-06  0.3088754E+04  0.7818609E-02  0.8218831E-01
        2   -1    0    0  501    0  0.00000000000E+00  0.00000000000E+00  0.26985758862E+04  0.26985758862E+04  0.25500000920E-02 0. -1.
       -2   -1    0    0    0  501  0.00000000000E+00  0.00000000000E+00 -0.88383639070E+03  0.88383639071E+03  0.25500000920E-02 0.  1.
    10030    2    1    2    0    0  0.00000000000E+00  0.00000000000E+00  0.18147394955E+04  0.35824122769E+04  0.30887535164E+04 0.  0.
        1    1    3    3  502    0  0.34493690112E+03 -0.99618453339E+02  0.26494997402E+04  0.26737154253E+04  0.50400001928E-02 0. -1.
       -1    1    3    3    0  502 -0.34493690112E+03  0.99618453339E+02 -0.83476024471E+03  0.90869685163E+03  0.50400001928E-02 0.  1.
</event>
<event>
 5   0  0.4330395E-07  0.3096099E+04  0.7818609E-02  0.8216809E-01
       -1   -1    0    0    0  501  0.00000000000E+00  0.00000000000E+00  0.16336633202E+04  0.16336633202E+04  0.50400001928E-02 0. -1.
        1   -1    0    0  501    0  0.00000000000E+00  0.00000000000E+00 -0.14669222422E+04  0.14669222423E+04  0.50400001928E-02 0.  1.
    10030    2    1    2    0    0  0.00000000000E+00  0.00000000000E+00  0.16674107791E+03  0.31005855624E+04  0.30960988748E+04 0.  0.
        1    1    3    3  502    0  0.70793976860E+03  0.13760852055E+04  0.12426906245E+03  0.15524921928E+04  0.50400001928E-02 0. -1.
       -1    1    3    3    0  502 -0.70793976860E+03 -0.13760852055E+04  0.42472015459E+02  0.15480933696E+04  0.50400001928E-02 0.  1.
</event>
<event>
 5   0  0.1193123E-06  0.3093188E+04  0.7818609E-02  0.8217610E-01
        2   -1    0    0  501    0  0.00000000000E+00  0.00000000000E+00  0.14877383610E+04  0.14877383610E+04  0.25500000920E-02 0. -1.
       -2   -1    0    0    0  501  0.00000000000E+00  0.00000000000E+00 -0.16077784359E+04  0.16077784359E+04  0.25500000920E-02 0.  1.
    10030    2    1    2    0    0  0.00000000000E+00  0.00000000000E+00 -0.12004007491E+03  0.30955167969E+04  0.30931884231E+04 0.  0.
        3    1    3    3  502    0  0.93425483774E+03  0.11786290403E+04 -0.42078429218E+03  0.15617483623E+04  0.10100000352E+00 0.  1.
       -3    1    3    3    0  502 -0.93425483774E+03 -0.11786290403E+04  0.30074421726E+03  0.15337684346E+04  0.10100000352E+00 0. -1.
</event>
<event>
 5   0  0.1193123E-06  0.3088851E+04  0.7818609E-02  0.8218804E-01
       -2   -1    0    0    0  501  0.00000000000E+00  0.00000000000E+00  0.88637027147E+03  0.88637027148E+03  0.25500000920E-02 0. -1.
        2   -1    0    0  501    0  0.00000000000E+00  0.00000000000E+00 -0.26910310798E+04  0.26910310798E+04  0.25500000920E-02 0.  1.
    10030    2    1    2    0    0  0.00000000000E+00  0.00000000000E+00 -0.18046608083E+04  0.35774013513E+04  0.30888508859E+04 0.  0.
        3    1    3    3  502    0  0.54829470106E+03 -0.17040929385E+03 -0.25628281421E+04  0.26263576494E+04  0.10100000352E+00 0.  1.
       -3    1    3    3    0  502 -0.54829470106E+03  0.17040929385E+03  0.75816733376E+03  0.95104370185E+03  0.10100000352E+00 0. -1.
</event>
<event>
 5   0  0.1237580E-06  0.3096441E+04  0.7818609E-02  0.8216715E-01
       -2   -1    0    0    0  501  0.00000000000E+00  0.00000000000E+00  0.12811001541E+04  0.12811001541E+04  0.25500000920E-02 0.  1.
        2   -1    0    0  501    0  0.00000000000E+00  0.00000000000E+00 -0.18710381071E+04  0.18710381071E+04  0.25500000920E-02 0. -1.
    10030    2    1    2    0    0  0.00000000000E+00  0.00000000000E+00 -0.58993795304E+03  0.31521382611E+04  0.30964413169E+04 0.  0.
        4    1    3    3  502    0 -0.48097797059E+03 -0.76298281849E+03  0.98603904923E+03  0.13363222699E+04  0.12699999809E+01 0.  1.
       -4    1    3    3    0  502  0.48097797059E+03  0.76298281849E+03 -0.15759770023E+04  0.18158159913E+04  0.12699999809E+01 0. -1.
</event>
<event>
 5   0  0.3935852E-07  0.3039108E+04  0.7818609E-02  0.8232651E-01
        1   -1    0    0  501    0  0.00000000000E+00  0.00000000000E+00  0.14479160728E+04  0.14479160728E+04  0.50400001928E-02 0. -1.
       -1   -1    0    0    0  501  0.00000000000E+00  0.00000000000E+00 -0.15947364442E+04  0.15947364442E+04  0.50400001928E-02 0.  1.
    10030    2    1    2    0    0  0.00000000000E+00  0.00000000000E+00 -0.14682037137E+03  0.30426525171E+04  0.30391081123E+04 0.  0.
        5    1    3    3  502    0  0.16810673944E+03  0.12654502415E+04  0.75180729511E+03  0.14815061554E+04  0.46999998093E+01 0. -1.
       -5    1    3    3    0  502 -0.16810673944E+03 -0.12654502415E+04 -0.89862766648E+03  0.15611463617E+04  0.46999998093E+01 0.  1.
</event>
<event>
 5   0  0.1237580E-06  0.3102792E+04  0.7818609E-02  0.8214972E-01
        2   -1    0    0  501    0  0.00000000000E+00  0.00000000000E+00  0.19088935312E+04  0.19088935312E+04  0.25500000920E-02 0.  1.
       -2   -1    0    0    0  501  0.00000000000E+00  0.00000000000E+00 -0.12608507620E+04  0.12608507620E+04  0.25500000920E-02 0. -1.
    10030    2    1    2    0    0  0.00000000000E+00  0.00000000000E+00  0.64804276922E+03  0.31697442932E+04  0.31027922028E+04 0.  0.
        4    1    3    3  502    0  0.10469290569E+04 -0.61591823269E+03  0.13099434251E+04  0.17864403459E+04  0.12699999809E+01 0.  1.
       -4    1    3    3    0  502 -0.10469290569E+04  0.61591823269E+03 -0.66190065585E+03  0.13833039473E+04  0.12699999809E+01 0. -1.
</event>
<event>
 5   0  0.3935852E-07  0.3071914E+04  0.7818609E-02  0.8223488E-01
        1   -1    0    0  501    0  0.00000000000E+00  0.00000000000E+00  0.17978294585E+04  0.17978294585E+04  0.50400001928E-02 0. -1.
       -1   -1    0    0    0  501  0.00000000000E+00  0.00000000000E+00 -0.13122290997E+04  0.13122290997E+04  0.50400001928E-02 0.  1.
    10030    2    1    2    0    0  0.00000000000E+00  0.00000000000E+00  0.48560035876E+03  0.31100585582E+04  0.30719141471E+04 0.  0.
        5    1    3    3  502    0  0.81263533675E+03 -0.74230740537E+03 -0.84183154842E+03  0.13856763405E+04  0.46999998093E+01 0.  1.
       -5    1    3    3    0  502 -0.81263533675E+03  0.74230740537E+03  0.13274319072E+04  0.17243822177E+04  0.46999998093E+01 0. -1.
</event>
<event>
 5   0  0.1258262E-06  0.3092126E+04  0.7818609E-02  0.8217902E-01
        2   -1    0    0  501    0  0.00000000000E+00  0.00000000000E+00  0.26718069055E+04  0.26718069055E+04  0.25500000920E-02 0. -1.
       -2   -1    0    0    0  501  0.00000000000E+00  0.00000000000E+00 -0.89464197919E+03  0.89464197919E+03  0.25500000920E-02 0.  1.
    10030    2    1    2    0    0  0.00000000000E+00  0.00000000000E+00  0.17771649263E+04  0.35664488847E+04  0.30921258823E+04 0.  0.
        1    1    3    3  502    0  0.99509622372E+03 -0.96177109513E+03  0.93582691673E+02  0.13870752878E+04  0.50400001928E-02 0.  1.
       -1    1    3    3    0  502 -0.99509622372E+03  0.96177109513E+03  0.16835822346E+04  0.21793735968E+04  0.50400001928E-02 0. -1.
</event>
<event>
 5   0  0.4134019E-07  0.3093838E+04  0.7818609E-02  0.8217431E-01
       -1   -1    0    0    0  501  0.00000000000E+00  0.00000000000E+00  0.19572292914E+04  0.19572292914E+04  0.50400001928E-02 0.  1.
        1   -1    0    0  501    0  0.00000000000E+00  0.00000000000E+00 -0.12226257188E+04  0.12226257188E+04  0.50400001928E-02 0. -1.
    10030    2    1    2    0    0  0.00000000000E+00  0.00000000000E+00  0.73460357263E+03  0.31798550101E+04  0.30938383081E+04 0.  0.
        2    1    3    3  502    0  0.86521202677E+03 -0.10864368700E+04  0.10674322354E+04  0.17516702033E+04  0.25500000920E-02 0. -1.
       -2    1    3    3    0  502 -0.86521202677E+03  0.10864368700E+04 -0.33282866281E+03  0.14281848069E+04  0.25500000920E-02 0.  1.
</event>
<event>
 5   0  0.1200286E-06  0.3149647E+04  0.7818609E-02  0.8202243E-01
        2   -1    0    0  501    0  0.00000000000E+00  0.00000000000E+00  0.12216461861E+04  0.12216461861E+04  0.25500000920E-02 0.  1.
       -2   -1    0    0    0  501  0.00000000000E+00  0.00000000000E+00 -0.20301046062E+04  0.20301046062E+04  0.25500000920E-02 0. -1.
    10030    2    1    2    0    0  0.00000000000E+00  0.00000000000E+00 -0.80845842002E+03  0.32517507923E+04  0.31496473133E+04 0.  0.
        5    1    3    3  502    0  0.14806629334E+04  0.47787414289E+03 -0.15277453765E+03  0.15633581062E+04  0.46999998093E+01 0.  1.
       -5    1    3    3    0  502 -0.14806629334E+04 -0.47787414289E+03 -0.65568388238E+03  0.16883926861E+04  0.46999998093E+01 0. -1.
</event>
<event>
 5   0  0.4173905E-07  0.3082851E+04  0.7818609E-02  0.8220460E-01
       -1   -1    0    0    0  501  0.00000000000E+00  0.00000000000E+00  0.13010601070E+04  0.13010601070E+04  0.50400001928E-02 0. -1.
        1   -1    0    0  501    0  0.00000000000E+00  0.00000000000E+00 -0.18261975917E+04  0.18261975917E+04  0.50400001928E-02 0.  1.
    10030    2    1    2    0    0  0.00000000000E+00  0.00000000000E+00 -0.52513748467E+03  0.31272576987E+04  0.30828511700E+04 0.  0.
        3    1    3    3  502    0  0.49635351233E+03 -0.14099122956E+04  0.11938290454E+03  0.14994905063E+04  0.10100000352E+00 0.  1.
       -3    1    3    3    0  502 -0.49635351233E+03  0.14099122956E+04 -0.64452038921E+03  0.16277671924E+04  0.10100000352E+00 0. -1.
</event>
<event>
 5   0  0.4173905E-07  0.3161509E+04  0.7818609E-02  0.8199057E-01
       -1   -1    0    0    0  501  0.00000000000E+00  0.00000000000E+00  0.12334369183E+04  0.12334369183E+04  0.50400001928E-02 0.  1.
        1   -1    0    0  501    0  0.00000000000E+00  0.00000000000E+00 -0.20258711951E+04  0.20258711951E+04  0.50400001928E-02 0. -1.
    10030    2    1    2    0    0  0.00000000000E+00  0.00000000000E+00 -0.79243427679E+03  0.32593081134E+04  0.31615087055E+04 0.  0.
        3    1    3    3  502    0  0.14582574866E+04 -0.15131226602E+03 -0.10055804963E+04  0.17778083259E+04  0.10100000352E+00 0. -1.
       -3    1    3    3    0  502 -0.14582574866E+04  0.15131226602E+03  0.21314621946E+03  0.14814997874E+04  0.10100000352E+00 0.  1.
</event>
<event>
 5   0  0.3902375E-07  0.3099544E+04  0.7818609E-02  0.8215863E-01
        3   -1    0    0  501    0  0.00000000000E+00  0.00000000000E+00  0.28133461159E+04  0.28133461177E+04  0.10100000352E+00 0.  1.
       -3   -1    0    0    0  501  0.00000000000E+00  0.00000000000E+00 -0.85371400084E+03  0.85371400681E+03  0.10100000352E+00 0. -1.
    10030    2    1    2    0    0  0.00000000000E+00  0.00000000000E+00  0.19596321151E+04  0.36670601245E+04  0.30995438262E+04 0.  0.
        5    1    3    3  502    0 -0.64967134359E+03 -0.16749491809E+03 -0.67298466052E+03  0.95029355757E+03  0.46999998093E+01 0. -1.
       -5    1    3    3    0  502  0.64967134359E+03  0.16749491809E+03  0.26326167756E+04  0.27167665670E+04  0.46999998093E+01 0.  1.
</event>
<event>
 5   0  0.4173905E-07  0.3109803E+04  0.7818609E-02  0.8213053E-01
        1   -1    0    0  501    0  0.00000000000E+00  0.00000000000E+00  0.24162223145E+04  0.24162223146E+04  0.50400001928E-02 0.  1.
       -1   -1    0    0    0  501  0.00000000000E+00  0.00000000000E+00 -0.10006193379E+04  0.10006193379E+04  0.50400001928E-02 0. -1.
    10030    2    1    2    0    0  0.00000000000E+00  0.00000000000E+00  0.14156029767E+04  0.34168416524E+04  0.31098030630E+04 0.  0.
        3    1    3    3  502    0  0.14912290032E+04 -0.10522666491E+03  0.23793156064E+03  0.15137529616E+04  0.10100000352E+00 0. -1.
       -3    1    3    3    0  502 -0.14912290032E+04  0.10522666491E+03  0.11776714160E+04  0.19030886909E+04  0.10100000352E+00 0.  1.
</event>
<event>
 5   0  0.4134019E-07  0.3107255E+04  0.7818609E-02  0.8213750E-01
        1   -1    0    0  501    0  0.00000000000E+00  0.00000000000E+00  0.18628375847E+04  0.18628375847E+04  0.50400001928E-02 0.  1.
       -1   -1    0    0    0  501  0.00000000000E+00  0.00000000000E+00 -0.12957426826E+04  0.12957426826E+04  0.50400001928E-02 0. -1.
    10030    2    1    2    0    0  0.00000000000E+00  0.00000000000E+00  0.56709490204E+03  0.31585802673E+04  0.31072548458E+04 0.  0.
        2    1    3    3  502    0 -0.12185919966E+04  0.63828937189E+03  0.10175398430E+04  0.17110719180E+04  0.25500000920E-02 0.  1.
       -2    1    3    3    0  502  0.12185919966E+04 -0.63828937189E+03 -0.45044494098E+03  0.14475083493E+04  0.25500000920E-02 0. -1.
</event>
<event>
 5   0  0.3935852E-07  0.3015762E+04  0.7818609E-02  0.8239244E-01
        1   -1    0    0  501    0  0.00000000000E+00  0.00000000000E+00  0.10283084518E+04  0.10283084518E+04  0.50400001928E-02 0. -1.
       -1   -1    0    0    0  501  0.00000000000E+00  0.00000000000E+00 -0.22111124283E+04  0.22111124283E+04  0.50400001928E-02 0.  1.
    10030    2    1    2    0    0  0.00000000000E+00  0.00000000000E+00 -0.11828039765E+04  0.32394208802E+04  0.30157623235E+04 0.  0.
        5    1    3    3  502    0 -0.13001477071E+04 -0.74063175978E+03 -0.39112298891E+03  0.15465829257E+04  0.46999998093E+01 0. -1.
       -5    1    3    3    0  502  0.13001477071E+04  0.74063175978E+03 -0.79168098760E+03  0.16928379544E+04  0.46999998093E+01 0.  1.
</event>
<event>
 5   0  0.1200286E-06  0.3098752E+04  0.7818609E-02  0.8216080E-01
        2   -1    0    0  501    0  0.00000000000E+00  0.00000000000E+00  0.27901966078E+04  0.27901966078E+04  0.25500000920E-02 0. -1.
       -2   -1    0    0    0  501  0.00000000000E+00  0.00000000000E+00 -0.86035747208E+03  0.86035747208E+03  0.25500000920E-02 0.  1.
    10030    2    1    2    0    0  0.00000000000E+00  0.00000000000E+00  0.19298391357E+04  0.36505540798E+04  0.30987523296E+04 0.  0.
        5    1    3    3  502    0  0.11946179791E+04  0.17197958210E+03  0.21094428554E+04  0.24303210370E+04  0.46999998093E+01 0. -1.
       -5    1    3    3    0  502 -0.11946179791E+04 -0.17197958210E+03 -0.17960371976E+03  0.12202330428E+04  0.46999998093E+01 0.  1.
</event>
<event>
 5   0  0.3902375E-07  0.3097505E+04  0.7818609E-02  0.8216423E-01
        3   -1    0    0  501    0  0.00000000000E+00  0.00000000000E+00  0.14727378711E+04  0.14727378746E+04  0.10100000352E+00 0. -1.
       -3   -1    0    0    0  501  0.00000000000E+00  0.00000000000E+00 -0.16286906815E+04  0.16286906846E+04  0.10100000352E+00 0.  1.
    10030    2    1    2    0    0  0.00000000000E+00  0.00000000000E+00 -0.15595281038E+03  0.31014285592E+04  0.30975050974E+04 0.  0.
        2    1    3    3  502    0  0.26010274480E+03 -0.15207021359E+04  0.58011800976E+02  0.15438762233E+04  0.25500000920E-02 0. -1.
       -2    1    3    3    0  502 -0.26010274480E+03  0.15207021359E+04 -0.21396461135E+03  0.15575523358E+04  0.25500000920E-02 0.  1.
</event>
<event>
 5   0  0.1258262E-06  0.3099479E+04  0.7818609E-02  0.8215881E-01
       -2   -1    0    0    0  501  0.00000000000E+00  0.00000000000E+00  0.14279627617E+04  0.14279627617E+04  0.25500000920E-02 0. -1.
        2   -1    0    0  501    0  0.00000000000E+00  0.00000000000E+00 -0.16819012922E+04  0.16819012922E+04  0.25500000920E-02 0.  1.
    10030    2    1    2    0    0  0.00000000000E+00  0.00000000000E+00 -0.25393853051E+03  0.31098640539E+04  0.30994789330E+04 0.  0.
        1    1    3    3  502    0 -0.13657648080E+04 -0.61269965406E+03  0.27559574954E+03  0.15220602465E+04  0.50400001928E-02 0.  1.
       -1    1    3    3    0  502  0.13657648080E+04  0.61269965406E+03 -0.52953428005E+03  0.15878038074E+04  0.50400001928E-02 0. -1.
</event>
<event>
 5   0  0.4330395E-07  0.3002543E+04  0.7818609E-02  0.8243005E-01
        1   -1    0    0  501    0  0.00000000000E+00  0.00000000000E+00  0.12382146153E+04  0.12382146153E+04  0.50400001928E-02 0. -1.
       -1   -1    0    0    0  501  0.00000000000E+00  0.00000000000E+00 -0.18202146891E+04  0.18202146891E+04  0.50400001928E-02 0.  1.
    10030    2    1    2    0    0  0.00000000000E+00  0.00000000000E+00 -0.58200007380E+03  0.30584293045E+04  0.30025432094E+04 0.  0.
        1    1    3    3  502    0  0.46050192902E+03  0.24955749708E+03  0.11421255214E+04  0.12564997722E+04  0.50400001928E-02 0. -1.
       -1    1    3    3    0  502 -0.46050192902E+03 -0.24955749708E+03 -0.17241255952E+04  0.18019295322E+04  0.50400001928E-02 0.  1.
</event>
<event>
 5   0  0.1237580E-06  0.3099553E+04  0.7818609E-02  0.8215861E-01
        2   -1    0    0  501    0  0.00000000000E+00  0.00000000000E+00  0.28628572075E+04  0.28628572075E+04  0.25500000920E-02 0.  1.
       -2   -1    0    0    0  501  0.00000000000E+00  0.00000000000E+00 -0.83895451459E+03  0.83895451459E+03  0.25500000920E-02 0. -1.
    10030    2    1    2    0    0  0.00000000000E+00  0.00000000000E+00  0.20239026929E+04  0.37018117221E+04  0.30995528573E+04 0.  0.
        4    1    3    3  502    0 -0.63588344626E+03 -0.77352308140E+03 -0.40072511128E+03  0.10785489986E+04  0.12699999809E+01 0. -1.
       -4    1    3    3    0  502  0.63588344626E+03  0.77352308140E+03  0.24246278042E+04  0.26232627235E+04  0.12699999809E+01 0.  1.
</event>
<event>
 5   0  0.1193123E-06  0.3098073E+04  0.7818609E-02  0.8216267E-01
        2   -1    0    0  501    0  0.00000000000E+00  0.00000000000E+00  0.23925033329E+04  0.23925033329E+04  0.25500000920E-02 0. -1.
       -2   -1    0    0    0  501  0.00000000000E+00  0.00000000000E+00 -0.10029301448E+04  0.10029301448E+04  0.25500000920E-02 0.  1.
    10030    2    1    2    0    0  0.00000000000E+00  0.00000000000E+00  0.13895731882E+04  0.33954334777E+04  0.30980727648E+04 0.  0.
        3    1    3    3  502    0  0.80524183375E+03 -0.63626572326E+03 -0.57686730125E+03  0.11772953643E+04  0.10100000352E+00 0.  1.
       -3    1    3    3    0  502 -0.80524183375E+03  0.63626572326E+03  0.19664404894E+04  0.22181381134E+04  0.10100000352E+00 0. -1.
</event>
<event>
 5   0  0.4173905E-07  0.3105621E+04  0.7818609E-02  0.8214197E-01
       -1   -1    0    0    0  501  0.00000000000E+00  0.00000000000E+00  0.11489795348E+04  0.11489795348E+04  0.50400001928E-02 0.  1.
        1   -1    0    0  501    0  0.00000000000E+00  0.00000000000E+00 -0.20985760344E+04  0.20985760344E+04  0.50400001928E-02 0. -1.
    10030    2    1    2    0    0  0.00000000000E+00  0.00000000000E+00 -0.94959649959E+03  0.32475555692E+04  0.31056213006E+04 0.  0.
        3    1    3    3  502    0 -0.85149800248E+03 -0.58323511971E+03 -0.16879972741E+04  0.19785213824E+04  0.10100000352E+00 0. -1.
       -3    1    3    3    0  502  0.85149800248E+03  0.58323511971E+03  0.73840077454E+03  0.12690341867E+04  0.10100000352E+00 0.  1.
</event>
<event>
 5   0  0.3935852E-07  0.3101843E+04  0.7818609E-02  0.8215232E-01
       -1   -1    0    0    0  501  0.00000000000E+00  0.00000000000E+00  0.12184478052E+04  0.12184478053E+04  0.50400001928E-02 0. -1.
        1   -1    0    0  501    0  0.00000000000E+00  0.00000000000E+00 -0.19741156357E+04  0.19741156357E+04  0.50400001928E-02 0.  1.
    10030    2    1    2    0    0  0.00000000000E+00  0.00000000000E+00 -0.75566783047E+03  0.31925634410E+04  0.31018425903E+04 0.  0.
        5    1    3    3  502    0 -0.37689297171E+03 -0.71909634212E+02  0.11688189623E+04  0.12301947668E+04  0.46999998093E+01 0. -1.
       -5    1    3    3    0  502  0.37689297171E+03  0.71909634212E+02 -0.19244867928E+04  0.19623686742E+04  0.46999998093E+01 0.  1.
</event>
<event>
 5   0  0.4219337E-07  0.3095780E+04  0.7818609E-02  0.8216897E-01
        1   -1    0    0  501    0  0.00000000000E+00  0.00000000000E+00  0.85832675352E+03  0.85832675354E+03  0.50400001928E-02 0.  1.
       -1   -1    0    0    0  501  0.00000000000E+00  0.00000000000E+00 -0.27914349570E+04  0.27914349570E+04  0.50400001928E-02 0. -1.
    10030    2    1    2    0    0  0.00000000000E+00  0.00000000000E+00 -0.19331082035E+04  0.36497617105E+04  0.30957799045E+04 0.  0.
        4    1    3    3  502    0  0.14881484908E+04  0.40854058579E+03 -0.82473525151E+03  0.17497660383E+04  0.12699999809E+01 0.  1.
       -4    1    3    3    0  502 -0.14881484908E+04 -0.40854058579E+03 -0.11083729520E+04  0.18999956722E+04  0.12699999809E+01 0. -1.
</event>
<event>
 5   0  0.1200286E-06  0.3099380E+04  0.7818609E-02  0.8215908E-01
        2   -1    0    0  501    0  0.00000000000E+00  0.00000000000E+00  0.13081940213E+04  0.13081940213E+04  0.25500000920E-02 0.  1.
       -2   -1    0    0    0  501  0.00000000000E+00  0.00000000000E+00 -0.18357665400E+04  0.18357665400E+04  0.25500000920E-02 0. -1.
    10030    2    1    2    0    0  0.00000000000E+00  0.00000000000E+00 -0.52757251869E+03  0.31439605612E+04  0.30993798167E+04 0.  0.
        5    1    3    3  502    0 -0.12037387448E+04 -0.41926655730E+03  0.63022216001E+03  0.14219611362E+04  0.46999998093E+01 0.  1.
       -5    1    3    3    0  502  0.12037387448E+04  0.41926655730E+03 -0.11577946787E+04  0.17219994250E+04  0.46999998093E+01 0. -1.
</event>
<event>
 5   0  0.1176002E-06  0.3097177E+04  0.7818609E-02  0.8216513E-01
        2   -1    0    0  501    0  0.00000000000E+00  0.00000000000E+00  0.20785914593E+04  0.20785914593E+04  0.25500000920E-02 0. -1.
       -2   -1    0    0    0  501  0.00000000000E+00  0.00000000000E+00 -0.11537264024E+04  0.11537264024E+04  0.25500000920E-02 0.  1.
    10030    2    1    2    0    0  0.00000000000E+00  0.00000000000E+00  0.92486505681E+03  0.32323178617E+04  0.30971766798E+04 0.  0.
        2    1    3    3  502    0  0.74405041791E+03 -0.43820552816E+03  0.18040156890E+04  0.20000269287E+04  0.25500000920E-02 0. -1.
       -2    1    3    3    0  502 -0.74405041791E+03  0.43820552816E+03 -0.87915063224E+03  0.12322909330E+04  0.25500000920E-02 0.  1.
</event>
<event>
 5   0  0.1193123E-06  0.3109972E+04  0.7818609E-02  0.8213007E-01
        2   -1    0    0  501    0  0.00000000000E+00  0.00000000000E+00  0.14703431503E+04  0.14703431503E+04  0.25500000920E-02 0.  1.
       -2   -1    0    0    0  501  0.00000000000E+00  0.00000000000E+00 -0.16445011584E+04  0.16445011584E+04  0.25500000920E-02 0. -1.
    10030    2    1    2    0    0  0.00000000000E+00  0.00000000000E+00 -0.17415800816E+03  0.31148443087E+04  0.31099717130E+04 0.  0.
        3    1    3    3  502    0  0.36203970277E+03  0.17538330204E+03  0.14173226061E+04  0.14733076491E+04  0.10100000352E+00 0.  1.
       -3    1    3    3    0  502 -0.36203970277E+03 -0.17538330204E+03 -0.15914806142E+04  0.16415366596E+04  0.10100000352E+00 0. -1.
</event>
<event>
 5   0  0.1176002E-06  0.3106667E+04  0.7818609E-02  0.8213911E-01
       -2   -1    0    0    0  501  0.00000000000E+00  0.00000000000E+00  0.72387369826E+03  0.72387369827E+03  0.25500000920E-02 0. -1.
        2   -1    0    0  501    0  0.00000000000E+00  0.00000000000E+00 -0.33332403787E+04  0.33332403787E+04  0.25500000920E-02 0.  1.
    10030    2    1    2    0    0  0.00000000000E+00  0.00000000000E+00 -0.26093666804E+04  0.40571140769E+04  0.31066670501E+04 0.  0.
        2    1    3    3  502    0  0.12320658840E+04 -0.46436786491E+03 -0.22839627946E+03  0.13363340589E+04  0.25500000920E-02 0.  1.
       -2    1    3    3    0  502 -0.12320658840E+04  0.46436786491E+03 -0.23809704009E+04  0.27207800181E+04  0.25500000920E-02 0. -1.
</event>
<event>
 5   0  0.1193123E-06  0.3104819E+04  0.7818609E-02  0.8214417E-01
        2   -1    0    0  501    0  0.00000000000E+00  0.00000000000E+00  0.19177225069E+04  0.19177225069E+04  0.25500000920E-02 0. -1.
       -2   -1    0    0    0  501  0.00000000000E+00  0.00000000000E+00 -0.12566860576E+04  0.12566860576E+04  0.25500000920E-02 0.  1.
    10030    2    1    2    0    0  0.00000000000E+00  0.00000000000E+00  0.66103644926E+03  0.31744085645E+04  0.31048189234E+04 0.  0.
        3    1    3    3  502    0 -0.12249792548E+04 -0.33852586454E+03  0.12420163926E+04  0.17770139744E+04  0.10100000352E+00 0. -1.
       -3    1    3    3    0  502  0.12249792548E+04  0.33852586454E+03 -0.58097994337E+03  0.13973945901E+04  0.10100000352E+00 0.  1.
</event>
<event>
 5   0  0.1200286E-06  0.3246240E+04  0.7818609E-02  0.8176711E-01
       -2   -1    0    0    0  501  0.00000000000E+00  0.00000000000E+00  0.99580506037E+03  0.99580506037E+03  0.25500000920E-02 0. -1.
        2   -1    0    0  501    0  0.00000000000E+00  0.00000000000E+00 -0.26456161871E+04  0.26456161871E+04  0.25500000920E-02 0.  1.
    10030    2    1    2    0    0  0.00000000000E+00  0.00000000000E+00 -0.16498111268E+04  0.36414212475E+04  0.32462396627E+04 0.  0.
        5    1    3    3  502    0 -0.33986411683E+03 -0.71634167910E+03  0.76378310427E+03  0.11009267639E+04  0.46999998093E+01 0. -1.
       -5    1    3    3    0  502  0.33986411683E+03  0.71634167910E+03 -0.24135942310E+04  0.25404944836E+04  0.46999998093E+01 0.  1.
</event>
<event>
 5   0  0.1237580E-06  0.3100341E+04  0.7818609E-02  0.8215644E-01
       -2   -1    0    0    0  501  0.00000000000E+00  0.00000000000E+00  0.10383122216E+04  0.10383122216E+04  0.25500000920E-02 0.  1.
        2   -1    0    0  501    0  0.00000000000E+00  0.00000000000E+00 -0.23143602492E+04  0.23143602492E+04  0.25500000920E-02 0. -1.
    10030    2    1    2    0    0  0.00000000000E+00  0.00000000000E+00 -0.12760480275E+04  0.33526724708E+04  0.31003409696E+04 0.  0.
        4    1    3    3  502    0  0.16358472682E+03 -0.95470875650E+03  0.67076776999E+03  0.11782019295E+04  0.12699999809E+01 0.  1.
       -4    1    3    3    0  502 -0.16358472682E+03  0.95470875650E+03 -0.19468157975E+04  0.21744705413E+04  0.12699999809E+01 0. -1.
</event>
<event>
 5   0  0.1237580E-06  0.3061984E+04  0.7818609E-02  0.8226249E-01
       -2   -1    0    0    0  501  0.00000000000E+00  0.00000000000E+00  0.13970728646E+04  0.13970728646E+04  0.25500000920E-02 0.  1.
        2   -1    0    0  501    0  0.00000000000E+00  0.00000000000E+00 -0.16777485127E+04  0.16777485127E+04  0.25500000920E-02 0. -1.
    10030    2    1    2    0    0  0.00000000000E+00  0.00000000000E+00 -0.28067564809E+03  0.30748213773E+04  0.30619842722E+04 0.  0.
        4    1    3    3  502    0 -0.14800534396E+04  0.13485866910E+03  0.22888593769E+03  0.15037072289E+04  0.12699999809E+01 0.  1.
       -4    1    3    3    0  502  0.14800534396E+04 -0.13485866910E+03 -0.50956158579E+03  0.15711141484E+04  0.12699999809E+01 0. -1.
</event>
<event>
 5   0  0.4330395E-07  0.3096333E+04  0.7818609E-02  0.8216745E-01
       -1   -1    0    0    0  501  0.00000000000E+00  0.00000000000E+00  0.16992205166E+04  0.16992205166E+04  0.50400001928E-02 0.  1.
        1   -1    0    0  501    0  0.00000000000E+00  0.00000000000E+00 -0.14105404439E+04  0.14105404439E+04  0.50400001928E-02 0. -1.
    10030    2    1    2    0    0  0.00000000000E+00  0.00000000000E+00  0.28868007273E+03  0.31097609606E+04  0.30963328386E+04 0.  0.
        1    1    3    3  502    0 -0.65913649043E+03 -0.10141423046E+04  0.11149024059E+04  0.16449780855E+04  0.50400001928E-02 0.  1.
       -1    1    3    3    0  502  0.65913649043E+03  0.10141423046E+04 -0.82622233321E+03  0.14647828750E+04  0.50400001928E-02 0. -1.
</event>
<event>
 5   0  0.1176002E-06  0.3105456E+04  0.7818609E-02  0.8214242E-01
        2   -1    0    0  501    0  0.00000000000E+00  0.00000000000E+00  0.17271946142E+04  0.17271946142E+04  0.25500000920E-02 0.  1.
       -2   -1    0    0    0  501  0.00000000000E+00  0.00000000000E+00 -0.13958845327E+04  0.13958845327E+04  0.25500000920E-02 0. -1.
    10030    2    1    2    0    0  0.00000000000E+00  0.00000000000E+00  0.33131008148E+03  0.31230791468E+04  0.31054560031E+04 0.  0.
        2    1    3    3  502    0  0.12558644495E+04  0.36118949729E+03 -0.67774045483E+03  0.14720684402E+04  0.25500000920E-02 0. -1.
       -2    1    3    3    0  502 -0.12558644495E+04 -0.36118949729E+03  0.10090505363E+04  0.16510107066E+04  0.25500000920E-02 0.  1.
</event>
<event>
 5   0  0.3935852E-07  0.2931830E+04  0.7818609E-02  0.8263470E-01
        1   -1    0    0  501    0  0.00000000000E+00  0.00000000000E+00  0.20113730538E+04  0.20113730538E+04  0.50400001928E-02 0. -1.
       -1   -1    0    0    0  501  0.00000000000E+00  0.00000000000E+00 -0.10683776733E+04  0.10683776733E+04  0.50400001928E-02 0.  1.
    10030    2    1    2    0    0  0.00000000000E+00  0.00000000000E+00  0.94299538058E+03  0.30797507271E+04  0.29318295062E+04 0.  0.
        5    1    3    3  502    0 -0.21086834161E+03  0.55574186463E+03 -0.93609811676E+03  0.11088806301E+04  0.46999998093E+01 0.  1.
       -5    1    3    3    0  502  0.21086834161E+03 -0.55574186463E+03  0.18790934973E+04  0.19708700970E+04  0.46999998093E+01 0. -1.
</event>
<event>
 5   0  0.4330395E-07  0.3094106E+04  0.7818609E-02  0.8217357E-01
        1   -1    0    0  501    0  0.00000000000E+00  0.00000000000E+00  0.18686627368E+04  0.18686627368E+04  0.50400001928E-02 0. -1.
       -1   -1    0    0    0  501  0.00000000000E+00  0.00000000000E+00 -0.12807941041E+04  0.12807941041E+04  0.50400001928E-02 0.  1.
    10030    2    1    2    0    0  0.00000000000E+00  0.00000000000E+00  0.58786863265E+03  0.31494568409E+04  0.30941055030E+04 0.  0.
        1    1    3    3  502    0  0.89171037171E+03  0.12205481515E+04 -0.41331651072E+02  0.15121486311E+04  0.50400001928E-02 0. -1.
       -1    1    3    3    0  502 -0.89171037171E+03 -0.12205481515E+04  0.62920028372E+03  0.16373082099E+04  0.50400001928E-02 0.  1.
</event>
<event>
 5   0  0.3935852E-07  0.3099965E+04  0.7818609E-02  0.8215748E-01
       -1   -1    0    0    0  501  0.00000000000E+00  0.00000000000E+00  0.12136267056E+04  0.12136267056E+04  0.50400001928E-02 0. -1.
        1   -1    0    0  501    0  0.00000000000E+00  0.00000000000E+00 -0.19795591020E+04  0.19795591020E+04  0.50400001928E-02 0.  1.
    10030    2    1    2    0    0  0.00000000000E+00  0.00000000000E+00 -0.76593239647E+03  0.31931858076E+04  0.30999650266E+04 0.  0.
        5    1    3    3  502    0 -0.49651652051E+02  0.15365803049E+04 -0.58607421736E+03  0.16453113377E+04  0.46999998093E+01 0. -1.
       -5    1    3    3    0  502  0.49651652051E+02 -0.15365803049E+04 -0.17985817911E+03  0.15478744699E+04  0.46999998093E+01 0.  1.
</event>
<event>
 5   0  0.1258262E-06  0.3079636E+04  0.7818609E-02  0.8221349E-01
        2   -1    0    0  501    0  0.00000000000E+00  0.00000000000E+00  0.23853018670E+04  0.23853018670E+04  0.25500000920E-02 0.  1.
       -2   -1    0    0    0  501  0.00000000000E+00  0.00000000000E+00 -0.99402095017E+03  0.99402095017E+03  0.25500000920E-02 0. -1.
    10030    2    1    2    0    0  0.00000000000E+00  0.00000000000E+00  0.13912809168E+04  0.33793228172E+04  0.30796363605E+04 0.  0.
        1    1    3    3  502    0 -0.32566690188E+03  0.86258932550E+03  0.20489075940E+04  0.22468069797E+04  0.50400001928E-02 0.  1.
       -1    1    3    3    0  502  0.32566690188E+03 -0.86258932550E+03 -0.65762667718E+03  0.11325158374E+04  0.50400001928E-02 0. -1.
</event>
<event>
 5   0  0.1193123E-06  0.3179330E+04  0.7818609E-02  0.8194298E-01
       -2   -1    0    0    0  501  0.00000000000E+00  0.00000000000E+00  0.73083946527E+03  0.73083946527E+03  0.25500000920E-02 0.  1.
        2   -1    0    0  501    0  0.00000000000E+00  0.00000000000E+00 -0.34577147555E+04  0.34577147555E+04  0.25500000920E-02 0. -1.
    10030    2    1    2    0    0  0.00000000000E+00  0.00000000000E+00 -0.27268752902E+04  0.41885542208E+04  0.31793297426E+04 0.  0.
        3    1    3    3  502    0  0.51224789315E+03  0.10774615601E+04 -0.27475032066E+04  0.29953455891E+04  0.10100000352E+00 0. -1.
       -3    1    3    3    0  502 -0.51224789315E+03 -0.10774615601E+04  0.20627916351E+02  0.11932086317E+04  0.10100000352E+00 0.  1.
</event>
<event>
 5   0  0.1200286E-06  0.3131548E+04  0.7818609E-02  0.8207133E-01
        2   -1    0    0  501    0  0.00000000000E+00  0.00000000000E+00  0.10116195479E+04  0.10116195479E+04  0.25500000920E-02 0. -1.
       -2   -1    0    0    0  501  0.00000000000E+00  0.00000000000E+00 -0.24234881319E+04  0.24234881319E+04  0.25500000920E-02 0.  1.
    10030    2    1    2    0    0  0.00000000000E+00  0.00000000000E+00 -0.14118685839E+04  0.34351076798E+04  0.31315478399E+04 0.  0.
        5    1    3    3  502    0 -0.29771543441E+02 -0.95022790100E+03  0.65877338147E+03  0.11566433620E+04  0.46999998093E+01 0. -1.
       -5    1    3    3    0  502  0.29771543441E+02  0.95022790100E+03 -0.20706419654E+04  0.22784643178E+04  0.46999998093E+01 0.  1.
</event>
<event>
 5   0  0.3935852E-07  0.3092366E+04  0.7818609E-02  0.8217836E-01
        1   -1    0    0  501    0  0.00000000000E+00  0.00000000000E+00  0.20680032559E+04  0.20680032559E+04  0.50400001928E-02 0. -1.
       -1   -1    0    0    0  501  0.00000000000E+00  0.00000000000E+00 -0.11560339548E+04  0.11560339549E+04  0.50400001928E-02 0.  1.
    10030    2    1    2    0    0  0.00000000000E+00  0.00000000000E+00  0.91196930109E+03  0.32240372108E+04  0.30923660732E+04 0.  0.
        5    1    3    3  502    0  0.24250829970E+03  0.77195885290E+03 -0.91766235354E+03  0.12234610869E+04  0.46999998093E+01 0.  1.
       -5    1    3    3    0  502 -0.24250829970E+03 -0.77195885290E+03  0.18296316546E+04  0.20005761239E+04  0.46999998093E+01 0. -1.
</event>
<event>
 5   0  0.1193123E-06  0.3111489E+04  0.7818609E-02  0.8212592E-01
       -2   -1    0    0    0  501  0.00000000000E+00  0.00000000000E+00  0.11404239937E+04  0.11404239938E+04  0.25500000920E-02 0.  1.
        2   -1    0    0  501    0  0.00000000000E+00  0.00000000000E+00 -0.21223166497E+04  0.21223166497E+04  0.25500000920E-02 0. -1.
    10030    2    1    2    0    0  0.00000000000E+00  0.00000000000E+00 -0.98189265597E+03  0.32627406435E+04  0.31114889231E+04 0.  0.
        3    1    3    3  502    0  0.14324779858E+03 -0.13859810092E+04  0.23470254215E+03  0.14129927753E+04  0.10100000352E+00 0.  1.
       -3    1    3    3    0  502 -0.14324779858E+03  0.13859810092E+04 -0.12165951981E+04  0.18497478682E+04  0.10100000352E+00 0. -1.
</event>
<event>
 5   0  0.1237580E-06  0.3094839E+04  0.7818609E-02  0.8217156E-01
       -2   -1    0    0    0  501  0.00000000000E+00  0.00000000000E+00  0.12019609685E+04  0.12019609685E+04  0.25500000920E-02 0. -1.
        2   -1    0    0  501    0  0.00000000000E+00  0.00000000000E+00 -0.19921672622E+04  0.19921672622E+04  0.25500000920E-02 0.  1.
    10030    2    1    2    0    0  0.00000000000E+00  0.00000000000E+00 -0.79020629363E+03  0.31941282307E+04  0.30948391182E+04 0.  0.
        4    1    3    3  502    0  0.63774550668E+03 -0.62367218234E+03  0.90990724024E+03  0.12742131380E+04  0.12699999809E+01 0. -1.
       -4    1    3    3    0  502 -0.63774550668E+03  0.62367218234E+03 -0.17001135339E+04  0.19199150927E+04  0.12699999809E+01 0.  1.
</event>
<event>
 5   0  0.1200286E-06  0.3077639E+04  0.7818609E-02  0.8221902E-01
        2   -1    0    0  501    0  0.00000000000E+00  0.00000000000E+00  0.18330415463E+04  0.18330415463E+04  0.25500000920E-02 0.  1.
       -2   -1    0    0    0  501  0.00000000000E+00  0.00000000000E+00 -0.12918227437E+04  0.12918227437E+04  0.25500000920E-02 0. -1.
    10030    2    1    2    0    0  0.00000000000E+00  0.00000000000E+00  0.54121880261E+03  0.31248642900E+04  0.30776385491E+04 0.  0.
        5    1    3    3  502    0 -0.14763989987E+04  0.38423432616E+03  0.47507637134E+03  0.15978453209E+04  0.46999998093E+01 0. -1.
       -5    1    3    3    0  502  0.14763989987E+04 -0.38423432616E+03  0.66142431268E+02  0.15270189691E+04  0.46999998093E+01 0.  1.
</event>
<event>
 5   0  0.3935852E-07  0.3069237E+04  0.7818609E-02  0.8224232E-01
       -1   -1    0    0    0  501  0.00000000000E+00  0.00000000000E+00  0.25494855310E+04  0.25494855310E+04  0.50400001928E-02 0. -1.
        1   -1    0    0  501    0  0.00000000000E+00  0.00000000000E+00 -0.92373703152E+03  0.92373703153E+03  0.50400001928E-02 0.  1.
    10030    2    1    2    0    0  0.00000000000E+00  0.00000000000E+00  0.16257484994E+04  0.34732225625E+04  0.30692371667E+04 0.  0.
        5    1    3    3  502    0  0.17967340473E+03 -0.49009970869E+03  0.24459264850E+04  0.25010115387E+04  0.46999998093E+01 0. -1.
       -5    1    3    3    0  502 -0.17967340473E+03  0.49009970869E+03 -0.82017798554E+03  0.97221102379E+03  0.46999998093E+01 0.  1.
</event>
<event>
 5   0  0.1193123E-06  0.3107802E+04  0.7818609E-02  0.8213600E-01
        2   -1    0    0  501    0  0.00000000000E+00  0.00000000000E+00  0.12145514086E+04  0.12145514086E+04  0.25500000920E-02 0.  1.
       -2   -1    0    0    0  501  0.00000000000E+00  0.00000000000E+00 -0.19880658440E+04  0.19880658440E+04  0.25500000920E-02 0. -1.
    10030    2    1    2    0    0  0.00000000000E+00  0.00000000000E+00 -0.77351443533E+03  0.32026172526E+04  0.31078019057E+04 0.  0.
        3    1    3    3  502    0  0.11635605115E+04  0.74402490200E+03 -0.11206372667E+04  0.17785595330E+04  0.10100000352E+00 0.  1.
       -3    1    3    3    0  502 -0.11635605115E+04 -0.74402490200E+03  0.34712283134E+03  0.14240577196E+04  0.10100000352E+00 0. -1.
</event>
<event>
 5   0  0.1258262E-06  0.3101407E+04  0.7818609E-02  0.8215352E-01
        2   -1    0    0  501    0  0.00000000000E+00  0.00000000000E+00  0.15254256605E+04  0.15254256605E+04  0.25500000920E-02 0. -1.
       -2   -1    0    0    0  501  0.00000000000E+00  0.00000000000E+00 -0.15764007128E+04  0.15764007128E+04  0.25500000920E-02 0.  1.
    10030    2    1    2    0    0  0.00000000000E+00  0.00000000000E+00 -0.50975052354E+02  0.31018263733E+04  0.31014074860E+04 0.  0.
        1    1    3    3  502    0 -0.55189121623E+03  0.56284168120E+03  0.13100981799E+04  0.15289643271E+04  0.50400001928E-02 0. -1.
       -1    1    3    3    0  502  0.55189121623E+03 -0.56284168120E+03 -0.13610732323E+04  0.15728620462E+04  0.50400001928E-02 0.  1.
</event>
<event>
 5   0  0.1237580E-06  0.3099323E+04  0.7818609E-02  0.8215924E-01
       -2   -1    0    0    0  501  0.00000000000E+00  0.00000000000E+00  0.16957088345E+04  0.16957088345E+04  0.25500000920E-02 0.  1.
        2   -1    0    0  501    0  0.00000000000E+00  0.00000000000E+00 -0.14161931048E+04  0.14161931048E+04  0.25500000920E-02 0. -1.
    10030    2    1    2    0    0  0.00000000000E+00  0.00000000000E+00  0.27951572970E+03  0.31119019392E+04  0.30993232546E+04 0.  0.
        4    1    3    3  502    0 -0.11731534082E+04  0.14519988544E+03 -0.86634566349E+03  0.14655812320E+04  0.12699999809E+01 0. -1.
       -4    1    3    3    0  502  0.11731534082E+04 -0.14519988544E+03  0.11458613932E+04  0.16463207073E+04  0.12699999809E+01 0.  1.
</event>
<event>
 5   0  0.1258262E-06  0.3104410E+04  0.7818609E-02  0.8214529E-01
        2   -1    0    0  501    0  0.00000000000E+00  0.00000000000E+00  0.20573121806E+04  0.20573121806E+04  0.25500000920E-02 0.  1.
       -2   -1    0    0    0  501  0.00000000000E+00  0.00000000000E+00 -0.11711103767E+04  0.11711103767E+04  0.25500000920E-02 0. -1.
    10030    2    1    2    0    0  0.00000000000E+00  0.00000000000E+00  0.88620180388E+03  0.32284225573E+04  0.31044095366E+04 0.  0.
        1    1    3    3  502    0 -0.99341019438E+03  0.81093419420E+03 -0.46639926264E+03  0.13645535365E+04  0.50400001928E-02 0. -1.
       -1    1    3    3    0  502  0.99341019438E+03 -0.81093419420E+03  0.13526010665E+04  0.18638690208E+04  0.50400001928E-02 0.  1.
</event>
<event>
 5   0  0.1193123E-06  0.3101216E+04  0.7818609E-02  0.8215404E-01
        2   -1    0    0  501    0  0.00000000000E+00  0.00000000000E+00  0.30634899523E+04  0.30634899523E+04  0.25500000920E-02 0. -1.
       -2   -1    0    0    0  501  0.00000000000E+00  0.00000000000E+00 -0.78485187816E+03  0.78485187816E+03  0.25500000920E-02 0.  1.
    10030    2    1    2    0    0  0.00000000000E+00  0.00000000000E+00  0.22786380742E+04  0.38483418305E+04  0.31012164341E+04 0.  0.
        3    1    3    3  502    0  0.40365403952E+03 -0.33889533235E+03 -0.67028846517E+03  0.85268591325E+03  0.10100000352E+00 0.  1.
       -3    1    3    3    0  502 -0.40365403952E+03  0.33889533235E+03  0.29489265394E+04  0.29956559173E+04  0.10100000352E+00 0. -1.
</event>
<event>
 5   0  0.1176002E-06  0.2979996E+04  0.7818609E-02  0.8249466E-01
       -2   -1    0    0    0  501  0.00000000000E+00  0.00000000000E+00  0.11561421980E+04  0.11561421980E+04  0.25500000920E-02 0. -1.
        2   -1    0    0  501    0  0.00000000000E+00  0.00000000000E+00 -0.19202602918E+04  0.19202602918E+04  0.25500000920E-02 0.  1.
    10030    2    1    2    0    0  0.00000000000E+00  0.00000000000E+00 -0.76411809373E+03  0.30764024898E+04  0.29799959426E+04 0.  0.
        2    1    3    3  502    0 -0.58448196843E+03 -0.80651528458E+03 -0.15260644036E+04  0.18223497577E+04  0.25500000920E-02 0.  1.
       -2    1    3    3    0  502  0.58448196843E+03  0.80651528458E+03  0.76194630984E+03  0.12540527321E+04  0.25500000920E-02 0. -1.
</event>
<event>
 5   0  0.1258262E-06  0.3116988E+04  0.7818609E-02  0.8211091E-01
        2   -1    0    0  501    0  0.00000000000E+00  0.00000000000E+00  0.13531931983E+04  0.13531931983E+04  0.25500000920E-02 0. -1.
       -2   -1    0    0    0  501  0.00000000000E+00  0.00000000000E+00 -0.17949416037E+04  0.17949416037E+04  0.25500000920E-02 0.  1.
    10030    2    1    2    0    0  0.00000000000E+00  0.00000000000E+00 -0.44174840539E+03  0.31481348019E+04  0.31169875004E+04 0.  0.
        1    1    3    3  502    0  0.43974645040E+03  0.14197958502E+04 -0.69428569436E+03  0.16404968218E+04  0.50400001928E-02 0. -1.
       -1    1    3    3    0  502 -0.43974645040E+03 -0.14197958502E+04  0.25253728897E+03  0.15076379802E+04  0.50400001928E-02 0.  1.
</event>
<event>
 5   0  0.1176002E-06  0.3090782E+04  0.7818609E-02  0.8218272E-01
        2   -1    0    0  501    0  0.00000000000E+00  0.00000000000E+00  0.25160310846E+04  0.25160310846E+04  0.25500000920E-02 0. -1.
       -2   -1    0    0    0  501  0.00000000000E+00  0.00000000000E+00 -0.94920691226E+03  0.94920691227E+03  0.25500000920E-02 0.  1.
    10030    2    1    2    0    0  0.00000000000E+00  0.00000000000E+00  0.15668241724E+04  0.34652379969E+04  0.30907824880E+04 0.  0.
        2    1    3    3  502    0  0.36842266645E+03 -0.14619944441E+04  0.11637308232E+04  0.19045819605E+04  0.25500000920E-02 0. -1.
       -2    1    3    3    0  502 -0.36842266645E+03  0.14619944441E+04  0.40309334921E+03  0.15606560364E+04  0.25500000920E-02 0.  1.
</event>
<event>
 5   0  0.4330395E-07  0.3096001E+04  0.7818609E-02  0.8216836E-01
        1   -1    0    0  501    0  0.00000000000E+00  0.00000000000E+00  0.12742253804E+04  0.12742253804E+04  0.50400001928E-02 0. -1.
       -1   -1    0    0    0  501  0.00000000000E+00  0.00000000000E+00 -0.18805975241E+04  0.18805975241E+04  0.50400001928E-02 0.  1.
    10030    2    1    2    0    0  0.00000000000E+00  0.00000000000E+00 -0.60637214362E+03  0.31548229045E+04  0.30960007077E+04 0.  0.
        1    1    3    3  502    0  0.35768199422E+03  0.10912196600E+04  0.75461598198E+03  0.13740968072E+04  0.50400001928E-02 0. -1.
       -1    1    3    3    0  502 -0.35768199422E+03 -0.10912196600E+04 -0.13609881256E+04  0.17807260973E+04  0.50400001928E-02 0.  1.
</event>
<event>
 5   0  0.4134019E-07  0.3088406E+04  0.7818609E-02  0.8218927E-01
        1   -1    0    0  501    0  0.00000000000E+00  0.00000000000E+00  0.29243169314E+04  0.29243169314E+04  0.50400001928E-02 0.  1.
       -1   -1    0    0    0  501  0.00000000000E+00  0.00000000000E+00 -0.81542579987E+03  0.81542579989E+03  0.50400001928E-02 0. -1.
    10030    2    1    2    0    0  0.00000000000E+00  0.00000000000E+00  0.21088911316E+04  0.37397427313E+04  0.30884063676E+04 0.  0.
        2    1    3    3  502    0 -0.98341792239E+03 -0.11756910478E+04  0.82725070664E+03  0.17417531345E+04  0.25500000920E-02 0. -1.
       -2    1    3    3    0  502  0.98341792239E+03  0.11756910478E+04  0.12816404249E+04  0.19979895968E+04  0.25500000920E-02 0.  1.
</event>
<event>
 5   0  0.4219337E-07  0.3095481E+04  0.7818609E-02  0.8216979E-01
       -1   -1    0    0    0  501  0.00000000000E+00  0.00000000000E+00  0.10414521224E+04  0.10414521224E+04  0.50400001928E-02 0.  1.
        1   -1    0    0  501    0  0.00000000000E+00  0.00000000000E+00 -0.23001546622E+04  0.23001546622E+04  0.50400001928E-02 0. -1.
    10030    2    1    2    0    0  0.00000000000E+00  0.00000000000E+00 -0.12587025398E+04  0.33416067845E+04  0.30954811934E+04 0.  0.
        4    1    3    3  502    0 -0.65136000649E+03 -0.71749000633E+03  0.67343481613E+03  0.11800753500E+04  0.12699999809E+01 0. -1.
       -4    1    3    3    0  502  0.65136000649E+03  0.71749000633E+03 -0.19321373559E+04  0.21615314345E+04  0.12699999809E+01 0.  1.
</event>
<event>
 5   0  0.3935852E-07  0.3061137E+04  0.7818609E-02  0.8226485E-01
       -1   -1    0    0    0  501  0.00000000000E+00  0.00000000000E+00  0.29014353799E+04  0.29014353799E+04  0.50400001928E-02 0. -1.
        1   -1    0    0  501    0  0.00000000000E+00  0.00000000000E+00 -0.80740733714E+03  0.80740733716E+03  0.50400001928E-02 0.  1.
    10030    2    1    2    0    0  0.00000000000E+00  0.00000000000E+00  0.20940280428E+04  0.37088427171E+04  0.30611371835E+04 0.  0.
        5    1    3    3  502    0 -0.57981477814E+03 -0.10920776579E+04  0.21399992416E+04  0.24715253654E+04  0.46999998093E+01 0. -1.
       -5    1    3    3    0  502  0.57981477814E+03  0.10920776579E+04 -0.45971198796E+02  0.12373173517E+04  0.46999998093E+01 0.  1.
</event>
<event>
 5   0  0.1193123E-06  0.3106476E+04  0.7818609E-02  0.8213963E-01
       -2   -1    0    0    0  501  0.00000000000E+00  0.00000000000E+00  0.14699127559E+04  0.14699127559E+04  0.25500000920E-02 0. -1.
        2   -1    0    0  501    0  0.00000000000E+00  0.00000000000E+00 -0.16412866939E+04  0.16412866939E+04  0.25500000920E-02 0.  1.
    10030    2    1    2    0    0  0.00000000000E+00  0.00000000000E+00 -0.17137393802E+03  0.31111994498E+04  0.31064759760E+04 0.  0.
        3    1    3    3  502    0 -0.68503930486E+03 -0.13920429650E+04 -0.15986558265E+03  0.15596856992E+04  0.10100000352E+00 0.  1.
       -3    1    3    3    0  502  0.68503930486E+03  0.13920429650E+04 -0.11508355361E+02  0.15515137505E+04  0.10100000352E+00 0. -1.
</event>
<event>
 5   0  0.1193123E-06  0.3097865E+04  0.7818609E-02  0.8216324E-01
       -2   -1    0    0    0  501  0.00000000000E+00  0.00000000000E+00  0.98532922520E+03  0.98532922520E+03  0.25500000920E-02 0. -1.
        2   -1    0    0  501    0  0.00000000000E+00  0.00000000000E+00 -0.24349140669E+04  0.24349140669E+04  0.25500000920E-02 0.  1.
    10030    2    1    2    0    0  0.00000000000E+00  0.00000000000E+00 -0.14495848417E+04  0.34202432921E+04  0.30978650655E+04 0.  0.
        3    1    3    3  502    0  0.60746900602E+01  0.20954357041E+03 -0.24191797410E+04  0.24282454652E+04  0.10100000352E+00 0.  1.
       -3    1    3    3    0  502 -0.60746900602E+01 -0.20954357041E+03  0.96959489927E+03  0.99199782694E+03  0.10100000352E+00 0. -1.
</event>
<event>
 5   0  0.4173905E-07  0.3082275E+04  0.7818609E-02  0.8220619E-01
       -1   -1    0    0    0  501  0.00000000000E+00  0.00000000000E+00  0.10881588259E+04  0.10881588259E+04  0.50400001928E-02 0.  1.
        1   -1    0    0  501    0  0.00000000000E+00  0.00000000000E+00 -0.21826816280E+04  0.21826816280E+04  0.50400001928E-02 0. -1.
    10030    2    1    2    0    0  0.00000000000E+00  0.00000000000E+00 -0.10945228021E+04  0.32708404539E+04  0.30822746650E+04 0.  0.
        3    1    3    3  502    0  0.46171028122E+03 -0.58280244103E+03 -0.19797602811E+04  0.21147779670E+04  0.10100000352E+00 0. -1.
       -3    1    3    3    0  502 -0.46171028122E+03  0.58280244103E+03  0.88523747902E+03  0.11560624869E+04  0.10100000352E+00 0.  1.
</event>
<event>
 5   0  0.4219337E-07  0.3097279E+04  0.7818609E-02  0.8216485E-01
       -1   -1    0    0    0  501  0.00000000000E+00  0.00000000000E+00  0.18365784614E+04  0.18365784614E+04  0.50400001928E-02 0. -1.
        1   -1    0    0  501    0  0.00000000000E+00  0.00000000000E+00 -0.13058432961E+04  0.13058432961E+04  0.50400001928E-02 0.  1.
    10030    2    1    2    0    0  0.00000000000E+00  0.00000000000E+00  0.53073516536E+03  0.31424217575E+04  0.30972785936E+04 0.  0.
        4    1    3    3  502    0 -0.14045137013E+04 -0.64592018210E+03  0.35841269352E+03  0.15869256097E+04  0.12699999809E+01 0.  1.
       -4    1    3    3    0  502  0.14045137013E+04  0.64592018210E+03  0.17232247184E+03  0.15554961479E+04  0.12699999809E+01 0. -1.
</event>
<event>
 5   0  0.3935852E-07  0.3109797E+04  0.7818609E-02  0.8213054E-01
        1   -1    0    0  501    0  0.00000000000E+00  0.00000000000E+00  0.27554504216E+04  0.27554504216E+04  0.50400001928E-02 0. -1.
       -1   -1    0    0    0  501  0.00000000000E+00  0.00000000000E+00 -0.87742787480E+03  0.87742787482E+03  0.50400001928E-02 0.  1.
    10030    2    1    2    0    0  0.00000000000E+00  0.00000000000E+00  0.18780225468E+04  0.36328782965E+04  0.31097967828E+04 0.  0.
        5    1    3    3  502    0  0.80253060876E+03  0.40064369032E+03  0.24227302858E+04  0.25834501877E+04  0.46999998093E+01 0. -1.
       -5    1    3    3    0  502 -0.80253060876E+03 -0.40064369032E+03 -0.54470773896E+03  0.10494281088E+04  0.46999998093E+01 0.  1.
</event>
<event>
 5   0  0.1237580E-06  0.3073326E+04  0.7818609E-02  0.8223097E-01
       -2   -1    0    0    0  501  0.00000000000E+00  0.00000000000E+00  0.12615884161E+04  0.12615884161E+04  0.25500000920E-02 0.  1.
        2   -1    0    0  501    0  0.00000000000E+00  0.00000000000E+00 -0.18717143786E+04  0.18717143786E+04  0.25500000920E-02 0. -1.
    10030    2    1    2    0    0  0.00000000000E+00  0.00000000000E+00 -0.61012596249E+03  0.31333027947E+04  0.30733260018E+04 0.  0.
        4    1    3    3  502    0  0.79552144669E+03 -0.64171405910E+03 -0.14749229979E+04  0.17944499905E+04  0.12699999809E+01 0. -1.
       -4    1    3    3    0  502 -0.79552144669E+03  0.64171405910E+03  0.86479703545E+03  0.13388528042E+04  0.12699999809E+01 0.  1.
</event>
<event>
 5   0  0.1237580E-06  0.3105897E+04  0.7818609E-02  0.8214121E-01
        2   -1    0    0  501    0  0.00000000000E+00  0.00000000000E+00  0.27498085396E+04  0.27498085396E+04  0.25500000920E-02 0.  1.
       -2   -1    0    0    0  501  0.00000000000E+00  0.00000000000E+00 -0.87702437377E+03  0.87702437378E+03  0.25500000920E-02 0. -1.
    10030    2    1    2    0    0  0.00000000000E+00  0.00000000000E+00  0.18727841658E+04  0.36268329133E+04  0.31058970443E+04 0.  0.
        4    1    3    3  502    0  0.14196161168E+04 -0.38606022073E+03  0.35569688237E+03  0.15135634437E+04  0.12699999809E+01 0. -1.
       -4    1    3    3    0  502 -0.14196161168E+04  0.38606022073E+03  0.15170872834E+04  0.21132694697E+04  0.12699999809E+01 0.  1.
</event>
<event>
 5   0  0.1193123E-06  0.3066833E+04  0.7818609E-02  0.8224900E-01
        2   -1    0    0  501    0  0.00000000000E+00  0.00000000000E+00  0.22757522565E+04  0.22757522565E+04  0.25500000920E-02 0. -1.
       -2   -1    0    0    0  501  0.00000000000E+00  0.00000000000E+00 -0.10332259009E+04  0.10332259009E+04  0.25500000920E-02 0.  1.
    10030    2    1    2    0    0  0.00000000000E+00  0.00000000000E+00  0.12425263556E+04  0.33089781574E+04  0.30668330084E+04 0.  0.
        3    1    3    3  502    0 -0.67123283266E+03 -0.41229394937E+03  0.20407472392E+04  0.21875075133E+04  0.10100000352E+00 0. -1.
       -3    1    3    3    0  502  0.67123283266E+03  0.41229394937E+03 -0.79822088360E+03  0.11214706441E+04  0.10100000352E+00 0.  1.
</event>
<event>
 5   0  0.4330395E-07  0.3102678E+04  0.7818609E-02  0.8215003E-01
       -1   -1    0    0    0  501  0.00000000000E+00  0.00000000000E+00  0.14961126359E+04  0.14961126359E+04  0.50400001928E-02 0. -1.
        1   -1    0    0  501    0  0.00000000000E+00  0.00000000000E+00 -0.16086043156E+04  0.16086043156E+04  0.50400001928E-02 0.  1.
    10030    2    1    2    0    0  0.00000000000E+00  0.00000000000E+00 -0.11249167971E+03  0.31047169515E+04  0.31026783545E+04 0.  0.
        1    1    3    3  502    0  0.43896183786E+03 -0.12595280460E+04  0.73645825531E+03  0.15236368188E+04  0.50400001928E-02 0. -1.
       -1    1    3    3    0  502 -0.43896183786E+03  0.12595280460E+04 -0.84894993502E+03  0.15810801327E+04  0.50400001928E-02 0.  1.
</event>
<event>
 5   0  0.1237580E-06  0.3110059E+04  0.7818609E-02  0.8212983E-01
       -2   -1    0    0    0  501  0.00000000000E+00  0.00000000000E+00  0.12754198841E+04  0.12754198841E+04  0.25500000920E-02 0.  1.
        2   -1    0    0  501    0  0.00000000000E+00  0.00000000000E+00 -0.18959378971E+04  0.18959378971E+04  0.25500000920E-02 0. -1.
    10030    2    1    2    0    0  0.00000000000E+00  0.00000000000E+00 -0.62051801302E+03  0.31713577813E+04  0.31100590947E+04 0.  0.
        4    1    3    3  502    0 -0.43749080720E+03  0.14865137392E+04 -0.17732866710E+03  0.15596693150E+04  0.12699999809E+01 0. -1.
       -4    1    3    3    0  502  0.43749080720E+03 -0.14865137392E+04 -0.44318934592E+03  0.16116884663E+04  0.12699999809E+01 0.  1.
</event>
<event>
 5   0  0.4219337E-07  0.3117592E+04  0.7818609E-02  0.8210927E-01
       -1   -1    0    0    0  501  0.00000000000E+00  0.00000000000E+00  0.21097177719E+04  0.21097177719E+04  0.50400001928E-02 0. -1.
        1   -1    0    0  501    0  0.00000000000E+00  0.00000000000E+00 -0.11517390671E+04  0.11517390671E+04  0.50400001928E-02 0.  1.
    10030    2    1    2    0    0  0.00000000000E+00  0.00000000000E+00  0.95797870472E+03  0.32614568390E+04  0.31175916208E+04 0.  0.
        4    1    3    3  502    0 -0.23070226232E+03 -0.13497560008E+04 -0.30021615543E+03  0.14018545389E+04  0.12699999809E+01 0. -1.
       -4    1    3    3    0  502  0.23070226232E+03  0.13497560008E+04  0.12581948601E+04  0.18596023001E+04  0.12699999809E+01 0.  1.
</event>
<event>
 5   0  0.1258262E-06  0.3088987E+04  0.7818609E-02  0.8218767E-01
        2   -1    0    0  501    0  0.00000000000E+00  0.00000000000E+00  0.26192266498E+04  0.26192266498E+04  0.25500000920E-02 0. -1.
       -2   -1    0    0    0  501  0.00000000000E+00  0.00000000000E+00 -0.91074968538E+03  0.91074968539E+03  0.25500000920E-02 0.  1.
    10030    2    1    2    0    0  0.00000000000E+00  0.00000000000E+00  0.17084769644E+04  0.35299763351E+04  0.30889867900E+04 0.  0.
        1    1    3    3  502    0  0.13460752326E+03  0.14076945180E+04  0.15639817518E+04  0.21084975601E+04  0.50400001928E-02 0. -1.
       -1    1    3    3    0  502 -0.13460752326E+03 -0.14076945180E+04  0.14449521261E+03  0.14214787750E+04  0.50400001928E-02 0.  1.
</event>
<event>
 5   0  0.1200286E-06  0.3104174E+04  0.7818609E-02  0.8214593E-01
        2   -1    0    0  501    0  0.00000000000E+00  0.00000000000E+00  0.23831467440E+04  0.23831467440E+04  0.25500000920E-02 0.  1.
       -2   -1    0    0    0  501  0.00000000000E+00  0.00000000000E+00 -0.10108378006E+04  0.10108378006E+04  0.25500000920E-02 0. -1.
    10030    2    1    2    0    0  0.00000000000E+00  0.00000000000E+00  0.13723089434E+04  0.33939845446E+04  0.31041744881E+04 0.  0.
        5    1    3    3  502    0  0.58479168969E+03 -0.14367067233E+04  0.62783418010E+03  0.16734112993E+04  0.46999998093E+01 0. -1.
       -5    1    3    3    0  502 -0.58479168969E+03  0.14367067233E+04  0.74447476334E+03  0.17205732453E+04  0.46999998093E+01 0.  1.
</event>
<event>
 5   0  0.4330395E-07  0.3085545E+04  0.7818609E-02  0.8219716E-01
        1   -1    0    0  501    0  0.00000000000E+00  0.00000000000E+00  0.18427196849E+04  0.18427196849E+04  0.50400001928E-02 0.  1.
       -1   -1    0    0    0  501  0.00000000000E+00  0.00000000000E+00 -0.12916488124E+04  0.12916488125E+04  0.50400001928E-02 0. -1.
    10030    2    1    2    0    0  0.00000000000E+00  0.00000000000E+00  0.55107087250E+03  0.31343684974E+04  0.30855448094E+04 0.  0.
        1    1    3    3  502    0  0.11528867402E+04 -0.98931276466E+03  0.24714020922E+01  0.15191753322E+04  0.50400001928E-02 0.  1.
       -1    1    3    3    0  502 -0.11528867402E+04  0.98931276466E+03  0.54859947041E+03  0.16151931652E+04  0.50400001928E-02 0. -1.
</event>
<event>
 5   0  0.4330395E-07  0.3083435E+04  0.7818609E-02  0.8220299E-01
        1   -1    0    0  501    0  0.00000000000E+00  0.00000000000E+00  0.30997234958E+04  0.30997234958E+04  0.50400001928E-02 0. -1.
       -1   -1    0    0    0  501  0.00000000000E+00  0.00000000000E+00 -0.76680778461E+03  0.76680778462E+03  0.50400001928E-02 0.  1.
    10030    2    1    2    0    0  0.00000000000E+00  0.00000000000E+00  0.23329157112E+04  0.38665312804E+04  0.30834345180E+04 0.  0.
        1    1    3    3  502    0  0.10613325100E+04 -0.61879528232E+03 -0.15237673783E+01  0.12285506176E+04  0.50400001928E-02 0.  1.
       -1    1    3    3    0  502 -0.10613325100E+04  0.61879528232E+03  0.23344394786E+04  0.26379806628E+04  0.50400001928E-02 0. -1.
</event>
<event>
 5   0  0.4219337E-07  0.3100968E+04  0.7818609E-02  0.8215472E-01
        1   -1    0    0  501    0  0.00000000000E+00  0.00000000000E+00  0.18485822344E+04  0.18485822344E+04  0.50400001928E-02 0.  1.
       -1   -1    0    0    0  501  0.00000000000E+00  0.00000000000E+00 -0.13004567157E+04  0.13004567157E+04  0.50400001928E-02 0. -1.
    10030    2    1    2    0    0  0.00000000000E+00  0.00000000000E+00  0.54812551871E+03  0.31490389500E+04  0.31009683527E+04 0.  0.
        4    1    3    3  502    0  0.18837819636E+03 -0.85026676382E+02 -0.12864049341E+04  0.13029025857E+04  0.12699999809E+01 0. -1.
       -4    1    3    3    0  502 -0.18837819636E+03  0.85026676382E+02  0.18345304528E+04  0.18461363643E+04  0.12699999809E+01 0.  1.
</event>
<event>
 5   0  0.1237580E-06  0.3089996E+04  0.7818609E-02  0.8218489E-01
       -2   -1    0    0    0  501  0.00000000000E+00  0.00000000000E+00  0.13498915032E+04  0.13498915032E+04  0.25500000920E-02 0.  1.
        2   -1    0    0  501    0  0.00000000000E+00  0.00000000000E+00 -0.17683038304E+04  0.17683038304E+04  0.25500000920E-02 0. -1.
    10030    2    1    2    0    0  0.00000000000E+00  0.00000000000E+00 -0.41841232726E+03  0.31181953336E+04  0.30899956736E+04 0.  0.
        4    1    3    3  502    0  0.14032243270E+04  0.46352285948E+03  0.24560055045E+03  0.14980698236E+04  0.12699999809E+01 0.  1.
       -4    1    3    3    0  502 -0.14032243270E+04 -0.46352285948E+03 -0.66401287771E+03  0.16201255099E+04  0.12699999809E+01 0. -1.
</event>
<event>
 5   0  0.4330395E-07  0.3102396E+04  0.7818609E-02  0.8215081E-01
        1   -1    0    0  501    0  0.00000000000E+00  0.00000000000E+00  0.13258312371E+04  0.13258312371E+04  0.50400001928E-02 0. -1.
       -1   -1    0    0    0  501  0.00000000000E+00  0.00000000000E+00 -0.18148727259E+04  0.18148727259E+04  0.50400001928E-02 0.  1.
    10030    2    1    2    0    0  0.00000000000E+00  0.00000000000E+00 -0.48904148874E+03  0.31407039630E+04  0.31023958170E+04 0.  0.
        1    1    3    3  502    0  0.15319614657E+04  0.19954226114E+03 -0.38585809273E+03  0.15923597314E+04  0.50400001928E-02 0.  1.
       -1    1    3    3    0  502 -0.15319614657E+04 -0.19954226114E+03 -0.10318339601E+03  0.15483442316E+04  0.50400001928E-02 0. -1.
</event>
<event>
 5   0  0.1258262E-06  0.3114196E+04  0.7818609E-02  0.8211853E-01
        2   -1    0    0  501    0  0.00000000000E+00  0.00000000000E+00  0.20435001327E+04  0.20435001327E+04  0.25500000920E-02 0. -1.
       -2   -1    0    0    0  501  0.00000000000E+00  0.00000000000E+00 -0.11864710502E+04  0.11864710502E+04  0.25500000920E-02 0.  1.
    10030    2    1    2    0    0  0.00000000000E+00  0.00000000000E+00  0.85702908249E+03  0.32299711828E+04  0.31141957218E+04 0.  0.
        1    1    3    3  502    0  0.11944785915E+03  0.15412263670E+04  0.23473384229E+03  0.15635685090E+04  0.50400001928E-02 0. -1.
       -1    1    3    3    0  502 -0.11944785915E+03 -0.15412263670E+04  0.62229524021E+03  0.16664026739E+04  0.50400001928E-02 0.  1.
</event>
<event>
 5   0  0.3935852E-07  0.3088185E+04  0.7818609E-02  0.8218988E-01
        1   -1    0    0  501    0  0.00000000000E+00  0.00000000000E+00  0.10742103003E+04  0.10742103003E+04  0.50400001928E-02 0.  1.
       -1   -1    0    0    0  501  0.00000000000E+00  0.00000000000E+00 -0.22195112065E+04  0.22195112065E+04  0.50400001928E-02 0. -1.
    10030    2    1    2    0    0  0.00000000000E+00  0.00000000000E+00 -0.11453009062E+04  0.32937215068E+04  0.30881850979E+04 0.  0.
        5    1    3    3  502    0  0.45299445493E+03 -0.13135124457E+04 -0.12910379204E+04  0.18966602023E+04  0.46999998093E+01 0. -1.
       -5    1    3    3    0  502 -0.45299445493E+03  0.13135124457E+04  0.14573701424E+03  0.13970613045E+04  0.46999998093E+01 0.  1.
</event>
<event>
 5   0  0.1193123E-06  0.3102488E+04  0.7818609E-02  0.8215055E-01
        2   -1    0    0  501    0  0.00000000000E+00  0.00000000000E+00  0.13077573418E+04  0.13077573418E+04  0.25500000920E-02 0. -1.
       -2   -1    0    0    0  501  0.00000000000E+00  0.00000000000E+00 -0.18400644706E+04  0.18400644706E+04  0.25500000920E-02 0.  1.
    10030    2    1    2    0    0  0.00000000000E+00  0.00000000000E+00 -0.53230712878E+03  0.31478218124E+04  0.31024879183E+04 0.  0.
        3    1    3    3  502    0  0.74021856360E+03  0.16265056924E+03 -0.16394373634E+04  0.18061377601E+04  0.10100000352E+00 0.  1.
       -3    1    3    3    0  502 -0.74021856360E+03 -0.16265056924E+03  0.11071302346E+04  0.13416840523E+04  0.10100000352E+00 0. -1.
</event>
<event>
 5   0  0.4330395E-07  0.3105114E+04  0.7818609E-02  0.8214336E-01
       -1   -1    0    0    0  501  0.00000000000E+00  0.00000000000E+00  0.98952028903E+03  0.98952028905E+03  0.50400001928E-02 0. -1.
        1   -1    0    0  501    0  0.00000000000E+00  0.00000000000E+00 -0.24359617836E+04  0.24359617837E+04  0.50400001928E-02 0.  1.
    10030    2    1    2    0    0  0.00000000000E+00  0.00000000000E+00 -0.14464414946E+04  0.34254820727E+04  0.31051142383E+04 0.  0.
        1    1    3    3  502    0  0.86137086292E+03 -0.11163847706E+04 -0.14399944861E+04  0.20154053785E+04  0.50400001928E-02 0.  1.
       -1    1    3    3    0  502 -0.86137086292E+03  0.11163847706E+04 -0.64470084638E+01  0.14100766942E+04  0.50400001928E-02 0. -1.
</event>
<event>
 5   0  0.3935852E-07  0.3095627E+04  0.7818609E-02  0.8216939E-01
        1   -1    0    0  501    0  0.00000000000E+00  0.00000000000E+00  0.11948174606E+04  0.11948174606E+04  0.50400001928E-02 0.  1.
       -1   -1    0    0    0  501  0.00000000000E+00  0.00000000000E+00 -0.20050981146E+04  0.20050981146E+04  0.50400001928E-02 0. -1.
    10030    2    1    2    0    0  0.00000000000E+00  0.00000000000E+00 -0.81028065402E+03  0.31999155752E+04  0.30956267459E+04 0.  0.
        5    1    3    3  502    0 -0.26799072964E+03 -0.15104380495E+04 -0.61814553899E+03  0.16538948364E+04  0.46999998093E+01 0.  1.
       -5    1    3    3    0  502  0.26799072964E+03  0.15104380495E+04 -0.19213511503E+03  0.15460207388E+04  0.46999998093E+01 0. -1.
</event>
<event>
 5   0  0.1200286E-06  0.3098620E+04  0.7818609E-02  0.8216117E-01
       -2   -1    0    0    0  501  0.00000000000E+00  0.00000000000E+00  0.13350818316E+04  0.13350818316E+04  0.25500000920E-02 0.  1.
        2   -1    0    0  501    0  0.00000000000E+00  0.00000000000E+00 -0.17979135985E+04  0.17979135985E+04  0.25500000920E-02 0. -1.
    10030    2    1    2    0    0  0.00000000000E+00  0.00000000000E+00 -0.46283176695E+03  0.31329954301E+04  0.30986201963E+04 0.  0.
        5    1    3    3  502    0 -0.23048696881E+03  0.14804604646E+04 -0.63006420024E+03  0.16253893123E+04  0.46999998093E+01 0. -1.
       -5    1    3    3    0  502  0.23048696881E+03 -0.14804604646E+04  0.16723243329E+03  0.15076061179E+04  0.46999998093E+01 0.  1.
</event>
<event>
 5   0  0.4330395E-07  0.3099599E+04  0.7818609E-02  0.8215848E-01
       -1   -1    0    0    0  501  0.00000000000E+00  0.00000000000E+00  0.13598307521E+04  0.13598307521E+04  0.50400001928E-02 0.  1.
        1   -1    0    0  501    0  0.00000000000E+00  0.00000000000E+00 -0.17663073886E+04  0.17663073886E+04  0.50400001928E-02 0. -1.
    10030    2    1    2    0    0  0.00000000000E+00  0.00000000000E+00 -0.40647663648E+03  0.31261381407E+04  0.30995993965E+04 0.  0.
        1    1    3    3  502    0 -0.28365910086E+03  0.15088893684E+04  0.99228584377E+01  0.15353527526E+04  0.50400001928E-02 0.  1.
       -1    1    3    3    0  502  0.28365910086E+03 -0.15088893684E+04 -0.41639949492E+03  0.15907853881E+04  0.50400001928E-02 0. -1.
</event>
<event>
 5   0  0.3935852E-07  0.2998920E+04  0.7818609E-02  0.8244039E-01
       -1   -1    0    0    0  501  0.00000000000E+00  0.00000000000E+00  0.12494427755E+04  0.12494427756E+04  0.50400001928E-02 0. -1.
        1   -1    0    0  501    0  0.00000000000E+00  0.00000000000E+00 -0.17995063864E+04  0.17995063864E+04  0.50400001928E-02 0.  1.
    10030    2    1    2    0    0  0.00000000000E+00  0.00000000000E+00 -0.55006361088E+03  0.30489491620E+04  0.29989199750E+04 0.  0.
        5    1    3    3  502    0  0.98105484946E+03  0.86525535255E+03 -0.10202140395E+04  0.16589135659E+04  0.46999998093E+01 0.  1.
       -5    1    3    3    0  502 -0.98105484946E+03 -0.86525535255E+03  0.47015042865E+03  0.13900355961E+04  0.46999998093E+01 0. -1.
</event>
<event>
 5   0  0.4173905E-07  0.3119296E+04  0.7818609E-02  0.8210462E-01
        1   -1    0    0  501    0  0.00000000000E+00  0.00000000000E+00  0.19849394214E+04  0.19849394214E+04  0.50400001928E-02 0.  1.
       -1   -1    0    0    0  501  0.00000000000E+00  0.00000000000E+00 -0.12254792650E+04  0.12254792650E+04  0.50400001928E-02 0. -1.
    10030    2    1    2    0    0  0.00000000000E+00  0.00000000000E+00  0.75946015643E+03  0.32104186865E+04  0.31192961407E+04 0.  0.
        3    1    3    3  502    0  0.10135898414E+04 -0.11774745809E+04  0.23901998174E+03  0.15719228089E+04  0.10100000352E+00 0.  1.
       -3    1    3    3    0  502 -0.10135898414E+04  0.11774745809E+04  0.52044017468E+03  0.16384958776E+04  0.10100000352E+00 0. -1.
</event>
<event>
 5   0  0.1237580E-06  0.3059649E+04  0.7818609E-02  0.8226900E-01
       -2   -1    0    0    0  501  0.00000000000E+00  0.00000000000E+00  0.23989559886E+04  0.23989559886E+04  0.25500000920E-02 0.  1.
        2   -1    0    0  501    0  0.00000000000E+00  0.00000000000E+00 -0.97557543034E+03  0.97557543034E+03  0.25500000920E-02 0. -1.
    10030    2    1    2    0    0  0.00000000000E+00  0.00000000000E+00  0.14233805583E+04  0.33745314190E+04  0.30596486864E+04 0.  0.
        4    1    3    3  502    0  0.60245986366E+02 -0.52972129464E+03 -0.86980116679E+03  0.10201911152E+04  0.12699999809E+01 0. -1.
       -4    1    3    3    0  502 -0.60245986366E+02  0.52972129464E+03  0.22931817251E+04  0.23543403038E+04  0.12699999809E+01 0.  1.
</event>
<event>
 5   0  0.4134019E-07  0.3099970E+04  0.7818609E-02  0.8215746E-01
        1   -1    0    0  501    0  0.00000000000E+00  0.00000000000E+00  0.20903681332E+04  0.20903681332E+04  0.50400001928E-02 0.  1.
       -1   -1    0    0    0  501  0.00000000000E+00  0.00000000000E+00 -0.11492969958E+04  0.11492969958E+04  0.50400001928E-02 0. -1.
    10030    2    1    2    0    0  0.00000000000E+00  0.00000000000E+00  0.94107113735E+03  0.32396651290E+04  0.30999702035E+04 0.  0.
        2    1    3    3  502    0  0.51895580021E+03 -0.14230880504E+04  0.81391337150E+03  0.17195783489E+04  0.25500000920E-02 0.  1.
       -2    1    3    3    0  502 -0.51895580021E+03  0.14230880504E+04  0.12715776585E+03  0.15200867801E+04  0.25500000920E-02 0. -1.
</event>
<event>
 5   0  0.3902375E-07  0.3099623E+04  0.7818609E-02  0.8215841E-01
        3   -1    0    0  501    0  0.00000000000E+00  0.00000000000E+00  0.17517308757E+04  0.17517308786E+04  0.10100000352E+00 0.  1.
       -3   -1    0    0    0  501  0.00000000000E+00  0.00000000000E+00 -0.13711672036E+04  0.13711672073E+04  0.10100000352E+00 0. -1.
    10030    2    1    2    0    0  0.00000000000E+00  0.00000000000E+00  0.38056367216E+03  0.31228980859E+04  0.30996231620E+04 0.  0.
        5    1    3    3  502    0  0.98140930769E+03  0.25191488008E+03  0.13718061510E+04  0.17054323622E+04  0.46999998093E+01 0.  1.
       -5    1    3    3    0  502 -0.98140930769E+03 -0.25191488008E+03 -0.99124247886E+03  0.14174657237E+04  0.46999998093E+01 0. -1.
</event>
<event>
 5   0  0.1258262E-06  0.3076340E+04  0.7818609E-02  0.8222261E-01
       -2   -1    0    0    0  501  0.00000000000E+00  0.00000000000E+00  0.12961142522E+04  0.12961142522E+04  0.25500000920E-02 0. -1.
        2   -1    0    0  501    0  0.00000000000E+00  0.00000000000E+00 -0.18254312704E+04  0.18254312704E+04  0.25500000920E-02 0.  1.
    10030    2    1    2    0    0  0.00000000000E+00  0.00000000000E+00 -0.52931701821E+03  0.31215455227E+04  0.30763403492E+04 0.  0.
        1    1    3    3  502    0 -0.88003944762E+03  0.16909821702E+03 -0.15331904925E+04  0.17758763253E+04  0.50400001928E-02 0.  1.
       -1    1    3    3    0  502  0.88003944762E+03 -0.16909821702E+03  0.10038734743E+04  0.13456691974E+04  0.50400001928E-02 0. -1.
</event>
<event>
 5   0  0.1237580E-06  0.3081689E+04  0.7818609E-02  0.8220781E-01
       -2   -1    0    0    0  501  0.00000000000E+00  0.00000000000E+00  0.17231200226E+04  0.17231200226E+04  0.25500000920E-02 0.  1.
        2   -1    0    0  501    0  0.00000000000E+00  0.00000000000E+00 -0.13778501297E+04  0.13778501297E+04  0.25500000920E-02 0. -1.
    10030    2    1    2    0    0  0.00000000000E+00  0.00000000000E+00  0.34526989284E+03  0.31009701523E+04  0.30816885934E+04 0.  0.
        4    1    3    3  502    0 -0.21391794894E+03  0.14186006323E+04 -0.39303077289E+03  0.14875024182E+04  0.12699999809E+01 0. -1.
       -4    1    3    3    0  502  0.21391794894E+03 -0.14186006323E+04  0.73830066572E+03  0.16134677341E+04  0.12699999809E+01 0.  1.
</event>
<event>
 5   0  0.1237580E-06  0.3124192E+04  0.7818609E-02  0.8209130E-01
        2   -1    0    0  501    0  0.00000000000E+00  0.00000000000E+00  0.21269368202E+04  0.21269368202E+04  0.25500000920E-02 0. -1.
       -2   -1    0    0    0  501  0.00000000000E+00  0.00000000000E+00 -0.11472575296E+04  0.11472575296E+04  0.25500000920E-02 0.  1.
    10030    2    1    2    0    0  0.00000000000E+00  0.00000000000E+00  0.97967929054E+03  0.32741943498E+04  0.31241922360E+04 0.  0.
        4    1    3    3  502    0 -0.55307588100E+03  0.12530767473E+04 -0.29725125849E+03  0.14015898788E+04  0.12699999809E+01 0.  1.
       -4    1    3    3    0  502  0.55307588100E+03 -0.12530767473E+04  0.12769305490E+04  0.18726044710E+04  0.12699999809E+01 0. -1.
</event>
<event>
 5   0  0.1176002E-06  0.3106322E+04  0.7818609E-02  0.8214005E-01
        2   -1    0    0  501    0  0.00000000000E+00  0.00000000000E+00  0.24815825978E+04  0.24815825978E+04  0.25500000920E-02 0.  1.
       -2   -1    0    0    0  501  0.00000000000E+00  0.00000000000E+00 -0.97208510777E+03  0.97208510777E+03  0.25500000920E-02 0. -1.
    10030    2    1    2    0    0  0.00000000000E+00  0.00000000000E+00  0.15094974901E+04  0.34536677056E+04  0.31063222544E+04 0.  0.
        2    1    3    3  502    0  0.10574670353E+04 -0.92258368847E+03  0.14946826183E+04  0.20502373819E+04  0.25500000920E-02 0.  1.
       -2    1    3    3    0  502 -0.10574670353E+04  0.92258368847E+03  0.14814871798E+02  0.14034303237E+04  0.25500000920E-02 0. -1.
</event>
<event>
 5   0  0.1193123E-06  0.3087043E+04  0.7818609E-02  0.8219303E-01
       -2   -1    0    0    0  501  0.00000000000E+00  0.00000000000E+00  0.11578220998E+04  0.11578220998E+04  0.25500000920E-02 0.  1.
        2   -1    0    0  501    0  0.00000000000E+00  0.00000000000E+00 -0.20577069549E+04  0.20577069549E+04  0.25500000920E-02 0. -1.
    10030    2    1    2    0    0  0.00000000000E+00  0.00000000000E+00 -0.89988485511E+03  0.32155290546E+04  0.30870429781E+04 0.  0.
        3    1    3    3  502    0 -0.11052515084E+03  0.79202935464E+03 -0.18250922517E+04  0.19926083522E+04  0.10100000352E+00 0. -1.
       -3    1    3    3    0  502  0.11052515084E+03 -0.79202935464E+03  0.92520739662E+03  0.12229207025E+04  0.10100000352E+00 0.  1.
</event>
<event>
 5   0  0.4173905E-07  0.3119612E+04  0.7818609E-02  0.8210376E-01
        1   -1    0    0  501    0  0.00000000000E+00  0.00000000000E+00  0.20268729327E+04  0.20268729327E+04  0.50400001928E-02 0.  1.
       -1   -1    0    0    0  501  0.00000000000E+00  0.00000000000E+00 -0.12003688284E+04  0.12003688284E+04  0.50400001928E-02 0. -1.
    10030    2    1    2    0    0  0.00000000000E+00  0.00000000000E+00  0.82650410431E+03  0.32272417612E+04  0.31196122116E+04 0.  0.
        3    1    3    3  502    0  0.42107353746E+03 -0.16701033556E+03 -0.11308249686E+04  0.12181791723E+04  0.10100000352E+00 0. -1.
       -3    1    3    3    0  502 -0.42107353746E+03  0.16701033556E+03  0.19573290729E+04  0.20090625888E+04  0.10100000352E+00 0.  1.
</event>
<event>
 5   0  0.4219337E-07  0.3106338E+04  0.7818609E-02  0.8214001E-01
        1   -1    0    0  501    0  0.00000000000E+00  0.00000000000E+00  0.19511877007E+04  0.19511877007E+04  0.50400001928E-02 0. -1.
       -1   -1    0    0    0  501  0.00000000000E+00  0.00000000000E+00 -0.12363415866E+04  0.12363415866E+04  0.50400001928E-02 0.  1.
    10030    2    1    2    0    0  0.00000000000E+00  0.00000000000E+00  0.71484611409E+03  0.31875292874E+04  0.31063383575E+04 0.  0.
        4    1    3    3  502    0 -0.11301487410E+04 -0.10204582269E+04  0.43214364189E+02  0.15232991380E+04  0.12699999809E+01 0.  1.
       -4    1    3    3    0  502  0.11301487410E+04  0.10204582269E+04  0.67163174990E+03  0.16642301494E+04  0.12699999809E+01 0. -1.
</event>
<event>
 5   0  0.1193123E-06  0.3094734E+04  0.7818609E-02  0.8217185E-01
        2   -1    0    0  501    0  0.00000000000E+00  0.00000000000E+00  0.18899505855E+04  0.18899505855E+04  0.25500000920E-02 0.  1.
       -2   -1    0    0    0  501  0.00000000000E+00  0.00000000000E+00 -0.12668824246E+04  0.12668824246E+04  0.25500000920E-02 0. -1.
    10030    2    1    2    0    0  0.00000000000E+00  0.00000000000E+00  0.62306816087E+03  0.31568330101E+04  0.30947343538E+04 0.  0.
        3    1    3    3  502    0  0.48444474489E+03 -0.97433104371E+03 -0.81069488436E+03  0.13569207417E+04  0.10100000352E+00 0. -1.
       -3    1    3    3    0  502 -0.48444474489E+03  0.97433104371E+03  0.14337630452E+04  0.17999122683E+04  0.10100000352E+00 0.  1.
</event>
<event>
 5   0  0.1176002E-06  0.3104449E+04  0.7818609E-02  0.8214518E-01
        2   -1    0    0  501    0  0.00000000000E+00  0.00000000000E+00  0.25174997959E+04  0.25174997959E+04  0.25500000920E-02 0.  1.
       -2   -1    0    0    0  501  0.00000000000E+00  0.00000000000E+00 -0.95706072950E+03  0.95706072950E+03  0.25500000920E-02 0. -1.
    10030    2    1    2    0    0  0.00000000000E+00  0.00000000000E+00  0.15604390664E+04  0.34745605254E+04  0.31044485444E+04 0.  0.
        2    1    3    3  502    0 -0.27366778693E+02 -0.60460321805E+03  0.23800018286E+04  0.24557489074E+04  0.25500000920E-02 0.  1.
       -2    1    3    3    0  502  0.27366778693E+02  0.60460321805E+03 -0.81956276220E+03  0.10188116180E+04  0.25500000920E-02 0. -1.
</event>
<event>
 5   0  0.4330395E-07  0.3098372E+04  0.7818609E-02  0.8216185E-01
        1   -1    0    0  501    0  0.00000000000E+00  0.00000000000E+00  0.21356134877E+04  0.21356134878E+04  0.50400001928E-02 0. -1.
       -1   -1    0    0    0  501  0.00000000000E+00  0.00000000000E+00 -0.11237878655E+04  0.11237878655E+04  0.50400001928E-02 0.  1.
    10030    2    1    2    0    0  0.00000000000E+00  0.00000000000E+00  0.10118256223E+04  0.32594013532E+04  0.30983715225E+04 0.  0.
        1    1    3    3  502    0 -0.52813391226E+03  0.10744359789E+04 -0.52836301863E+03  0.13086273654E+04  0.50400001928E-02 0.  1.
       -1    1    3    3    0  502  0.52813391226E+03 -0.10744359789E+04  0.15401886409E+04  0.19507739878E+04  0.50400001928E-02 0. -1.
</event>
<event>
 5   0  0.1258262E-06  0.3098791E+04  0.7818609E-02  0.8216070E-01
       -2   -1    0    0    0  501  0.00000000000E+00  0.00000000000E+00  0.16263920129E+04  0.16263920129E+04  0.25500000920E-02 0. -1.
        2   -1    0    0  501    0  0.00000000000E+00  0.00000000000E+00 -0.14760441505E+04  0.14760441505E+04  0.25500000920E-02 0.  1.
    10030    2    1    2    0    0  0.00000000000E+00  0.00000000000E+00  0.15034786244E+03  0.31024361635E+04  0.30987910011E+04 0.  0.
        1    1    3    3  502    0  0.11134360451E+04  0.21726613993E+03 -0.98137878562E+03  0.15000162409E+04  0.50400001928E-02 0.  1.
       -1    1    3    3    0  502 -0.11134360451E+04 -0.21726613993E+03  0.11317266481E+04  0.16024199225E+04  0.50400001928E-02 0. -1.
</event>
<event>
 5   0  0.4134019E-07  0.3028398E+04  0.7818609E-02  0.8235668E-01
       -1   -1    0    0    0  501  0.00000000000E+00  0.00000000000E+00  0.14183441916E+04  0.14183441916E+04  0.50400001928E-02 0. -1.
        1   -1    0    0  501    0  0.00000000000E+00  0.00000000000E+00 -0.16165323686E+04  0.16165323686E+04  0.50400001928E-02 0.  1.
    10030    2    1    2    0    0  0.00000000000E+00  0.00000000000E+00 -0.19818817701E+03  0.30348765602E+04  0.30283984517E+04 0.  0.
        2    1    3    3  502    0  0.12620469037E+04  0.40972899025E+03 -0.83014689273E+03  0.15651786147E+04  0.25500000920E-02 0. -1.
       -2    1    3    3    0  502 -0.12620469037E+04 -0.40972899025E+03  0.63195871572E+03  0.14696979455E+04  0.25500000920E-02 0.  1.
</event>
<event>
 5   0  0.1200286E-06  0.3144383E+04  0.7818609E-02  0.8203662E-01
       -2   -1    0    0    0  501  0.00000000000E+00  0.00000000000E+00  0.15539125831E+04  0.15539125831E+04  0.25500000920E-02 0.  1.
        2   -1    0    0  501    0  0.00000000000E+00  0.00000000000E+00 -0.15906852650E+04  0.15906852650E+04  0.25500000920E-02 0. -1.
    10030    2    1    2    0    0  0.00000000000E+00  0.00000000000E+00 -0.36772681946E+02  0.31445978481E+04  0.31443828323E+04 0.  0.
        5    1    3    3  502    0  0.40494133876E+02 -0.10625319696E+01  0.15533835803E+04  0.15539187692E+04  0.46999998093E+01 0.  1.
       -5    1    3    3    0  502 -0.40494133876E+02  0.10625319696E+01 -0.15901562622E+04  0.15906790789E+04  0.46999998093E+01 0. -1.
</event>
<event>
 5   0  0.4134019E-07  0.2973510E+04  0.7818609E-02  0.8251336E-01
        1   -1    0    0  501    0  0.00000000000E+00  0.00000000000E+00  0.17650992155E+04  0.17650992155E+04  0.50400001928E-02 0. -1.
       -1   -1    0    0    0  501  0.00000000000E+00  0.00000000000E+00 -0.12523034596E+04  0.12523034596E+04  0.50400001928E-02 0.  1.
    10030    2    1    2    0    0  0.00000000000E+00  0.00000000000E+00  0.51279575590E+03  0.30174026752E+04  0.29735096127E+04 0.  0.
        2    1    3    3  502    0 -0.12520047720E+04 -0.79863359025E+03  0.32892523379E+03  0.15210270774E+04  0.25500000920E-02 0.  1.
       -2    1    3    3    0  502  0.12520047720E+04  0.79863359025E+03  0.18387052212E+03  0.14963755978E+04  0.25500000920E-02 0. -1.
</event>
<event>
 5   0  0.4173905E-07  0.3100281E+04  0.7818609E-02  0.8215661E-01
       -1   -1    0    0    0  501  0.00000000000E+00  0.00000000000E+00  0.13237562267E+04  0.13237562268E+04  0.50400001928E-02 0. -1.
        1   -1    0    0  501    0  0.00000000000E+00  0.00000000000E+00 -0.18152406346E+04  0.18152406346E+04  0.50400001928E-02 0.  1.
    10030    2    1    2    0    0  0.00000000000E+00  0.00000000000E+00 -0.49148440789E+03  0.31389968614E+04  0.31002813377E+04 0.  0.
        3    1    3    3  502    0  0.85042157457E+03 -0.91559555808E+03  0.68299333000E+03  0.14240828556E+04  0.10100000352E+00 0.  1.
       -3    1    3    3    0  502 -0.85042157457E+03  0.91559555808E+03 -0.11744777379E+04  0.17149140058E+04  0.10100000352E+00 0. -1.
</event>
<event>
 5   0  0.3935852E-07  0.3101226E+04  0.7818609E-02  0.8215401E-01
        1   -1    0    0  501    0  0.00000000000E+00  0.00000000000E+00  0.16320965821E+04  0.16320965821E+04  0.50400001928E-02 0.  1.
       -1   -1    0    0    0  501  0.00000000000E+00  0.00000000000E+00 -0.14731976999E+04  0.14731976999E+04  0.50400001928E-02 0. -1.
    10030    2    1    2    0    0  0.00000000000E+00  0.00000000000E+00  0.15889888220E+03  0.31052942820E+04  0.31012261645E+04 0.  0.
        5    1    3    3  502    0  0.76829132504E+03 -0.58732089592E+03  0.12931291347E+04  0.16147515115E+04  0.46999998093E+01 0.  1.
       -5    1    3    3    0  502 -0.76829132504E+03  0.58732089592E+03 -0.11342302525E+04  0.14905427705E+04  0.46999998093E+01 0. -1.
</event>
<event>
 5   0  0.1258262E-06  0.3096577E+04  0.7818609E-02  0.8216678E-01
       -2   -1    0    0    0  501  0.00000000000E+00  0.00000000000E+00  0.10793152746E+04  0.10793152746E+04  0.25500000920E-02 0.  1.
        2   -1    0    0  501    0  0.00000000000E+00  0.00000000000E+00 -0.22210357491E+04  0.22210357491E+04  0.25500000920E-02 0. -1.
    10030    2    1    2    0    0  0.00000000000E+00  0.00000000000E+00 -0.11417204745E+04  0.33003510237E+04  0.30965773425E+04 0.  0.
        1    1    3    3  502    0  0.37429628417E+03  0.12075098554E+04 -0.15235621577E+04  0.19797523602E+04  0.50400001928E-02 0. -1.
       -1    1    3    3    0  502 -0.37429628417E+03 -0.12075098554E+04  0.38184168318E+03  0.13205986636E+04  0.50400001928E-02 0.  1.
</event>
<event>
 5   0  0.4173905E-07  0.3110944E+04  0.7818609E-02  0.8212741E-01
        1   -1    0    0  501    0  0.00000000000E+00  0.00000000000E+00  0.30469478768E+04  0.30469478768E+04  0.50400001928E-02 0.  1.
       -1   -1    0    0    0  501  0.00000000000E+00  0.00000000000E+00 -0.79407107264E+03  0.79407107266E+03  0.50400001928E-02 0. -1.
    10030    2    1    2    0    0  0.00000000000E+00  0.00000000000E+00  0.22528768042E+04  0.38410189495E+04  0.31109440168E+04 0.  0.
        3    1    3    3  502    0 -0.31148844397E+03  0.14679503292E+04  0.62098837368E+03  0.16240473485E+04  0.10100000352E+00 0. -1.
       -3    1    3    3    0  502  0.31148844397E+03 -0.14679503292E+04  0.16318884305E+04  0.22169716010E+04  0.10100000352E+00 0.  1.
</event>
<event>
 5   0  0.1176002E-06  0.3094326E+04  0.7818609E-02  0.8217297E-01
        2   -1    0    0  501    0  0.00000000000E+00  0.00000000000E+00  0.22619813590E+04  0.22619813590E+04  0.25500000920E-02 0.  1.
       -2   -1    0    0    0  501  0.00000000000E+00  0.00000000000E+00 -0.10582376128E+04  0.10582376128E+04  0.25500000920E-02 0. -1.
    10030    2    1    2    0    0  0.00000000000E+00  0.00000000000E+00  0.12037437462E+04  0.33202189718E+04  0.30943262618E+04 0.  0.
        2    1    3    3  502    0 -0.56420474635E+03 -0.11462327735E+04  0.15382390490E+04  0.19995889425E+04  0.25500000920E-02 0.  1.
       -2    1    3    3    0  502  0.56420474635E+03  0.11462327735E+04 -0.33449530282E+03  0.13206300294E+04  0.25500000920E-02 0. -1.
</event>
<event>
 5   0  0.4219337E-07  0.3093483E+04  0.7818609E-02  0.8217529E-01
       -1   -1    0    0    0  501  0.00000000000E+00  0.00000000000E+00  0.15772890406E+04  0.15772890406E+04  0.50400001928E-02 0. -1.
        1   -1    0    0  501    0  0.00000000000E+00  0.00000000000E+00 -0.15167860412E+04  0.15167860412E+04  0.50400001928E-02 0.  1.
    10030    2    1    2    0    0  0.00000000000E+00  0.00000000000E+00  0.60502999392E+02  0.30940750818E+04  0.30934834732E+04 0.  0.
        4    1    3    3  502    0  0.51335338067E+03  0.55165453972E+03  0.13812703364E+04  0.15734559987E+04  0.12699999809E+01 0. -1.
       -4    1    3    3    0  502 -0.51335338067E+03 -0.55165453972E+03 -0.13207673370E+04  0.15206190831E+04  0.12699999809E+01 0.  1.
</event>
<event>
 5   0  0.3935852E-07  0.3112395E+04  0.7818609E-02  0.8212345E-01
       -1   -1    0    0    0  501  0.00000000000E+00  0.00000000000E+00  0.15112409333E+04  0.15112409333E+04  0.50400001928E-02 0. -1.
        1   -1    0    0  501    0  0.00000000000E+00  0.00000000000E+00 -0.16024911590E+04  0.16024911590E+04  0.50400001928E-02 0.  1.
    10030    2    1    2    0    0  0.00000000000E+00  0.00000000000E+00 -0.91250225669E+02  0.31137320923E+04  0.31123947274E+04 0.  0.
        5    1    3    3  502    0  0.54426492230E+03 -0.14226586250E+04  0.27317507790E+03  0.15475233704E+04  0.46999998093E+01 0. -1.
       -5    1    3    3    0  502 -0.54426492230E+03  0.14226586250E+04 -0.36442530357E+03  0.15662087219E+04  0.46999998093E+01 0.  1.
</event>
<event>
 5   0  0.1200286E-06  0.3103175E+04  0.7818609E-02  0.8214867E-01
       -2   -1    0    0    0  501  0.00000000000E+00  0.00000000000E+00  0.13022909907E+04  0.13022909907E+04  0.25500000920E-02 0.  1.
        2   -1    0    0  501    0  0.00000000000E+00  0.00000000000E+00 -0.18486068030E+04  0.18486068030E+04  0.25500000920E-02 0. -1.
    10030    2    1    2    0    0  0.00000000000E+00  0.00000000000E+00 -0.54631581226E+03  0.31508977937E+04  0.31031751384E+04 0.  0.
        5    1    3    3  502    0  0.77303549996E+03  0.10899771427E+04  0.52749107644E+03  0.14366290341E+04  0.46999998093E+01 0.  1.
       -5    1    3    3    0  502 -0.77303549996E+03 -0.10899771427E+04 -0.10738068887E+04  0.17142687596E+04  0.46999998093E+01 0. -1.
</event>
<event>
 5   0  0.3935852E-07  0.3100560E+04  0.7818609E-02  0.8215584E-01
        1   -1    0    0  501    0  0.00000000000E+00  0.00000000000E+00  0.28351812800E+04  0.28351812800E+04  0.50400001928E-02 0. -1.
       -1   -1    0    0    0  501  0.00000000000E+00  0.00000000000E+00 -0.84769462678E+03  0.84769462679E+03  0.50400001928E-02 0.  1.
    10030    2    1    2    0    0  0.00000000000E+00  0.00000000000E+00  0.19874866532E+04  0.36828759068E+04  0.31005599088E+04 0.  0.
        5    1    3    3  502    0 -0.14639029774E+04  0.38721607874E+03  0.13884067055E+04  0.20544204752E+04  0.46999998093E+01 0.  1.
       -5    1    3    3    0  502  0.14639029774E+04 -0.38721607874E+03  0.59907994769E+03  0.16284554316E+04  0.46999998093E+01 0. -1.
</event>
<event>
 5   0  0.4134019E-07  0.3084502E+04  0.7818609E-02  0.8220004E-01
        1   -1    0    0  501    0  0.00000000000E+00  0.00000000000E+00  0.27497340598E+04  0.27497340598E+04  0.50400001928E-02 0.  1.
       -1   -1    0    0    0  501  0.00000000000E+00  0.00000000000E+00 -0.86500649498E+03  0.86500649500E+03  0.50400001928E-02 0. -1.
    10030    2    1    2    0    0  0.00000000000E+00  0.00000000000E+00  0.18847275648E+04  0.36147405548E+04  0.30845017888E+04 0.  0.
        2    1    3    3  502    0  0.58373991704E+03  0.25282530277E+02 -0.73027906399E+03  0.93525344608E+03  0.25500000920E-02 0. -1.
       -2    1    3    3    0  502 -0.58373991704E+03 -0.25282530277E+02  0.26150066288E+04  0.26794871087E+04  0.25500000920E-02 0.  1.
</event>
<event>
 5   0  0.1258262E-06  0.3111329E+04  0.7818609E-02  0.8212636E-01
        2   -1    0    0  501    0  0.00000000000E+00  0.00000000000E+00  0.16069507119E+04  0.16069507119E+04  0.25500000920E-02 0. -1.
       -2   -1    0    0    0  501  0.00000000000E+00  0.00000000000E+00 -0.15060149844E+04  0.15060149845E+04  0.25500000920E-02 0.  1.
    10030    2    1    2    0    0  0.00000000000E+00  0.00000000000E+00  0.10093572749E+03  0.31129656964E+04  0.31113288810E+04 0.  0.
        1    1    3    3  502    0  0.81934558757E+03  0.12376212504E+04  0.51660812291E+03  0.15715971189E+04  0.50400001928E-02 0. -1.
       -1    1    3    3    0  502 -0.81934558757E+03 -0.12376212504E+04 -0.41567239542E+03  0.15413685775E+04  0.50400001928E-02 0.  1.
</event>
<event>
 5   0  0.4219337E-07  0.3087389E+04  0.7818609E-02  0.8219207E-01
        1   -1    0    0  501    0  0.00000000000E+00  0.00000000000E+00  0.18946934052E+04  0.18946934052E+04  0.50400001928E-02 0. -1.
       -1   -1    0    0    0  501  0.00000000000E+00  0.00000000000E+00 -0.12577193900E+04  0.12577193900E+04  0.50400001928E-02 0.  1.
    10030    2    1    2    0    0  0.00000000000E+00  0.00000000000E+00  0.63697401521E+03  0.31524127952E+04  0.30873889511E+04 0.  0.
        4    1    3    3  502    0  0.28656320224E+03  0.94483896679E+02  0.18642890063E+04  0.18885499166E+04  0.12699999809E+01 0. -1.
       -4    1    3    3    0  502 -0.28656320224E+03 -0.94483896679E+02 -0.12273149911E+04  0.12638628786E+04  0.12699999809E+01 0.  1.
</event>
<event>
 5   0  0.1258262E-06  0.3099655E+04  0.7818609E-02  0.8215833E-01
        2   -1    0    0  501    0  0.00000000000E+00  0.00000000000E+00  0.14493498099E+04  0.14493498099E+04  0.25500000920E-02 0. -1.
       -2   -1    0    0    0  501  0.00000000000E+00  0.00000000000E+00 -0.16572708830E+04  0.16572708830E+04  0.25500000920E-02 0.  1.
    10030    2    1    2    0    0  0.00000000000E+00  0.00000000000E+00 -0.20792107304E+03  0.31066206929E+04  0.30996549738E+04 0.  0.
        1    1    3    3  502    0  0.79036909679E+03  0.11995066545E+04 -0.68704600495E+03  0.15923353090E+04  0.50400001928E-02 0.  1.
       -1    1    3    3    0  502 -0.79036909679E+03 -0.11995066545E+04  0.47912493191E+03  0.15142853839E+04  0.50400001928E-02 0. -1.
</event>
<event>
 5   0  0.1258262E-06  0.3098354E+04  0.7818609E-02  0.8216190E-01
       -2   -1    0    0    0  501  0.00000000000E+00  0.00000000000E+00  0.13255055867E+04  0.13255055867E+04  0.25500000920E-02 0.  1.
        2   -1    0    0  501    0  0.00000000000E+00  0.00000000000E+00 -0.18105914199E+04  0.18105914199E+04  0.25500000920E-02 0. -1.
    10030    2    1    2    0    0  0.00000000000E+00  0.00000000000E+00 -0.48508583321E+03  0.31360970065E+04  0.30983537837E+04 0.  0.
        1    1    3    3  502    0 -0.68034954811E+03  0.50782216500E+03  0.10690782764E+04  0.13651693009E+04  0.50400001928E-02 0.  1.
       -1    1    3    3    0  502  0.68034954811E+03 -0.50782216500E+03 -0.15541641096E+04  0.17709277056E+04  0.50400001928E-02 0. -1.
</event>
<event>
 5   0  0.4219337E-07  0.3111934E+04  0.7818609E-02  0.8212470E-01
        1   -1    0    0  501    0  0.00000000000E+00  0.00000000000E+00  0.21905550541E+04  0.21905550541E+04  0.50400001928E-02 0. -1.
       -1   -1    0    0    0  501  0.00000000000E+00  0.00000000000E+00 -0.11052146861E+04  0.11052146862E+04  0.50400001928E-02 0.  1.
    10030    2    1    2    0    0  0.00000000000E+00  0.00000000000E+00  0.10853403680E+04  0.32957697403E+04  0.31119342002E+04 0.  0.
        4    1    3    3  502    0  0.10949448626E+04  0.95447265129E+03 -0.48051943564E+02  0.14533522960E+04  0.12699999809E+01 0.  1.
       -4    1    3    3    0  502 -0.10949448626E+04 -0.95447265129E+03  0.11333923115E+04  0.18424174443E+04  0.12699999809E+01 0. -1.
</event>
<event>
 5   0  0.3935852E-07  0.3102285E+04  0.7818609E-02  0.8215111E-01
       -1   -1    0    0    0  501  0.00000000000E+00  0.00000000000E+00  0.10866771682E+04  0.10866771682E+04  0.50400001928E-02 0.  1.
        1   -1    0    0  501    0  0.00000000000E+00  0.00000000000E+00 -0.22141290380E+04  0.22141290380E+04  0.50400001928E-02 0. -1.
    10030    2    1    2    0    0  0.00000000000E+00  0.00000000000E+00 -0.11274518699E+04  0.33008062062E+04  0.31022852693E+04 0.  0.
        5    1    3    3  502    0 -0.12527937248E+04  0.72747730822E+03 -0.11535518350E+04  0.18518691306E+04  0.46999998093E+01 0. -1.
       -5    1    3    3    0  502  0.12527937248E+04 -0.72747730822E+03  0.26099965111E+02  0.14489370756E+04  0.46999998093E+01 0.  1.
</event>
<event>
 5   0  0.1237580E-06  0.3028581E+04  0.7818609E-02  0.8235616E-01
       -2   -1    0    0    0  501  0.00000000000E+00  0.00000000000E+00  0.10072150816E+04  0.10072150816E+04  0.25500000920E-02 0.  1.
        2   -1    0    0  501    0  0.00000000000E+00  0.00000000000E+00 -0.22766491973E+04  0.22766491973E+04  0.25500000920E-02 0. -1.
    10030    2    1    2    0    0  0.00000000000E+00  0.00000000000E+00 -0.12694341157E+04  0.32838642789E+04  0.30285807944E+04 0.  0.
        4    1    3    3  502    0  0.63444398126E+03  0.13041628221E+04 -0.11069928474E+04  0.18244984541E+04  0.12699999809E+01 0. -1.
       -4    1    3    3    0  502 -0.63444398126E+03 -0.13041628221E+04 -0.16244126828E+03  0.14593658248E+04  0.12699999809E+01 0.  1.
</event>
<event>
 5   0  0.4219337E-07  0.3266947E+04  0.7818609E-02  0.8171357E-01
        1   -1    0    0  501    0  0.00000000000E+00  0.00000000000E+00  0.28503912802E+04  0.28503912802E+04  0.50400001928E-02 0. -1.
       -1   -1    0    0    0  501  0.00000000000E+00  0.00000000000E+00 -0.93609449511E+03  0.93609449513E+03  0.50400001928E-02 0.  1.
    10030    2    1    2    0    0  0.00000000000E+00  0.00000000000E+00  0.19142967851E+04  0.37864857753E+04  0.32669469456E+04 0.  0.
        4    1    3    3  502    0  0.47364761337E+02 -0.12532008128E+04 -0.25595029456E+03  0.12799483833E+04  0.12699999809E+01 0.  1.
       -4    1    3    3    0  502 -0.47364761337E+02  0.12532008128E+04  0.21702470796E+04  0.25065373920E+04  0.12699999809E+01 0. -1.
</event>
<event>
 5   0  0.4330395E-07  0.3102574E+04  0.7818609E-02  0.8215032E-01
       -1   -1    0    0    0  501  0.00000000000E+00  0.00000000000E+00  0.16525742867E+04  0.16525742867E+04  0.50400001928E-02 0. -1.
        1   -1    0    0  501    0  0.00000000000E+00  0.00000000000E+00 -0.14562081189E+04  0.14562081189E+04  0.50400001928E-02 0.  1.
    10030    2    1    2    0    0  0.00000000000E+00  0.00000000000E+00  0.19636616785E+03  0.31087824056E+04  0.31025744751E+04 0.  0.
        1    1    3    3  502    0 -0.15698128625E+03  0.14687816716E+04  0.57297650149E+03  0.15843815179E+04  0.50400001928E-02 0. -1.
       -1    1    3    3    0  502  0.15698128625E+03 -0.14687816716E+04 -0.37661033364E+03  0.15244008877E+04  0.50400001928E-02 0.  1.
</event>
<event>
 5   0  0.3935852E-07  0.3103223E+04  0.7818609E-02  0.8214854E-01
        1   -1    0    0  501    0  0.00000000000E+00  0.00000000000E+00  0.24869850828E+04  0.24869850828E+04  0.50400001928E-02 0. -1.
       -1   -1    0    0    0  501  0.00000000000E+00  0.00000000000E+00 -0.96803874459E+03  0.96803874461E+03  0.50400001928E-02 0.  1.
    10030    2    1    2    0    0  0.00000000000E+00  0.00000000000E+00  0.15189463382E+04  0.34550238274E+04  0.31032227876E+04 0.  0.
        5    1    3    3  502    0 -0.96482243809E+03  0.12055027661E+04  0.92962735472E+03  0.18023174983E+04  0.46999998093E+01 0.  1.
       -5    1    3    3    0  502  0.96482243809E+03 -0.12055027661E+04  0.58931898349E+03  0.16527063291E+04  0.46999998093E+01 0. -1.
</event>
<event>
 5   0  0.1237580E-06  0.3106910E+04  0.7818609E-02  0.8213844E-01
        2   -1    0    0  501    0  0.00000000000E+00  0.00000000000E+00  0.21788900599E+04  0.21788900599E+04  0.25500000920E-02 0. -1.
       -2   -1    0    0    0  501  0.00000000000E+00  0.00000000000E+00 -0.11075463377E+04  0.11075463377E+04  0.25500000920E-02 0.  1.
    10030    2    1    2    0    0  0.00000000000E+00  0.00000000000E+00  0.10713437221E+04  0.32864363976E+04  0.31069095295E+04 0.  0.
        4    1    3    3  502    0  0.15951689999E+03  0.11059122965E+03 -0.10946680751E+04  0.11117445160E+04  0.12699999809E+01 0.  1.
       -4    1    3    3    0  502 -0.15951689999E+03 -0.11059122965E+03  0.21660117972E+04  0.21746918816E+04  0.12699999809E+01 0. -1.
</event>
<event>
 5   0  0.1176002E-06  0.2889653E+04  0.7818609E-02  0.8275963E-01
       -2   -1    0    0    0  501  0.00000000000E+00  0.00000000000E+00  0.10631022192E+04  0.10631022192E+04  0.25500000920E-02 0.  1.
        2   -1    0    0  501    0  0.00000000000E+00  0.00000000000E+00 -0.19636147644E+04  0.19636147644E+04  0.25500000920E-02 0. -1.
    10030    2    1    2    0    0  0.00000000000E+00  0.00000000000E+00 -0.90051254514E+03  0.30267169836E+04  0.28896527222E+04 0.  0.
        2    1    3    3  502    0  0.67514460187E+03  0.12492336060E+04 -0.72958595184E+03  0.15964650002E+04  0.25500000920E-02 0.  1.
       -2    1    3    3    0  502 -0.67514460187E+03 -0.12492336060E+04 -0.17092659330E+03  0.14302519834E+04  0.25500000920E-02 0. -1.
</event>
<event>
 5   0  0.3935852E-07  0.3100545E+04  0.7818609E-02  0.8215588E-01
        1   -1    0    0  501    0  0.00000000000E+00  0.00000000000E+00  0.21408588255E+04  0.21408588255E+04  0.50400001928E-02 0.  1.
       -1   -1    0    0    0  501  0.00000000000E+00  0.00000000000E+00 -0.11226074900E+04  0.11226074900E+04  0.50400001928E-02 0. -1.
    10030    2    1    2    0    0  0.00000000000E+00  0.00000000000E+00  0.10182513354E+04  0.32634663155E+04  0.31005445667E+04 0.  0.
        5    1    3    3  502    0  0.10873237873E+04  0.11424116106E+03 -0.64771690877E+03  0.12707806047E+04  0.46999998093E+01 0. -1.
       -5    1    3    3    0  502 -0.10873237873E+04 -0.11424116106E+03  0.16659682442E+04  0.19926857108E+04  0.46999998093E+01 0.  1.
</event>
<event>
 5   0  0.4330395E-07  0.3095797E+04  0.7818609E-02  0.8216892E-01
       -1   -1    0    0    0  501  0.00000000000E+00  0.00000000000E+00  0.12080263522E+04  0.12080263522E+04  0.50400001928E-02 0.  1.
        1   -1    0    0  501    0  0.00000000000E+00  0.00000000000E+00 -0.19833913695E+04  0.19833913695E+04  0.50400001928E-02 0. -1.
    10030    2    1    2    0    0  0.00000000000E+00  0.00000000000E+00 -0.77536501726E+03  0.31914177217E+04  0.30957965315E+04 0.  0.
        1    1    3    3  502    0  0.58070632960E+03  0.13910955276E+04 -0.25222675672E+02  0.15076480994E+04  0.50400001928E-02 0.  1.
       -1    1    3    3    0  502 -0.58070632960E+03 -0.13910955276E+04 -0.75014234159E+03  0.16837696223E+04  0.50400001928E-02 0. -1.
</event>
<event>
 5   0  0.1193123E-06  0.3093802E+04  0.7818609E-02  0.8217441E-01
        2   -1    0    0  501    0  0.00000000000E+00  0.00000000000E+00  0.24961649640E+04  0.24961649640E+04  0.25500000920E-02 0.  1.
       -2   -1    0    0    0  501  0.00000000000E+00  0.00000000000E+00 -0.95863179350E+03  0.95863179350E+03  0.25500000920E-02 0. -1.
    10030    2    1    2    0    0  0.00000000000E+00  0.00000000000E+00  0.15375331705E+04  0.34547967575E+04  0.30938022537E+04 0.  0.
        3    1    3    3  502    0  0.12660787518E+04 -0.79338153943E+03  0.32140513407E+03  0.15283032890E+04  0.10100000352E+00 0.  1.
       -3    1    3    3    0  502 -0.12660787518E+04  0.79338153943E+03  0.12161280364E+04  0.19264934685E+04  0.10100000352E+00 0. -1.
</event>
<event>
 5   0  0.1237580E-06  0.3092737E+04  0.7818609E-02  0.8217734E-01
       -2   -1    0    0    0  501  0.00000000000E+00  0.00000000000E+00  0.14293266574E+04  0.14293266574E+04  0.25500000920E-02 0. -1.
        2   -1    0    0  501    0  0.00000000000E+00  0.00000000000E+00 -0.16729940662E+04  0.16729940662E+04  0.25500000920E-02 0.  1.
    10030    2    1    2    0    0  0.00000000000E+00  0.00000000000E+00 -0.24366740883E+03  0.31023207235E+04  0.30927366628E+04 0.  0.
        4    1    3    3  502    0 -0.61814258224E+03 -0.75110789987E+02  0.12980071660E+04  0.14396409617E+04  0.12699999809E+01 0. -1.
       -4    1    3    3    0  502  0.61814258224E+03  0.75110789987E+02 -0.15416745748E+04  0.16626797618E+04  0.12699999809E+01 0.  1.
</event>
<event>
 5   0  0.1237580E-06  0.3103087E+04  0.7818609E-02  0.8214891E-01
       -2   -1    0    0    0  501  0.00000000000E+00  0.00000000000E+00  0.10042740239E+04  0.10042740239E+04  0.25500000920E-02 0. -1.
        2   -1    0    0  501    0  0.00000000000E+00  0.00000000000E+00 -0.23970425256E+04  0.23970425256E+04  0.25500000920E-02 0.  1.
    10030    2    1    2    0    0  0.00000000000E+00  0.00000000000E+00 -0.13927685016E+04  0.34013165495E+04  0.31030872000E+04 0.  0.
        4    1    3    3  502    0 -0.91261616917E+03  0.12496418440E+04 -0.57231129773E+03  0.16498529767E+04  0.12699999809E+01 0.  1.
       -4    1    3    3    0  502  0.91261616917E+03 -0.12496418440E+04 -0.82045720389E+03  0.17514635728E+04  0.12699999809E+01 0. -1.
</event>
<event>
 5   0  0.4173905E-07  0.3099841E+04  0.7818609E-02  0.8215782E-01
        1   -1    0    0  501    0  0.00000000000E+00  0.00000000000E+00  0.12740141133E+04  0.12740141133E+04  0.50400001928E-02 0. -1.
       -1   -1    0    0    0  501  0.00000000000E+00  0.00000000000E+00 -0.18855779101E+04  0.18855779101E+04  0.50400001928E-02 0.  1.
    10030    2    1    2    0    0  0.00000000000E+00  0.00000000000E+00 -0.61156379680E+03  0.31595920234E+04  0.30998405567E+04 0.  0.
        3    1    3    3  502    0 -0.14686003493E+04 -0.45286503931E+03 -0.51060084464E+03  0.16194403238E+04  0.10100000352E+00 0.  1.
       -3    1    3    3    0  502  0.14686003493E+04  0.45286503931E+03 -0.10096295216E+03  0.15401516996E+04  0.10100000352E+00 0. -1.
</event>
<event>
 5   0  0.3935852E-07  0.3117333E+04  0.7818609E-02  0.8210997E-01
        1   -1    0    0  501    0  0.00000000000E+00  0.00000000000E+00  0.16896920057E+04  0.16896920057E+04  0.50400001928E-02 0. -1.
       -1   -1    0    0    0  501  0.00000000000E+00  0.00000000000E+00 -0.14378011674E+04  0.14378011674E+04  0.50400001928E-02 0.  1.
    10030    2    1    2    0    0  0.00000000000E+00  0.00000000000E+00  0.25189083834E+03  0.31274931731E+04  0.31173329231E+04 0.  0.
        5    1    3    3  502    0 -0.13618100252E+04  0.62598453758E+03  0.55516673219E+03  0.15983164194E+04  0.46999998093E+01 0. -1.
       -5    1    3    3    0  502  0.13618100252E+04 -0.62598453758E+03 -0.30327589385E+03  0.15291767536E+04  0.46999998093E+01 0.  1.
</event>
<event>
 5   0  0.4173905E-07  0.3102985E+04  0.7818609E-02  0.8214919E-01
        1   -1    0    0  501    0  0.00000000000E+00  0.00000000000E+00  0.14620875938E+04  0.14620875938E+04  0.50400001928E-02 0.  1.
       -1   -1    0    0    0  501  0.00000000000E+00  0.00000000000E+00 -0.16463642990E+04  0.16463642990E+04  0.50400001928E-02 0. -1.
    10030    2    1    2    0    0  0.00000000000E+00  0.00000000000E+00 -0.18427670516E+03  0.31084518928E+04  0.31029848962E+04 0.  0.
        3    1    3    3  502    0  0.97974576014E+03  0.75378061304E+03  0.84708582144E+03  0.14985464178E+04  0.10100000352E+00 0.  1.
       -3    1    3    3    0  502 -0.97974576014E+03 -0.75378061304E+03 -0.10313625266E+04  0.16099054750E+04  0.10100000352E+00 0. -1.
</event>
<event>
 5   0  0.4134019E-07  0.3061383E+04  0.7818609E-02  0.8226417E-01
       -1   -1    0    0    0  501  0.00000000000E+00  0.00000000000E+00  0.16743071452E+04  0.16743071452E+04  0.50400001928E-02 0. -1.
        1   -1    0    0  501    0  0.00000000000E+00  0.00000000000E+00 -0.13993944819E+04  0.13993944819E+04  0.50400001928E-02 0.  1.
    10030    2    1    2    0    0  0.00000000000E+00  0.00000000000E+00  0.27491266330E+03  0.30737016271E+04  0.30613828118E+04 0.  0.
        2    1    3    3  502    0  0.23142114898E+03  0.14824440400E+04 -0.16678131182E+03  0.15096397206E+04  0.25500000920E-02 0.  1.
       -2    1    3    3    0  502 -0.23142114898E+03 -0.14824440400E+04  0.44169397512E+03  0.15640619066E+04  0.25500000920E-02 0. -1.
</event>
<event>
 5   0  0.1193123E-06  0.3092270E+04  0.7818609E-02  0.8217862E-01
       -2   -1    0    0    0  501  0.00000000000E+00  0.00000000000E+00  0.16738612652E+04  0.16738612652E+04  0.25500000920E-02 0. -1.
        2   -1    0    0  501    0  0.00000000000E+00  0.00000000000E+00 -0.14281555063E+04  0.14281555063E+04  0.25500000920E-02 0.  1.
    10030    2    1    2    0    0  0.00000000000E+00  0.00000000000E+00  0.24570575894E+03  0.31020167715E+04  0.30922704815E+04 0.  0.
        3    1    3    3  502    0 -0.35339427564E+03  0.87887813821E+03 -0.11029723285E+04  0.14539127428E+04  0.10100000352E+00 0.  1.
       -3    1    3    3    0  502  0.35339427564E+03 -0.87887813821E+03  0.13486780875E+04  0.16481040288E+04  0.10100000352E+00 0. -1.
</event>
<event>
 5   0  0.1193123E-06  0.3099586E+04  0.7818609E-02  0.8215851E-01
        2   -1    0    0  501    0  0.00000000000E+00  0.00000000000E+00  0.10342960769E+04  0.10342960769E+04  0.25500000920E-02 0. -1.
       -2   -1    0    0    0  501  0.00000000000E+00  0.00000000000E+00 -0.23222157115E+04  0.23222157115E+04  0.25500000920E-02 0.  1.
    10030    2    1    2    0    0  0.00000000000E+00  0.00000000000E+00 -0.12879196346E+04  0.33565117884E+04  0.30995861660E+04 0.  0.
        3    1    3    3  502    0 -0.12788077568E+03  0.10731493455E+03  0.10245308342E+04  0.10380430763E+04  0.10100000352E+00 0. -1.
       -3    1    3    3    0  502  0.12788077568E+03 -0.10731493455E+03 -0.23124504688E+04  0.23184687121E+04  0.10100000352E+00 0.  1.
</event>
<event>
 5   0  0.4173905E-07  0.3099632E+04  0.7818609E-02  0.8215839E-01
        1   -1    0    0  501    0  0.00000000000E+00  0.00000000000E+00  0.12446058204E+04  0.12446058204E+04  0.50400001928E-02 0. -1.
       -1   -1    0    0    0  501  0.00000000000E+00  0.00000000000E+00 -0.19298716588E+04  0.19298716588E+04  0.50400001928E-02 0.  1.
    10030    2    1    2    0    0  0.00000000000E+00  0.00000000000E+00 -0.68526583844E+03  0.31744774792E+04  0.30996319131E+04 0.  0.
        3    1    3    3  502    0 -0.16086232771E+03  0.13470774591E+04  0.42474962261E+03  0.14215859529E+04  0.10100000352E+00 0. -1.
       -3    1    3    3    0  502  0.16086232771E+03 -0.13470774591E+04 -0.11100154610E+04  0.17528915264E+04  0.10100000352E+00 0.  1.
</event>
<event>
 5   0  0.1176002E-06  0.3220716E+04  0.7818609E-02  0.8183367E-01
       -2   -1    0    0    0  501  0.00000000000E+00  0.00000000000E+00  0.97615729950E+03  0.97615729951E+03  0.25500000920E-02 0.  1.
        2   -1    0    0  501    0  0.00000000000E+00  0.00000000000E+00 -0.26565938863E+04  0.26565938863E+04  0.25500000920E-02 0. -1.
    10030    2    1    2    0    0  0.00000000000E+00  0.00000000000E+00 -0.16804365868E+04  0.36327511858E+04  0.32207163886E+04 0.  0.
        2    1    3    3  502    0  0.83251435538E+03 -0.10902535652E+04 -0.17916483925E+04  0.22564877466E+04  0.25500000920E-02 0. -1.
       -2    1    3    3    0  502 -0.83251435538E+03  0.10902535652E+04  0.11121180572E+03  0.13762634392E+04  0.25500000920E-02 0.  1.
</event>
<event>
 5   0  0.1258262E-06  0.3102697E+04  0.7818609E-02  0.8214998E-01
       -2   -1    0    0    0  501  0.00000000000E+00  0.00000000000E+00  0.14670492627E+04  0.14670492627E+04  0.25500000920E-02 0.  1.
        2   -1    0    0  501    0  0.00000000000E+00  0.00000000000E+00 -0.16404922095E+04  0.16404922095E+04  0.25500000920E-02 0. -1.
    10030    2    1    2    0    0  0.00000000000E+00  0.00000000000E+00 -0.17344294679E+03  0.31075414722E+04  0.31026974628E+04 0.  0.
        1    1    3    3  502    0 -0.13235853662E+04 -0.44536179688E+03 -0.76339267371E+03  0.15915381635E+04  0.50400001928E-02 0. -1.
       -1    1    3    3    0  502  0.13235853662E+04  0.44536179688E+03  0.58994972692E+03  0.15160033087E+04  0.50400001928E-02 0.  1.
</event>
<event>
 5   0  0.1237580E-06  0.3109283E+04  0.7818609E-02  0.8213195E-01
        2   -1    0    0  501    0  0.00000000000E+00  0.00000000000E+00  0.24881005600E+04  0.24881005600E+04  0.25500000920E-02 0. -1.
       -2   -1    0    0    0  501  0.00000000000E+00  0.00000000000E+00 -0.97138786903E+03  0.97138786903E+03  0.25500000920E-02 0.  1.
    10030    2    1    2    0    0  0.00000000000E+00  0.00000000000E+00  0.15167126910E+04  0.34594884290E+04  0.31092833264E+04 0.  0.
        4    1    3    3  502    0 -0.10862925514E+01 -0.16098677098E+03 -0.96208777060E+03  0.97546522834E+03  0.12699999809E+01 0.  1.
       -4    1    3    3    0  502  0.10862925514E+01  0.16098677098E+03  0.24788004615E+04  0.24840232007E+04  0.12699999809E+01 0. -1.
</event>
<event>
 5   0  0.3935852E-07  0.3081010E+04  0.7818609E-02  0.8220969E-01
       -1   -1    0    0    0  501  0.00000000000E+00  0.00000000000E+00  0.14434358617E+04  0.14434358617E+04  0.50400001928E-02 0. -1.
        1   -1    0    0  501    0  0.00000000000E+00  0.00000000000E+00 -0.16441017322E+04  0.16441017322E+04  0.50400001928E-02 0.  1.
    10030    2    1    2    0    0  0.00000000000E+00  0.00000000000E+00 -0.20066587046E+03  0.30875375940E+04  0.30810098349E+04 0.  0.
        5    1    3    3  502    0 -0.15206761942E+04  0.15245982475E+03 -0.29421953320E+03  0.15563699141E+04  0.46999998093E+01 0.  1.
       -5    1    3    3    0  502  0.15206761942E+04 -0.15245982475E+03  0.93553662736E+02  0.15311676798E+04  0.46999998093E+01 0. -1.
</event>
<event>
 5   0  0.1258262E-06  0.3114424E+04  0.7818609E-02  0.8211791E-01
       -2   -1    0    0    0  501  0.00000000000E+00  0.00000000000E+00  0.15547234149E+04  0.15547234149E+04  0.25500000920E-02 0.  1.
        2   -1    0    0  501    0  0.00000000000E+00  0.00000000000E+00 -0.15597045432E+04  0.15597045432E+04  0.25500000920E-02 0. -1.
    10030    2    1    2    0    0  0.00000000000E+00  0.00000000000E+00 -0.49811282595E+01  0.31144279581E+04  0.31144239748E+04 0.  0.
        1    1    3    3  502    0  0.10612938735E+04 -0.55518078436E+03  0.99266837683E+03  0.15556223499E+04  0.50400001928E-02 0.  1.
       -1    1    3    3    0  502 -0.10612938735E+04  0.55518078436E+03 -0.99764950509E+03  0.15588056082E+04  0.50400001928E-02 0. -1.
</event>
<event>
 5   0  0.1193123E-06  0.3104313E+04  0.7818609E-02  0.8214555E-01
        2   -1    0    0  501    0  0.00000000000E+00  0.00000000000E+00  0.18089886050E+04  0.18089886050E+04  0.25500000920E-02 0. -1.
       -2   -1    0    0    0  501  0.00000000000E+00  0.00000000000E+00 -0.13317881996E+04  0.13317881996E+04  0.25500000920E-02 0.  1.
    10030    2    1    2    0    0  0.00000000000E+00  0.00000000000E+00  0.47720040539E+03  0.31407768046E+04  0.31043129207E+04 0.  0.
        3    1    3    3  502    0 -0.94075126223E+03  0.83836507896E+03  0.11555128710E+04  0.17097014208E+04  0.10100000352E+00 0. -1.
       -3    1    3    3    0  502  0.94075126223E+03 -0.83836507896E+03 -0.67831246558E+03  0.14310753838E+04  0.10100000352E+00 0.  1.
</event>
<event>
 5   0  0.4219337E-07  0.3100534E+04  0.7818609E-02  0.8215591E-01
        1   -1    0    0  501    0  0.00000000000E+00  0.00000000000E+00  0.16463133869E+04  0.16463133870E+04  0.50400001928E-02 0. -1.
       -1   -1    0    0    0  501  0.00000000000E+00  0.00000000000E+00 -0.14598244133E+04  0.14598244133E+04  0.50400001928E-02 0.  1.
    10030    2    1    2    0    0  0.00000000000E+00  0.00000000000E+00  0.18648897363E+03  0.31061378003E+04  0.31005344534E+04 0.  0.
        4    1    3    3  502    0  0.14845067483E+04 -0.15283785253E+03 -0.32728450409E+03  0.15278208188E+04  0.12699999809E+01 0.  1.
       -4    1    3    3    0  502 -0.14845067483E+04  0.15283785253E+03  0.51377347771E+03  0.15783169815E+04  0.12699999809E+01 0. -1.
</event>
<event>
 5   0  0.1200286E-06  0.3127536E+04  0.7818609E-02  0.8208221E-01
       -2   -1    0    0    0  501  0.00000000000E+00  0.00000000000E+00  0.13416895716E+04  0.13416895716E+04  0.25500000920E-02 0. -1.
        2   -1    0    0  501    0  0.00000000000E+00  0.00000000000E+00 -0.18226055218E+04  0.18226055218E+04  0.25500000920E-02 0.  1.
    10030    2    1    2    0    0  0.00000000000E+00  0.00000000000E+00 -0.48091595015E+03  0.31642950934E+04  0.31275362967E+04 0.  0.
        5    1    3    3  502    0  0.17720066722E+03  0.77505311500E+02  0.13295345781E+04  0.13435369121E+04  0.46999998093E+01 0. -1.
       -5    1    3    3    0  502 -0.17720066722E+03 -0.77505311500E+02 -0.18104505282E+04  0.18207581813E+04  0.46999998093E+01 0.  1.
</event>
<event>
 5   0  0.1176002E-06  0.3083014E+04  0.7818609E-02  0.8220415E-01
       -2   -1    0    0    0  501  0.00000000000E+00  0.00000000000E+00  0.11083233973E+04  0.11083233973E+04  0.25500000920E-02 0.  1.
        2   -1    0    0  501    0  0.00000000000E+00  0.00000000000E+00 -0.21439989813E+04  0.21439989813E+04  0.25500000920E-02 0. -1.
    10030    2    1    2    0    0  0.00000000000E+00  0.00000000000E+00 -0.10356755841E+04  0.32523223786E+04  0.30830142619E+04 0.  0.
        2    1    3    3  502    0  0.88695345108E+03 -0.37520080208E+03 -0.17875918216E+04  0.20305040229E+04  0.25500000920E-02 0. -1.
       -2    1    3    3    0  502 -0.88695345108E+03  0.37520080208E+03  0.75191623749E+03  0.12218183558E+04  0.25500000920E-02 0.  1.
</event>
<event>
 5   0  0.1176002E-06  0.3092741E+04  0.7818609E-02  0.8217733E-01
       -2   -1    0    0    0  501  0.00000000000E+00  0.00000000000E+00  0.15216332365E+04  0.15216332365E+04  0.25500000920E-02 0. -1.
        2   -1    0    0  501    0  0.00000000000E+00  0.00000000000E+00 -0.15715096118E+04  0.15715096118E+04  0.25500000920E-02 0.  1.
    10030    2    1    2    0    0  0.00000000000E+00  0.00000000000E+00 -0.49876375322E+02  0.30931428483E+04  0.30927406984E+04 0.  0.
        2    1    3    3  502    0 -0.10934192052E+04 -0.51420617785E+03 -0.99009616030E+03  0.15621344239E+04  0.25500000920E-02 0. -1.
       -2    1    3    3    0  502  0.10934192052E+04  0.51420617785E+03  0.94021978498E+03  0.15310084244E+04  0.25500000920E-02 0.  1.
</event>
<event>
 5   0  0.4173905E-07  0.3101401E+04  0.7818609E-02  0.8215354E-01
       -1   -1    0    0    0  501  0.00000000000E+00  0.00000000000E+00  0.94204621410E+03  0.94204621412E+03  0.50400001928E-02 0. -1.
        1   -1    0    0  501    0  0.00000000000E+00  0.00000000000E+00 -0.25526047544E+04  0.25526047544E+04  0.50400001928E-02 0.  1.
    10030    2    1    2    0    0  0.00000000000E+00  0.00000000000E+00 -0.16105585403E+04  0.34946509685E+04  0.31014007448E+04 0.  0.
        3    1    3    3  502    0 -0.89848094646E+03  0.51183446461E+03 -0.21074152474E+04  0.23474329736E+04  0.10100000352E+00 0.  1.
       -3    1    3    3    0  502  0.89848094646E+03 -0.51183446461E+03  0.49685670710E+03  0.11472179949E+04  0.10100000352E+00 0. -1.
</event>
<event>
 5   0  0.4134019E-07  0.3099927E+04  0.7818609E-02  0.8215758E-01
       -1   -1    0    0    0  501  0.00000000000E+00  0.00000000000E+00  0.96880620030E+03  0.96880620031E+03  0.50400001928E-02 0.  1.
        1   -1    0    0  501    0  0.00000000000E+00  0.00000000000E+00 -0.24797400817E+04  0.24797400817E+04  0.50400001928E-02 0. -1.
    10030    2    1    2    0    0  0.00000000000E+00  0.00000000000E+00 -0.15109338814E+04  0.34485462820E+04  0.30999274613E+04 0.  0.
        2    1    3    3  502    0 -0.25532518563E+03  0.28481858039E+03 -0.24264086248E+04  0.24563736256E+04  0.25500000920E-02 0. -1.
       -2    1    3    3    0  502  0.25532518563E+03 -0.28481858039E+03  0.91547474343E+03  0.99217265636E+03  0.25500000920E-02 0.  1.
</event>
<event>
 5   0  0.1258262E-06  0.3252487E+04  0.7818609E-02  0.8175091E-01
        2   -1    0    0  501    0  0.00000000000E+00  0.00000000000E+00  0.13877278151E+04  0.13877278151E+04  0.25500000920E-02 0.  1.
       -2   -1    0    0    0  501  0.00000000000E+00  0.00000000000E+00 -0.19057539179E+04  0.19057539179E+04  0.25500000920E-02 0. -1.
    10030    2    1    2    0    0  0.00000000000E+00  0.00000000000E+00 -0.51802610278E+03  0.32934817330E+04  0.32524868766E+04 0.  0.
        1    1    3    3  502    0  0.97614878133E+03  0.11829139253E+04 -0.80667738891E+03  0.17328820525E+04  0.50400001928E-02 0. -1.
       -1    1    3    3    0  502 -0.97614878133E+03 -0.11829139253E+04  0.28865128613E+03  0.15605996806E+04  0.50400001928E-02 0.  1.
</event>
<event>
 5   0  0.4134019E-07  0.3101433E+04  0.7818609E-02  0.8215345E-01
       -1   -1    0    0    0  501  0.00000000000E+00  0.00000000000E+00  0.10882395465E+04  0.10882395465E+04  0.50400001928E-02 0. -1.
        1   -1    0    0  501    0  0.00000000000E+00  0.00000000000E+00 -0.22097349102E+04  0.22097349102E+04  0.50400001928E-02 0.  1.
    10030    2    1    2    0    0  0.00000000000E+00  0.00000000000E+00 -0.11214953637E+04  0.32979744567E+04  0.31014325184E+04 0.  0.
        2    1    3    3  502    0 -0.64449350336E+03  0.80585169074E+03  0.67017163530E+03  0.12304059672E+04  0.25500000920E-02 0. -1.
       -2    1    3    3    0  502  0.64449350336E+03 -0.80585169074E+03 -0.17916669990E+04  0.20675684895E+04  0.25500000920E-02 0.  1.
</event>
<event>
 5   0  0.3935852E-07  0.3096389E+04  0.7818609E-02  0.8216730E-01
        1   -1    0    0  501    0  0.00000000000E+00  0.00000000000E+00  0.13354229032E+04  0.13354229032E+04  0.50400001928E-02 0.  1.
       -1   -1    0    0    0  501  0.00000000000E+00  0.00000000000E+00 -0.17948666934E+04  0.17948666934E+04  0.50400001928E-02 0. -1.
    10030    2    1    2    0    0  0.00000000000E+00  0.00000000000E+00 -0.45944379018E+03  0.31302895966E+04  0.30963889229E+04 0.  0.
        5    1    3    3  502    0  0.18459355401E+03 -0.57266439527E+03  0.12123827735E+04  0.13534819427E+04  0.46999998093E+01 0.  1.
       -5    1    3    3    0  502 -0.18459355401E+03  0.57266439527E+03 -0.16718265637E+04  0.17768076538E+04  0.46999998093E+01 0. -1.
</event>
<event>
 5   0  0.1200286E-06  0.3103260E+04  0.7818609E-02  0.8214844E-01
       -2   -1    0    0    0  501  0.00000000000E+00  0.00000000000E+00  0.96072275366E+03  0.96072275367E+03  0.25500000920E-02 0.  1.
        2   -1    0    0  501    0  0.00000000000E+00  0.00000000000E+00 -0.25059837418E+04  0.25059837418E+04  0.25500000920E-02 0. -1.
    10030    2    1    2    0    0  0.00000000000E+00  0.00000000000E+00 -0.15452609882E+04  0.34667064955E+04  0.31032599640E+04 0.  0.
        5    1    3    3  502    0  0.12868136379E+04  0.86172714395E+03 -0.87902386526E+03  0.17807773738E+04  0.46999998093E+01 0. -1.
       -5    1    3    3    0  502 -0.12868136379E+04 -0.86172714395E+03 -0.66623712290E+03  0.16859291217E+04  0.46999998093E+01 0.  1.
</event>
<event>
 5   0  0.4134019E-07  0.3176292E+04  0.7818609E-02  0.8195107E-01
        1   -1    0    0  501    0  0.00000000000E+00  0.00000000000E+00  0.25288244738E+04  0.25288244738E+04  0.50400001928E-02 0.  1.
       -1   -1    0    0    0  501  0.00000000000E+00  0.00000000000E+00 -0.99738319060E+03  0.99738319061E+03  0.50400001928E-02 0. -1.
    10030    2    1    2    0    0  0.00000000000E+00  0.00000000000E+00  0.15314412832E+04  0.35262076644E+04  0.31762915623E+04 0.  0.
        2    1    3    3  502    0 -0.11887300208E+04  0.58301192913E+03  0.17393961222E+04  0.21859736599E+04  0.25500000920E-02 0.  1.
       -2    1    3    3    0  502  0.11887300208E+04 -0.58301192913E+03 -0.20795483903E+03  0.13402340045E+04  0.25500000920E-02 0. -1.
</event>
<event>
 5   0  0.4173905E-07  0.3090755E+04  0.7818609E-02  0.8218280E-01
       -1   -1    0    0    0  501  0.00000000000E+00  0.00000000000E+00  0.12580893066E+04  0.12580893066E+04  0.50400001928E-02 0. -1.
        1   -1    0    0  501    0  0.00000000000E+00  0.00000000000E+00 -0.18982688619E+04  0.18982688619E+04  0.50400001928E-02 0.  1.
    10030    2    1    2    0    0  0.00000000000E+00  0.00000000000E+00 -0.64017955530E+03  0.31563581686E+04  0.30907550898E+04 0.  0.
        3    1    3    3  502    0 -0.10936935736E+04 -0.66933431545E+03 -0.12009628132E+04  0.17568397046E+04  0.10100000352E+00 0. -1.
       -3    1    3    3    0  502  0.10936935736E+04  0.66933431545E+03  0.56078325787E+03  0.13995184640E+04  0.10100000352E+00 0.  1.
</event>
<event>
 5   0  0.3935852E-07  0.3098837E+04  0.7818609E-02  0.8216057E-01
        1   -1    0    0  501    0  0.00000000000E+00  0.00000000000E+00  0.24120831337E+04  0.24120831338E+04  0.50400001928E-02 0.  1.
       -1   -1    0    0    0  501  0.00000000000E+00  0.00000000000E+00 -0.99528001262E+03  0.99528001263E+03  0.50400001928E-02 0. -1.
    10030    2    1    2    0    0  0.00000000000E+00  0.00000000000E+00  0.14168031211E+04  0.34073631464E+04  0.30988372864E+04 0.  0.
        5    1    3    3  502    0 -0.11454804946E+04  0.83995746485E+03  0.13889067982E+04  0.19866399499E+04  0.46999998093E+01 0.  1.
       -5    1    3    3    0  502  0.11454804946E+04 -0.83995746485E+03  0.27896322941E+02  0.14207231965E+04  0.46999998093E+01 0. -1.
</event>
<event>
 5   0  0.1176002E-06  0.3193637E+04  0.7818609E-02  0.8190500E-01
        2   -1    0    0  501    0  0.00000000000E+00  0.00000000000E+00  0.17880984929E+04  0.17880984929E+04  0.25500000920E-02 0.  1.
       -2   -1    0    0    0  501  0.00000000000E+00  0.00000000000E+00 -0.14260004342E+04  0.14260004342E+04  0.25500000920E-02 0. -1.
    10030    2    1    2    0    0  0.00000000000E+00  0.00000000000E+00  0.36209805871E+03  0.32140989272E+04  0.31936369408E+04 0.  0.
        2    1    3    3  502    0  0.99780119106E+03 -0.14543560973E+03  0.14271543755E+04  0.17474347899E+04  0.25500000920E-02 0.  1.
       -2    1    3    3    0  502 -0.99780119106E+03  0.14543560973E+03 -0.10650563168E+04  0.14666641372E+04  0.25500000920E-02 0. -1.
</event>
<event>
 5   0  0.1193123E-06  0.3112383E+04  0.7818609E-02  0.8212348E-01
       -2   -1    0    0    0  501  0.00000000000E+00  0.00000000000E+00  0.78766827665E+03  0.78766827665E+03  0.25500000920E-02 0. -1.
        2   -1    0    0  501    0  0.00000000000E+00  0.00000000000E+00 -0.30745587542E+04  0.30745587542E+04  0.25500000920E-02 0.  1.
    10030    2    1    2    0    0  0.00000000000E+00  0.00000000000E+00 -0.22868904776E+04  0.38622270309E+04  0.31123832639E+04 0.  0.
        3    1    3    3  502    0 -0.12518987923E+04  0.72831108505E+03 -0.18498396115E+04  0.23493816678E+04  0.10100000352E+00 0.  1.
       -3    1    3    3    0  502  0.12518987923E+04 -0.72831108505E+03 -0.43705086613E+03  0.15128453631E+04  0.10100000352E+00 0. -1.
</event>
<event>
 5   0  0.4173905E-07  0.3109224E+04  0.7818609E-02  0.8213211E-01
       -1   -1    0    0    0  501  0.00000000000E+00  0.00000000000E+00  0.10204115519E+04  0.10204115519E+04  0.50400001928E-02 0.  1.
        1   -1    0    0  501    0  0.00000000000E+00  0.00000000000E+00 -0.23684740805E+04  0.23684740805E+04  0.50400001928E-02 0. -1.
    10030    2    1    2    0    0  0.00000000000E+00  0.00000000000E+00 -0.13480625286E+04  0.33888856324E+04  0.31092238981E+04 0.  0.
        3    1    3    3  502    0  0.11444495501E+04  0.97704297833E+02 -0.18158801803E+04  0.21486581259E+04  0.10100000352E+00 0. -1.
       -3    1    3    3    0  502 -0.11444495501E+04 -0.97704297833E+02  0.46781765168E+03  0.12402275065E+04  0.10100000352E+00 0.  1.
</event>
<event>
 5   0  0.1258262E-06  0.3079043E+04  0.7818609E-02  0.8221513E-01
        2   -1    0    0  501    0  0.00000000000E+00  0.00000000000E+00  0.24167816992E+04  0.24167816992E+04  0.25500000920E-02 0. -1.
       -2   -1    0    0    0  501  0.00000000000E+00  0.00000000000E+00 -0.98069521504E+03  0.98069521504E+03  0.25500000920E-02 0.  1.
    10030    2    1    2    0    0  0.00000000000E+00  0.00000000000E+00  0.14360864841E+04  0.33974769142E+04  0.30790428696E+04 0.  0.
        1    1    3    3  502    0 -0.66726001742E+03 -0.42779901943E+03 -0.73825285371E+03  0.10831736739E+04  0.50400001928E-02 0.  1.
       -1    1    3    3    0  502  0.66726001742E+03  0.42779901943E+03  0.21743393378E+04  0.23143032403E+04  0.50400001928E-02 0. -1.
</event>
<event>
 5   0  0.1258262E-06  0.3097264E+04  0.7818609E-02  0.8216489E-01
       -2   -1    0    0    0  501  0.00000000000E+00  0.00000000000E+00  0.10151350992E+04  0.10151350992E+04  0.25500000920E-02 0.  1.
        2   -1    0    0  501    0  0.00000000000E+00  0.00000000000E+00 -0.23625041008E+04  0.23625041008E+04  0.25500000920E-02 0. -1.
    10030    2    1    2    0    0  0.00000000000E+00  0.00000000000E+00 -0.13473690017E+04  0.33776392000E+04  0.30972638471E+04 0.  0.
        1    1    3    3  502    0 -0.11924223983E+04  0.95225184632E+03 -0.38597206030E+03  0.15740486607E+04  0.50400001928E-02 0. -1.
       -1    1    3    3    0  502  0.11924223983E+04 -0.95225184632E+03 -0.96139694135E+03  0.18035905393E+04  0.50400001928E-02 0.  1.
</event>
<event>
 5   0  0.1200286E-06  0.2998636E+04  0.7818609E-02  0.8244120E-01
       -2   -1    0    0    0  501  0.00000000000E+00  0.00000000000E+00  0.19613491486E+04  0.19613491486E+04  0.25500000920E-02 0. -1.
        2   -1    0    0  501    0  0.00000000000E+00  0.00000000000E+00 -0.11461268389E+04  0.11461268389E+04  0.25500000920E-02 0.  1.
    10030    2    1    2    0    0  0.00000000000E+00  0.00000000000E+00  0.81522230963E+03  0.31074759875E+04  0.29986362898E+04 0.  0.
        5    1    3    3  502    0  0.75220837759E+03  0.47885847385E+03  0.16566857874E+04  0.18814230703E+04  0.46999998093E+01 0. -1.
       -5    1    3    3    0  502 -0.75220837759E+03 -0.47885847385E+03 -0.84146347777E+03  0.12260529172E+04  0.46999998093E+01 0.  1.
</event>
<event>
 5   0  0.1193123E-06  0.3131079E+04  0.7818609E-02  0.8207260E-01
        2   -1    0    0  501    0  0.00000000000E+00  0.00000000000E+00  0.21031466592E+04  0.21031466592E+04  0.25500000920E-02 0.  1.
       -2   -1    0    0    0  501  0.00000000000E+00  0.00000000000E+00 -0.11653556267E+04  0.11653556267E+04  0.25500000920E-02 0. -1.
    10030    2    1    2    0    0  0.00000000000E+00  0.00000000000E+00  0.93779103253E+03  0.32685022860E+04  0.31310789151E+04 0.  0.
        3    1    3    3  502    0  0.62214449790E+02  0.87246970206E+03 -0.88649026740E+03  0.12453670235E+04  0.10100000352E+00 0. -1.
       -3    1    3    3    0  502 -0.62214449790E+02 -0.87246970206E+03  0.18242812999E+04  0.20231352625E+04  0.10100000352E+00 0.  1.
</event>
<event>
 5   0  0.4330395E-07  0.3097515E+04  0.7818609E-02  0.8216420E-01
        1   -1    0    0  501    0  0.00000000000E+00  0.00000000000E+00  0.18169930930E+04  0.18169930930E+04  0.50400001928E-02 0.  1.
       -1   -1    0    0    0  501  0.00000000000E+00  0.00000000000E+00 -0.13201207577E+04  0.13201207577E+04  0.50400001928E-02 0. -1.
    10030    2    1    2    0    0  0.00000000000E+00  0.00000000000E+00  0.49687233530E+03  0.31371138506E+04  0.30975153259E+04 0.  0.
        1    1    3    3  502    0 -0.13820234073E+04 -0.39468784851E+03  0.83277223259E+03  0.16611070969E+04  0.50400001928E-02 0. -1.
       -1    1    3    3    0  502  0.13820234073E+04  0.39468784851E+03 -0.33589989729E+03  0.14760067537E+04  0.50400001928E-02 0.  1.
</event>
<event>
 5   0  0.4330395E-07  0.3095974E+04  0.7818609E-02  0.8216844E-01
       -1   -1    0    0    0  501  0.00000000000E+00  0.00000000000E+00  0.13712515214E+04  0.13712515214E+04  0.50400001928E-02 0.  1.
        1   -1    0    0  501    0  0.00000000000E+00  0.00000000000E+00 -0.17475009831E+04  0.17475009831E+04  0.50400001928E-02 0. -1.
    10030    2    1    2    0    0  0.00000000000E+00  0.00000000000E+00 -0.37624946174E+03  0.31187525045E+04  0.30959737607E+04 0.  0.
        1    1    3    3  502    0  0.41025855063E+03  0.14491715769E+04 -0.54832097224E+03  0.16028306917E+04  0.50400001928E-02 0. -1.
       -1    1    3    3    0  502 -0.41025855063E+03 -0.14491715769E+04  0.17207151050E+03  0.15159218128E+04  0.50400001928E-02 0.  1.
</event>
<event>
 5   0  0.4173905E-07  0.3101242E+04  0.7818609E-02  0.8215397E-01
        1   -1    0    0  501    0  0.00000000000E+00  0.00000000000E+00  0.23331566606E+04  0.23331566606E+04  0.50400001928E-02 0.  1.
       -1   -1    0    0    0  501  0.00000000000E+00  0.00000000000E+00 -0.10305458126E+04  0.10305458126E+04  0.50400001928E-02 0. -1.
    10030    2    1    2    0    0  0.00000000000E+00  0.00000000000E+00  0.13026108480E+04  0.33637024732E+04  0.31012415751E+04 0.  0.
        3    1    3    3  502    0 -0.73294293124E+02 -0.32127975087E+02  0.23309153321E+04  0.23322886948E+04  0.10100000352E+00 0.  1.
       -3    1    3    3    0  502  0.73294293124E+02  0.32127975087E+02 -0.10283044841E+04  0.10314137785E+04  0.10100000352E+00 0. -1.
</event>
<event>
 5   0  0.1200286E-06  0.3103188E+04  0.7818609E-02  0.8214864E-01
        2   -1    0    0  501    0  0.00000000000E+00  0.00000000000E+00  0.20474794526E+04  0.20474794526E+04  0.25500000920E-02 0.  1.
       -2   -1    0    0    0  501  0.00000000000E+00  0.00000000000E+00 -0.11758085276E+04  0.11758085276E+04  0.25500000920E-02 0. -1.
    10030    2    1    2    0    0  0.00000000000E+00  0.00000000000E+00  0.87167092500E+03  0.32232879801E+04  0.31031879095E+04 0.  0.
        5    1    3    3  502    0 -0.51443151888E+02 -0.53600773617E+02 -0.11739525922E+04  0.11763104265E+04  0.46999998093E+01 0. -1.
       -5    1    3    3    0  502  0.51443151888E+02  0.53600773617E+02  0.20456235172E+04  0.20469775536E+04  0.46999998093E+01 0.  1.
</event>
<event>
 5   0  0.1258262E-06  0.3089374E+04  0.7818609E-02  0.8218660E-01
       -2   -1    0    0    0  501  0.00000000000E+00  0.00000000000E+00  0.12716658598E+04  0.12716658598E+04  0.25500000920E-02 0. -1.
        2   -1    0    0  501    0  0.00000000000E+00  0.00000000000E+00 -0.18763246266E+04  0.18763246266E+04  0.25500000920E-02 0.  1.
    10030    2    1    2    0    0  0.00000000000E+00  0.00000000000E+00 -0.60465876682E+03  0.31479904864E+04  0.30893740269E+04 0.  0.
        1    1    3    3  502    0  0.70022142048E+03  0.11722965594E+04 -0.10381586321E+04  0.17153316316E+04  0.50400001928E-02 0.  1.
       -1    1    3    3    0  502 -0.70022142048E+03 -0.11722965594E+04  0.43349986532E+03  0.14326588548E+04  0.50400001928E-02 0. -1.
</event>
<event>
 5   0  0.3935852E-07  0.3101628E+04  0.7818609E-02  0.8215291E-01
       -1   -1    0    0    0  501  0.00000000000E+00  0.00000000000E+00  0.13547210076E+04  0.13547210076E+04  0.50400001928E-02 0.  1.
        1   -1    0    0  501    0  0.00000000000E+00  0.00000000000E+00 -0.17752913698E+04  0.17752913699E+04  0.50400001928E-02 0. -1.
    10030    2    1    2    0    0  0.00000000000E+00  0.00000000000E+00 -0.42057036221E+03  0.31300123775E+04  0.31016282907E+04 0.  0.
        5    1    3    3  502    0 -0.11227613422E+04  0.65585928275E+03  0.64258682585E+03  0.14504083388E+04  0.46999998093E+01 0.  1.
       -5    1    3    3    0  502  0.11227613422E+04 -0.65585928275E+03 -0.10631571881E+04  0.16796040387E+04  0.46999998093E+01 0. -1.
</event>
<event>
 5   0  0.3935852E-07  0.3111177E+04  0.7818609E-02  0.8212677E-01
       -1   -1    0    0    0  501  0.00000000000E+00  0.00000000000E+00  0.11227322317E+04  0.11227322317E+04  0.50400001928E-02 0.  1.
        1   -1    0    0  501    0  0.00000000000E+00  0.00000000000E+00 -0.21553270222E+04  0.21553270222E+04  0.50400001928E-02 0. -1.
    10030    2    1    2    0    0  0.00000000000E+00  0.00000000000E+00 -0.10325947905E+04  0.32780592539E+04  0.31111767020E+04 0.  0.
        5    1    3    3  502    0  0.28983162203E+03 -0.58832069936E+02 -0.21254261418E+04  0.21459081890E+04  0.46999998093E+01 0. -1.
       -5    1    3    3    0  502 -0.28983162203E+03  0.58832069936E+02  0.10928313512E+04  0.11321510649E+04  0.46999998093E+01 0.  1.
</event>
<event>
 5   0  0.1258262E-06  0.3087537E+04  0.7818609E-02  0.8219167E-01
       -2   -1    0    0    0  501  0.00000000000E+00  0.00000000000E+00  0.76389912996E+03  0.76389912996E+03  0.25500000920E-02 0.  1.
        2   -1    0    0  501    0  0.00000000000E+00  0.00000000000E+00 -0.31198116943E+04  0.31198116943E+04  0.25500000920E-02 0. -1.
    10030    2    1    2    0    0  0.00000000000E+00  0.00000000000E+00 -0.23559125644E+04  0.38837108243E+04  0.30875371667E+04 0.  0.
        1    1    3    3  502    0 -0.11915562518E+04 -0.98144829447E+03 -0.11945669368E+04  0.19519316644E+04  0.50400001928E-02 0. -1.
       -1    1    3    3    0  502  0.11915562518E+04  0.98144829447E+03 -0.11613456275E+04  0.19317791599E+04  0.50400001928E-02 0.  1.
</event>
<event>
 5   0  0.4173905E-07  0.3116657E+04  0.7818609E-02  0.8211181E-01
       -1   -1    0    0    0  501  0.00000000000E+00  0.00000000000E+00  0.16610146069E+04  0.16610146069E+04  0.50400001928E-02 0. -1.
        1   -1    0    0  501    0  0.00000000000E+00  0.00000000000E+00 -0.14619902562E+04  0.14619902562E+04  0.50400001928E-02 0.  1.
    10030    2    1    2    0    0  0.00000000000E+00  0.00000000000E+00  0.19902435069E+03  0.31230048631E+04  0.31166566514E+04 0.  0.
        3    1    3    3  502    0  0.61786428069E+03  0.10526805584E+03  0.15291450847E+04  0.16526107628E+04  0.10100000352E+00 0. -1.
       -3    1    3    3    0  502 -0.61786428069E+03 -0.10526805584E+03 -0.13301207340E+04  0.14703941003E+04  0.10100000352E+00 0.  1.
</event>
<event>
 5   0  0.4134019E-07  0.3117662E+04  0.7818609E-02  0.8210907E-01
       -1   -1    0    0    0  501  0.00000000000E+00  0.00000000000E+00  0.11407463016E+04  0.11407463016E+04  0.50400001928E-02 0. -1.
        1   -1    0    0  501    0  0.00000000000E+00  0.00000000000E+00 -0.21301445105E+04  0.21301445105E+04  0.50400001928E-02 0.  1.
    10030    2    1    2    0    0  0.00000000000E+00  0.00000000000E+00 -0.98939820887E+03  0.32708908121E+04  0.31176622474E+04 0.  0.
        2    1    3    3  502    0 -0.26531732370E+03 -0.26185102302E+03  0.10932956938E+04  0.11550994393E+04  0.25500000920E-02 0. -1.
       -2    1    3    3    0  502  0.26531732370E+03  0.26185102302E+03 -0.20826939027E+04  0.21157913727E+04  0.25500000920E-02 0.  1.
</event>
<event>
 5   0  0.4219337E-07  0.3106351E+04  0.7818609E-02  0.8213997E-01
       -1   -1    0    0    0  501  0.00000000000E+00  0.00000000000E+00  0.11726954889E+04  0.11726954890E+04  0.50400001928E-02 0. -1.
        1   -1    0    0  501    0  0.00000000000E+00  0.00000000000E+00 -0.20571019154E+04  0.20571019154E+04  0.50400001928E-02 0.  1.
    10030    2    1    2    0    0  0.00000000000E+00  0.00000000000E+00 -0.88440642642E+03  0.32297974043E+04  0.31063510017E+04 0.  0.
        4    1    3    3  502    0 -0.67750094688E+02  0.41683262762E+03 -0.19962625711E+04  0.20404424472E+04  0.12699999809E+01 0.  1.
       -4    1    3    3    0  502  0.67750094688E+02 -0.41683262762E+03  0.11118561446E+04  0.11893549571E+04  0.12699999809E+01 0. -1.
</event>
<event>
 5   0  0.4219337E-07  0.3043844E+04  0.7818609E-02  0.8231321E-01
       -1   -1    0    0    0  501  0.00000000000E+00  0.00000000000E+00  0.15163414199E+04  0.15163414199E+04  0.50400001928E-02 0. -1.
        1   -1    0    0  501    0  0.00000000000E+00  0.00000000000E+00 -0.15275229828E+04  0.15275229828E+04  0.50400001928E-02 0.  1.
    10030    2    1    2    0    0  0.00000000000E+00  0.00000000000E+00 -0.11181562846E+02  0.30438644027E+04  0.30438438650E+04 0.  0.
        4    1    3    3  502    0 -0.12224709538E+04 -0.57208475374E+03  0.69764120797E+03  0.15193488955E+04  0.12699999809E+01 0. -1.
       -4    1    3    3    0  502  0.12224709538E+04  0.57208475374E+03 -0.70882277082E+03  0.15245155072E+04  0.12699999809E+01 0.  1.
</event>
<event>
 5   0  0.4330395E-07  0.3103091E+04  0.7818609E-02  0.8214890E-01
        1   -1    0    0  501    0  0.00000000000E+00  0.00000000000E+00  0.20354790765E+04  0.20354790765E+04  0.50400001928E-02 0.  1.
       -1   -1    0    0    0  501  0.00000000000E+00  0.00000000000E+00 -0.11826665057E+04  0.11826665057E+04  0.50400001928E-02 0. -1.
    10030    2    1    2    0    0  0.00000000000E+00  0.00000000000E+00  0.85281257082E+03  0.32181455822E+04  0.31030906701E+04 0.  0.
        1    1    3    3  502    0  0.10752461336E+04 -0.14007130573E+02 -0.73351866785E+03  0.13016912398E+04  0.50400001928E-02 0. -1.
       -1    1    3    3    0  502 -0.10752461336E+04  0.14007130573E+02  0.15863312387E+04  0.19164543424E+04  0.50400001928E-02 0.  1.
</event>
<event>
 5   0  0.4173905E-07  0.3110203E+04  0.7818609E-02  0.8212943E-01
       -1   -1    0    0    0  501  0.00000000000E+00  0.00000000000E+00  0.10706290781E+04  0.10706290781E+04  0.50400001928E-02 0.  1.
        1   -1    0    0  501    0  0.00000000000E+00  0.00000000000E+00 -0.22588031206E+04  0.22588031206E+04  0.50400001928E-02 0. -1.
    10030    2    1    2    0    0  0.00000000000E+00  0.00000000000E+00 -0.11881740425E+04  0.33294321987E+04  0.31102027603E+04 0.  0.
        3    1    3    3  502    0  0.19189996239E+03 -0.59955515242E+03 -0.21163063672E+04  0.22079503225E+04  0.10100000352E+00 0. -1.
       -3    1    3    3    0  502 -0.19189996239E+03  0.59955515242E+03  0.92813232468E+03  0.11214818762E+04  0.10100000352E+00 0.  1.
</event>
<event>
 5   0  0.4219337E-07  0.3074767E+04  0.7818609E-02  0.8222697E-01
        1   -1    0    0  501    0  0.00000000000E+00  0.00000000000E+00  0.14035183769E+04  0.14035183769E+04  0.50400001928E-02 0. -1.
       -1   -1    0    0    0  501  0.00000000000E+00  0.00000000000E+00 -0.16840164478E+04  0.16840164478E+04  0.50400001928E-02 0.  1.
    10030    2    1    2    0    0  0.00000000000E+00  0.00000000000E+00 -0.28049807091E+03  0.30875348247E+04  0.30747670035E+04 0.  0.
        4    1    3    3  502    0  0.26042878241E+03  0.72159471634E+03 -0.14780817398E+04  0.16653075776E+04  0.12699999809E+01 0.  1.
       -4    1    3    3    0  502 -0.26042878241E+03 -0.72159471634E+03  0.11975836689E+04  0.14222272471E+04  0.12699999809E+01 0. -1.
</event>
<event>
 5   0  0.1200286E-06  0.3097805E+04  0.7818609E-02  0.8216340E-01
        2   -1    0    0  501    0  0.00000000000E+00  0.00000000000E+00  0.11320267730E+04  0.11320267730E+04  0.25500000920E-02 0. -1.
       -2   -1    0    0    0  501  0.00000000000E+00  0.00000000000E+00 -0.21192957709E+04  0.21192957709E+04  0.25500000920E-02 0.  1.
    10030    2    1    2    0    0  0.00000000000E+00  0.00000000000E+00 -0.98726899789E+03  0.32513225439E+04  0.30978053861E+04 0.  0.
        5    1    3    3  502    0 -0.46044398792E+03 -0.35302410484E+03 -0.20009247104E+04  0.20833522197E+04  0.46999998093E+01 0.  1.
       -5    1    3    3    0  502  0.46044398792E+03  0.35302410484E+03  0.10136557125E+04  0.11679703242E+04  0.46999998093E+01 0. -1.
</event>
<event>
 5   0  0.4134019E-07  0.3097990E+04  0.7818609E-02  0.8216290E-01
        1   -1    0    0  501    0  0.00000000000E+00  0.00000000000E+00  0.15962055474E+04  0.15962055474E+04  0.50400001928E-02 0.  1.
       -1   -1    0    0    0  501  0.00000000000E+00  0.00000000000E+00 -0.15031804436E+04  0.15031804436E+04  0.50400001928E-02 0. -1.
    10030    2    1    2    0    0  0.00000000000E+00  0.00000000000E+00  0.93025103769E+02  0.30993859910E+04  0.30979896467E+04 0.  0.
        2    1    3    3  502    0  0.69993077999E+03  0.12442855354E+04  0.64781204646E+03  0.15677404243E+04  0.25500000920E-02 0.  1.
       -2    1    3    3    0  502 -0.69993077999E+03 -0.12442855354E+04 -0.55478694269E+03  0.15316455667E+04  0.25500000920E-02 0. -1.
</event>
<event>
 5   0  0.4173905E-07  0.3096962E+04  0.7818609E-02  0.8216572E-01
       -1   -1    0    0    0  501  0.00000000000E+00  0.00000000000E+00  0.10779606645E+04  0.10779606646E+04  0.50400001928E-02 0. -1.
        1   -1    0    0  501    0  0.00000000000E+00  0.00000000000E+00 -0.22243786862E+04  0.22243786862E+04  0.50400001928E-02 0.  1.
    10030    2    1    2    0    0  0.00000000000E+00  0.00000000000E+00 -0.11464180217E+04  0.33023393508E+04  0.30969615605E+04 0.  0.
        3    1    3    3  502    0 -0.23721989639E+03  0.27282699265E+03  0.10323259762E+04  0.10938028975E+04  0.10100000352E+00 0. -1.
       -3    1    3    3    0  502  0.23721989639E+03 -0.27282699265E+03 -0.21787439979E+04  0.22085364533E+04  0.10100000352E+00 0.  1.
</event>
<event>
 5   0  0.4134019E-07  0.3102574E+04  0.7818609E-02  0.8215032E-01
       -1   -1    0    0    0  501  0.00000000000E+00  0.00000000000E+00  0.16164696512E+04  0.16164696512E+04  0.50400001928E-02 0. -1.
        1   -1    0    0  501    0  0.00000000000E+00  0.00000000000E+00 -0.14887325322E+04  0.14887325322E+04  0.50400001928E-02 0.  1.
    10030    2    1    2    0    0  0.00000000000E+00  0.00000000000E+00  0.12773711896E+03  0.31052021834E+04  0.31025737426E+04 0.  0.
        2    1    3    3  502    0  0.48544023629E+03  0.14323084292E+04 -0.28186771826E+03  0.15383787147E+04  0.25500000920E-02 0.  1.
       -2    1    3    3    0  502 -0.48544023629E+03 -0.14323084292E+04  0.40960483722E+03  0.15668234687E+04  0.25500000920E-02 0. -1.
</event>
<event>
 5   0  0.1258262E-06  0.3095062E+04  0.7818609E-02  0.8217094E-01
        2   -1    0    0  501    0  0.00000000000E+00  0.00000000000E+00  0.21903572096E+04  0.21903572096E+04  0.25500000920E-02 0. -1.
       -2   -1    0    0    0  501  0.00000000000E+00  0.00000000000E+00 -0.10933615620E+04  0.10933615620E+04  0.25500000920E-02 0.  1.
    10030    2    1    2    0    0  0.00000000000E+00  0.00000000000E+00  0.10969956476E+04  0.32837187716E+04  0.30950621189E+04 0.  0.
        1    1    3    3  502    0 -0.89162449671E+03 -0.75392320885E+03  0.16260103951E+04  0.20018252304E+04  0.50400001928E-02 0. -1.
       -1    1    3    3    0  502  0.89162449671E+03  0.75392320885E+03 -0.52901474748E+03  0.12818935412E+04  0.50400001928E-02 0.  1.
</event>
<event>
 5   0  0.4330395E-07  0.3103717E+04  0.7818609E-02  0.8214718E-01
       -1   -1    0    0    0  501  0.00000000000E+00  0.00000000000E+00  0.12792208286E+04  0.12792208286E+04  0.50400001928E-02 0. -1.
        1   -1    0    0  501    0  0.00000000000E+00  0.00000000000E+00 -0.18826033009E+04  0.18826033009E+04  0.50400001928E-02 0.  1.
    10030    2    1    2    0    0  0.00000000000E+00  0.00000000000E+00 -0.60338247228E+03  0.31618241294E+04  0.31037173547E+04 0.  0.
        1    1    3    3  502    0 -0.15499625176E+04 -0.75135244114E+02 -0.31734921063E+03  0.15839001333E+04  0.50400001928E-02 0. -1.
       -1    1    3    3    0  502  0.15499625176E+04  0.75135244114E+02 -0.28603326166E+03  0.15779239961E+04  0.50400001928E-02 0.  1.
</event>
<event>
 5   0  0.1176002E-06  0.3122029E+04  0.7818609E-02  0.8209718E-01
        2   -1    0    0  501    0  0.00000000000E+00  0.00000000000E+00  0.21504004384E+04  0.21504004384E+04  0.25500000920E-02 0. -1.
       -2   -1    0    0    0  501  0.00000000000E+00  0.00000000000E+00 -0.11331689423E+04  0.11331689423E+04  0.25500000920E-02 0.  1.
    10030    2    1    2    0    0  0.00000000000E+00  0.00000000000E+00  0.10172314961E+04  0.32835693808E+04  0.31220294620E+04 0.  0.
        2    1    3    3  502    0  0.10146577126E+04 -0.27051609214E+02  0.17559413285E+04  0.20281992044E+04  0.25500000920E-02 0. -1.
       -2    1    3    3    0  502 -0.10146577126E+04  0.27051609214E+02 -0.73870983241E+03  0.12553701764E+04  0.25500000920E-02 0.  1.
</event>
<event>
 5   0  0.3902375E-07  0.3091416E+04  0.7818609E-02  0.8218098E-01
        3   -1    0    0  501    0  0.00000000000E+00  0.00000000000E+00  0.16661629193E+04  0.16661629224E+04  0.10100000352E+00 0. -1.
       -3   -1    0    0    0  501  0.00000000000E+00  0.00000000000E+00 -0.14339614717E+04  0.14339614753E+04  0.10100000352E+00 0.  1.
    10030    2    1    2    0    0  0.00000000000E+00  0.00000000000E+00  0.23220144757E+03  0.31001243977E+04  0.30914161429E+04 0.  0.
        4    1    3    3  502    0 -0.12096628848E+04 -0.77601803653E+03 -0.45446909074E+03  0.15073261277E+04  0.12699999809E+01 0.  1.
       -4    1    3    3    0  502  0.12096628848E+04  0.77601803653E+03  0.68667053831E+03  0.15927982700E+04  0.12699999809E+01 0. -1.
</event>
<event>
 5   0  0.4330395E-07  0.3111105E+04  0.7818609E-02  0.8212697E-01
        1   -1    0    0  501    0  0.00000000000E+00  0.00000000000E+00  0.13270921765E+04  0.13270921765E+04  0.50400001928E-02 0.  1.
       -1   -1    0    0    0  501  0.00000000000E+00  0.00000000000E+00 -0.18233424709E+04  0.18233424709E+04  0.50400001928E-02 0. -1.
    10030    2    1    2    0    0  0.00000000000E+00  0.00000000000E+00 -0.49625029443E+03  0.31504346474E+04  0.31111049665E+04 0.  0.
        1    1    3    3  502    0 -0.13974426295E+04  0.52358574534E+03  0.19646445819E+03  0.15051864399E+04  0.50400001928E-02 0.  1.
       -1    1    3    3    0  502  0.13974426295E+04 -0.52358574534E+03 -0.69271475262E+03  0.16452482074E+04  0.50400001928E-02 0. -1.
</event>
<event>
 5   0  0.4173905E-07  0.3103752E+04  0.7818609E-02  0.8214709E-01
        1   -1    0    0  501    0  0.00000000000E+00  0.00000000000E+00  0.10707761024E+04  0.10707761024E+04  0.50400001928E-02 0. -1.
       -1   -1    0    0    0  501  0.00000000000E+00  0.00000000000E+00 -0.22491346906E+04  0.22491346906E+04  0.50400001928E-02 0.  1.
    10030    2    1    2    0    0  0.00000000000E+00  0.00000000000E+00 -0.11783585882E+04  0.33199107931E+04  0.31037523599E+04 0.  0.
        3    1    3    3  502    0 -0.99157191933E+02  0.30751527916E+03  0.10343989581E+04  0.10836876905E+04  0.10100000352E+00 0. -1.
       -3    1    3    3    0  502  0.99157191933E+02 -0.30751527916E+03 -0.22127575463E+04  0.22362231026E+04  0.10100000352E+00 0.  1.
</event>
<event>
 5   0  0.1193123E-06  0.3101998E+04  0.7818609E-02  0.8215190E-01
        2   -1    0    0  501    0  0.00000000000E+00  0.00000000000E+00  0.16864254002E+04  0.16864254002E+04  0.25500000920E-02 0.  1.
       -2   -1    0    0    0  501  0.00000000000E+00  0.00000000000E+00 -0.14264479097E+04  0.14264479097E+04  0.25500000920E-02 0. -1.
    10030    2    1    2    0    0  0.00000000000E+00  0.00000000000E+00  0.25997749051E+03  0.31128733099E+04  0.31019980574E+04 0.  0.
        3    1    3    3  502    0 -0.12160437944E+04  0.20806670867E+03 -0.81327674179E+03  0.14776580572E+04  0.10100000352E+00 0. -1.
       -3    1    3    3    0  502  0.12160437944E+04 -0.20806670867E+03  0.10732542323E+04  0.16352152527E+04  0.10100000352E+00 0.  1.
</event>
<event>
 5   0  0.1237580E-06  0.3107703E+04  0.7818609E-02  0.8213627E-01
       -2   -1    0    0    0  501  0.00000000000E+00  0.00000000000E+00  0.95991153040E+03  0.95991153040E+03  0.25500000920E-02 0.  1.
        2   -1    0    0  501    0  0.00000000000E+00  0.00000000000E+00 -0.25152887002E+04  0.25152887002E+04  0.25500000920E-02 0. -1.
    10030    2    1    2    0    0  0.00000000000E+00  0.00000000000E+00 -0.15553771698E+04  0.34752002306E+04  0.31077030911E+04 0.  0.
        4    1    3    3  502    0  0.25745456027E+03 -0.15248449194E+04 -0.60803018414E+03  0.16616669933E+04  0.12699999809E+01 0. -1.
       -4    1    3    3    0  502 -0.25745456027E+03  0.15248449194E+04 -0.94734698567E+03  0.18135332373E+04  0.12699999809E+01 0.  1.
</event>
<event>
 5   0  0.4330395E-07  0.3097392E+04  0.7818609E-02  0.8216454E-01
        1   -1    0    0  501    0  0.00000000000E+00  0.00000000000E+00  0.19655783575E+04  0.19655783575E+04  0.50400001928E-02 0. -1.
       -1   -1    0    0    0  501  0.00000000000E+00  0.00000000000E+00 -0.12202304428E+04  0.12202304428E+04  0.50400001928E-02 0.  1.
    10030    2    1    2    0    0  0.00000000000E+00  0.00000000000E+00  0.74534791465E+03  0.31858088003E+04  0.30973915152E+04 0.  0.
        1    1    3    3  502    0 -0.46723708785E+03 -0.10636584417E+04  0.14260066108E+04  0.18393408142E+04  0.50400001928E-02 0. -1.
       -1    1    3    3    0  502  0.46723708785E+03  0.10636584417E+04 -0.68065869618E+03  0.13464679861E+04  0.50400001928E-02 0.  1.
</event>
<event>
 5   0  0.3935852E-07  0.3102837E+04  0.7818609E-02  0.8214960E-01
        1   -1    0    0  501    0  0.00000000000E+00  0.00000000000E+00  0.21478005671E+04  0.21478005671E+04  0.50400001928E-02 0. -1.
       -1   -1    0    0    0  501  0.00000000000E+00  0.00000000000E+00 -0.11206342226E+04  0.11206342226E+04  0.50400001928E-02 0.  1.
    10030    2    1    2    0    0  0.00000000000E+00  0.00000000000E+00  0.10271663446E+04  0.32684347897E+04  0.31028366498E+04 0.  0.
        5    1    3    3  502    0 -0.76086799851E+03  0.11857632511E+04 -0.17063887549E+03  0.14191879068E+04  0.46999998093E+01 0. -1.
       -5    1    3    3    0  502  0.76086799851E+03 -0.11857632511E+04  0.11978052200E+04  0.18492468829E+04  0.46999998093E+01 0.  1.
</event>
<event>
 5   0  0.1193123E-06  0.3102373E+04  0.7818609E-02  0.8215087E-01
        2   -1    0    0  501    0  0.00000000000E+00  0.00000000000E+00  0.14665050396E+04  0.14665050396E+04  0.25500000920E-02 0. -1.
       -2   -1    0    0    0  501  0.00000000000E+00  0.00000000000E+00 -0.16407582353E+04  0.16407582353E+04  0.25500000920E-02 0.  1.
    10030    2    1    2    0    0  0.00000000000E+00  0.00000000000E+00 -0.17425319571E+03  0.31072632748E+04  0.31023734274E+04 0.  0.
        3    1    3    3  502    0  0.71771104829E+03  0.28777641589E+03 -0.14339601071E+04  0.16291611379E+04  0.10100000352E+00 0.  1.
       -3    1    3    3    0  502 -0.71771104829E+03 -0.28777641589E+03  0.12597069114E+04  0.14781021369E+04  0.10100000352E+00 0. -1.
</event>
<event>
 5   0  0.4219337E-07  0.3099530E+04  0.7818609E-02  0.8215867E-01
       -1   -1    0    0    0  501  0.00000000000E+00  0.00000000000E+00  0.18804477137E+04  0.18804477137E+04  0.50400001928E-02 0. -1.
        1   -1    0    0  501    0  0.00000000000E+00  0.00000000000E+00 -0.12772341109E+04  0.12772341109E+04  0.50400001928E-02 0.  1.
    10030    2    1    2    0    0  0.00000000000E+00  0.00000000000E+00  0.60321360280E+03  0.31576818246E+04  0.30995302636E+04 0.  0.
        4    1    3    3  502    0 -0.10563410778E+04 -0.74317636411E+03  0.11741822063E+04  0.17455294462E+04  0.12699999809E+01 0. -1.
       -4    1    3    3    0  502  0.10563410778E+04  0.74317636411E+03 -0.57096860350E+03  0.14121523784E+04  0.12699999809E+01 0.  1.
</event>
<event>
 5   0  0.1193123E-06  0.3097858E+04  0.7818609E-02  0.8216326E-01
       -2   -1    0    0    0  501  0.00000000000E+00  0.00000000000E+00  0.16123912147E+04  0.16123912147E+04  0.25500000920E-02 0. -1.
        2   -1    0    0  501    0  0.00000000000E+00  0.00000000000E+00 -0.14879649750E+04  0.14879649750E+04  0.25500000920E-02 0.  1.
    10030    2    1    2    0    0  0.00000000000E+00  0.00000000000E+00  0.12442623974E+03  0.31003561897E+04  0.30978583915E+04 0.  0.
        3    1    3    3  502    0 -0.20521947738E+03  0.87289641936E+03 -0.12017852070E+04  0.14994501948E+04  0.10100000352E+00 0.  1.
       -3    1    3    3    0  502  0.20521947738E+03 -0.87289641936E+03  0.13262114467E+04  0.16009059949E+04  0.10100000352E+00 0. -1.
</event>
<event>
 5   0  0.3902375E-07  0.3102019E+04  0.7818609E-02  0.8215184E-01
       -3   -1    0    0    0  501  0.00000000000E+00  0.00000000000E+00  0.11504226687E+04  0.11504226731E+04  0.10100000352E+00 0. -1.
        3   -1    0    0  501    0  0.00000000000E+00  0.00000000000E+00 -0.20910844643E+04  0.20910844667E+04  0.10100000352E+00 0.  1.
    10030    2    1    2    0    0  0.00000000000E+00  0.00000000000E+00 -0.94066179561E+03  0.32415071398E+04  0.31020193300E+04 0.  0.
        2    1    3    3  502    0 -0.91929471337E+03  0.11665670353E+04 -0.93724464923E+03  0.17562485446E+04  0.25500000920E-02 0.  1.
       -2    1    3    3    0  502  0.91929471337E+03 -0.11665670353E+04 -0.34171463839E+01  0.14852585952E+04  0.25500000920E-02 0. -1.
</event>
<event>
 5   0  0.4134019E-07  0.3103303E+04  0.7818609E-02  0.8214832E-01
       -1   -1    0    0    0  501  0.00000000000E+00  0.00000000000E+00  0.14045890242E+04  0.14045890242E+04  0.50400001928E-02 0. -1.
        1   -1    0    0  501    0  0.00000000000E+00  0.00000000000E+00 -0.17141118507E+04  0.17141118507E+04  0.50400001928E-02 0.  1.
    10030    2    1    2    0    0  0.00000000000E+00  0.00000000000E+00 -0.30952282643E+03  0.31187008749E+04  0.31033032026E+04 0.  0.
        2    1    3    3  502    0 -0.14338403979E+04 -0.48521957658E+03  0.18793843736E+03  0.15253383822E+04  0.25500000920E-02 0.  1.
       -2    1    3    3    0  502  0.14338403979E+04  0.48521957658E+03 -0.49746126379E+03  0.15933624927E+04  0.25500000920E-02 0. -1.
</event>
<event>
 5   0  0.1200286E-06  0.3134535E+04  0.7818609E-02  0.8206323E-01
        2   -1    0    0  501    0  0.00000000000E+00  0.00000000000E+00  0.22635197637E+04  0.22635197637E+04  0.25500000920E-02 0.  1.
       -2   -1    0    0    0  501  0.00000000000E+00  0.00000000000E+00 -0.10851805627E+04  0.10851805627E+04  0.25500000920E-02 0. -1.
    10030    2    1    2    0    0  0.00000000000E+00  0.00000000000E+00  0.11783392010E+04  0.33487003264E+04  0.31345351495E+04 0.  0.
        5    1    3    3  502    0 -0.32046519454E+03 -0.11403293308E+03 -0.10452633979E+04  0.10992265971E+04  0.46999998093E+01 0. -1.
       -5    1    3    3    0  502  0.32046519454E+03  0.11403293308E+03  0.22236025989E+04  0.22494737293E+04  0.46999998093E+01 0.  1.
</event>
<event>
 5   0  0.4330395E-07  0.3098438E+04  0.7818609E-02  0.8216167E-01
       -1   -1    0    0    0  501  0.00000000000E+00  0.00000000000E+00  0.99985755921E+03  0.99985755922E+03  0.50400001928E-02 0.  1.
        1   -1    0    0  501    0  0.00000000000E+00  0.00000000000E+00 -0.24004219113E+04  0.24004219113E+04  0.50400001928E-02 0. -1.
    10030    2    1    2    0    0  0.00000000000E+00  0.00000000000E+00 -0.14005643521E+04  0.34002794705E+04  0.30984383120E+04 0.  0.
        1    1    3    3  502    0  0.14163251503E+04 -0.62415267129E+03 -0.62636719968E+03  0.16696943904E+04  0.50400001928E-02 0.  1.
       -1    1    3    3    0  502 -0.14163251503E+04  0.62415267129E+03 -0.77419715237E+03  0.17305850801E+04  0.50400001928E-02 0. -1.
</event>
<event>
 5   0  0.4330395E-07  0.2883908E+04  0.7818609E-02  0.8277682E-01
       -1   -1    0    0    0  501  0.00000000000E+00  0.00000000000E+00  0.28960972785E+04  0.28960972785E+04  0.50400001928E-02 0.  1.
        1   -1    0    0  501    0  0.00000000000E+00  0.00000000000E+00 -0.71794235039E+03  0.71794235041E+03  0.50400001928E-02 0. -1.
    10030    2    1    2    0    0  0.00000000000E+00  0.00000000000E+00  0.21781549281E+04  0.36140396289E+04  0.28839076872E+04 0.  0.
        1    1    3    3  502    0  0.70333914462E+03 -0.63604091731E+03  0.24503716397E+04  0.26274617359E+04  0.50400001928E-02 0.  1.
       -1    1    3    3    0  502 -0.70333914462E+03  0.63604091731E+03 -0.27221671162E+03  0.98657789300E+03  0.50400001928E-02 0. -1.
</event>
<event>
 5   0  0.1200286E-06  0.3105696E+04  0.7818609E-02  0.8214177E-01
        2   -1    0    0  501    0  0.00000000000E+00  0.00000000000E+00  0.17208737861E+04  0.17208737861E+04  0.25500000920E-02 0.  1.
       -2   -1    0    0    0  501  0.00000000000E+00  0.00000000000E+00 -0.14012279437E+04  0.14012279437E+04  0.25500000920E-02 0. -1.
    10030    2    1    2    0    0  0.00000000000E+00  0.00000000000E+00  0.31964584245E+03  0.31221017298E+04  0.31056956945E+04 0.  0.
        5    1    3    3  502    0  0.63508081311E+02  0.14699384985E+03 -0.13928990115E+04  0.14020806733E+04  0.46999998093E+01 0. -1.
       -5    1    3    3    0  502 -0.63508081311E+02 -0.14699384985E+03  0.17125448539E+04  0.17200210565E+04  0.46999998093E+01 0.  1.
</event>
<event>
 5   0  0.4219337E-07  0.3113482E+04  0.7818609E-02  0.8212048E-01
       -1   -1    0    0    0  501  0.00000000000E+00  0.00000000000E+00  0.12100737528E+04  0.12100737528E+04  0.50400001928E-02 0.  1.
        1   -1    0    0  501    0  0.00000000000E+00  0.00000000000E+00 -0.20027225504E+04  0.20027225504E+04  0.50400001928E-02 0. -1.
    10030    2    1    2    0    0  0.00000000000E+00  0.00000000000E+00 -0.79264879759E+03  0.32127963031E+04  0.31134816475E+04 0.  0.
        4    1    3    3  502    0  0.12587785218E+04 -0.48035110378E+03 -0.12010593937E+04  0.18049392871E+04  0.12699999809E+01 0. -1.
       -4    1    3    3    0  502 -0.12587785218E+04  0.48035110378E+03  0.40841059616E+03  0.14078570161E+04  0.12699999809E+01 0.  1.
</event>
<event>
 5   0  0.4330395E-07  0.3112527E+04  0.7818609E-02  0.8212308E-01
        1   -1    0    0  501    0  0.00000000000E+00  0.00000000000E+00  0.18334279804E+04  0.18334279804E+04  0.50400001928E-02 0.  1.
       -1   -1    0    0    0  501  0.00000000000E+00  0.00000000000E+00 -0.13209986205E+04  0.13209986205E+04  0.50400001928E-02 0. -1.
    10030    2    1    2    0    0  0.00000000000E+00  0.00000000000E+00  0.51242935991E+03  0.31544266009E+04  0.31125268403E+04 0.  0.
        1    1    3    3  502    0  0.71035761658E+03 -0.28150617717E+02 -0.11468187326E+04  0.13492937434E+04  0.50400001928E-02 0. -1.
       -1    1    3    3    0  502 -0.71035761658E+03  0.28150617717E+02  0.16592480925E+04  0.18051328575E+04  0.50400001928E-02 0.  1.
</event>
<event>
 5   0  0.1200286E-06  0.2884298E+04  0.7818609E-02  0.8277565E-01
        2   -1    0    0  501    0  0.00000000000E+00  0.00000000000E+00  0.15059557374E+04  0.15059557374E+04  0.25500000920E-02 0.  1.
       -2   -1    0    0    0  501  0.00000000000E+00  0.00000000000E+00 -0.13810461706E+04  0.13810461706E+04  0.25500000920E-02 0. -1.
    10030    2    1    2    0    0  0.00000000000E+00  0.00000000000E+00  0.12490956680E+03  0.28870019079E+04  0.28842984617E+04 0.  0.
        5    1    3    3  502    0 -0.11854900127E+03 -0.14911641380E+03  0.14932990244E+04  0.15054081296E+04  0.46999998093E+01 0.  1.
       -5    1    3    3    0  502  0.11854900127E+03  0.14911641380E+03 -0.13683894576E+04  0.13815937783E+04  0.46999998093E+01 0. -1.
</event>
<event>
 5   0  0.3935852E-07  0.3102279E+04  0.7818609E-02  0.8215113E-01
        1   -1    0    0  501    0  0.00000000000E+00  0.00000000000E+00  0.18292923277E+04  0.18292923278E+04  0.50400001928E-02 0.  1.
       -1   -1    0    0    0  501  0.00000000000E+00  0.00000000000E+00 -0.13152808834E+04  0.13152808834E+04  0.50400001928E-02 0. -1.
    10030    2    1    2    0    0  0.00000000000E+00  0.00000000000E+00  0.51401144437E+03  0.31445732111E+04  0.31022786650E+04 0.  0.
        5    1    3    3  502    0 -0.10174893353E+03  0.30010893048E+01  0.18258958272E+04  0.18287371363E+04  0.46999998093E+01 0.  1.
       -5    1    3    3    0  502  0.10174893353E+03 -0.30010893048E+01 -0.13118843828E+04  0.13158360748E+04  0.46999998093E+01 0. -1.
</event>
<event>
 5   0  0.1193123E-06  0.3100828E+04  0.7818609E-02  0.8215511E-01
       -2   -1    0    0    0  501  0.00000000000E+00  0.00000000000E+00  0.87026619046E+03  0.87026619046E+03  0.25500000920E-02 0.  1.
        2   -1    0    0  501    0  0.00000000000E+00  0.00000000000E+00 -0.27621236213E+04  0.27621236213E+04  0.25500000920E-02 0. -1.
    10030    2    1    2    0    0  0.00000000000E+00  0.00000000000E+00 -0.18918574308E+04  0.36323898118E+04  0.31008275034E+04 0.  0.
        3    1    3    3  502    0 -0.18856881268E+03  0.13770618969E+04 -0.14119649219E+03  0.13970662564E+04  0.10100000352E+00 0.  1.
       -3    1    3    3    0  502  0.18856881268E+03 -0.13770618969E+04 -0.17506609386E+04  0.22353235554E+04  0.10100000352E+00 0. -1.
</event>
<event>
 5   0  0.4134019E-07  0.3105311E+04  0.7818609E-02  0.8214282E-01
        1   -1    0    0  501    0  0.00000000000E+00  0.00000000000E+00  0.15837454081E+04  0.15837454081E+04  0.50400001928E-02 0. -1.
       -1   -1    0    0    0  501  0.00000000000E+00  0.00000000000E+00 -0.15221762149E+04  0.15221762149E+04  0.50400001928E-02 0.  1.
    10030    2    1    2    0    0  0.00000000000E+00  0.00000000000E+00  0.61569193222E+02  0.31059216230E+04  0.31053113149E+04 0.  0.
        2    1    3    3  502    0 -0.36677334868E+03 -0.29607469321E+03 -0.14488832803E+04  0.15236291127E+04  0.25500000920E-02 0.  1.
       -2    1    3    3    0  502  0.36677334868E+03  0.29607469321E+03  0.15104524735E+04  0.15822925102E+04  0.25500000920E-02 0. -1.
</event>
<event>
 5   0  0.4219337E-07  0.3103281E+04  0.7818609E-02  0.8214838E-01
       -1   -1    0    0    0  501  0.00000000000E+00  0.00000000000E+00  0.11466551007E+04  0.11466551007E+04  0.50400001928E-02 0. -1.
        1   -1    0    0  501    0  0.00000000000E+00  0.00000000000E+00 -0.20996619182E+04  0.20996619182E+04  0.50400001928E-02 0.  1.
    10030    2    1    2    0    0  0.00000000000E+00  0.00000000000E+00 -0.95300681745E+03  0.32463170189E+04  0.31032808756E+04 0.  0.
        4    1    3    3  502    0 -0.73632505841E+03 -0.58051777422E+03 -0.17697755274E+04  0.20028186408E+04  0.12699999809E+01 0.  1.
       -4    1    3    3    0  502  0.73632505841E+03  0.58051777422E+03  0.81676870993E+03  0.12434983781E+04  0.12699999809E+01 0. -1.
</event>
<event>
 5   0  0.4330395E-07  0.3100779E+04  0.7818609E-02  0.8215524E-01
       -1   -1    0    0    0  501  0.00000000000E+00  0.00000000000E+00  0.12643981305E+04  0.12643981305E+04  0.50400001928E-02 0. -1.
        1   -1    0    0  501    0  0.00000000000E+00  0.00000000000E+00 -0.19010684327E+04  0.19010684327E+04  0.50400001928E-02 0.  1.
    10030    2    1    2    0    0  0.00000000000E+00  0.00000000000E+00 -0.63667030219E+03  0.31654665632E+04  0.31007788520E+04 0.  0.
        1    1    3    3  502    0  0.57074489625E+03 -0.12106699755E+04 -0.11171135537E+04  0.17433915848E+04  0.50400001928E-02 0.  1.
       -1    1    3    3    0  502 -0.57074489625E+03  0.12106699755E+04  0.48044325149E+03  0.14220749784E+04  0.50400001928E-02 0. -1.
</event>
<event>
 5   0  0.4219337E-07  0.3102361E+04  0.7818609E-02  0.8215090E-01
       -1   -1    0    0    0  501  0.00000000000E+00  0.00000000000E+00  0.83734810833E+03  0.83734810835E+03  0.50400001928E-02 0.  1.
        1   -1    0    0  501    0  0.00000000000E+00  0.00000000000E+00 -0.28735485402E+04  0.28735485402E+04  0.50400001928E-02 0. -1.
    10030    2    1    2    0    0  0.00000000000E+00  0.00000000000E+00 -0.20362004318E+04  0.37108966485E+04  0.31023606717E+04 0.  0.
        4    1    3    3  502    0 -0.24284374706E+03 -0.35987474237E+03 -0.27993942437E+04  0.28328594494E+04  0.12699999809E+01 0. -1.
       -4    1    3    3    0  502  0.24284374706E+03  0.35987474237E+03  0.76319381184E+03  0.87803719911E+03  0.12699999809E+01 0.  1.
</event>
<event>
 5   0  0.1176002E-06  0.3101722E+04  0.7818609E-02  0.8215266E-01
        2   -1    0    0  501    0  0.00000000000E+00  0.00000000000E+00  0.24437769767E+04  0.24437769767E+04  0.25500000920E-02 0.  1.
       -2   -1    0    0    0  501  0.00000000000E+00  0.00000000000E+00 -0.98420173146E+03  0.98420173146E+03  0.25500000920E-02 0. -1.
    10030    2    1    2    0    0  0.00000000000E+00  0.00000000000E+00  0.14595752452E+04  0.34279787081E+04  0.31017218004E+04 0.  0.
        2    1    3    3  502    0  0.61522815862E+03 -0.84846002967E+03  0.19931746607E+04  0.22519181462E+04  0.25500000920E-02 0.  1.
       -2    1    3    3    0  502 -0.61522815862E+03  0.84846002967E+03 -0.53359941549E+03  0.11760605619E+04  0.25500000920E-02 0. -1.
</event>
<event>
 5   0  0.1258262E-06  0.3098294E+04  0.7818609E-02  0.8216206E-01
        2   -1    0    0  501    0  0.00000000000E+00  0.00000000000E+00  0.14878020787E+04  0.14878020787E+04  0.25500000920E-02 0. -1.
       -2   -1    0    0    0  501  0.00000000000E+00  0.00000000000E+00 -0.16130209814E+04  0.16130209814E+04  0.25500000920E-02 0.  1.
    10030    2    1    2    0    0  0.00000000000E+00  0.00000000000E+00 -0.12521890267E+03  0.31008230600E+04  0.30982937040E+04 0.  0.
        1    1    3    3  502    0 -0.43088353166E+03 -0.66611552172E+02  0.14251296685E+04  0.14903329456E+04  0.50400001928E-02 0. -1.
       -1    1    3    3    0  502  0.43088353166E+03  0.66611552172E+02 -0.15503485711E+04  0.16104901145E+04  0.50400001928E-02 0.  1.
</event>
<event>
 5   0  0.1193123E-06  0.3097546E+04  0.7818609E-02  0.8216412E-01
       -2   -1    0    0    0  501  0.00000000000E+00  0.00000000000E+00  0.15314741000E+04  0.15314741000E+04  0.25500000920E-02 0. -1.
        2   -1    0    0  501    0  0.00000000000E+00  0.00000000000E+00 -0.15662671039E+04  0.15662671039E+04  0.25500000920E-02 0.  1.
    10030    2    1    2    0    0  0.00000000000E+00  0.00000000000E+00 -0.34793003964E+02  0.30977412039E+04  0.30975458049E+04 0.  0.
        3    1    3    3  502    0 -0.36869505509E+03  0.13435599684E+04 -0.69390651387E+03  0.15564689822E+04  0.10100000352E+00 0.  1.
       -3    1    3    3    0  502  0.36869505509E+03 -0.13435599684E+04  0.65911350990E+03  0.15412722217E+04  0.10100000352E+00 0. -1.
</event>
<event>
 5   0  0.1258262E-06  0.3130581E+04  0.7818609E-02  0.8207395E-01
        2   -1    0    0  501    0  0.00000000000E+00  0.00000000000E+00  0.26051175401E+04  0.26051175401E+04  0.25500000920E-02 0.  1.
       -2   -1    0    0    0  501  0.00000000000E+00  0.00000000000E+00 -0.94050793588E+03  0.94050793589E+03  0.25500000920E-02 0. -1.
    10030    2    1    2    0    0  0.00000000000E+00  0.00000000000E+00  0.16646096042E+04  0.35456254760E+04  0.31305805982E+04 0.  0.
        1    1    3    3  502    0  0.38582754093E+03  0.64688299083E+03  0.23863784274E+04  0.25024233243E+04  0.50400001928E-02 0.  1.
       -1    1    3    3    0  502 -0.38582754093E+03 -0.64688299083E+03 -0.72176882318E+03  0.10432021517E+04  0.50400001928E-02 0. -1.
</event>
<event>
 5   0  0.1237580E-06  0.3072158E+04  0.7818609E-02  0.8223421E-01
        2   -1    0    0  501    0  0.00000000000E+00  0.00000000000E+00  0.17238629283E+04  0.17238629283E+04  0.25500000920E-02 0.  1.
       -2   -1    0    0    0  501  0.00000000000E+00  0.00000000000E+00 -0.13687510282E+04  0.13687510282E+04  0.25500000920E-02 0. -1.
    10030    2    1    2    0    0  0.00000000000E+00  0.00000000000E+00  0.35511190012E+03  0.30926139565E+04  0.30721583003E+04 0.  0.
        4    1    3    3  502    0 -0.19284817254E+03  0.41597566929E+03 -0.12982586052E+04  0.13768453777E+04  0.12699999809E+01 0. -1.
       -4    1    3    3    0  502  0.19284817254E+03 -0.41597566929E+03  0.16533705054E+04  0.17157685788E+04  0.12699999809E+01 0.  1.
</event>
<event>
 5   0  0.4173905E-07  0.3095428E+04  0.7818609E-02  0.8216994E-01
       -1   -1    0    0    0  501  0.00000000000E+00  0.00000000000E+00  0.14030489665E+04  0.14030489665E+04  0.50400001928E-02 0. -1.
        1   -1    0    0  501    0  0.00000000000E+00  0.00000000000E+00 -0.17072955356E+04  0.17072955356E+04  0.50400001928E-02 0.  1.
    10030    2    1    2    0    0  0.00000000000E+00  0.00000000000E+00 -0.30424656911E+03  0.31103445021E+04  0.30954283948E+04 0.  0.
        3    1    3    3  502    0 -0.88920054115E+03  0.88886515019E+03 -0.10590580017E+04  0.16438864677E+04  0.10100000352E+00 0.  1.
       -3    1    3    3    0  502  0.88920054115E+03 -0.88886515019E+03  0.75481143261E+03  0.14664580344E+04  0.10100000352E+00 0. -1.
</event>
<event>
 5   0  0.4330395E-07  0.3105646E+04  0.7818609E-02  0.8214190E-01
        1   -1    0    0  501    0  0.00000000000E+00  0.00000000000E+00  0.21818482771E+04  0.21818482771E+04  0.50400001928E-02 0. -1.
       -1   -1    0    0    0  501  0.00000000000E+00  0.00000000000E+00 -0.11051451446E+04  0.11051451446E+04  0.50400001928E-02 0.  1.
    10030    2    1    2    0    0  0.00000000000E+00  0.00000000000E+00  0.10767031325E+04  0.32869934217E+04  0.31056458457E+04 0.  0.
        1    1    3    3  502    0 -0.68995485808E+03 -0.13796191677E+04  0.34939871827E+03  0.15816024211E+04  0.50400001928E-02 0.  1.
       -1    1    3    3    0  502  0.68995485808E+03  0.13796191677E+04  0.72730441423E+03  0.17053910006E+04  0.50400001928E-02 0. -1.
</event>
<event>
 5   0  0.3902375E-07  0.3094520E+04  0.7818609E-02  0.8217243E-01
        3   -1    0    0  501    0  0.00000000000E+00  0.00000000000E+00  0.14852068945E+04  0.14852068979E+04  0.10100000352E+00 0. -1.
       -3   -1    0    0    0  501  0.00000000000E+00  0.00000000000E+00 -0.16119062379E+04  0.16119062410E+04  0.10100000352E+00 0.  1.
    10030    2    1    2    0    0  0.00000000000E+00  0.00000000000E+00 -0.12669934335E+03  0.30971131390E+04  0.30945204915E+04 0.  0.
        4    1    3    3  502    0 -0.58137452717E+03  0.82332547416E+03  0.11115808487E+04  0.15004915106E+04  0.12699999809E+01 0. -1.
       -4    1    3    3    0  502  0.58137452717E+03 -0.82332547416E+03 -0.12382801921E+04  0.15966216284E+04  0.12699999809E+01 0.  1.
</event>
<event>
 5   0  0.4330395E-07  0.3102708E+04  0.7818609E-02  0.8214995E-01
        1   -1    0    0  501    0  0.00000000000E+00  0.00000000000E+00  0.15096699259E+04  0.15096699259E+04  0.50400001928E-02 0. -1.
       -1   -1    0    0    0  501  0.00000000000E+00  0.00000000000E+00 -0.15941891806E+04  0.15941891806E+04  0.50400001928E-02 0.  1.
    10030    2    1    2    0    0  0.00000000000E+00  0.00000000000E+00 -0.84519254733E+02  0.31038591066E+04  0.31027081476E+04 0.  0.
        1    1    3    3  502    0 -0.36336618429E+03  0.10780564637E+04 -0.10973824791E+04  0.15806609467E+04  0.50400001928E-02 0.  1.
       -1    1    3    3    0  502  0.36336618429E+03 -0.10780564637E+04  0.10128632244E+04  0.15231981599E+04  0.50400001928E-02 0. -1.
</event>
<event>
 5   0  0.4219337E-07  0.3108496E+04  0.7818609E-02  0.8213410E-01
        1   -1    0    0  501    0  0.00000000000E+00  0.00000000000E+00  0.10397241245E+04  0.10397241245E+04  0.50400001928E-02 0. -1.
       -1   -1    0    0    0  501  0.00000000000E+00  0.00000000000E+00 -0.23233926791E+04  0.23233926791E+04  0.50400001928E-02 0.  1.
    10030    2    1    2    0    0  0.00000000000E+00  0.00000000000E+00 -0.12836685546E+04  0.33631168036E+04  0.31084963691E+04 0.  0.
        4    1    3    3  502    0 -0.13523783168E+04  0.33456160606E+03 -0.13873544393E+04  0.19661161037E+04  0.12699999809E+01 0.  1.
       -4    1    3    3    0  502  0.13523783168E+04 -0.33456160606E+03  0.10368588472E+03  0.13970006999E+04  0.12699999809E+01 0. -1.
</event>
<event>
 5   0  0.4173905E-07  0.3100929E+04  0.7818609E-02  0.8215483E-01
        1   -1    0    0  501    0  0.00000000000E+00  0.00000000000E+00  0.14217008881E+04  0.14217008881E+04  0.50400001928E-02 0.  1.
       -1   -1    0    0    0  501  0.00000000000E+00  0.00000000000E+00 -0.16908901424E+04  0.16908901424E+04  0.50400001928E-02 0. -1.
    10030    2    1    2    0    0  0.00000000000E+00  0.00000000000E+00 -0.26918925430E+03  0.31125910306E+04  0.31009289042E+04 0.  0.
        3    1    3    3  502    0 -0.89971306045E+02 -0.34834717340E+03  0.13792216390E+04  0.14253746626E+04  0.10100000352E+00 0.  1.
       -3    1    3    3    0  502  0.89971306045E+02  0.34834717340E+03 -0.16484108933E+04  0.16872163680E+04  0.10100000352E+00 0. -1.
</event>
<event>
 5   0  0.1237580E-06  0.3089045E+04  0.7818609E-02  0.8218751E-01
        2   -1    0    0  501    0  0.00000000000E+00  0.00000000000E+00  0.19371404878E+04  0.19371404878E+04  0.25500000920E-02 0. -1.
       -2   -1    0    0    0  501  0.00000000000E+00  0.00000000000E+00 -0.12314799270E+04  0.12314799270E+04  0.25500000920E-02 0.  1.
    10030    2    1    2    0    0  0.00000000000E+00  0.00000000000E+00  0.70566056083E+03  0.31686204149E+04  0.30890449181E+04 0.  0.
        4    1    3    3  502    0 -0.29225010346E+03  0.13070783365E+03 -0.11970709493E+04  0.12391429019E+04  0.12699999809E+01 0.  1.
       -4    1    3    3    0  502  0.29225010346E+03 -0.13070783365E+03  0.19027315101E+04  0.19294775130E+04  0.12699999809E+01 0. -1.
</event>
<event>
 5   0  0.4134019E-07  0.3093394E+04  0.7818609E-02  0.8217553E-01
        1   -1    0    0  501    0  0.00000000000E+00  0.00000000000E+00  0.21056143178E+04  0.21056143178E+04  0.50400001928E-02 0. -1.
       -1   -1    0    0    0  501  0.00000000000E+00  0.00000000000E+00 -0.11361394696E+04  0.11361394696E+04  0.50400001928E-02 0.  1.
    10030    2    1    2    0    0  0.00000000000E+00  0.00000000000E+00  0.96947484813E+03  0.32417537874E+04  0.30933939512E+04 0.  0.
        2    1    3    3  502    0 -0.69702246927E+03  0.93112393150E+03  0.15531632809E+04  0.19403989991E+04  0.25500000920E-02 0. -1.
       -2    1    3    3    0  502  0.69702246927E+03 -0.93112393150E+03 -0.58368843280E+03  0.13013547883E+04  0.25500000920E-02 0.  1.
</event>
<event>
 5   0  0.4173905E-07  0.3095703E+04  0.7818609E-02  0.8216918E-01
       -1   -1    0    0    0  501  0.00000000000E+00  0.00000000000E+00  0.14888177239E+04  0.14888177239E+04  0.50400001928E-02 0.  1.
        1   -1    0    0  501    0  0.00000000000E+00  0.00000000000E+00 -0.16092265326E+04  0.16092265326E+04  0.50400001928E-02 0. -1.
    10030    2    1    2    0    0  0.00000000000E+00  0.00000000000E+00 -0.12040880866E+03  0.30980442565E+04  0.30957034635E+04 0.  0.
        3    1    3    3  502    0 -0.89920127365E+03 -0.15041759092E+03 -0.13120125735E+04  0.15976749937E+04  0.10100000352E+00 0. -1.
       -3    1    3    3    0  502  0.89920127365E+03  0.15041759092E+03  0.11916037648E+04  0.15003692628E+04  0.10100000352E+00 0.  1.
</event>
<event>
 5   0  0.1200286E-06  0.3095729E+04  0.7818609E-02  0.8216911E-01
       -2   -1    0    0    0  501  0.00000000000E+00  0.00000000000E+00  0.16405815574E+04  0.16405815574E+04  0.25500000920E-02 0. -1.
        2   -1    0    0  501    0  0.00000000000E+00  0.00000000000E+00 -0.14603871214E+04  0.14603871214E+04  0.25500000920E-02 0.  1.
    10030    2    1    2    0    0  0.00000000000E+00  0.00000000000E+00  0.18019443607E+03  0.31009686788E+04  0.30957287853E+04 0.  0.
        5    1    3    3  502    0 -0.11024180755E+03  0.28680619277E+03 -0.14295239844E+04  0.14621805499E+04  0.46999998093E+01 0.  1.
       -5    1    3    3    0  502  0.11024180755E+03 -0.28680619277E+03  0.16097184205E+04  0.16387881290E+04  0.46999998093E+01 0. -1.
</event>
<event>
 5   0  0.4134019E-07  0.3101682E+04  0.7818609E-02  0.8215277E-01
        1   -1    0    0  501    0  0.00000000000E+00  0.00000000000E+00  0.20040963810E+04  0.20040963810E+04  0.50400001928E-02 0. -1.
       -1   -1    0    0    0  501  0.00000000000E+00  0.00000000000E+00 -0.12000957255E+04  0.12000957255E+04  0.50400001928E-02 0.  1.
    10030    2    1    2    0    0  0.00000000000E+00  0.00000000000E+00  0.80400065546E+03  0.32041921065E+04  0.31016818021E+04 0.  0.
        2    1    3    3  502    0  0.41703700492E+03  0.13979903878E+04  0.94551665369E+03  0.17384759792E+04  0.25500000920E-02 0. -1.
       -2    1    3    3    0  502 -0.41703700492E+03 -0.13979903878E+04 -0.14151599824E+03  0.14657161273E+04  0.25500000920E-02 0.  1.
</event>
<event>
 5   0  0.3935852E-07  0.3076955E+04  0.7818609E-02  0.8222091E-01
       -1   -1    0    0    0  501  0.00000000000E+00  0.00000000000E+00  0.16062757016E+04  0.16062757017E+04  0.50400001928E-02 0.  1.
        1   -1    0    0  501    0  0.00000000000E+00  0.00000000000E+00 -0.14735412162E+04  0.14735412162E+04  0.50400001928E-02 0. -1.
    10030    2    1    2    0    0  0.00000000000E+00  0.00000000000E+00  0.13273448549E+03  0.30798169178E+04  0.30769552814E+04 0.  0.
        5    1    3    3  502    0  0.10561734899E+04  0.70716233804E+03  0.93395497215E+03  0.15772999059E+04  0.46999998093E+01 0. -1.
       -5    1    3    3    0  502 -0.10561734899E+04 -0.70716233804E+03 -0.80122048665E+03  0.15025170120E+04  0.46999998093E+01 0.  1.
</event>
<event>
 5   0  0.3935852E-07  0.3104489E+04  0.7818609E-02  0.8214507E-01
       -1   -1    0    0    0  501  0.00000000000E+00  0.00000000000E+00  0.10769308831E+04  0.10769308831E+04  0.50400001928E-02 0.  1.
        1   -1    0    0  501    0  0.00000000000E+00  0.00000000000E+00 -0.22373416765E+04  0.22373416765E+04  0.50400001928E-02 0. -1.
    10030    2    1    2    0    0  0.00000000000E+00  0.00000000000E+00 -0.11604107934E+04  0.33142725596E+04  0.31044885874E+04 0.  0.
        5    1    3    3  502    0  0.25944537041E+03 -0.15262423260E+04 -0.45983563989E+03  0.16149917782E+04  0.46999998093E+01 0. -1.
       -5    1    3    3    0  502 -0.25944537041E+03  0.15262423260E+04 -0.70057515353E+03  0.16992807813E+04  0.46999998093E+01 0.  1.
</event>
<event>
 5   0  0.1176002E-06  0.3084871E+04  0.7818609E-02  0.8219902E-01
        2   -1    0    0  501    0  0.00000000000E+00  0.00000000000E+00  0.27334790409E+04  0.27334790409E+04  0.25500000920E-02 0.  1.
       -2   -1    0    0    0  501  0.00000000000E+00  0.00000000000E+00 -0.87035862335E+03  0.87035862335E+03  0.25500000920E-02 0. -1.
    10030    2    1    2    0    0  0.00000000000E+00  0.00000000000E+00  0.18631204176E+04  0.36038376643E+04  0.30848708595E+04 0.  0.
        2    1    3    3  502    0  0.74452183000E+03  0.29595178918E+03  0.24713236250E+04  0.25979493213E+04  0.25500000920E-02 0.  1.
       -2    1    3    3    0  502 -0.74452183000E+03 -0.29595178918E+03 -0.60820320743E+03  0.10058883429E+04  0.25500000920E-02 0. -1.
</event>
<event>
 5   0  0.1176002E-06  0.3101587E+04  0.7818609E-02  0.8215303E-01
       -2   -1    0    0    0  501  0.00000000000E+00  0.00000000000E+00  0.11530904814E+04  0.11530904814E+04  0.25500000920E-02 0. -1.
        2   -1    0    0  501    0  0.00000000000E+00  0.00000000000E+00 -0.20856649699E+04  0.20856649699E+04  0.25500000920E-02 0.  1.
    10030    2    1    2    0    0  0.00000000000E+00  0.00000000000E+00 -0.93257448847E+03  0.32387554513E+04  0.31015869642E+04 0.  0.
        2    1    3    3  502    0  0.70991444513E+03 -0.13708740175E+04 -0.31251170647E+03  0.15750992534E+04  0.25500000920E-02 0.  1.
       -2    1    3    3    0  502 -0.70991444513E+03  0.13708740175E+04 -0.62006278200E+03  0.16636561979E+04  0.25500000920E-02 0. -1.
</event>
<event>
 5   0  0.1200286E-06  0.3115490E+04  0.7818609E-02  0.8211500E-01
       -2   -1    0    0    0  501  0.00000000000E+00  0.00000000000E+00  0.83391793769E+03  0.83391793770E+03  0.25500000920E-02 0. -1.
        2   -1    0    0  501    0  0.00000000000E+00  0.00000000000E+00 -0.29098412192E+04  0.29098412192E+04  0.25500000920E-02 0.  1.
    10030    2    1    2    0    0  0.00000000000E+00  0.00000000000E+00 -0.20759232815E+04  0.37437591569E+04  0.31154895529E+04 0.  0.
        5    1    3    3  502    0 -0.32223182909E+03  0.13804233464E+04 -0.18140746875E+04  0.23022360932E+04  0.46999998093E+01 0. -1.
       -5    1    3    3    0  502  0.32223182909E+03 -0.13804233464E+04 -0.26184859406E+03  0.14415230637E+04  0.46999998093E+01 0.  1.
</event>
<event>
 5   0  0.1237580E-06  0.3096193E+04  0.7818609E-02  0.8216783E-01
       -2   -1    0    0    0  501  0.00000000000E+00  0.00000000000E+00  0.88933719280E+03  0.88933719281E+03  0.25500000920E-02 0. -1.
        2   -1    0    0  501    0  0.00000000000E+00  0.00000000000E+00 -0.26948189163E+04  0.26948189163E+04  0.25500000920E-02 0.  1.
    10030    2    1    2    0    0  0.00000000000E+00  0.00000000000E+00 -0.18054817235E+04  0.35841561091E+04  0.30961929463E+04 0.  0.
        4    1    3    3  502    0 -0.14678640247E+04  0.53821195330E+02 -0.33672301425E+03  0.15069523938E+04  0.12699999809E+01 0. -1.
       -4    1    3    3    0  502  0.14678640247E+04 -0.53821195330E+02 -0.14687587092E+04  0.20772037153E+04  0.12699999809E+01 0.  1.
</event>
<event>
 5   0  0.4330395E-07  0.3103606E+04  0.7818609E-02  0.8214749E-01
        1   -1    0    0  501    0  0.00000000000E+00  0.00000000000E+00  0.25901992166E+04  0.25901992167E+04  0.50400001928E-02 0.  1.
       -1   -1    0    0    0  501  0.00000000000E+00  0.00000000000E+00 -0.92969369880E+03  0.92969369882E+03  0.50400001928E-02 0. -1.
    10030    2    1    2    0    0  0.00000000000E+00  0.00000000000E+00  0.16605055178E+04  0.35198929155E+04  0.31036055744E+04 0.  0.
        1    1    3    3  502    0  0.14373007370E+04 -0.13711679583E+03  0.14752702893E+04  0.20642327511E+04  0.50400001928E-02 0. -1.
       -1    1    3    3    0  502 -0.14373007370E+04  0.13711679583E+03  0.18523522858E+03  0.14556601644E+04  0.50400001928E-02 0.  1.
</event>
<event>
 5   0  0.1237580E-06  0.3083471E+04  0.7818609E-02  0.8220289E-01
        2   -1    0    0  501    0  0.00000000000E+00  0.00000000000E+00  0.19485560399E+04  0.19485560399E+04  0.25500000920E-02 0. -1.
       -2   -1    0    0    0  501  0.00000000000E+00  0.00000000000E+00 -0.12198507856E+04  0.12198507856E+04  0.25500000920E-02 0.  1.
    10030    2    1    2    0    0  0.00000000000E+00  0.00000000000E+00  0.72870525430E+03  0.31684068254E+04  0.30834705226E+04 0.  0.
        4    1    3    3  502    0  0.64022041193E+03 -0.29433032969E+03 -0.10447094515E+04  0.12601317272E+04  0.12699999809E+01 0.  1.
       -4    1    3    3    0  502 -0.64022041193E+03  0.29433032969E+03  0.17734147058E+04  0.19082750982E+04  0.12699999809E+01 0. -1.
</event>
<event>
 5   0  0.4219337E-07  0.3078766E+04  0.7818609E-02  0.8221590E-01
       -1   -1    0    0    0  501  0.00000000000E+00  0.00000000000E+00  0.11637990018E+04  0.11637990018E+04  0.50400001928E-02 0.  1.
        1   -1    0    0  501    0  0.00000000000E+00  0.00000000000E+00 -0.20361764317E+04  0.20361764317E+04  0.50400001928E-02 0. -1.
    10030    2    1    2    0    0  0.00000000000E+00  0.00000000000E+00 -0.87237742984E+03  0.31999754335E+04  0.30787660507E+04 0.  0.
        4    1    3    3  502    0 -0.22693786523E+03  0.65044787796E+03 -0.18670178286E+04  0.19900604066E+04  0.12699999809E+01 0. -1.
       -4    1    3    3    0  502  0.22693786523E+03 -0.65044787796E+03  0.99464039875E+03  0.12099150269E+04  0.12699999809E+01 0.  1.
</event>
<event>
 5   0  0.1258262E-06  0.3071119E+04  0.7818609E-02  0.8223709E-01
        2   -1    0    0  501    0  0.00000000000E+00  0.00000000000E+00  0.71695985901E+03  0.71695985901E+03  0.25500000920E-02 0.  1.
       -2   -1    0    0    0  501  0.00000000000E+00  0.00000000000E+00 -0.32888066579E+04  0.32888066579E+04  0.25500000920E-02 0. -1.
    10030    2    1    2    0    0  0.00000000000E+00  0.00000000000E+00 -0.25718467989E+04  0.40057665169E+04  0.30711185961E+04 0.  0.
        1    1    3    3  502    0 -0.96588825352E+03  0.84504342306E+03 -0.18617211405E+03  0.12968032084E+04  0.50400001928E-02 0.  1.
       -1    1    3    3    0  502  0.96588825352E+03 -0.84504342306E+03 -0.23856746849E+04  0.27089633086E+04  0.50400001928E-02 0. -1.
</event>
<event>
 5   0  0.4173905E-07  0.3036139E+04  0.7818609E-02  0.8233486E-01
        1   -1    0    0  501    0  0.00000000000E+00  0.00000000000E+00  0.20808575813E+04  0.20808575813E+04  0.50400001928E-02 0. -1.
       -1   -1    0    0    0  501  0.00000000000E+00  0.00000000000E+00 -0.11074932510E+04  0.11074932510E+04  0.50400001928E-02 0.  1.
    10030    2    1    2    0    0  0.00000000000E+00  0.00000000000E+00  0.97336433024E+03  0.31883508323E+04  0.30361394748E+04 0.  0.
        3    1    3    3  502    0 -0.13466737802E+03 -0.13110309069E+04  0.12778433220E+04  0.18357071955E+04  0.10100000352E+00 0. -1.
       -3    1    3    3    0  502  0.13466737802E+03  0.13110309069E+04 -0.30447899179E+03  0.13526436368E+04  0.10100000352E+00 0.  1.
</event>
<event>
 5   0  0.1193123E-06  0.3090619E+04  0.7818609E-02  0.8218317E-01
       -2   -1    0    0    0  501  0.00000000000E+00  0.00000000000E+00  0.11562568891E+04  0.11562568891E+04  0.25500000920E-02 0.  1.
        2   -1    0    0  501    0  0.00000000000E+00  0.00000000000E+00 -0.20652694996E+04  0.20652694996E+04  0.25500000920E-02 0. -1.
    10030    2    1    2    0    0  0.00000000000E+00  0.00000000000E+00 -0.90901261050E+03  0.32215263888E+04  0.30906194116E+04 0.  0.
        3    1    3    3  502    0 -0.12121922270E+04  0.72275464334E+03  0.20159695969E+03  0.14256316544E+04  0.10100000352E+00 0.  1.
       -3    1    3    3    0  502  0.12121922270E+04 -0.72275464334E+03 -0.11106095702E+04  0.17958947344E+04  0.10100000352E+00 0. -1.
</event>
<event>
 5   0  0.3935852E-07  0.3098385E+04  0.7818609E-02  0.8216181E-01
       -1   -1    0    0    0  501  0.00000000000E+00  0.00000000000E+00  0.26832103399E+04  0.26832103399E+04  0.50400001928E-02 0. -1.
        1   -1    0    0  501    0  0.00000000000E+00  0.00000000000E+00 -0.89445023292E+03  0.89445023293E+03  0.50400001928E-02 0.  1.
    10030    2    1    2    0    0  0.00000000000E+00  0.00000000000E+00  0.17887601070E+04  0.35776605729E+04  0.30983854593E+04 0.  0.
        5    1    3    3  502    0  0.85310237362E+02  0.45512525411E+03 -0.81266496838E+03  0.93534126090E+03  0.46999998093E+01 0.  1.
       -5    1    3    3    0  502 -0.85310237362E+02 -0.45512525411E+03  0.26014250754E+04  0.26423193119E+04  0.46999998093E+01 0. -1.
</event>
<event>
 5   0  0.1258262E-06  0.3098597E+04  0.7818609E-02  0.8216123E-01
        2   -1    0    0  501    0  0.00000000000E+00  0.00000000000E+00  0.17879428784E+04  0.17879428784E+04  0.25500000920E-02 0. -1.
       -2   -1    0    0    0  501  0.00000000000E+00  0.00000000000E+00 -0.13425071892E+04  0.13425071892E+04  0.25500000920E-02 0.  1.
    10030    2    1    2    0    0  0.00000000000E+00  0.00000000000E+00  0.44543568921E+03  0.31304500675E+04  0.30985972104E+04 0.  0.
        1    1    3    3  502    0  0.13560176671E+04 -0.74710883847E+03  0.28137185599E+03  0.15735709870E+04  0.50400001928E-02 0. -1.
       -1    1    3    3    0  502 -0.13560176671E+04  0.74710883847E+03  0.16406383322E+03  0.15568790805E+04  0.50400001928E-02 0.  1.
</event>
<event>
 5   0  0.1193123E-06  0.3095655E+04  0.7818609E-02  0.8216931E-01
        2   -1    0    0  501    0  0.00000000000E+00  0.00000000000E+00  0.13960824524E+04  0.13960824524E+04  0.25500000920E-02 0.  1.
       -2   -1    0    0    0  501  0.00000000000E+00  0.00000000000E+00 -0.17160664751E+04  0.17160664751E+04  0.25500000920E-02 0. -1.
    10030    2    1    2    0    0  0.00000000000E+00  0.00000000000E+00 -0.31998402273E+03  0.31121489275E+04  0.30956552089E+04 0.  0.
        3    1    3    3  502    0  0.49679871839E+03 -0.66319329211E+03  0.11543127934E+04  0.14209406548E+04  0.10100000352E+00 0.  1.
       -3    1    3    3    0  502 -0.49679871839E+03  0.66319329211E+03 -0.14742968161E+04  0.16912082727E+04  0.10100000352E+00 0. -1.
</event>
<event>
 5   0  0.3902375E-07  0.3091165E+04  0.7818609E-02  0.8218167E-01
       -3   -1    0    0    0  501  0.00000000000E+00  0.00000000000E+00  0.11808295292E+04  0.11808295335E+04  0.10100000352E+00 0. -1.
        3   -1    0    0  501    0  0.00000000000E+00  0.00000000000E+00 -0.20230055199E+04  0.20230055224E+04  0.10100000352E+00 0.  1.
    10030    2    1    2    0    0  0.00000000000E+00  0.00000000000E+00 -0.84217599072E+03  0.32038350559E+04  0.30911646132E+04 0.  0.
        4    1    3    3  502    0 -0.13000798881E+04  0.49213452950E+03 -0.11213004744E+04  0.17859788569E+04  0.12699999809E+01 0.  1.
       -4    1    3    3    0  502  0.13000798881E+04 -0.49213452950E+03  0.27912448371E+03  0.14178561989E+04  0.12699999809E+01 0. -1.
</event>
<event>
 5   0  0.4219337E-07  0.3056676E+04  0.7818609E-02  0.8227729E-01
       -1   -1    0    0    0  501  0.00000000000E+00  0.00000000000E+00  0.12247069558E+04  0.12247069558E+04  0.50400001928E-02 0.  1.
        1   -1    0    0  501    0  0.00000000000E+00  0.00000000000E+00 -0.19072454529E+04  0.19072454529E+04  0.50400001928E-02 0. -1.
    10030    2    1    2    0    0  0.00000000000E+00  0.00000000000E+00 -0.68253849706E+03  0.31319524087E+04  0.30566758235E+04 0.  0.
        4    1    3    3  502    0  0.10573555659E+04  0.86866549469E+03 -0.10386440956E+04  0.17179533476E+04  0.12699999809E+01 0. -1.
       -4    1    3    3    0  502 -0.10573555659E+04 -0.86866549469E+03  0.35610559856E+03  0.14139990610E+04  0.12699999809E+01 0.  1.
</event>
<event>
 5   0  0.4134019E-07  0.3100420E+04  0.7818609E-02  0.8215623E-01
        1   -1    0    0  501    0  0.00000000000E+00  0.00000000000E+00  0.21910270646E+04  0.21910270646E+04  0.50400001928E-02 0. -1.
       -1   -1    0    0    0  501  0.00000000000E+00  0.00000000000E+00 -0.10968147045E+04  0.10968147046E+04  0.50400001928E-02 0.  1.
    10030    2    1    2    0    0  0.00000000000E+00  0.00000000000E+00  0.10942123600E+04  0.32878417691E+04  0.31004197796E+04 0.  0.
        2    1    3    3  502    0  0.20586263491E+03  0.94775749222E+03  0.18295618379E+04  0.20707293901E+04  0.25500000920E-02 0. -1.
       -2    1    3    3    0  502 -0.20586263491E+03 -0.94775749222E+03 -0.73534947785E+03  0.12171123790E+04  0.25500000920E-02 0.  1.
</event>
<event>
 5   0  0.1237580E-06  0.3104236E+04  0.7818609E-02  0.8214576E-01
        2   -1    0    0  501    0  0.00000000000E+00  0.00000000000E+00  0.18850762188E+04  0.18850762188E+04  0.25500000920E-02 0.  1.
       -2   -1    0    0    0  501  0.00000000000E+00  0.00000000000E+00 -0.12779695217E+04  0.12779695217E+04  0.25500000920E-02 0. -1.
    10030    2    1    2    0    0  0.00000000000E+00  0.00000000000E+00  0.60710669708E+03  0.31630457404E+04  0.31042357859E+04 0.  0.
        4    1    3    3  502    0  0.12336743903E+04  0.84531129727E+03  0.72683231560E+03  0.16627659241E+04  0.12699999809E+01 0.  1.
       -4    1    3    3    0  502 -0.12336743903E+04 -0.84531129727E+03 -0.11972561853E+03  0.15002798163E+04  0.12699999809E+01 0. -1.
</event>
<event>
 5   0  0.1258262E-06  0.3108853E+04  0.7818609E-02  0.8213312E-01
        2   -1    0    0  501    0  0.00000000000E+00  0.00000000000E+00  0.21567781231E+04  0.21567781231E+04  0.25500000920E-02 0. -1.
       -2   -1    0    0    0  501  0.00000000000E+00  0.00000000000E+00 -0.11203016490E+04  0.11203016490E+04  0.25500000920E-02 0.  1.
    10030    2    1    2    0    0  0.00000000000E+00  0.00000000000E+00  0.10364764741E+04  0.32770797722E+04  0.31088532213E+04 0.  0.
        1    1    3    3  502    0 -0.11225611644E+04  0.10091609294E+04  0.12708915635E+03  0.15148270539E+04  0.50400001928E-02 0. -1.
       -1    1    3    3    0  502  0.11225611644E+04 -0.10091609294E+04  0.90938731777E+03  0.17622527183E+04  0.50400001928E-02 0.  1.
</event>
<event>
 5   0  0.4330395E-07  0.3141189E+04  0.7818609E-02  0.8204524E-01
        1   -1    0    0  501    0  0.00000000000E+00  0.00000000000E+00  0.18968850199E+04  0.18968850199E+04  0.50400001928E-02 0.  1.
       -1   -1    0    0    0  501  0.00000000000E+00  0.00000000000E+00 -0.13004308377E+04  0.13004308377E+04  0.50400001928E-02 0. -1.
    10030    2    1    2    0    0  0.00000000000E+00  0.00000000000E+00  0.59645418216E+03  0.31973158576E+04  0.31411894406E+04 0.  0.
        1    1    3    3  502    0  0.11548358803E+04  0.72208299557E+03  0.10943260339E+04  0.17471689190E+04  0.50400001928E-02 0.  1.
       -1    1    3    3    0  502 -0.11548358803E+04 -0.72208299557E+03 -0.49787185171E+03  0.14501469386E+04  0.50400001928E-02 0. -1.
</event>
<event>
 5   0  0.1200286E-06  0.3114744E+04  0.7818609E-02  0.8211703E-01
        2   -1    0    0  501    0  0.00000000000E+00  0.00000000000E+00  0.12634144918E+04  0.12634144918E+04  0.25500000920E-02 0.  1.
       -2   -1    0    0    0  501  0.00000000000E+00  0.00000000000E+00 -0.19197241430E+04  0.19197241430E+04  0.25500000920E-02 0. -1.
    10030    2    1    2    0    0  0.00000000000E+00  0.00000000000E+00 -0.65630965119E+03  0.31831386348E+04  0.31147438434E+04 0.  0.
        5    1    3    3  502    0 -0.33519167515E+03 -0.22860924999E+03  0.12084470772E+04  0.12747478482E+04  0.46999998093E+01 0.  1.
       -5    1    3    3    0  502  0.33519167515E+03  0.22860924999E+03 -0.18647567284E+04  0.19083907866E+04  0.46999998093E+01 0. -1.
</event>
<event>
 5   0  0.4219337E-07  0.3103278E+04  0.7818609E-02  0.8214839E-01
        1   -1    0    0  501    0  0.00000000000E+00  0.00000000000E+00  0.18999439415E+04  0.18999439415E+04  0.50400001928E-02 0. -1.
       -1   -1    0    0    0  501  0.00000000000E+00  0.00000000000E+00 -0.12671865637E+04  0.12671865637E+04  0.50400001928E-02 0.  1.
    10030    2    1    2    0    0  0.00000000000E+00  0.00000000000E+00  0.63275737777E+03  0.31671305052E+04  0.31032779022E+04 0.  0.
        4    1    3    3  502    0 -0.40206904187E+03  0.60589106657E+03 -0.10825245763E+04  0.13040799708E+04  0.12699999809E+01 0.  1.
       -4    1    3    3    0  502  0.40206904187E+03 -0.60589106657E+03  0.17152819541E+04  0.18630505344E+04  0.12699999809E+01 0. -1.
</event>
<event>
 5   0  0.3935852E-07  0.3098262E+04  0.7818609E-02  0.8216215E-01
        1   -1    0    0  501    0  0.00000000000E+00  0.00000000000E+00  0.17261576770E+04  0.17261576770E+04  0.50400001928E-02 0.  1.
       -1   -1    0    0    0  501  0.00000000000E+00  0.00000000000E+00 -0.13902594731E+04  0.13902594731E+04  0.50400001928E-02 0. -1.
    10030    2    1    2    0    0  0.00000000000E+00  0.00000000000E+00  0.33589820393E+03  0.31164171501E+04  0.30982621338E+04 0.  0.
        5    1    3    3  502    0  0.47090190349E+03  0.44789845136E+03 -0.12464997750E+04  0.14057543898E+04  0.46999998093E+01 0. -1.
       -5    1    3    3    0  502 -0.47090190349E+03 -0.44789845136E+03  0.15823979790E+04  0.17106627602E+04  0.46999998093E+01 0.  1.
</event>
<event>
 5   0  0.4134019E-07  0.3106532E+04  0.7818609E-02  0.8213948E-01
        1   -1    0    0  501    0  0.00000000000E+00  0.00000000000E+00  0.24193862940E+04  0.24193862940E+04  0.50400001928E-02 0. -1.
       -1   -1    0    0    0  501  0.00000000000E+00  0.00000000000E+00 -0.99720942577E+03  0.99720942579E+03  0.50400001928E-02 0.  1.
    10030    2    1    2    0    0  0.00000000000E+00  0.00000000000E+00  0.14221768682E+04  0.34165957198E+04  0.31065317104E+04 0.  0.
        2    1    3    3  502    0  0.65086962124E+03 -0.34223581358E+03 -0.79363468869E+03  0.10819485362E+04  0.25500000920E-02 0.  1.
       -2    1    3    3    0  502 -0.65086962124E+03  0.34223581358E+03  0.22158115569E+04  0.23346471835E+04  0.25500000920E-02 0. -1.
</event>
<event>
 5   0  0.1237580E-06  0.3110511E+04  0.7818609E-02  0.8212859E-01
       -2   -1    0    0    0  501  0.00000000000E+00  0.00000000000E+00  0.11729066943E+04  0.11729066943E+04  0.25500000920E-02 0. -1.
        2   -1    0    0  501    0  0.00000000000E+00  0.00000000000E+00 -0.20622444422E+04  0.20622444422E+04  0.25500000920E-02 0.  1.
    10030    2    1    2    0    0  0.00000000000E+00  0.00000000000E+00 -0.88933774793E+03  0.32351511365E+04  0.31105114124E+04 0.  0.
        4    1    3    3  502    0 -0.58248014009E+03 -0.30879034109E+03  0.10203855528E+04  0.12148345063E+04  0.12699999809E+01 0. -1.
       -4    1    3    3    0  502  0.58248014009E+03  0.30879034109E+03 -0.19097233007E+04  0.20203166303E+04  0.12699999809E+01 0.  1.
</event>
<event>
 5   0  0.4330395E-07  0.3099943E+04  0.7818609E-02  0.8215754E-01
        1   -1    0    0  501    0  0.00000000000E+00  0.00000000000E+00  0.17483652142E+04  0.17483652142E+04  0.50400001928E-02 0. -1.
       -1   -1    0    0    0  501  0.00000000000E+00  0.00000000000E+00 -0.13740901858E+04  0.13740901858E+04  0.50400001928E-02 0.  1.
    10030    2    1    2    0    0  0.00000000000E+00  0.00000000000E+00  0.37427502848E+03  0.31224554000E+04  0.30999428911E+04 0.  0.
        1    1    3    3  502    0 -0.13616078634E+04  0.26780117535E+03  0.88259941561E+03  0.16445896667E+04  0.50400001928E-02 0. -1.
       -1    1    3    3    0  502  0.13616078634E+04 -0.26780117535E+03 -0.50832438713E+03  0.14778657334E+04  0.50400001928E-02 0.  1.
</event>
<event>
 5   0  0.4173905E-07  0.3095877E+04  0.7818609E-02  0.8216870E-01
        1   -1    0    0  501    0  0.00000000000E+00  0.00000000000E+00  0.19538499969E+04  0.19538499969E+04  0.50400001928E-02 0.  1.
       -1   -1    0    0    0  501  0.00000000000E+00  0.00000000000E+00 -0.12263545579E+04  0.12263545580E+04  0.50400001928E-02 0. -1.
    10030    2    1    2    0    0  0.00000000000E+00  0.00000000000E+00  0.72749543895E+03  0.31802045549E+04  0.30958765152E+04 0.  0.
        3    1    3    3  502    0  0.14088954287E+03 -0.12095122919E+04  0.13454693858E+04  0.18146784084E+04  0.10100000352E+00 0.  1.
       -3    1    3    3    0  502 -0.14088954287E+03  0.12095122919E+04 -0.61797394689E+03  0.13655261465E+04  0.10100000352E+00 0. -1.
</event>
<event>
 5   0  0.1176002E-06  0.3075551E+04  0.7818609E-02  0.8222480E-01
        2   -1    0    0  501    0  0.00000000000E+00  0.00000000000E+00  0.19369432415E+04  0.19369432415E+04  0.25500000920E-02 0.  1.
       -2   -1    0    0    0  501  0.00000000000E+00  0.00000000000E+00 -0.12208689811E+04  0.12208689811E+04  0.25500000920E-02 0. -1.
    10030    2    1    2    0    0  0.00000000000E+00  0.00000000000E+00  0.71607426045E+03  0.31578122226E+04  0.30755512818E+04 0.  0.
        2    1    3    3  502    0 -0.64877707583E+03  0.63863041001E+03  0.16305377635E+04  0.18674618853E+04  0.25500000920E-02 0.  1.
       -2    1    3    3    0  502  0.64877707583E+03 -0.63863041001E+03 -0.91446350303E+03  0.12903503373E+04  0.25500000920E-02 0. -1.
</event>
<event>
 5   0  0.1237580E-06  0.3150195E+04  0.7818609E-02  0.8202096E-01
       -2   -1    0    0    0  501  0.00000000000E+00  0.00000000000E+00  0.12385483446E+04  0.12385483446E+04  0.25500000920E-02 0.  1.
        2   -1    0    0  501    0  0.00000000000E+00  0.00000000000E+00 -0.20030963047E+04  0.20030963047E+04  0.25500000920E-02 0. -1.
    10030    2    1    2    0    0  0.00000000000E+00  0.00000000000E+00 -0.76454796007E+03  0.32416446494E+04  0.31501946685E+04 0.  0.
        4    1    3    3  502    0 -0.74719306512E+02 -0.14486105645E+04  0.24944854904E+03  0.14718293834E+04  0.12699999809E+01 0.  1.
       -4    1    3    3    0  502  0.74719306512E+02  0.14486105645E+04 -0.10139965091E+04  0.17698152660E+04  0.12699999809E+01 0. -1.
</event>
<event>
 5   0  0.3935852E-07  0.3100643E+04  0.7818609E-02  0.8215561E-01
       -1   -1    0    0    0  501  0.00000000000E+00  0.00000000000E+00  0.15230897834E+04  0.15230897834E+04  0.50400001928E-02 0.  1.
        1   -1    0    0  501    0  0.00000000000E+00  0.00000000000E+00 -0.15780405027E+04  0.15780405027E+04  0.50400001928E-02 0. -1.
    10030    2    1    2    0    0  0.00000000000E+00  0.00000000000E+00 -0.54950719308E+02  0.31011302862E+04  0.31006433962E+04 0.  0.
        5    1    3    3  502    0 -0.82372171193E+03 -0.47231737365E+03  0.11982268183E+04  0.15288462180E+04  0.46999998093E+01 0.  1.
       -5    1    3    3    0  502  0.82372171193E+03  0.47231737365E+03 -0.12531775376E+04  0.15722840682E+04  0.46999998093E+01 0. -1.
</event>
<event>
 5   0  0.1237580E-06  0.3101327E+04  0.7818609E-02  0.8215374E-01
       -2   -1    0    0    0  501  0.00000000000E+00  0.00000000000E+00  0.10412576073E+04  0.10412576073E+04  0.25500000920E-02 0.  1.
        2   -1    0    0  501    0  0.00000000000E+00  0.00000000000E+00 -0.23092820759E+04  0.23092820759E+04  0.25500000920E-02 0. -1.
    10030    2    1    2    0    0  0.00000000000E+00  0.00000000000E+00 -0.12680244686E+04  0.33505396832E+04  0.31013271539E+04 0.  0.
        4    1    3    3  502    0 -0.12488236848E+04 -0.73783248870E+03 -0.41686478901E+02  0.14511019098E+04  0.12699999809E+01 0. -1.
       -4    1    3    3    0  502  0.12488236848E+04  0.73783248870E+03 -0.12263379897E+04  0.18994377734E+04  0.12699999809E+01 0.  1.
</event>
<event>
 5   0  0.4134019E-07  0.3089967E+04  0.7818609E-02  0.8218497E-01
       -1   -1    0    0    0  501  0.00000000000E+00  0.00000000000E+00  0.17919219654E+04  0.17919219654E+04  0.50400001928E-02 0.  1.
        1   -1    0    0  501    0  0.00000000000E+00  0.00000000000E+00 -0.13320744285E+04  0.13320744285E+04  0.50400001928E-02 0. -1.
    10030    2    1    2    0    0  0.00000000000E+00  0.00000000000E+00  0.45984753688E+03  0.31239963939E+04  0.30899666198E+04 0.  0.
        2    1    3    3  502    0 -0.14590980617E+04 -0.57574949920E+02  0.74015128447E+03  0.16371029144E+04  0.25500000920E-02 0.  1.
       -2    1    3    3    0  502  0.14590980617E+04  0.57574949920E+02 -0.28030374759E+03  0.14868934795E+04  0.25500000920E-02 0. -1.
</event>
<event>
 5   0  0.1200286E-06  0.3146617E+04  0.7818609E-02  0.8203060E-01
        2   -1    0    0  501    0  0.00000000000E+00  0.00000000000E+00  0.22951867020E+04  0.22951867020E+04  0.25500000920E-02 0.  1.
       -2   -1    0    0    0  501  0.00000000000E+00  0.00000000000E+00 -0.10784739490E+04  0.10784739490E+04  0.25500000920E-02 0. -1.
    10030    2    1    2    0    0  0.00000000000E+00  0.00000000000E+00  0.12167127530E+04  0.33736606509E+04  0.31466166376E+04 0.  0.
        5    1    3    3  502    0 -0.74782804693E+03  0.24616892514E+03 -0.85207101854E+03  0.11601263027E+04  0.46999998093E+01 0. -1.
       -5    1    3    3    0  502  0.74782804693E+03 -0.24616892514E+03  0.20687837715E+04  0.22135343482E+04  0.46999998093E+01 0.  1.
</event>
<event>
 5   0  0.4219337E-07  0.3092692E+04  0.7818609E-02  0.8217746E-01
       -1   -1    0    0    0  501  0.00000000000E+00  0.00000000000E+00  0.11743098380E+04  0.11743098380E+04  0.50400001928E-02 0.  1.
        1   -1    0    0  501    0  0.00000000000E+00  0.00000000000E+00 -0.20362484448E+04  0.20362484448E+04  0.50400001928E-02 0. -1.
    10030    2    1    2    0    0  0.00000000000E+00  0.00000000000E+00 -0.86193860677E+03  0.32105582828E+04  0.30926924072E+04 0.  0.
        4    1    3    3  502    0  0.91066268169E+03 -0.35695102920E+03  0.81236729960E+03  0.12714805541E+04  0.12699999809E+01 0.  1.
       -4    1    3    3    0  502 -0.91066268169E+03  0.35695102920E+03 -0.16743059064E+04  0.19390777287E+04  0.12699999809E+01 0. -1.
</event>
<event>
 5   0  0.1193123E-06  0.3098641E+04  0.7818609E-02  0.8216111E-01
       -2   -1    0    0    0  501  0.00000000000E+00  0.00000000000E+00  0.13102784092E+04  0.13102784092E+04  0.25500000920E-02 0.  1.
        2   -1    0    0  501    0  0.00000000000E+00  0.00000000000E+00 -0.18319721545E+04  0.18319721546E+04  0.25500000920E-02 0. -1.
    10030    2    1    2    0    0  0.00000000000E+00  0.00000000000E+00 -0.52169374531E+03  0.31422505638E+04  0.30986407087E+04 0.  0.
        3    1    3    3  502    0  0.12063475421E+04  0.84657583643E+03  0.22382157211E+03  0.14906579573E+04  0.10100000352E+00 0.  1.
       -3    1    3    3    0  502 -0.12063475421E+04 -0.84657583643E+03 -0.74551531742E+03  0.16515926065E+04  0.10100000352E+00 0. -1.
</event>
<event>
 5   0  0.4134019E-07  0.3096683E+04  0.7818609E-02  0.8216649E-01
        1   -1    0    0  501    0  0.00000000000E+00  0.00000000000E+00  0.13471073338E+04  0.13471073338E+04  0.50400001928E-02 0. -1.
       -1   -1    0    0    0  501  0.00000000000E+00  0.00000000000E+00 -0.17796360584E+04  0.17796360584E+04  0.50400001928E-02 0.  1.
    10030    2    1    2    0    0  0.00000000000E+00  0.00000000000E+00 -0.43252872460E+03  0.31267433923E+04  0.30966826030E+04 0.  0.
        2    1    3    3  502    0 -0.14050770627E+04  0.13288258378E+03 -0.85920419439E+03  0.16523108609E+04  0.25500000920E-02 0.  1.
       -2    1    3    3    0  502  0.14050770627E+04 -0.13288258378E+03  0.42667546979E+03  0.14744325314E+04  0.25500000920E-02 0. -1.
</event>
<event>
 5   0  0.1176002E-06  0.3108178E+04  0.7818609E-02  0.8213497E-01
        2   -1    0    0  501    0  0.00000000000E+00  0.00000000000E+00  0.25863727224E+04  0.25863727224E+04  0.25500000920E-02 0. -1.
       -2   -1    0    0    0  501  0.00000000000E+00  0.00000000000E+00 -0.93381479412E+03  0.93381479412E+03  0.25500000920E-02 0.  1.
    10030    2    1    2    0    0  0.00000000000E+00  0.00000000000E+00  0.16525579283E+04  0.35201875165E+04  0.31081783162E+04 0.  0.
        2    1    3    3  502    0 -0.10730157538E+04 -0.11187898339E+04  0.70149400005E+03  0.17015132478E+04  0.25500000920E-02 0.  1.
       -2    1    3    3    0  502  0.10730157538E+04  0.11187898339E+04  0.95106392824E+03  0.18186742688E+04  0.25500000920E-02 0. -1.
</event>
<event>
 5   0  0.3902375E-07  0.3102253E+04  0.7818609E-02  0.8215120E-01
       -3   -1    0    0    0  501  0.00000000000E+00  0.00000000000E+00  0.20805612959E+04  0.20805612984E+04  0.10100000352E+00 0. -1.
        3   -1    0    0  501    0  0.00000000000E+00  0.00000000000E+00 -0.11564157012E+04  0.11564157056E+04  0.10100000352E+00 0.  1.
    10030    2    1    2    0    0  0.00000000000E+00  0.00000000000E+00  0.92414559479E+03  0.32369770040E+04  0.31022532204E+04 0.  0.
        5    1    3    3  502    0  0.65561189911E+03 -0.31939801797E+02 -0.10043513871E+04  0.11998295345E+04  0.46999998093E+01 0.  1.
       -5    1    3    3    0  502 -0.65561189911E+03  0.31939801797E+02  0.19284969819E+04  0.20371474694E+04  0.46999998093E+01 0. -1.
</event>
<event>
 5   0  0.1237580E-06  0.3032867E+04  0.7818609E-02  0.8234407E-01
        2   -1    0    0  501    0  0.00000000000E+00  0.00000000000E+00  0.18474437474E+04  0.18474437474E+04  0.25500000920E-02 0. -1.
       -2   -1    0    0    0  501  0.00000000000E+00  0.00000000000E+00 -0.12447313170E+04  0.12447313170E+04  0.25500000920E-02 0.  1.
    10030    2    1    2    0    0  0.00000000000E+00  0.00000000000E+00  0.60271243043E+03  0.30921750644E+04  0.30328673488E+04 0.  0.
        4    1    3    3  502    0  0.13683607023E+04  0.62526519412E+03  0.49534487777E+03  0.15838989031E+04  0.12699999809E+01 0. -1.
       -4    1    3    3    0  502 -0.13683607023E+04 -0.62526519412E+03  0.10736755266E+03  0.15082761613E+04  0.12699999809E+01 0.  1.
</event>
<event>
 5   0  0.1200286E-06  0.3094854E+04  0.7818609E-02  0.8217152E-01
        2   -1    0    0  501    0  0.00000000000E+00  0.00000000000E+00  0.95484416789E+03  0.95484416789E+03  0.25500000920E-02 0.  1.
       -2   -1    0    0    0  501  0.00000000000E+00  0.00000000000E+00 -0.25077704369E+04  0.25077704369E+04  0.25500000920E-02 0. -1.
    10030    2    1    2    0    0  0.00000000000E+00  0.00000000000E+00 -0.15529262690E+04  0.34626146048E+04  0.30948537776E+04 0.  0.
        5    1    3    3  502    0  0.45938834603E+03  0.89250542899E+03 -0.20940743047E+04  0.23222344578E+04  0.46999998093E+01 0. -1.
       -5    1    3    3    0  502 -0.45938834603E+03 -0.89250542899E+03  0.54114803568E+03  0.11403801470E+04  0.46999998093E+01 0.  1.
</event>
<event>
 5   0  0.4330395E-07  0.3114390E+04  0.7818609E-02  0.8211800E-01
       -1   -1    0    0    0  501  0.00000000000E+00  0.00000000000E+00  0.15233672555E+04  0.15233672555E+04  0.50400001928E-02 0. -1.
        1   -1    0    0  501    0  0.00000000000E+00  0.00000000000E+00 -0.15917737540E+04  0.15917737540E+04  0.50400001928E-02 0.  1.
    10030    2    1    2    0    0  0.00000000000E+00  0.00000000000E+00 -0.68406498521E+02  0.31151410095E+04  0.31143898375E+04 0.  0.
        1    1    3    3  502    0 -0.48867459296E+03 -0.13898810797E+04 -0.53859042146E+03  0.15686465235E+04  0.50400001928E-02 0.  1.
       -1    1    3    3    0  502  0.48867459296E+03  0.13898810797E+04  0.47018392294E+03  0.15464944859E+04  0.50400001928E-02 0. -1.
</event>
<event>
 5   0  0.4134019E-07  0.3085842E+04  0.7818609E-02  0.8219634E-01
        1   -1    0    0  501    0  0.00000000000E+00  0.00000000000E+00  0.20693638746E+04  0.20693638746E+04  0.50400001928E-02 0. -1.
       -1   -1    0    0    0  501  0.00000000000E+00  0.00000000000E+00 -0.11504042612E+04  0.11504042612E+04  0.50400001928E-02 0.  1.
    10030    2    1    2    0    0  0.00000000000E+00  0.00000000000E+00  0.91895961342E+03  0.32197681359E+04  0.30858418750E+04 0.  0.
        2    1    3    3  502    0 -0.13589174462E+03  0.69486231427E+03 -0.97089398301E+03  0.12016386014E+04  0.25500000920E-02 0.  1.
       -2    1    3    3    0  502  0.13589174462E+03 -0.69486231427E+03  0.18898535964E+04  0.20181295345E+04  0.25500000920E-02 0. -1.
</event>
<event>
 5   0  0.1200286E-06  0.3103697E+04  0.7818609E-02  0.8214724E-01
       -2   -1    0    0    0  501  0.00000000000E+00  0.00000000000E+00  0.12068125742E+04  0.12068125742E+04  0.25500000920E-02 0. -1.
        2   -1    0    0  501    0  0.00000000000E+00  0.00000000000E+00 -0.19955325037E+04  0.19955325037E+04  0.25500000920E-02 0.  1.
    10030    2    1    2    0    0  0.00000000000E+00  0.00000000000E+00 -0.78871992948E+03  0.32023450780E+04  0.31036969683E+04 0.  0.
        5    1    3    3  502    0 -0.19947782177E+02 -0.26173490092E+03  0.11837329550E+04  0.12124969572E+04  0.46999998093E+01 0. -1.
       -5    1    3    3    0  502  0.19947782177E+02  0.26173490092E+03 -0.19724528845E+04  0.19898481208E+04  0.46999998093E+01 0.  1.
</event>
<event>
 5   0  0.4173905E-07  0.3081305E+04  0.7818609E-02  0.8220887E-01
        1   -1    0    0  501    0  0.00000000000E+00  0.00000000000E+00  0.18570872582E+04  0.18570872582E+04  0.50400001928E-02 0. -1.
       -1   -1    0    0    0  501  0.00000000000E+00  0.00000000000E+00 -0.12781357887E+04  0.12781357887E+04  0.50400001928E-02 0.  1.
    10030    2    1    2    0    0  0.00000000000E+00  0.00000000000E+00  0.57895146945E+03  0.31352230469E+04  0.30813047155E+04 0.  0.
        3    1    3    3  502    0  0.35185688357E+03  0.93591318736E+03 -0.90315796134E+03  0.13473793356E+04  0.10100000352E+00 0.  1.
       -3    1    3    3    0  502 -0.35185688357E+03 -0.93591318736E+03  0.14821094308E+04  0.17878437112E+04  0.10100000352E+00 0. -1.
</event>
<event>
 5   0  0.1258262E-06  0.3124561E+04  0.7818609E-02  0.8209029E-01
        2   -1    0    0  501    0  0.00000000000E+00  0.00000000000E+00  0.12973102450E+04  0.12973102450E+04  0.25500000920E-02 0.  1.
       -2   -1    0    0    0  501  0.00000000000E+00  0.00000000000E+00 -0.18813700088E+04  0.18813700088E+04  0.25500000920E-02 0. -1.
    10030    2    1    2    0    0  0.00000000000E+00  0.00000000000E+00 -0.58405976382E+03  0.31786802538E+04  0.31245611449E+04 0.  0.
        1    1    3    3  502    0 -0.15488259491E+04  0.74591343634E+01 -0.84030423552E+02  0.15511217139E+04  0.50400001928E-02 0.  1.
       -1    1    3    3    0  502  0.15488259491E+04 -0.74591343634E+01 -0.50002934026E+03  0.16275585398E+04  0.50400001928E-02 0. -1.
</event>
<event>
 5   0  0.4330395E-07  0.3102339E+04  0.7818609E-02  0.8215096E-01
        1   -1    0    0  501    0  0.00000000000E+00  0.00000000000E+00  0.18057949910E+04  0.18057949910E+04  0.50400001928E-02 0.  1.
       -1   -1    0    0    0  501  0.00000000000E+00  0.00000000000E+00 -0.13324476037E+04  0.13324476037E+04  0.50400001928E-02 0. -1.
    10030    2    1    2    0    0  0.00000000000E+00  0.00000000000E+00  0.47334738725E+03  0.31382425947E+04  0.31023392520E+04 0.  0.
        1    1    3    3  502    0 -0.61629903759E+03 -0.51727472639E+03 -0.11048450864E+04  0.13667773452E+04  0.50400001928E-02 0. -1.
       -1    1    3    3    0  502  0.61629903759E+03  0.51727472639E+03  0.15781924737E+04  0.17714652495E+04  0.50400001928E-02 0.  1.
</event>
<event>
 5   0  0.1258262E-06  0.3099750E+04  0.7818609E-02  0.8215807E-01
        2   -1    0    0  501    0  0.00000000000E+00  0.00000000000E+00  0.16628943802E+04  0.16628943802E+04  0.25500000920E-02 0.  1.
       -2   -1    0    0    0  501  0.00000000000E+00  0.00000000000E+00 -0.14445369457E+04  0.14445369457E+04  0.25500000920E-02 0. -1.
    10030    2    1    2    0    0  0.00000000000E+00  0.00000000000E+00  0.21835743451E+03  0.31074313259E+04  0.30997499054E+04 0.  0.
        1    1    3    3  502    0  0.90621001620E+02 -0.12801269374E+04  0.98034037279E+03  0.16149316977E+04  0.50400001928E-02 0.  1.
       -1    1    3    3    0  502 -0.90621001620E+02  0.12801269374E+04 -0.76198293829E+03  0.14924996282E+04  0.50400001928E-02 0. -1.
</event>
<event>
 5   0  0.1258262E-06  0.3116173E+04  0.7818609E-02  0.8211313E-01
        2   -1    0    0  501    0  0.00000000000E+00  0.00000000000E+00  0.19825987036E+04  0.19825987036E+04  0.25500000920E-02 0.  1.
       -2   -1    0    0    0  501  0.00000000000E+00  0.00000000000E+00 -0.12244703379E+04  0.12244703379E+04  0.25500000920E-02 0. -1.
    10030    2    1    2    0    0  0.00000000000E+00  0.00000000000E+00  0.75812836570E+03  0.32070690415E+04  0.31161728479E+04 0.  0.
        1    1    3    3  502    0 -0.73008643356E+03 -0.13759969512E+04  0.34283078675E+03  0.15949692030E+04  0.50400001928E-02 0. -1.
       -1    1    3    3    0  502  0.73008643356E+03  0.13759969512E+04  0.41529757895E+03  0.16120998385E+04  0.50400001928E-02 0.  1.
</event>
<event>
 5   0  0.1200286E-06  0.3124926E+04  0.7818609E-02  0.8208930E-01
       -2   -1    0    0    0  501  0.00000000000E+00  0.00000000000E+00  0.13910202491E+04  0.13910202491E+04  0.25500000920E-02 0.  1.
        2   -1    0    0  501    0  0.00000000000E+00  0.00000000000E+00 -0.17550355980E+04  0.17550355980E+04  0.25500000920E-02 0. -1.
    10030    2    1    2    0    0  0.00000000000E+00  0.00000000000E+00 -0.36401534892E+03  0.31460558471E+04  0.31249256342E+04 0.  0.
        5    1    3    3  502    0 -0.11791620920E+04  0.77374035561E+03 -0.85899088128E+03  0.16513584715E+04  0.46999998093E+01 0. -1.
       -5    1    3    3    0  502  0.11791620920E+04 -0.77374035561E+03  0.49497553236E+03  0.14946973757E+04  0.46999998093E+01 0.  1.
</event>
<event>
 5   0  0.1193123E-06  0.3095984E+04  0.7818609E-02  0.8216841E-01
       -2   -1    0    0    0  501  0.00000000000E+00  0.00000000000E+00  0.14307046563E+04  0.14307046563E+04  0.25500000920E-02 0. -1.
        2   -1    0    0  501    0  0.00000000000E+00  0.00000000000E+00 -0.16748941091E+04  0.16748941091E+04  0.25500000920E-02 0.  1.
    10030    2    1    2    0    0  0.00000000000E+00  0.00000000000E+00 -0.24418945285E+03  0.31055987654E+04  0.30959837213E+04 0.  0.
        3    1    3    3  502    0 -0.81553292250E+03  0.89969065051E+03  0.84096066204E+03  0.14770755091E+04  0.10100000352E+00 0. -1.
       -3    1    3    3    0  502  0.81553292250E+03 -0.89969065051E+03 -0.10851501149E+04  0.16285232563E+04  0.10100000352E+00 0.  1.
</event>
<event>
 5   0  0.4219337E-07  0.3116899E+04  0.7818609E-02  0.8211115E-01
       -1   -1    0    0    0  501  0.00000000000E+00  0.00000000000E+00  0.11101993686E+04  0.11101993686E+04  0.50400001928E-02 0. -1.
        1   -1    0    0  501    0  0.00000000000E+00  0.00000000000E+00 -0.21876830360E+04  0.21876830360E+04  0.50400001928E-02 0.  1.
    10030    2    1    2    0    0  0.00000000000E+00  0.00000000000E+00 -0.10774836675E+04  0.32978824046E+04  0.31168986671E+04 0.  0.
        4    1    3    3  502    0 -0.13569169554E+04  0.71220372300E+03 -0.23890593566E+03  0.15509788606E+04  0.12699999809E+01 0.  1.
       -4    1    3    3    0  502  0.13569169554E+04 -0.71220372300E+03 -0.83857773182E+03  0.17469035440E+04  0.12699999809E+01 0. -1.
</event>
<event>
 5   0  0.4173905E-07  0.3092330E+04  0.7818609E-02  0.8217846E-01
        1   -1    0    0  501    0  0.00000000000E+00  0.00000000000E+00  0.18096212101E+04  0.18096212101E+04  0.50400001928E-02 0.  1.
       -1   -1    0    0    0  501  0.00000000000E+00  0.00000000000E+00 -0.13210648434E+04  0.13210648434E+04  0.50400001928E-02 0. -1.
    10030    2    1    2    0    0  0.00000000000E+00  0.00000000000E+00  0.48855636674E+03  0.31306860535E+04  0.30923304872E+04 0.  0.
        3    1    3    3  502    0  0.12610576968E+04 -0.66696710253E+03  0.84792480779E+03  0.16595445521E+04  0.10100000352E+00 0. -1.
       -3    1    3    3    0  502 -0.12610576968E+04  0.66696710253E+03 -0.35936844104E+03  0.14711415014E+04  0.10100000352E+00 0.  1.
</event>
<event>
 5   0  0.4134019E-07  0.3094856E+04  0.7818609E-02  0.8217151E-01
        1   -1    0    0  501    0  0.00000000000E+00  0.00000000000E+00  0.18697335352E+04  0.18697335352E+04  0.50400001928E-02 0.  1.
       -1   -1    0    0    0  501  0.00000000000E+00  0.00000000000E+00 -0.12806818696E+04  0.12806818697E+04  0.50400001928E-02 0. -1.
    10030    2    1    2    0    0  0.00000000000E+00  0.00000000000E+00  0.58905166551E+03  0.31504154048E+04  0.30948562743E+04 0.  0.
        2    1    3    3  502    0 -0.57648068982E+03 -0.38103386547E+03  0.17039454913E+04  0.18387351712E+04  0.25500000920E-02 0.  1.
       -2    1    3    3    0  502  0.57648068982E+03  0.38103386547E+03 -0.11148938258E+04  0.13116802336E+04  0.25500000920E-02 0. -1.
</event>
<event>
 5   0  0.4330395E-07  0.3064367E+04  0.7818609E-02  0.8225586E-01
       -1   -1    0    0    0  501  0.00000000000E+00  0.00000000000E+00  0.12314074114E+04  0.12314074114E+04  0.50400001928E-02 0. -1.
        1   -1    0    0  501    0  0.00000000000E+00  0.00000000000E+00 -0.19064259445E+04  0.19064259445E+04  0.50400001928E-02 0.  1.
    10030    2    1    2    0    0  0.00000000000E+00  0.00000000000E+00 -0.67501853307E+03  0.31378333558E+04  0.30643674958E+04 0.  0.
        1    1    3    3  502    0  0.14743868904E+04 -0.18709677325E+03 -0.71895187617E+03  0.16509735629E+04  0.50400001928E-02 0.  1.
       -1    1    3    3    0  502 -0.14743868904E+04  0.18709677325E+03  0.43933343097E+02  0.14868597929E+04  0.50400001928E-02 0. -1.
</event>
<event>
 5   0  0.1258262E-06  0.3098068E+04  0.7818609E-02  0.8216268E-01
       -2   -1    0    0    0  501  0.00000000000E+00  0.00000000000E+00  0.11503465525E+04  0.11503465525E+04  0.25500000920E-02 0. -1.
        2   -1    0    0  501    0  0.00000000000E+00  0.00000000000E+00 -0.20858981645E+04  0.20858981645E+04  0.25500000920E-02 0.  1.
    10030    2    1    2    0    0  0.00000000000E+00  0.00000000000E+00 -0.93555161197E+03  0.32362447170E+04  0.30980676315E+04 0.  0.
        1    1    3    3  502    0  0.36666210041E+03  0.67186641711E+03  0.93901143130E+03  0.12114404841E+04  0.50400001928E-02 0. -1.
       -1    1    3    3    0  502 -0.36666210041E+03 -0.67186641711E+03 -0.18745630433E+04  0.20248042329E+04  0.50400001928E-02 0.  1.
</event>
<event>
 5   0  0.4173905E-07  0.3097898E+04  0.7818609E-02  0.8216315E-01
       -1   -1    0    0    0  501  0.00000000000E+00  0.00000000000E+00  0.27964920453E+04  0.27964920453E+04  0.50400001928E-02 0.  1.
        1   -1    0    0  501    0  0.00000000000E+00  0.00000000000E+00 -0.85794745110E+03  0.85794745111E+03  0.50400001928E-02 0. -1.
    10030    2    1    2    0    0  0.00000000000E+00  0.00000000000E+00  0.19385445942E+04  0.36544394964E+04  0.30978981405E+04 0.  0.
        3    1    3    3  502    0  0.13439608472E+04 -0.30415690741E+03  0.18038295375E+04  0.22699214070E+04  0.10100000352E+00 0.  1.
       -3    1    3    3    0  502 -0.13439608472E+04  0.30415690741E+03  0.13471505665E+03  0.13845180894E+04  0.10100000352E+00 0. -1.
</event>
<event>
 5   0  0.1176002E-06  0.3091754E+04  0.7818609E-02  0.8218005E-01
       -2   -1    0    0    0  501  0.00000000000E+00  0.00000000000E+00  0.22445511344E+04  0.22445511344E+04  0.25500000920E-02 0. -1.
        2   -1    0    0  501    0  0.00000000000E+00  0.00000000000E+00 -0.10646828821E+04  0.10646828821E+04  0.25500000920E-02 0.  1.
    10030    2    1    2    0    0  0.00000000000E+00  0.00000000000E+00  0.11798682524E+04  0.33092340165E+04  0.30917536582E+04 0.  0.
        2    1    3    3  502    0 -0.58677969632E+03  0.89587302963E+03  0.17831789432E+04  0.20800543360E+04  0.25500000920E-02 0.  1.
       -2    1    3    3    0  502  0.58677969632E+03 -0.89587302963E+03 -0.60331069085E+03  0.12291796805E+04  0.25500000920E-02 0. -1.
</event>
<event>
 5   0  0.3935852E-07  0.3090791E+04  0.7818609E-02  0.8218270E-01
       -1   -1    0    0    0  501  0.00000000000E+00  0.00000000000E+00  0.13459720535E+04  0.13459720535E+04  0.50400001928E-02 0.  1.
        1   -1    0    0  501    0  0.00000000000E+00  0.00000000000E+00 -0.17743665308E+04  0.17743665308E+04  0.50400001928E-02 0. -1.
    10030    2    1    2    0    0  0.00000000000E+00  0.00000000000E+00 -0.42839447736E+03  0.31203385843E+04  0.30907913311E+04 0.  0.
        5    1    3    3  502    0 -0.14963073029E+03  0.12563744292E+04  0.68161832292E+03  0.14371818570E+04  0.46999998093E+01 0.  1.
       -5    1    3    3    0  502  0.14963073029E+03 -0.12563744292E+04 -0.11100128003E+04  0.16831567273E+04  0.46999998093E+01 0. -1.
</event>
<event>
 5   0  0.1237580E-06  0.3077824E+04  0.7818609E-02  0.8221850E-01
       -2   -1    0    0    0  501  0.00000000000E+00  0.00000000000E+00  0.16336154626E+04  0.16336154626E+04  0.25500000920E-02 0. -1.
        2   -1    0    0  501    0  0.00000000000E+00  0.00000000000E+00 -0.14496986061E+04  0.14496986061E+04  0.25500000920E-02 0.  1.
    10030    2    1    2    0    0  0.00000000000E+00  0.00000000000E+00  0.18391685651E+03  0.30833140688E+04  0.30778239450E+04 0.  0.
        4    1    3    3  502    0 -0.13370871824E+04  0.56289008673E+03 -0.42237833709E+03  0.15109773180E+04  0.12699999809E+01 0.  1.
       -4    1    3    3    0  502  0.13370871824E+04 -0.56289008673E+03  0.60629519360E+03  0.15723367507E+04  0.12699999809E+01 0. -1.
</event>
<event>
 5   0  0.1258262E-06  0.3100470E+04  0.7818609E-02  0.8215609E-01
        2   -1    0    0  501    0  0.00000000000E+00  0.00000000000E+00  0.17509357031E+04  0.17509357031E+04  0.25500000920E-02 0.  1.
       -2   -1    0    0    0  501  0.00000000000E+00  0.00000000000E+00 -0.13725395688E+04  0.13725395688E+04  0.25500000920E-02 0. -1.
    10030    2    1    2    0    0  0.00000000000E+00  0.00000000000E+00  0.37839613438E+03  0.31234752719E+04  0.31004699869E+04 0.  0.
        1    1    3    3  502    0 -0.49229937950E+03  0.24479773835E+03 -0.12710201785E+04  0.13848382238E+04  0.50400001928E-02 0. -1.
       -1    1    3    3    0  502  0.49229937950E+03 -0.24479773835E+03  0.16494163129E+04  0.17386370481E+04  0.50400001928E-02 0.  1.
</event>
<event>
 5   0  0.1193123E-06  0.3097168E+04  0.7818609E-02  0.8216516E-01
       -2   -1    0    0    0  501  0.00000000000E+00  0.00000000000E+00  0.16251301319E+04  0.16251301319E+04  0.25500000920E-02 0. -1.
        2   -1    0    0  501    0  0.00000000000E+00  0.00000000000E+00 -0.14756432737E+04  0.14756432737E+04  0.25500000920E-02 0.  1.
    10030    2    1    2    0    0  0.00000000000E+00  0.00000000000E+00  0.14948685819E+03  0.31007734055E+04  0.30971679631E+04 0.  0.
        3    1    3    3  502    0 -0.15571362055E+03  0.36418238836E+03  0.15735622711E+04  0.16226440690E+04  0.10100000352E+00 0. -1.
       -3    1    3    3    0  502  0.15571362055E+03 -0.36418238836E+03 -0.14240754129E+04  0.14781293365E+04  0.10100000352E+00 0.  1.
</event>
<event>
 5   0  0.4219337E-07  0.3099885E+04  0.7818609E-02  0.8215769E-01
        1   -1    0    0  501    0  0.00000000000E+00  0.00000000000E+00  0.28778788710E+04  0.28778788710E+04  0.50400001928E-02 0. -1.
       -1   -1    0    0    0  501  0.00000000000E+00  0.00000000000E+00 -0.83475427568E+03  0.83475427570E+03  0.50400001928E-02 0.  1.
    10030    2    1    2    0    0  0.00000000000E+00  0.00000000000E+00  0.20431245954E+04  0.37126331467E+04  0.30998849608E+04 0.  0.
        4    1    3    3  502    0  0.26745819622E+03 -0.30919109745E+03  0.28121409307E+04  0.28417021745E+04  0.12699999809E+01 0. -1.
       -4    1    3    3    0  502 -0.26745819622E+03  0.30919109745E+03 -0.76901633536E+03  0.87093097224E+03  0.12699999809E+01 0.  1.
</event>
<event>
 5   0  0.1237580E-06  0.3070615E+04  0.7818609E-02  0.8223849E-01
       -2   -1    0    0    0  501  0.00000000000E+00  0.00000000000E+00  0.14130770744E+04  0.14130770744E+04  0.25500000920E-02 0. -1.
        2   -1    0    0  501    0  0.00000000000E+00  0.00000000000E+00 -0.16681107123E+04  0.16681107123E+04  0.25500000920E-02 0.  1.
    10030    2    1    2    0    0  0.00000000000E+00  0.00000000000E+00 -0.25503363789E+03  0.30811877867E+04  0.30706149254E+04 0.  0.
        4    1    3    3  502    0 -0.26802478203E+03 -0.14431993022E+04 -0.57907283494E+03  0.15779697306E+04  0.12699999809E+01 0. -1.
       -4    1    3    3    0  502  0.26802478203E+03  0.14431993022E+04  0.32403919705E+03  0.15032180560E+04  0.12699999809E+01 0.  1.
</event>
<event>
 5   0  0.1237580E-06  0.3102317E+04  0.7818609E-02  0.8215102E-01
        2   -1    0    0  501    0  0.00000000000E+00  0.00000000000E+00  0.21643855936E+04  0.21643855936E+04  0.25500000920E-02 0.  1.
       -2   -1    0    0    0  501  0.00000000000E+00  0.00000000000E+00 -0.11116743906E+04  0.11116743906E+04  0.25500000920E-02 0. -1.
    10030    2    1    2    0    0  0.00000000000E+00  0.00000000000E+00  0.10527112030E+04  0.32760599842E+04  0.31023165769E+04 0.  0.
        4    1    3    3  502    0 -0.48026942135E+03 -0.14440232409E+04  0.20915222161E+03  0.15361015924E+04  0.12699999809E+01 0. -1.
       -4    1    3    3    0  502  0.48026942135E+03  0.14440232409E+04  0.84355898137E+03  0.17399583918E+04  0.12699999809E+01 0.  1.
</event>
<event>
 5   0  0.4134019E-07  0.3106536E+04  0.7818609E-02  0.8213946E-01
        1   -1    0    0  501    0  0.00000000000E+00  0.00000000000E+00  0.11601160782E+04  0.11601160782E+04  0.50400001928E-02 0. -1.
       -1   -1    0    0    0  501  0.00000000000E+00  0.00000000000E+00 -0.20796558091E+04  0.20796558091E+04  0.50400001928E-02 0.  1.
    10030    2    1    2    0    0  0.00000000000E+00  0.00000000000E+00 -0.91953973084E+03  0.32397718873E+04  0.31065364258E+04 0.  0.
        2    1    3    3  502    0  0.36736870797E+03 -0.11438407286E+04 -0.14865311849E+04  0.19113101118E+04  0.25500000920E-02 0.  1.
       -2    1    3    3    0  502 -0.36736870797E+03  0.11438407286E+04  0.56699145404E+03  0.13284617755E+04  0.25500000920E-02 0. -1.
</event>
<event>
 5   0  0.1258262E-06  0.3076537E+04  0.7818609E-02  0.8222207E-01
        2   -1    0    0  501    0  0.00000000000E+00  0.00000000000E+00  0.19433464821E+04  0.19433464821E+04  0.25500000920E-02 0.  1.
       -2   -1    0    0    0  501  0.00000000000E+00  0.00000000000E+00 -0.12176263512E+04  0.12176263512E+04  0.25500000920E-02 0. -1.
    10030    2    1    2    0    0  0.00000000000E+00  0.00000000000E+00  0.72572013083E+03  0.31609728333E+04  0.30765369402E+04 0.  0.
        1    1    3    3  502    0  0.13521798228E+04 -0.54836544266E+03 -0.13751198390E+03  0.14656072044E+04  0.50400001928E-02 0. -1.
       -1    1    3    3    0  502 -0.13521798228E+04  0.54836544266E+03  0.86323211473E+03  0.16953656289E+04  0.50400001928E-02 0.  1.
</event>
<event>
 5   0  0.3935852E-07  0.3102374E+04  0.7818609E-02  0.8215087E-01
       -1   -1    0    0    0  501  0.00000000000E+00  0.00000000000E+00  0.18060699025E+04  0.18060699025E+04  0.50400001928E-02 0. -1.
        1   -1    0    0  501    0  0.00000000000E+00  0.00000000000E+00 -0.13322743495E+04  0.13322743495E+04  0.50400001928E-02 0.  1.
    10030    2    1    2    0    0  0.00000000000E+00  0.00000000000E+00  0.47379555302E+03  0.31383442519E+04  0.31023736747E+04 0.  0.
        5    1    3    3  502    0  0.14196710512E+04 -0.62501183505E+03  0.24425025076E+03  0.15702821284E+04  0.46999998093E+01 0. -1.
       -5    1    3    3    0  502 -0.14196710512E+04  0.62501183505E+03  0.22954530226E+03  0.15680621236E+04  0.46999998093E+01 0.  1.
</event>
<event>
 5   0  0.3935852E-07  0.3113436E+04  0.7818609E-02  0.8212060E-01
       -1   -1    0    0    0  501  0.00000000000E+00  0.00000000000E+00  0.14059554288E+04  0.14059554288E+04  0.50400001928E-02 0.  1.
        1   -1    0    0  501    0  0.00000000000E+00  0.00000000000E+00 -0.17236471322E+04  0.17236471322E+04  0.50400001928E-02 0. -1.
    10030    2    1    2    0    0  0.00000000000E+00  0.00000000000E+00 -0.31769170342E+03  0.31296025609E+04  0.31134360715E+04 0.  0.
        5    1    3    3  502    0 -0.10503623054E+04 -0.99537736965E+02 -0.13094203789E+04  0.16815982137E+04  0.46999998093E+01 0. -1.
       -5    1    3    3    0  502  0.10503623054E+04  0.99537736965E+02  0.99172867552E+03  0.14480043472E+04  0.46999998093E+01 0.  1.
</event>
<event>
 5   0  0.3935852E-07  0.3092558E+04  0.7818609E-02  0.8217783E-01
        1   -1    0    0  501    0  0.00000000000E+00  0.00000000000E+00  0.31468222031E+04  0.31468222031E+04  0.50400001928E-02 0. -1.
       -1   -1    0    0    0  501  0.00000000000E+00  0.00000000000E+00 -0.75980733037E+03  0.75980733039E+03  0.50400001928E-02 0.  1.
    10030    2    1    2    0    0  0.00000000000E+00  0.00000000000E+00  0.23870148728E+04  0.39066295335E+04  0.30925578910E+04 0.  0.
        5    1    3    3  502    0 -0.94245331860E+03  0.23641960713E+03  0.27129883333E+04  0.28817425762E+04  0.46999998093E+01 0. -1.
       -5    1    3    3    0  502  0.94245331860E+03 -0.23641960713E+03 -0.32597346059E+03  0.10248869574E+04  0.46999998093E+01 0.  1.
</event>
<event>
 5   0  0.4134019E-07  0.3111715E+04  0.7818609E-02  0.8212530E-01
        1   -1    0    0  501    0  0.00000000000E+00  0.00000000000E+00  0.19692558460E+04  0.19692558460E+04  0.50400001928E-02 0. -1.
       -1   -1    0    0    0  501  0.00000000000E+00  0.00000000000E+00 -0.12292424835E+04  0.12292424835E+04  0.50400001928E-02 0.  1.
    10030    2    1    2    0    0  0.00000000000E+00  0.00000000000E+00  0.74001336252E+03  0.31984983295E+04  0.31117152484E+04 0.  0.
        2    1    3    3  502    0  0.12851361627E+04 -0.57976093694E+03 -0.30636878184E+03  0.14427610790E+04  0.25500000920E-02 0.  1.
       -2    1    3    3    0  502 -0.12851361627E+04  0.57976093694E+03  0.10463821444E+04  0.17557372505E+04  0.25500000920E-02 0. -1.
</event>
<event>
 5   0  0.1193123E-06  0.3106945E+04  0.7818609E-02  0.8213835E-01
        2   -1    0    0  501    0  0.00000000000E+00  0.00000000000E+00  0.22807049182E+04  0.22807049182E+04  0.25500000920E-02 0.  1.
       -2   -1    0    0    0  501  0.00000000000E+00  0.00000000000E+00 -0.10581274774E+04  0.10581274774E+04  0.25500000920E-02 0. -1.
    10030    2    1    2    0    0  0.00000000000E+00  0.00000000000E+00  0.12225774407E+04  0.33388323956E+04  0.31069448285E+04 0.  0.
        3    1    3    3  502    0  0.81679195124E+03 -0.80947608477E+02 -0.80607935568E+03  0.11504197255E+04  0.10100000352E+00 0. -1.
       -3    1    3    3    0  502 -0.81679195124E+03  0.80947608477E+02  0.20286567964E+04  0.21884126701E+04  0.10100000352E+00 0.  1.
</event>
<event>
 5   0  0.1200286E-06  0.3105493E+04  0.7818609E-02  0.8214232E-01
       -2   -1    0    0    0  501  0.00000000000E+00  0.00000000000E+00  0.16410724659E+04  0.16410724659E+04  0.25500000920E-02 0. -1.
        2   -1    0    0  501    0  0.00000000000E+00  0.00000000000E+00 -0.14691744221E+04  0.14691744221E+04  0.25500000920E-02 0.  1.
    10030    2    1    2    0    0  0.00000000000E+00  0.00000000000E+00  0.17189804379E+03  0.31102468881E+04  0.31054929991E+04 0.  0.
        5    1    3    3  502    0 -0.47090346864E+02  0.11584956472E+04 -0.94842912604E+03  0.14979551270E+04  0.46999998093E+01 0.  1.
       -5    1    3    3    0  502  0.47090346864E+02 -0.11584956472E+04  0.11203271698E+04  0.16122917611E+04  0.46999998093E+01 0. -1.
</event>
<event>
 5   0  0.1176002E-06  0.3101098E+04  0.7818609E-02  0.8215437E-01
       -2   -1    0    0    0  501  0.00000000000E+00  0.00000000000E+00  0.11479931770E+04  0.11479931770E+04  0.25500000920E-02 0. -1.
        2   -1    0    0  501    0  0.00000000000E+00  0.00000000000E+00 -0.20942650367E+04  0.20942650367E+04  0.25500000920E-02 0.  1.
    10030    2    1    2    0    0  0.00000000000E+00  0.00000000000E+00 -0.94627185976E+03  0.32422582137E+04  0.31010978526E+04 0.  0.
        2    1    3    3  502    0 -0.89752432343E+03 -0.11894044188E+04 -0.24695585649E+02  0.14902491921E+04  0.25500000920E-02 0. -1.
       -2    1    3    3    0  502  0.89752432343E+03  0.11894044188E+04 -0.92157627411E+03  0.17520090216E+04  0.25500000920E-02 0.  1.
</event>
<event>
 5   0  0.4219337E-07  0.3120403E+04  0.7818609E-02  0.8210161E-01
       -1   -1    0    0    0  501  0.00000000000E+00  0.00000000000E+00  0.19058680567E+04  0.19058680567E+04  0.50400001928E-02 0. -1.
        1   -1    0    0  501    0  0.00000000000E+00  0.00000000000E+00 -0.12772285255E+04  0.12772285255E+04  0.50400001928E-02 0.  1.
    10030    2    1    2    0    0  0.00000000000E+00  0.00000000000E+00  0.62863953117E+03  0.31830965822E+04  0.31204032098E+04 0.  0.
        4    1    3    3  502    0 -0.66644229513E+03 -0.18084125286E+03  0.17414924077E+04  0.18734050044E+04  0.12699999809E+01 0. -1.
       -4    1    3    3    0  502  0.66644229513E+03  0.18084125286E+03 -0.11128528765E+04  0.13096915779E+04  0.12699999809E+01 0.  1.
</event>
<event>
 5   0  0.1258262E-06  0.3120632E+04  0.7818609E-02  0.8210098E-01
        2   -1    0    0  501    0  0.00000000000E+00  0.00000000000E+00  0.19351183451E+04  0.19351183451E+04  0.25500000920E-02 0.  1.
       -2   -1    0    0    0  501  0.00000000000E+00  0.00000000000E+00 -0.12581066848E+04  0.12581066848E+04  0.25500000920E-02 0. -1.
    10030    2    1    2    0    0  0.00000000000E+00  0.00000000000E+00  0.67701166037E+03  0.31932250299E+04  0.31206315552E+04 0.  0.
        1    1    3    3  502    0 -0.49046048687E+03 -0.11513874361E+04  0.12920309418E+04  0.17987741581E+04  0.50400001928E-02 0.  1.
       -1    1    3    3    0  502  0.49046048687E+03  0.11513874361E+04 -0.61501928143E+03  0.13944508718E+04  0.50400001928E-02 0. -1.
</event>
<event>
 5   0  0.4134019E-07  0.3089922E+04  0.7818609E-02  0.8218509E-01
       -1   -1    0    0    0  501  0.00000000000E+00  0.00000000000E+00  0.17085740907E+04  0.17085740907E+04  0.50400001928E-02 0.  1.
        1   -1    0    0  501    0  0.00000000000E+00  0.00000000000E+00 -0.13970152124E+04  0.13970152124E+04  0.50400001928E-02 0. -1.
    10030    2    1    2    0    0  0.00000000000E+00  0.00000000000E+00  0.31155887834E+03  0.31055893031E+04  0.30899216794E+04 0.  0.
        2    1    3    3  502    0  0.10330322651E+04 -0.51889766146E+03 -0.87435343371E+03  0.14494496786E+04  0.25500000920E-02 0. -1.
       -2    1    3    3    0  502 -0.10330322651E+04  0.51889766146E+03  0.11859123120E+04  0.16561396245E+04  0.25500000920E-02 0.  1.
</event>
<event>
 5   0  0.4330395E-07  0.3091836E+04  0.7818609E-02  0.8217982E-01
        1   -1    0    0  501    0  0.00000000000E+00  0.00000000000E+00  0.15994774353E+04  0.15994774353E+04  0.50400001928E-02 0.  1.
       -1   -1    0    0    0  501  0.00000000000E+00  0.00000000000E+00 -0.14941516081E+04  0.14941516081E+04  0.50400001928E-02 0. -1.
    10030    2    1    2    0    0  0.00000000000E+00  0.00000000000E+00  0.10532582718E+03  0.30936290434E+04  0.30918355597E+04 0.  0.
        1    1    3    3  502    0  0.11454964007E+04 -0.37137322689E+03 -0.91732280825E+03  0.15137903462E+04  0.50400001928E-02 0. -1.
       -1    1    3    3    0  502 -0.11454964007E+04  0.37137322689E+03  0.10226486354E+04  0.15798386972E+04  0.50400001928E-02 0.  1.
</event>
<event>
 5   0  0.4173905E-07  0.3119562E+04  0.7818609E-02  0.8210390E-01
        1   -1    0    0  501    0  0.00000000000E+00  0.00000000000E+00  0.12638723871E+04  0.12638723871E+04  0.50400001928E-02 0.  1.
       -1   -1    0    0    0  501  0.00000000000E+00  0.00000000000E+00 -0.19249700191E+04  0.19249700191E+04  0.50400001928E-02 0. -1.
    10030    2    1    2    0    0  0.00000000000E+00  0.00000000000E+00 -0.66109763205E+03  0.31888424062E+04  0.31195617982E+04 0.  0.
        3    1    3    3  502    0  0.10926946557E+03 -0.11862688527E+04 -0.13597573117E+04  0.18077924560E+04  0.10100000352E+00 0. -1.
       -3    1    3    3    0  502 -0.10926946557E+03  0.11862688527E+04  0.69865967964E+03  0.13810499503E+04  0.10100000352E+00 0.  1.
</event>
<event>
 5   0  0.4134019E-07  0.3100565E+04  0.7818609E-02  0.8215583E-01
        1   -1    0    0  501    0  0.00000000000E+00  0.00000000000E+00  0.23129472956E+04  0.23129472956E+04  0.50400001928E-02 0.  1.
       -1   -1    0    0    0  501  0.00000000000E+00  0.00000000000E+00 -0.10390965872E+04  0.10390965872E+04  0.50400001928E-02 0. -1.
    10030    2    1    2    0    0  0.00000000000E+00  0.00000000000E+00  0.12738507084E+04  0.33520438829E+04  0.31005648784E+04 0.  0.
        2    1    3    3  502    0 -0.86328521840E+03  0.37563251431E+03 -0.69464383124E+03  0.11699962420E+04  0.25500000920E-02 0. -1.
       -2    1    3    3    0  502  0.86328521840E+03 -0.37563251431E+03  0.19684945397E+04  0.21820476408E+04  0.25500000920E-02 0.  1.
</event>
<event>
 5   0  0.4173905E-07  0.3104585E+04  0.7818609E-02  0.8214481E-01
        1   -1    0    0  501    0  0.00000000000E+00  0.00000000000E+00  0.17016568690E+04  0.17016568690E+04  0.50400001928E-02 0.  1.
       -1   -1    0    0    0  501  0.00000000000E+00  0.00000000000E+00 -0.14160384043E+04  0.14160384043E+04  0.50400001928E-02 0. -1.
    10030    2    1    2    0    0  0.00000000000E+00  0.00000000000E+00  0.28561846473E+03  0.31176952733E+04  0.31045846598E+04 0.  0.
        3    1    3    3  502    0 -0.11818505750E+04 -0.67375741723E+03 -0.60793837973E+03  0.14900701066E+04  0.10100000352E+00 0. -1.
       -3    1    3    3    0  502  0.11818505750E+04  0.67375741723E+03  0.89355684447E+03  0.16276251667E+04  0.10100000352E+00 0.  1.
</event>
<event>
 5   0  0.4330395E-07  0.3096554E+04  0.7818609E-02  0.8216684E-01
        1   -1    0    0  501    0  0.00000000000E+00  0.00000000000E+00  0.19554629982E+04  0.19554629982E+04  0.50400001928E-02 0.  1.
       -1   -1    0    0    0  501  0.00000000000E+00  0.00000000000E+00 -0.12258796750E+04  0.12258796750E+04  0.50400001928E-02 0. -1.
    10030    2    1    2    0    0  0.00000000000E+00  0.00000000000E+00  0.72958332317E+03  0.31813426732E+04  0.30965544366E+04 0.  0.
        1    1    3    3  502    0  0.98584619811E+03 -0.38300764442E+03 -0.79691049524E+03  0.13242559871E+04  0.50400001928E-02 0. -1.
       -1    1    3    3    0  502 -0.98584619811E+03  0.38300764442E+03  0.15264938184E+04  0.18570866861E+04  0.50400001928E-02 0.  1.
</event>
<event>
 5   0  0.4134019E-07  0.3152774E+04  0.7818609E-02  0.8201402E-01
        1   -1    0    0  501    0  0.00000000000E+00  0.00000000000E+00  0.18595051202E+04  0.18595051202E+04  0.50400001928E-02 0. -1.
       -1   -1    0    0    0  501  0.00000000000E+00  0.00000000000E+00 -0.13363747462E+04  0.13363747462E+04  0.50400001928E-02 0.  1.
    10030    2    1    2    0    0  0.00000000000E+00  0.00000000000E+00  0.52313037396E+03  0.31958798664E+04  0.31527738156E+04 0.  0.
        2    1    3    3  502    0  0.10220894783E+04  0.11985080111E+04  0.19820191325E+03  0.15875680624E+04  0.25500000920E-02 0. -1.
       -2    1    3    3    0  502 -0.10220894783E+04 -0.11985080111E+04  0.32492846072E+03  0.16083118040E+04  0.25500000920E-02 0.  1.
</event>
<event>
 5   0  0.1176002E-06  0.3129572E+04  0.7818609E-02  0.8207669E-01
       -2   -1    0    0    0  501  0.00000000000E+00  0.00000000000E+00  0.10786757158E+04  0.10786757158E+04  0.25500000920E-02 0.  1.
        2   -1    0    0  501    0  0.00000000000E+00  0.00000000000E+00 -0.22699644019E+04  0.22699644019E+04  0.25500000920E-02 0. -1.
    10030    2    1    2    0    0  0.00000000000E+00  0.00000000000E+00 -0.11912886861E+04  0.33486401177E+04  0.31295721600E+04 0.  0.
        2    1    3    3  502    0  0.57161839914E+03  0.45221420836E+03 -0.20772400010E+04  0.22014021228E+04  0.25500000920E-02 0. -1.
       -2    1    3    3    0  502 -0.57161839914E+03 -0.45221420836E+03  0.88595131494E+03  0.11472379949E+04  0.25500000920E-02 0.  1.
</event>
<event>
 5   0  0.4134019E-07  0.3099665E+04  0.7818609E-02  0.8215830E-01
       -1   -1    0    0    0  501  0.00000000000E+00  0.00000000000E+00  0.13476970471E+04  0.13476970471E+04  0.50400001928E-02 0. -1.
        1   -1    0    0  501    0  0.00000000000E+00  0.00000000000E+00 -0.17822859591E+04  0.17822859592E+04  0.50400001928E-02 0.  1.
    10030    2    1    2    0    0  0.00000000000E+00  0.00000000000E+00 -0.43458891209E+03  0.31299830062E+04  0.30996654814E+04 0.  0.
        2    1    3    3  502    0  0.59513472141E+03  0.99394886308E+02  0.12242245810E+04  0.13648408349E+04  0.25500000920E-02 0. -1.
       -2    1    3    3    0  502 -0.59513472141E+03 -0.99394886308E+02 -0.16588134931E+04  0.17651421713E+04  0.25500000920E-02 0.  1.
</event>
<event>
 5   0  0.3935852E-07  0.3102302E+04  0.7818609E-02  0.8215106E-01
       -1   -1    0    0    0  501  0.00000000000E+00  0.00000000000E+00  0.84061010234E+03  0.84061010235E+03  0.50400001928E-02 0.  1.
        1   -1    0    0  501    0  0.00000000000E+00  0.00000000000E+00 -0.28622894039E+04  0.28622894039E+04  0.50400001928E-02 0. -1.
    10030    2    1    2    0    0  0.00000000000E+00  0.00000000000E+00 -0.20216793015E+04  0.37028995062E+04  0.31023019768E+04 0.  0.
        5    1    3    3  502    0  0.99601676267E+03 -0.72473157439E+03 -0.21360937606E+04  0.24658069451E+04  0.46999998093E+01 0. -1.
       -5    1    3    3    0  502 -0.99601676267E+03  0.72473157439E+03  0.11441445904E+03  0.12370925612E+04  0.46999998093E+01 0.  1.
</event>
<event>
 5   0  0.3902375E-07  0.3071215E+04  0.7818609E-02  0.8223682E-01
        3   -1    0    0  501    0  0.00000000000E+00  0.00000000000E+00  0.10660455562E+04  0.10660455610E+04  0.10100000352E+00 0. -1.
       -3   -1    0    0    0  501  0.00000000000E+00  0.00000000000E+00 -0.22119977249E+04  0.22119977272E+04  0.10100000352E+00 0.  1.
    10030    2    1    2    0    0  0.00000000000E+00  0.00000000000E+00 -0.11459521687E+04  0.32780432882E+04  0.30712149756E+04 0.  0.
        5    1    3    3  502    0  0.11444636047E+04 -0.18910591785E+03 -0.16469758519E+04  0.20144750029E+04  0.46999998093E+01 0.  1.
       -5    1    3    3    0  502 -0.11444636047E+04  0.18910591785E+03  0.50102368316E+03  0.12635682853E+04  0.46999998093E+01 0. -1.
</event>
<event>
 5   0  0.1193123E-06  0.3107980E+04  0.7818609E-02  0.8213551E-01
        2   -1    0    0  501    0  0.00000000000E+00  0.00000000000E+00  0.19897112673E+04  0.19897112673E+04  0.25500000920E-02 0.  1.
       -2   -1    0    0    0  501  0.00000000000E+00  0.00000000000E+00 -0.12136858589E+04  0.12136858589E+04  0.25500000920E-02 0. -1.
    10030    2    1    2    0    0  0.00000000000E+00  0.00000000000E+00  0.77602540837E+03  0.32033971262E+04  0.31079796836E+04 0.  0.
        3    1    3    3  502    0  0.10273413594E+04 -0.13947034328E+03 -0.80511069133E+03  0.13126635063E+04  0.10100000352E+00 0. -1.
       -3    1    3    3    0  502 -0.10273413594E+04  0.13947034328E+03  0.15811360997E+04  0.18907336199E+04  0.10100000352E+00 0.  1.
</event>
<event>
 5   0  0.1193123E-06  0.3117090E+04  0.7818609E-02  0.8211063E-01
       -2   -1    0    0    0  501  0.00000000000E+00  0.00000000000E+00  0.10316942369E+04  0.10316942369E+04  0.25500000920E-02 0.  1.
        2   -1    0    0  501    0  0.00000000000E+00  0.00000000000E+00 -0.23544403483E+04  0.23544403483E+04  0.25500000920E-02 0. -1.
    10030    2    1    2    0    0  0.00000000000E+00  0.00000000000E+00 -0.13227461115E+04  0.33861345852E+04  0.31170900138E+04 0.  0.
        3    1    3    3  502    0 -0.24717840374E+03  0.50890537310E+03 -0.22389522611E+04  0.23093265425E+04  0.10100000352E+00 0. -1.
       -3    1    3    3    0  502  0.24717840374E+03 -0.50890537310E+03  0.91620614966E+03  0.10768080427E+04  0.10100000352E+00 0.  1.
</event>
<event>
 5   0  0.1237580E-06  0.3103951E+04  0.7818609E-02  0.8214654E-01
       -2   -1    0    0    0  501  0.00000000000E+00  0.00000000000E+00  0.21148930368E+04  0.21148930368E+04  0.25500000920E-02 0. -1.
        2   -1    0    0  501    0  0.00000000000E+00  0.00000000000E+00 -0.11388887954E+04  0.11388887954E+04  0.25500000920E-02 0.  1.
    10030    2    1    2    0    0  0.00000000000E+00  0.00000000000E+00  0.97600424132E+03  0.32537818322E+04  0.31039510197E+04 0.  0.
        4    1    3    3  502    0  0.11766961045E+04 -0.11842002294E+03  0.15414958787E+04  0.19428968529E+04  0.12699999809E+01 0. -1.
       -4    1    3    3    0  502 -0.11766961045E+04  0.11842002294E+03 -0.56549163734E+03  0.13108849793E+04  0.12699999809E+01 0.  1.
</event>
<event>
 5   0  0.1193123E-06  0.3107210E+04  0.7818609E-02  0.8213762E-01
        2   -1    0    0  501    0  0.00000000000E+00  0.00000000000E+00  0.24175672542E+04  0.24175672542E+04  0.25500000920E-02 0. -1.
       -2   -1    0    0    0  501  0.00000000000E+00  0.00000000000E+00 -0.99839545056E+03  0.99839545056E+03  0.25500000920E-02 0.  1.
    10030    2    1    2    0    0  0.00000000000E+00  0.00000000000E+00  0.14191718036E+04  0.34159627047E+04  0.31072097760E+04 0.  0.
        3    1    3    3  502    0 -0.72934474644E+03 -0.33903987102E+03  0.21708738141E+04  0.23150777352E+04  0.10100000352E+00 0. -1.
       -3    1    3    3    0  502  0.72934474644E+03  0.33903987102E+03 -0.75170201048E+03  0.11008849695E+04  0.10100000352E+00 0.  1.
</event>
<event>
 5   0  0.1258262E-06  0.3095253E+04  0.7818609E-02  0.8217042E-01
        2   -1    0    0  501    0  0.00000000000E+00  0.00000000000E+00  0.18272757437E+04  0.18272757437E+04  0.25500000920E-02 0.  1.
       -2   -1    0    0    0  501  0.00000000000E+00  0.00000000000E+00 -0.13107752971E+04  0.13107752971E+04  0.25500000920E-02 0. -1.
    10030    2    1    2    0    0  0.00000000000E+00  0.00000000000E+00  0.51650044660E+03  0.31380510408E+04  0.30952530790E+04 0.  0.
        1    1    3    3  502    0 -0.11085403765E+04 -0.88127233921E+03 -0.37459645678E+03  0.14648635458E+04  0.50400001928E-02 0. -1.
       -1    1    3    3    0  502  0.11085403765E+04  0.88127233921E+03  0.89109690338E+03  0.16731874950E+04  0.50400001928E-02 0.  1.
</event>
<event>
 5   0  0.1200286E-06  0.3106492E+04  0.7818609E-02  0.8213958E-01
       -2   -1    0    0    0  501  0.00000000000E+00  0.00000000000E+00  0.12137881401E+04  0.12137881401E+04  0.25500000920E-02 0.  1.
        2   -1    0    0  501    0  0.00000000000E+00  0.00000000000E+00 -0.19876395895E+04  0.19876395895E+04  0.25500000920E-02 0. -1.
    10030    2    1    2    0    0  0.00000000000E+00  0.00000000000E+00 -0.77385144941E+03  0.32014277297E+04  0.31064921443E+04 0.  0.
        5    1    3    3  502    0  0.87795704137E+03  0.11568043374E+04 -0.95471345953E+03  0.17379599309E+04  0.46999998093E+01 0. -1.
       -5    1    3    3    0  502 -0.87795704137E+03 -0.11568043374E+04  0.18086201012E+03  0.14634677988E+04  0.46999998093E+01 0.  1.
</event>
<event>
 5   0  0.1200286E-06  0.3100091E+04  0.7818609E-02  0.8215713E-01
       -2   -1    0    0    0  501  0.00000000000E+00  0.00000000000E+00  0.12766912868E+04  0.12766912868E+04  0.25500000920E-02 0.  1.
        2   -1    0    0  501    0  0.00000000000E+00  0.00000000000E+00 -0.18819273952E+04  0.18819273952E+04  0.25500000920E-02 0. -1.
    10030    2    1    2    0    0  0.00000000000E+00  0.00000000000E+00 -0.60523610840E+03  0.31586186820E+04  0.31000905199E+04 0.  0.
        5    1    3    3  502    0  0.53552498452E+03  0.14545807165E+04 -0.29740799853E+03  0.15783110205E+04  0.46999998093E+01 0. -1.
       -5    1    3    3    0  502 -0.53552498452E+03 -0.14545807165E+04 -0.30782810987E+03  0.15803076615E+04  0.46999998093E+01 0.  1.
</event>
<event>
 5   0  0.4173905E-07  0.3072476E+04  0.7818609E-02  0.8223332E-01
        1   -1    0    0  501    0  0.00000000000E+00  0.00000000000E+00  0.17718906726E+04  0.17718906726E+04  0.50400001928E-02 0.  1.
       -1   -1    0    0    0  501  0.00000000000E+00  0.00000000000E+00 -0.13319259337E+04  0.13319259337E+04  0.50400001928E-02 0. -1.
    10030    2    1    2    0    0  0.00000000000E+00  0.00000000000E+00  0.43996473888E+03  0.31038166063E+04  0.30724759648E+04 0.  0.
        3    1    3    3  502    0 -0.77655156284E+03  0.34236187734E+03  0.15135846337E+04  0.17352758969E+04  0.10100000352E+00 0.  1.
       -3    1    3    3    0  502  0.77655156284E+03 -0.34236187734E+03 -0.10736198948E+04  0.13685407095E+04  0.10100000352E+00 0. -1.
</event>
<event>
 5   0  0.4330395E-07  0.3096826E+04  0.7818609E-02  0.8216610E-01
       -1   -1    0    0    0  501  0.00000000000E+00  0.00000000000E+00  0.81628284234E+03  0.81628284235E+03  0.50400001928E-02 0.  1.
        1   -1    0    0  501    0  0.00000000000E+00  0.00000000000E+00 -0.29371954899E+04  0.29371954899E+04  0.50400001928E-02 0. -1.
    10030    2    1    2    0    0  0.00000000000E+00  0.00000000000E+00 -0.21209126476E+04  0.37534783323E+04  0.30968256541E+04 0.  0.
        1    1    3    3  502    0 -0.76613539628E+03 -0.11689280728E+04 -0.18682847720E+04  0.23332047219E+04  0.50400001928E-02 0. -1.
       -1    1    3    3    0  502  0.76613539628E+03  0.11689280728E+04 -0.25262787555E+03  0.14202736104E+04  0.50400001928E-02 0.  1.
</event>
<event>
 5   0  0.4173905E-07  0.3100432E+04  0.7818609E-02  0.8215619E-01
       -1   -1    0    0    0  501  0.00000000000E+00  0.00000000000E+00  0.14027677269E+04  0.14027677269E+04  0.50400001928E-02 0. -1.
        1   -1    0    0  501    0  0.00000000000E+00  0.00000000000E+00 -0.17131624048E+04  0.17131624049E+04  0.50400001928E-02 0.  1.
    10030    2    1    2    0    0  0.00000000000E+00  0.00000000000E+00 -0.31039467796E+03  0.31159301317E+04  0.31004315393E+04 0.  0.
        3    1    3    3  502    0  0.51029946079E+03 -0.12853108063E+04 -0.85922719858E+03  0.16280972936E+04  0.10100000352E+00 0.  1.
       -3    1    3    3    0  502 -0.51029946079E+03  0.12853108063E+04  0.54883252062E+03  0.14878328382E+04  0.10100000352E+00 0. -1.
</event>
<event>
 5   0  0.4330395E-07  0.3173940E+04  0.7818609E-02  0.8195734E-01
       -1   -1    0    0    0  501  0.00000000000E+00  0.00000000000E+00  0.20085999859E+04  0.20085999859E+04  0.50400001928E-02 0.  1.
        1   -1    0    0  501    0  0.00000000000E+00  0.00000000000E+00 -0.12538457010E+04  0.12538457010E+04  0.50400001928E-02 0. -1.
    10030    2    1    2    0    0  0.00000000000E+00  0.00000000000E+00  0.75475428486E+03  0.32624456869E+04  0.31739404263E+04 0.  0.
        1    1    3    3  502    0  0.50007703569E+03  0.84750840236E+03  0.16571360146E+04  0.19272901454E+04  0.50400001928E-02 0.  1.
       -1    1    3    3    0  502 -0.50007703569E+03 -0.84750840236E+03 -0.90238172978E+03  0.13351555415E+04  0.50400001928E-02 0. -1.
</event>
<event>
 5   0  0.4219337E-07  0.3097001E+04  0.7818609E-02  0.8216561E-01
        1   -1    0    0  501    0  0.00000000000E+00  0.00000000000E+00  0.21373306915E+04  0.21373306915E+04  0.50400001928E-02 0. -1.
       -1   -1    0    0    0  501  0.00000000000E+00  0.00000000000E+00 -0.11218919786E+04  0.11218919786E+04  0.50400001928E-02 0.  1.
    10030    2    1    2    0    0  0.00000000000E+00  0.00000000000E+00  0.10154387129E+04  0.32592226701E+04  0.30970012324E+04 0.  0.
        4    1    3    3  502    0  0.87918657345E+03 -0.82116562138E+03 -0.51832191187E+03  0.13099393978E+04  0.12699999809E+01 0.  1.
       -4    1    3    3    0  502 -0.87918657345E+03  0.82116562138E+03  0.15337606248E+04  0.19492832723E+04  0.12699999809E+01 0. -1.
</event>
<event>
 5   0  0.1237580E-06  0.3104460E+04  0.7818609E-02  0.8214515E-01
        2   -1    0    0  501    0  0.00000000000E+00  0.00000000000E+00  0.17875377741E+04  0.17875377741E+04  0.25500000920E-02 0.  1.
       -2   -1    0    0    0  501  0.00000000000E+00  0.00000000000E+00 -0.13478974501E+04  0.13478974501E+04  0.25500000920E-02 0. -1.
    10030    2    1    2    0    0  0.00000000000E+00  0.00000000000E+00  0.43964032405E+03  0.31354352242E+04  0.31044597647E+04 0.  0.
        4    1    3    3  502    0  0.43000454715E+03 -0.14910857753E+04  0.25444479788E+03  0.15725725637E+04  0.12699999809E+01 0.  1.
       -4    1    3    3    0  502 -0.43000454715E+03  0.14910857753E+04  0.18519552617E+03  0.15628626606E+04  0.12699999809E+01 0. -1.
</event>
<event>
 5   0  0.1200286E-06  0.3079019E+04  0.7818609E-02  0.8221520E-01
       -2   -1    0    0    0  501  0.00000000000E+00  0.00000000000E+00  0.12381661467E+04  0.12381661467E+04  0.25500000920E-02 0. -1.
        2   -1    0    0  501    0  0.00000000000E+00  0.00000000000E+00 -0.19141939429E+04  0.19141939429E+04  0.25500000920E-02 0.  1.
    10030    2    1    2    0    0  0.00000000000E+00  0.00000000000E+00 -0.67602779616E+03  0.31523600896E+04  0.30790194143E+04 0.  0.
        5    1    3    3  502    0  0.91577927852E+01  0.12782923865E+04 -0.12163249786E+04  0.17645350193E+04  0.46999998093E+01 0.  1.
       -5    1    3    3    0  502 -0.91577927852E+01 -0.12782923865E+04  0.54029718243E+03  0.13878250704E+04  0.46999998093E+01 0. -1.
</event>
<event>
 5   0  0.4330395E-07  0.3102478E+04  0.7818609E-02  0.8215058E-01
        1   -1    0    0  501    0  0.00000000000E+00  0.00000000000E+00  0.19698496138E+04  0.19698496138E+04  0.50400001928E-02 0. -1.
       -1   -1    0    0    0  501  0.00000000000E+00  0.00000000000E+00 -0.12215871724E+04  0.12215871724E+04  0.50400001928E-02 0.  1.
    10030    2    1    2    0    0  0.00000000000E+00  0.00000000000E+00  0.74826244137E+03  0.31914367862E+04  0.31024783769E+04 0.  0.
        1    1    3    3  502    0  0.68791185978E+03  0.13121779914E+04 -0.98733265861E+02  0.14848508564E+04  0.50400001928E-02 0.  1.
       -1    1    3    3    0  502 -0.68791185978E+03 -0.13121779914E+04  0.84699570723E+03  0.17065859298E+04  0.50400001928E-02 0. -1.
</event>
<event>
 5   0  0.1193123E-06  0.2969019E+04  0.7818609E-02  0.8252634E-01
        2   -1    0    0  501    0  0.00000000000E+00  0.00000000000E+00  0.17703401783E+04  0.17703401783E+04  0.25500000920E-02 0.  1.
       -2   -1    0    0    0  501  0.00000000000E+00  0.00000000000E+00 -0.12448273605E+04  0.12448273605E+04  0.25500000920E-02 0. -1.
    10030    2    1    2    0    0  0.00000000000E+00  0.00000000000E+00  0.52551281781E+03  0.30151675388E+04  0.29690186200E+04 0.  0.
        3    1    3    3  502    0  0.16201954745E+03  0.12751957477E+04  0.10168570163E+04  0.16390157811E+04  0.10100000352E+00 0.  1.
       -3    1    3    3    0  502 -0.16201954745E+03 -0.12751957477E+04 -0.49134419852E+03  0.13761517578E+04  0.10100000352E+00 0. -1.
</event>
<event>
 5   0  0.1258262E-06  0.3097404E+04  0.7818609E-02  0.8216451E-01
        2   -1    0    0  501    0  0.00000000000E+00  0.00000000000E+00  0.22646030233E+04  0.22646030233E+04  0.25500000920E-02 0.  1.
       -2   -1    0    0    0  501  0.00000000000E+00  0.00000000000E+00 -0.10591159645E+04  0.10591159645E+04  0.25500000920E-02 0. -1.
    10030    2    1    2    0    0  0.00000000000E+00  0.00000000000E+00  0.12054870587E+04  0.33237189878E+04  0.30974035677E+04 0.  0.
        1    1    3    3  502    0  0.19782707939E+03 -0.13130067339E+04 -0.25258847513E+03  0.13516372200E+04  0.50400001928E-02 0. -1.
       -1    1    3    3    0  502 -0.19782707939E+03  0.13130067339E+04  0.14580755339E+04  0.19720817678E+04  0.50400001928E-02 0.  1.
</event>
<event>
 5   0  0.1176002E-06  0.3097009E+04  0.7818609E-02  0.8216559E-01
       -2   -1    0    0    0  501  0.00000000000E+00  0.00000000000E+00  0.79885947100E+03  0.79885947101E+03  0.25500000920E-02 0. -1.
        2   -1    0    0  501    0  0.00000000000E+00  0.00000000000E+00 -0.30016118349E+04  0.30016118349E+04  0.25500000920E-02 0.  1.
    10030    2    1    2    0    0  0.00000000000E+00  0.00000000000E+00 -0.22027523639E+04  0.38004713059E+04  0.30970089071E+04 0.  0.
        2    1    3    3  502    0 -0.13247064308E+04 -0.77746633310E+02 -0.12198546234E+03  0.13325809993E+04  0.25500000920E-02 0. -1.
       -2    1    3    3    0  502  0.13247064308E+04  0.77746633310E+02 -0.20807669016E+04  0.24678903066E+04  0.25500000920E-02 0.  1.
</event>
<event>
 5   0  0.4134019E-07  0.3099252E+04  0.7818609E-02  0.8215943E-01
        1   -1    0    0  501    0  0.00000000000E+00  0.00000000000E+00  0.15227800614E+04  0.15227800614E+04  0.50400001928E-02 0. -1.
       -1   -1    0    0    0  501  0.00000000000E+00  0.00000000000E+00 -0.15769447622E+04  0.15769447622E+04  0.50400001928E-02 0.  1.
    10030    2    1    2    0    0  0.00000000000E+00  0.00000000000E+00 -0.54164700846E+02  0.30997248236E+04  0.30992515495E+04 0.  0.
        2    1    3    3  502    0 -0.11168546902E+04  0.72934822759E+03 -0.81588954777E+03  0.15636460566E+04  0.25500000920E-02 0. -1.
       -2    1    3    3    0  502  0.11168546902E+04 -0.72934822759E+03  0.76172484692E+03  0.15360787670E+04  0.25500000920E-02 0.  1.
</event>
<event>
 5   0  0.4219337E-07  0.3101866E+04  0.7818609E-02  0.8215226E-01
        1   -1    0    0  501    0  0.00000000000E+00  0.00000000000E+00  0.10431233804E+04  0.10431233805E+04  0.50400001928E-02 0.  1.
       -1   -1    0    0    0  501  0.00000000000E+00  0.00000000000E+00 -0.23059530647E+04  0.23059530647E+04  0.50400001928E-02 0. -1.
    10030    2    1    2    0    0  0.00000000000E+00  0.00000000000E+00 -0.12628296843E+04  0.33490764452E+04  0.31018662486E+04 0.  0.
        4    1    3    3  502    0 -0.25580050186E+03 -0.10287626004E+04 -0.18537187061E+04  0.21354299424E+04  0.12699999809E+01 0. -1.
       -4    1    3    3    0  502  0.25580050186E+03  0.10287626004E+04  0.59088902185E+03  0.12136465028E+04  0.12699999809E+01 0.  1.
</event>
<event>
 5   0  0.1200286E-06  0.3093071E+04  0.7818609E-02  0.8217642E-01
        2   -1    0    0  501    0  0.00000000000E+00  0.00000000000E+00  0.17378687225E+04  0.17378687225E+04  0.25500000920E-02 0.  1.
       -2   -1    0    0    0  501  0.00000000000E+00  0.00000000000E+00 -0.13762670886E+04  0.13762670886E+04  0.25500000920E-02 0. -1.
    10030    2    1    2    0    0  0.00000000000E+00  0.00000000000E+00  0.36160163392E+03  0.31141358111E+04  0.30930706601E+04 0.  0.
        5    1    3    3  502    0  0.14046930308E+04 -0.56308666805E+03 -0.13999169259E+03  0.15198186966E+04  0.46999998093E+01 0. -1.
       -5    1    3    3    0  502 -0.14046930308E+04  0.56308666805E+03  0.50159332650E+03  0.15943171145E+04  0.46999998093E+01 0.  1.
</event>
<event>
 5   0  0.4134019E-07  0.3235848E+04  0.7818609E-02  0.8179414E-01
       -1   -1    0    0    0  501  0.00000000000E+00  0.00000000000E+00  0.14691098866E+04  0.14691098866E+04  0.50400001928E-02 0.  1.
        1   -1    0    0  501    0  0.00000000000E+00  0.00000000000E+00 -0.17818118804E+04  0.17818118805E+04  0.50400001928E-02 0. -1.
    10030    2    1    2    0    0  0.00000000000E+00  0.00000000000E+00 -0.31270199387E+03  0.32509217670E+04  0.32358476167E+04 0.  0.
        2    1    3    3  502    0  0.14744969765E+04  0.32002599704E+03 -0.74312615025E+03  0.16819020327E+04  0.25500000920E-02 0. -1.
       -2    1    3    3    0  502 -0.14744969765E+04 -0.32002599704E+03  0.43042415638E+03  0.15690197343E+04  0.25500000920E-02 0.  1.
</event>
<event>
 5   0  0.3935852E-07  0.3096036E+04  0.7818609E-02  0.8216827E-01
        1   -1    0    0  501    0  0.00000000000E+00  0.00000000000E+00  0.13342524071E+04  0.13342524071E+04  0.50400001928E-02 0.  1.
       -1   -1    0    0    0  501  0.00000000000E+00  0.00000000000E+00 -0.17960321191E+04  0.17960321191E+04  0.50400001928E-02 0. -1.
    10030    2    1    2    0    0  0.00000000000E+00  0.00000000000E+00 -0.46177971202E+03  0.31302845262E+04  0.30960362906E+04 0.  0.
        5    1    3    3  502    0 -0.15090083375E+04 -0.34529774474E+03 -0.22969651611E+03  0.15649662215E+04  0.46999998093E+01 0.  1.
       -5    1    3    3    0  502  0.15090083375E+04  0.34529774474E+03 -0.23208319592E+03  0.15653183047E+04  0.46999998093E+01 0. -1.
</event>
<event>
 5   0  0.4219337E-07  0.3092896E+04  0.7818609E-02  0.8217690E-01
        1   -1    0    0  501    0  0.00000000000E+00  0.00000000000E+00  0.13645604099E+04  0.13645604099E+04  0.50400001928E-02 0.  1.
       -1   -1    0    0    0  501  0.00000000000E+00  0.00000000000E+00 -0.17525796210E+04  0.17525796210E+04  0.50400001928E-02 0. -1.
    10030    2    1    2    0    0  0.00000000000E+00  0.00000000000E+00 -0.38801921110E+03  0.31171400309E+04  0.30928955793E+04 0.  0.
        4    1    3    3  502    0 -0.15170819293E+04 -0.45057976777E+02 -0.49286625900E+03  0.15957714635E+04  0.12699999809E+01 0. -1.
       -4    1    3    3    0  502  0.15170819293E+04  0.45057976777E+02  0.10484704791E+03  0.15213685674E+04  0.12699999809E+01 0.  1.
</event>
<event>
 5   0  0.4173905E-07  0.3133780E+04  0.7818609E-02  0.8206528E-01
       -1   -1    0    0    0  501  0.00000000000E+00  0.00000000000E+00  0.11766005765E+04  0.11766005765E+04  0.50400001928E-02 0.  1.
        1   -1    0    0  501    0  0.00000000000E+00  0.00000000000E+00 -0.20866414823E+04  0.20866414823E+04  0.50400001928E-02 0. -1.
    10030    2    1    2    0    0  0.00000000000E+00  0.00000000000E+00 -0.91004090578E+03  0.32632420589E+04  0.31337795526E+04 0.  0.
        3    1    3    3  502    0  0.56500563700E+03 -0.13539576354E+04 -0.10279416439E+04  0.17913951774E+04  0.10100000352E+00 0. -1.
       -3    1    3    3    0  502 -0.56500563700E+03  0.13539576354E+04  0.11790073812E+03  0.14718468814E+04  0.10100000352E+00 0.  1.
</event>
<event>
 5   0  0.3935852E-07  0.3078335E+04  0.7818609E-02  0.8221709E-01
       -1   -1    0    0    0  501  0.00000000000E+00  0.00000000000E+00  0.11465236300E+04  0.11465236300E+04  0.50400001928E-02 0. -1.
        1   -1    0    0  501    0  0.00000000000E+00  0.00000000000E+00 -0.20662777012E+04  0.20662777012E+04  0.50400001928E-02 0.  1.
    10030    2    1    2    0    0  0.00000000000E+00  0.00000000000E+00 -0.91975407127E+03  0.32128013312E+04  0.30783347515E+04 0.  0.
        5    1    3    3  502    0 -0.11416828208E+04  0.18217330110E+03  0.60057092739E+03  0.13028178322E+04  0.46999998093E+01 0. -1.
       -5    1    3    3    0  502  0.11416828208E+04 -0.18217330110E+03 -0.15203249987E+04  0.19099834990E+04  0.46999998093E+01 0.  1.
</event>
<event>
 5   0  0.4330395E-07  0.3096294E+04  0.7818609E-02  0.8216756E-01
        1   -1    0    0  501    0  0.00000000000E+00  0.00000000000E+00  0.15215221504E+04  0.15215221504E+04  0.50400001928E-02 0.  1.
       -1   -1    0    0    0  501  0.00000000000E+00  0.00000000000E+00 -0.15752376278E+04  0.15752376278E+04  0.50400001928E-02 0. -1.
    10030    2    1    2    0    0  0.00000000000E+00  0.00000000000E+00 -0.53715477379E+02  0.30967597782E+04  0.30962938767E+04 0.  0.
        1    1    3    3  502    0 -0.84599032713E+03 -0.11851741707E+04  0.49897939132E+03  0.15392588741E+04  0.50400001928E-02 0.  1.
       -1    1    3    3    0  502  0.84599032713E+03  0.11851741707E+04 -0.55269486870E+03  0.15575009041E+04  0.50400001928E-02 0. -1.
</event>
<event>
 5   0  0.1258262E-06  0.3094812E+04  0.7818609E-02  0.8217163E-01
       -2   -1    0    0    0  501  0.00000000000E+00  0.00000000000E+00  0.10929549813E+04  0.10929549813E+04  0.25500000920E-02 0.  1.
        2   -1    0    0  501    0  0.00000000000E+00  0.00000000000E+00 -0.21908179232E+04  0.21908179232E+04  0.25500000920E-02 0. -1.
    10030    2    1    2    0    0  0.00000000000E+00  0.00000000000E+00 -0.10978629419E+04  0.32837729045E+04  0.30948120216E+04 0.  0.
        1    1    3    3  502    0 -0.10957265814E+04 -0.10856702534E+04 -0.67961273742E+03  0.16855770861E+04  0.50400001928E-02 0. -1.
       -1    1    3    3    0  502  0.10957265814E+04  0.10856702534E+04 -0.41825020449E+03  0.15981958184E+04  0.50400001928E-02 0.  1.
</event>
<event>
 5   0  0.4330395E-07  0.3097024E+04  0.7818609E-02  0.8216555E-01
       -1   -1    0    0    0  501  0.00000000000E+00  0.00000000000E+00  0.12296451749E+04  0.12296451749E+04  0.50400001928E-02 0.  1.
        1   -1    0    0  501    0  0.00000000000E+00  0.00000000000E+00 -0.19500665832E+04  0.19500665832E+04  0.50400001928E-02 0. -1.
    10030    2    1    2    0    0  0.00000000000E+00  0.00000000000E+00 -0.72042140832E+03  0.31797117581E+04  0.30970243556E+04 0.  0.
        1    1    3    3  502    0  0.28706803132E+03 -0.21718094723E+03 -0.19065142503E+04  0.19401990118E+04  0.50400001928E-02 0. -1.
       -1    1    3    3    0  502 -0.28706803132E+03  0.21718094723E+03  0.11860928420E+04  0.12395127464E+04  0.50400001928E-02 0.  1.
</event>
<event>
 5   0  0.1237580E-06  0.3122409E+04  0.7818609E-02  0.8209615E-01
       -2   -1    0    0    0  501  0.00000000000E+00  0.00000000000E+00  0.18121550611E+04  0.18121550611E+04  0.25500000920E-02 0. -1.
        2   -1    0    0  501    0  0.00000000000E+00  0.00000000000E+00 -0.13450064015E+04  0.13450064015E+04  0.25500000920E-02 0.  1.
    10030    2    1    2    0    0  0.00000000000E+00  0.00000000000E+00  0.46714865955E+03  0.31571614626E+04  0.31224094272E+04 0.  0.
        4    1    3    3  502    0 -0.48675106739E+03 -0.99090977388E+03 -0.88258196859E+03  0.14134289249E+04  0.12699999809E+01 0. -1.
       -4    1    3    3    0  502  0.48675106739E+03  0.99090977388E+03  0.13497306281E+04  0.17437325377E+04  0.12699999809E+01 0.  1.
</event>
<event>
 5   0  0.1200286E-06  0.3107281E+04  0.7818609E-02  0.8213742E-01
        2   -1    0    0  501    0  0.00000000000E+00  0.00000000000E+00  0.17257530792E+04  0.17257530792E+04  0.25500000920E-02 0.  1.
       -2   -1    0    0    0  501  0.00000000000E+00  0.00000000000E+00 -0.13986933989E+04  0.13986933989E+04  0.25500000920E-02 0. -1.
    10030    2    1    2    0    0  0.00000000000E+00  0.00000000000E+00  0.32705968027E+03  0.31244464781E+04  0.31072814099E+04 0.  0.
        5    1    3    3  502    0 -0.40533517101E+03 -0.62008364880E+03  0.15367154542E+04  0.17059650669E+04  0.46999998093E+01 0.  1.
       -5    1    3    3    0  502  0.40533517101E+03  0.62008364880E+03 -0.12096557740E+04  0.14184814112E+04  0.46999998093E+01 0. -1.
</event>
<event>
 5   0  0.4134019E-07  0.3098487E+04  0.7818609E-02  0.8216153E-01
       -1   -1    0    0    0  501  0.00000000000E+00  0.00000000000E+00  0.14110994537E+04  0.14110994537E+04  0.50400001928E-02 0. -1.
        1   -1    0    0  501    0  0.00000000000E+00  0.00000000000E+00 -0.17009112501E+04  0.17009112501E+04  0.50400001928E-02 0.  1.
    10030    2    1    2    0    0  0.00000000000E+00  0.00000000000E+00 -0.28981179642E+03  0.31120107038E+04  0.30984866859E+04 0.  0.
        2    1    3    3  502    0  0.13781003093E+03 -0.15171160692E+04  0.13832168200E+03  0.15296292556E+04  0.25500000920E-02 0.  1.
       -2    1    3    3    0  502 -0.13781003093E+03  0.15171160692E+04 -0.42813347842E+03  0.15823814481E+04  0.25500000920E-02 0. -1.
</event>
<event>
 5   0  0.4330395E-07  0.3093731E+04  0.7818609E-02  0.8217460E-01
        1   -1    0    0  501    0  0.00000000000E+00  0.00000000000E+00  0.19617454465E+04  0.19617454465E+04  0.50400001928E-02 0. -1.
       -1   -1    0    0    0  501  0.00000000000E+00  0.00000000000E+00 -0.12197264731E+04  0.12197264731E+04  0.50400001928E-02 0.  1.
    10030    2    1    2    0    0  0.00000000000E+00  0.00000000000E+00  0.74201897342E+03  0.31814719196E+04  0.30937309867E+04 0.  0.
        1    1    3    3  502    0  0.31911186406E+03  0.13412441732E+04 -0.35032870934E+03  0.14224972825E+04  0.50400001928E-02 0.  1.
       -1    1    3    3    0  502 -0.31911186406E+03 -0.13412441732E+04  0.10923476828E+04  0.17589746371E+04  0.50400001928E-02 0. -1.
</event>
<event>
 5   0  0.1176002E-06  0.3119202E+04  0.7818609E-02  0.8210488E-01
       -2   -1    0    0    0  501  0.00000000000E+00  0.00000000000E+00  0.11010469240E+04  0.11010469240E+04  0.25500000920E-02 0. -1.
        2   -1    0    0  501    0  0.00000000000E+00  0.00000000000E+00 -0.22091291924E+04  0.22091291924E+04  0.25500000920E-02 0.  1.
    10030    2    1    2    0    0  0.00000000000E+00  0.00000000000E+00 -0.11080822684E+04  0.33101761165E+04  0.31192017582E+04 0.  0.
        2    1    3    3  502    0 -0.63149909723E+03 -0.15969309322E+03  0.94977999605E+03  0.11516835654E+04  0.25500000920E-02 0. -1.
       -2    1    3    3    0  502  0.63149909723E+03  0.15969309322E+03 -0.20578622644E+04  0.21584925511E+04  0.25500000920E-02 0.  1.
</event>
<event>
 5   0  0.4173905E-07  0.3109997E+04  0.7818609E-02  0.8213000E-01
       -1   -1    0    0    0  501  0.00000000000E+00  0.00000000000E+00  0.99409121322E+03  0.99409121324E+03  0.50400001928E-02 0. -1.
        1   -1    0    0  501    0  0.00000000000E+00  0.00000000000E+00 -0.24323926012E+04  0.24323926012E+04  0.50400001928E-02 0.  1.
    10030    2    1    2    0    0  0.00000000000E+00  0.00000000000E+00 -0.14383013880E+04  0.34264838145E+04  0.31099968566E+04 0.  0.
        3    1    3    3  502    0 -0.62330065030E+02 -0.32964377832E+03 -0.23920448979E+04  0.24154562429E+04  0.10100000352E+00 0.  1.
       -3    1    3    3    0  502  0.62330065030E+02  0.32964377832E+03  0.95374350990E+03  0.10110275716E+04  0.10100000352E+00 0. -1.
</event>
<event>
 5   0  0.4173905E-07  0.3109720E+04  0.7818609E-02  0.8213075E-01
       -1   -1    0    0    0  501  0.00000000000E+00  0.00000000000E+00  0.95854101021E+03  0.95854101023E+03  0.50400001928E-02 0. -1.
        1   -1    0    0  501    0  0.00000000000E+00  0.00000000000E+00 -0.25221552768E+04  0.25221552768E+04  0.50400001928E-02 0.  1.
    10030    2    1    2    0    0  0.00000000000E+00  0.00000000000E+00 -0.15636142666E+04  0.34806962870E+04  0.31097197732E+04 0.  0.
        3    1    3    3  502    0 -0.81163802613E+03 -0.63793270577E+03  0.51959980145E+03  0.11557241827E+04  0.10100000352E+00 0. -1.
       -3    1    3    3    0  502  0.81163802613E+03  0.63793270577E+03 -0.20832140680E+04  0.23249721044E+04  0.10100000352E+00 0.  1.
</event>
<event>
 5   0  0.1176002E-06  0.3105814E+04  0.7818609E-02  0.8214144E-01
       -2   -1    0    0    0  501  0.00000000000E+00  0.00000000000E+00  0.89878633734E+03  0.89878633734E+03  0.25500000920E-02 0.  1.
        2   -1    0    0  501    0  0.00000000000E+00  0.00000000000E+00 -0.26830841964E+04  0.26830841964E+04  0.25500000920E-02 0. -1.
    10030    2    1    2    0    0  0.00000000000E+00  0.00000000000E+00 -0.17842978590E+04  0.35818705337E+04  0.31058135280E+04 0.  0.
        2    1    3    3  502    0 -0.11678649871E+04 -0.98034307559E+03 -0.55288433038E+03  0.16219316437E+04  0.25500000920E-02 0.  1.
       -2    1    3    3    0  502  0.11678649871E+04  0.98034307559E+03 -0.12314135287E+04  0.19599388900E+04  0.25500000920E-02 0. -1.
</event>
<event>
 5   0  0.3935852E-07  0.3110361E+04  0.7818609E-02  0.8212900E-01
       -1   -1    0    0    0  501  0.00000000000E+00  0.00000000000E+00  0.12959659309E+04  0.12959659309E+04  0.50400001928E-02 0.  1.
        1   -1    0    0  501    0  0.00000000000E+00  0.00000000000E+00 -0.18662421535E+04  0.18662421535E+04  0.50400001928E-02 0. -1.
    10030    2    1    2    0    0  0.00000000000E+00  0.00000000000E+00 -0.57027622256E+03  0.31622080844E+04  0.31103609113E+04 0.  0.
        5    1    3    3  502    0 -0.42064509853E+03  0.13632612718E+04 -0.91443955371E+03  0.16945929840E+04  0.46999998093E+01 0. -1.
       -5    1    3    3    0  502  0.42064509853E+03 -0.13632612718E+04  0.34416333115E+03  0.14676151003E+04  0.46999998093E+01 0.  1.
</event>
<event>
 5   0  0.1193123E-06  0.3097521E+04  0.7818609E-02  0.8216419E-01
        2   -1    0    0  501    0  0.00000000000E+00  0.00000000000E+00  0.17612985560E+04  0.17612985560E+04  0.25500000920E-02 0. -1.
       -2   -1    0    0    0  501  0.00000000000E+00  0.00000000000E+00 -0.13618692820E+04  0.13618692820E+04  0.25500000920E-02 0.  1.
    10030    2    1    2    0    0  0.00000000000E+00  0.00000000000E+00  0.39942927407E+03  0.31231678380E+04  0.30975205567E+04 0.  0.
        3    1    3    3  502    0 -0.11639455505E+02  0.61761354034E+03  0.16317122811E+04  0.17447254628E+04  0.10100000352E+00 0. -1.
       -3    1    3    3    0  502  0.11639455505E+02 -0.61761354034E+03 -0.12322830070E+04  0.13784423752E+04  0.10100000352E+00 0.  1.
</event>
<event>
 5   0  0.1193123E-06  0.3097305E+04  0.7818609E-02  0.8216478E-01
       -2   -1    0    0    0  501  0.00000000000E+00  0.00000000000E+00  0.13772238339E+04  0.13772238339E+04  0.25500000920E-02 0. -1.
        2   -1    0    0  501    0  0.00000000000E+00  0.00000000000E+00 -0.17414194515E+04  0.17414194515E+04  0.25500000920E-02 0.  1.
    10030    2    1    2    0    0  0.00000000000E+00  0.00000000000E+00 -0.36419561761E+03  0.31186432853E+04  0.30973048757E+04 0.  0.
        3    1    3    3  502    0  0.14868663540E+04  0.36381765074E+03  0.54445177698E+02  0.15316981182E+04  0.10100000352E+00 0.  1.
       -3    1    3    3    0  502 -0.14868663540E+04 -0.36381765074E+03 -0.41864079531E+03  0.15869451671E+04  0.10100000352E+00 0. -1.
</event>
<event>
 5   0  0.1176002E-06  0.3097582E+04  0.7818609E-02  0.8216402E-01
       -2   -1    0    0    0  501  0.00000000000E+00  0.00000000000E+00  0.13296158322E+04  0.13296158322E+04  0.25500000920E-02 0. -1.
        2   -1    0    0  501    0  0.00000000000E+00  0.00000000000E+00 -0.18040955952E+04  0.18040955952E+04  0.25500000920E-02 0.  1.
    10030    2    1    2    0    0  0.00000000000E+00  0.00000000000E+00 -0.47447976297E+03  0.31337114274E+04  0.30975823258E+04 0.  0.
        2    1    3    3  502    0 -0.88532340936E+02  0.15264641260E+04  0.12260582702E+02  0.15290784889E+04  0.25500000920E-02 0. -1.
       -2    1    3    3    0  502  0.88532340936E+02 -0.15264641260E+04 -0.48674034567E+03  0.16046329385E+04  0.25500000920E-02 0.  1.
</event>
<event>
 5   0  0.4219337E-07  0.3094695E+04  0.7818609E-02  0.8217195E-01
       -1   -1    0    0    0  501  0.00000000000E+00  0.00000000000E+00  0.10321906697E+04  0.10321906697E+04  0.50400001928E-02 0. -1.
        1   -1    0    0  501    0  0.00000000000E+00  0.00000000000E+00 -0.23196148826E+04  0.23196148826E+04  0.50400001928E-02 0.  1.
    10030    2    1    2    0    0  0.00000000000E+00  0.00000000000E+00 -0.12874242129E+04  0.33518055523E+04  0.30946953577E+04 0.  0.
        4    1    3    3  502    0  0.33787528442E+03  0.15061404756E+04 -0.52673742915E+03  0.16309729527E+04  0.12699999809E+01 0.  1.
       -4    1    3    3    0  502 -0.33787528442E+03 -0.15061404756E+04 -0.76068678372E+03  0.17208325996E+04  0.12699999809E+01 0. -1.
</event>
<event>
 5   0  0.1258262E-06  0.3098337E+04  0.7818609E-02  0.8216194E-01
        2   -1    0    0  501    0  0.00000000000E+00  0.00000000000E+00  0.20498525924E+04  0.20498525924E+04  0.25500000920E-02 0. -1.
       -2   -1    0    0    0  501  0.00000000000E+00  0.00000000000E+00 -0.11707784701E+04  0.11707784701E+04  0.25500000920E-02 0.  1.
    10030    2    1    2    0    0  0.00000000000E+00  0.00000000000E+00  0.87907412229E+03  0.32206310625E+04  0.30983371554E+04 0.  0.
        1    1    3    3  502    0  0.22450062922E+03 -0.90273077880E+03 -0.84814867101E+03  0.12588405617E+04  0.50400001928E-02 0.  1.
       -1    1    3    3    0  502 -0.22450062922E+03  0.90273077880E+03  0.17272227933E+04  0.19617905009E+04  0.50400001928E-02 0. -1.
</event>
<event>
 5   0  0.1176002E-06  0.3131606E+04  0.7818609E-02  0.8207117E-01
       -2   -1    0    0    0  501  0.00000000000E+00  0.00000000000E+00  0.20553642454E+04  0.20553642454E+04  0.25500000920E-02 0. -1.
        2   -1    0    0  501    0  0.00000000000E+00  0.00000000000E+00 -0.11928487967E+04  0.11928487967E+04  0.25500000920E-02 0.  1.
    10030    2    1    2    0    0  0.00000000000E+00  0.00000000000E+00  0.86251544872E+03  0.32482130422E+04  0.31316058290E+04 0.  0.
        2    1    3    3  502    0  0.67070561162E+03  0.51188747707E+02 -0.10353480988E+04  0.12346708027E+04  0.25500000920E-02 0.  1.
       -2    1    3    3    0  502 -0.67070561162E+03 -0.51188747707E+02  0.18978635475E+04  0.20135422395E+04  0.25500000920E-02 0. -1.
</event>
<event>
 5   0  0.1258262E-06  0.3118182E+04  0.7818609E-02  0.8210766E-01
        2   -1    0    0  501    0  0.00000000000E+00  0.00000000000E+00  0.12229460872E+04  0.12229460872E+04  0.25500000920E-02 0. -1.
       -2   -1    0    0    0  501  0.00000000000E+00  0.00000000000E+00 -0.19876298168E+04  0.19876298168E+04  0.25500000920E-02 0.  1.
    10030    2    1    2    0    0  0.00000000000E+00  0.00000000000E+00 -0.76468372956E+03  0.32105759041E+04  0.31181815902E+04 0.  0.
        1    1    3    3  502    0  0.21628356380E+03  0.13026109865E+04  0.47119051291E+03  0.14019965983E+04  0.50400001928E-02 0. -1.
       -1    1    3    3    0  502 -0.21628356380E+03 -0.13026109865E+04 -0.12358742425E+04  0.18085793058E+04  0.50400001928E-02 0.  1.
</event>
<event>
 5   0  0.1193123E-06  0.3104862E+04  0.7818609E-02  0.8214405E-01
        2   -1    0    0  501    0  0.00000000000E+00  0.00000000000E+00  0.21729659945E+04  0.21729659945E+04  0.25500000920E-02 0. -1.
       -2   -1    0    0    0  501  0.00000000000E+00  0.00000000000E+00 -0.11091022234E+04  0.11091022234E+04  0.25500000920E-02 0.  1.
    10030    2    1    2    0    0  0.00000000000E+00  0.00000000000E+00  0.10638637711E+04  0.32820682178E+04  0.31048616174E+04 0.  0.
        3    1    3    3  502    0  0.81945834580E+03 -0.13300059136E+03  0.19186099163E+04  0.20905179165E+04  0.10100000352E+00 0. -1.
       -3    1    3    3    0  502 -0.81945834580E+03  0.13300059136E+03 -0.85474614521E+03  0.11915503014E+04  0.10100000352E+00 0.  1.
</event>
<event>
 5   0  0.4134019E-07  0.3091906E+04  0.7818609E-02  0.8217963E-01
       -1   -1    0    0    0  501  0.00000000000E+00  0.00000000000E+00  0.14681300760E+04  0.14681300760E+04  0.50400001928E-02 0. -1.
        1   -1    0    0  501    0  0.00000000000E+00  0.00000000000E+00 -0.16279013655E+04  0.16279013655E+04  0.50400001928E-02 0.  1.
    10030    2    1    2    0    0  0.00000000000E+00  0.00000000000E+00 -0.15977128952E+03  0.30960314415E+04  0.30919061793E+04 0.  0.
        2    1    3    3  502    0 -0.10812234029E+04 -0.36130763742E+03  0.96572195339E+03  0.14940569424E+04  0.25500000920E-02 0. -1.
       -2    1    3    3    0  502  0.10812234029E+04  0.36130763742E+03 -0.11254932429E+04  0.16019744991E+04  0.25500000920E-02 0.  1.
</event>
<event>
 5   0  0.1193123E-06  0.3090573E+04  0.7818609E-02  0.8218330E-01
       -2   -1    0    0    0  501  0.00000000000E+00  0.00000000000E+00  0.12458244530E+04  0.12458244530E+04  0.25500000920E-02 0.  1.
        2   -1    0    0  501    0  0.00000000000E+00  0.00000000000E+00 -0.19167306703E+04  0.19167306703E+04  0.25500000920E-02 0. -1.
    10030    2    1    2    0    0  0.00000000000E+00  0.00000000000E+00 -0.67090621724E+03  0.31625551233E+04  0.30905727229E+04 0.  0.
        3    1    3    3  502    0  0.39744644975E+03  0.87393975566E+03 -0.15745124992E+04  0.18441323156E+04  0.10100000352E+00 0. -1.
       -3    1    3    3    0  502 -0.39744644975E+03 -0.87393975566E+03  0.90360628196E+03  0.13184228077E+04  0.10100000352E+00 0.  1.
</event>
<event>
 5   0  0.1237580E-06  0.3102749E+04  0.7818609E-02  0.8214984E-01
       -2   -1    0    0    0  501  0.00000000000E+00  0.00000000000E+00  0.10652420956E+04  0.10652420956E+04  0.25500000920E-02 0.  1.
        2   -1    0    0  501    0  0.00000000000E+00  0.00000000000E+00 -0.22593574182E+04  0.22593574182E+04  0.25500000920E-02 0. -1.
    10030    2    1    2    0    0  0.00000000000E+00  0.00000000000E+00 -0.11941153226E+04  0.33245995138E+04  0.31027488656E+04 0.  0.
        4    1    3    3  502    0  0.61173598327E+02 -0.13887131342E+04 -0.13351460392E+04  0.19274031589E+04  0.12699999809E+01 0.  1.
       -4    1    3    3    0  502 -0.61173598327E+02  0.13887131342E+04  0.14103071652E+03  0.13971963549E+04  0.12699999809E+01 0. -1.
</event>
<event>
 5   0  0.4330395E-07  0.3105367E+04  0.7818609E-02  0.8214267E-01
        1   -1    0    0  501    0  0.00000000000E+00  0.00000000000E+00  0.19512941956E+04  0.19512941956E+04  0.50400001928E-02 0.  1.
       -1   -1    0    0    0  501  0.00000000000E+00  0.00000000000E+00 -0.12355010903E+04  0.12355010903E+04  0.50400001928E-02 0. -1.
    10030    2    1    2    0    0  0.00000000000E+00  0.00000000000E+00  0.71579310523E+03  0.31867952859E+04  0.31053670354E+04 0.  0.
        1    1    3    3  502    0  0.31097997523E+03 -0.15185219232E+04  0.45087434165E+03  0.16142815888E+04  0.50400001928E-02 0. -1.
       -1    1    3    3    0  502 -0.31097997523E+03  0.15185219232E+04  0.26491876357E+03  0.15725136971E+04  0.50400001928E-02 0.  1.
</event>
<event>
 5   0  0.4134019E-07  0.3089574E+04  0.7818609E-02  0.8218605E-01
        1   -1    0    0  501    0  0.00000000000E+00  0.00000000000E+00  0.26018543997E+04  0.26018543997E+04  0.50400001928E-02 0.  1.
       -1   -1    0    0    0  501  0.00000000000E+00  0.00000000000E+00 -0.91717913404E+03  0.91717913405E+03  0.50400001928E-02 0. -1.
    10030    2    1    2    0    0  0.00000000000E+00  0.00000000000E+00  0.16846752657E+04  0.35190335338E+04  0.30895737992E+04 0.  0.
        2    1    3    3  502    0 -0.13364576642E+03  0.85309556894E+02  0.25925621467E+04  0.25974058974E+04  0.25500000920E-02 0.  1.
       -2    1    3    3    0  502  0.13364576642E+03 -0.85309556894E+02 -0.90788688102E+03  0.92162763636E+03  0.25500000920E-02 0. -1.
</event>
<event>
 5   0  0.3935852E-07  0.3103360E+04  0.7818609E-02  0.8214816E-01
        1   -1    0    0  501    0  0.00000000000E+00  0.00000000000E+00  0.20127920685E+04  0.20127920685E+04  0.50400001928E-02 0.  1.
       -1   -1    0    0    0  501  0.00000000000E+00  0.00000000000E+00 -0.11962043412E+04  0.11962043413E+04  0.50400001928E-02 0. -1.
    10030    2    1    2    0    0  0.00000000000E+00  0.00000000000E+00  0.81658772730E+03  0.32089964098E+04  0.31033598634E+04 0.  0.
        5    1    3    3  502    0  0.97188602210E+03 -0.37902962072E+03 -0.77948512646E+03  0.13022461540E+04  0.46999998093E+01 0.  1.
       -5    1    3    3    0  502 -0.97188602210E+03  0.37902962072E+03  0.15960728538E+04  0.19067502558E+04  0.46999998093E+01 0. -1.
</event>
<event>
 5   0  0.3902375E-07  0.3103739E+04  0.7818609E-02  0.8214713E-01
       -3   -1    0    0    0  501  0.00000000000E+00  0.00000000000E+00  0.17007787430E+04  0.17007787460E+04  0.10100000352E+00 0. -1.
        3   -1    0    0  501    0  0.00000000000E+00  0.00000000000E+00 -0.14159975996E+04  0.14159976032E+04  0.10100000352E+00 0.  1.
    10030    2    1    2    0    0  0.00000000000E+00  0.00000000000E+00  0.28478114343E+03  0.31167763492E+04  0.31037387956E+04 0.  0.
        5    1    3    3  502    0 -0.32102082583E+03 -0.14728946842E+04  0.51245370605E+03  0.15922009961E+04  0.46999998093E+01 0. -1.
       -5    1    3    3    0  502  0.32102082583E+03  0.14728946842E+04 -0.22767256262E+03  0.15245753530E+04  0.46999998093E+01 0.  1.
</event>
<event>
 5   0  0.4173905E-07  0.3070310E+04  0.7818609E-02  0.8223934E-01
        1   -1    0    0  501    0  0.00000000000E+00  0.00000000000E+00  0.16366686440E+04  0.16366686440E+04  0.50400001928E-02 0.  1.
       -1   -1    0    0    0  501  0.00000000000E+00  0.00000000000E+00 -0.14399380127E+04  0.14399380127E+04  0.50400001928E-02 0. -1.
    10030    2    1    2    0    0  0.00000000000E+00  0.00000000000E+00  0.19673063131E+03  0.30766066567E+04  0.30703103391E+04 0.  0.
        3    1    3    3  502    0  0.11811822102E+04  0.13891704670E+03 -0.87430132580E+03  0.14761071025E+04  0.10100000352E+00 0. -1.
       -3    1    3    3    0  502 -0.11811822102E+04 -0.13891704670E+03  0.10710319571E+04  0.16004995542E+04  0.10100000352E+00 0.  1.
</event>
<event>
 5   0  0.1237580E-06  0.3085680E+04  0.7818609E-02  0.8219679E-01
       -2   -1    0    0    0  501  0.00000000000E+00  0.00000000000E+00  0.11890569858E+04  0.11890569858E+04  0.25500000920E-02 0.  1.
        2   -1    0    0  501    0  0.00000000000E+00  0.00000000000E+00 -0.20018848730E+04  0.20018848730E+04  0.25500000920E-02 0. -1.
    10030    2    1    2    0    0  0.00000000000E+00  0.00000000000E+00 -0.81282788717E+03  0.31909418588E+04  0.30856799530E+04 0.  0.
        4    1    3    3  502    0 -0.11627236919E+04  0.10130327582E+04 -0.35799991947E+03  0.15831384362E+04  0.12699999809E+01 0.  1.
       -4    1    3    3    0  502  0.11627236919E+04 -0.10130327582E+04 -0.45482796769E+03  0.16078034227E+04  0.12699999809E+01 0. -1.
</event>
<event>
 5   0  0.4330395E-07  0.3095776E+04  0.7818609E-02  0.8216898E-01
       -1   -1    0    0    0  501  0.00000000000E+00  0.00000000000E+00  0.17165650745E+04  0.17165650745E+04  0.50400001928E-02 0. -1.
        1   -1    0    0  501    0  0.00000000000E+00  0.00000000000E+00 -0.13957856395E+04  0.13957856395E+04  0.50400001928E-02 0.  1.
    10030    2    1    2    0    0  0.00000000000E+00  0.00000000000E+00  0.32077943498E+03  0.31123507140E+04  0.30957757543E+04 0.  0.
        1    1    3    3  502    0  0.25235059946E+03  0.11355883278E+04 -0.86621176726E+03  0.14503670229E+04  0.50400001928E-02 0.  1.
       -1    1    3    3    0  502 -0.25235059946E+03 -0.11355883278E+04  0.11869912022E+04  0.16619836911E+04  0.50400001928E-02 0. -1.
</event>
<event>
 5   0  0.1200286E-06  0.3089602E+04  0.7818609E-02  0.8218597E-01
       -2   -1    0    0    0  501  0.00000000000E+00  0.00000000000E+00  0.27762932394E+04  0.27762932394E+04  0.25500000920E-02 0.  1.
        2   -1    0    0  501    0  0.00000000000E+00  0.00000000000E+00 -0.85956705517E+03  0.85956705518E+03  0.25500000920E-02 0. -1.
    10030    2    1    2    0    0  0.00000000000E+00  0.00000000000E+00  0.19167261842E+04  0.36358602946E+04  0.30896020482E+04 0.  0.
        5    1    3    3  502    0  0.14132541177E+04  0.12330714619E+03  0.16779449474E+04  0.21972740362E+04  0.46999998093E+01 0.  1.
       -5    1    3    3    0  502 -0.14132541177E+04 -0.12330714619E+03  0.23878123677E+03  0.14385862583E+04  0.46999998093E+01 0. -1.
</event>
<event>
 5   0  0.1200286E-06  0.3113410E+04  0.7818609E-02  0.8212067E-01
        2   -1    0    0  501    0  0.00000000000E+00  0.00000000000E+00  0.97690712604E+03  0.97690712605E+03  0.25500000920E-02 0.  1.
       -2   -1    0    0    0  501  0.00000000000E+00  0.00000000000E+00 -0.24806144222E+04  0.24806144222E+04  0.25500000920E-02 0. -1.
    10030    2    1    2    0    0  0.00000000000E+00  0.00000000000E+00 -0.15037072961E+04  0.34575215482E+04  0.31134096460E+04 0.  0.
        5    1    3    3  502    0 -0.12077879071E+04 -0.60021876398E+03  0.11142824992E+03  0.13533116929E+04  0.46999998093E+01 0.  1.
       -5    1    3    3    0  502  0.12077879071E+04  0.60021876398E+03 -0.16151355460E+04  0.21042098553E+04  0.46999998093E+01 0. -1.
</event>
<event>
 5   0  0.1200286E-06  0.3095753E+04  0.7818609E-02  0.8216904E-01
        2   -1    0    0  501    0  0.00000000000E+00  0.00000000000E+00  0.26094385704E+04  0.26094385704E+04  0.25500000920E-02 0. -1.
       -2   -1    0    0    0  501  0.00000000000E+00  0.00000000000E+00 -0.91817528893E+03  0.91817528894E+03  0.25500000920E-02 0.  1.
    10030    2    1    2    0    0  0.00000000000E+00  0.00000000000E+00  0.16912632815E+04  0.35276138594E+04  0.30957532288E+04 0.  0.
        5    1    3    3  502    0  0.47104175854E+03  0.14361981152E+04  0.12258811891E+04  0.19461120585E+04  0.46999998093E+01 0. -1.
       -5    1    3    3    0  502 -0.47104175854E+03 -0.14361981152E+04  0.46538209243E+03  0.15815018009E+04  0.46999998093E+01 0.  1.
</event>
<event>
 5   0  0.1176002E-06  0.3119483E+04  0.7818609E-02  0.8210411E-01
       -2   -1    0    0    0  501  0.00000000000E+00  0.00000000000E+00  0.10623536646E+04  0.10623536646E+04  0.25500000920E-02 0. -1.
        2   -1    0    0  501    0  0.00000000000E+00  0.00000000000E+00 -0.22900033188E+04  0.22900033188E+04  0.25500000920E-02 0.  1.
    10030    2    1    2    0    0  0.00000000000E+00  0.00000000000E+00 -0.12276496543E+04  0.33523569834E+04  0.31194829171E+04 0.  0.
        2    1    3    3  502    0  0.69156233021E+03 -0.10839993867E+04 -0.15626150850E+04  0.20236301616E+04  0.25500000920E-02 0.  1.
       -2    1    3    3    0  502 -0.69156233021E+03  0.10839993867E+04  0.33496543077E+03  0.13287268218E+04  0.25500000920E-02 0. -1.
</event>
<event>
 5   0  0.4219337E-07  0.3104577E+04  0.7818609E-02  0.8214483E-01
        1   -1    0    0  501    0  0.00000000000E+00  0.00000000000E+00  0.19482345465E+04  0.19482345465E+04  0.50400001928E-02 0. -1.
       -1   -1    0    0    0  501  0.00000000000E+00  0.00000000000E+00 -0.12368122409E+04  0.12368122410E+04  0.50400001928E-02 0.  1.
    10030    2    1    2    0    0  0.00000000000E+00  0.00000000000E+00  0.71142230559E+03  0.31850467875E+04  0.31045774820E+04 0.  0.
        4    1    3    3  502    0  0.14136991437E+03 -0.75324394552E+03 -0.10291802623E+04  0.12831895882E+04  0.12699999809E+01 0.  1.
       -4    1    3    3    0  502 -0.14136991437E+03  0.75324394552E+03  0.17406025679E+04  0.19018571993E+04  0.12699999809E+01 0. -1.
</event>
<event>
 5   0  0.1258262E-06  0.3090285E+04  0.7818609E-02  0.8218409E-01
        2   -1    0    0  501    0  0.00000000000E+00  0.00000000000E+00  0.25571253317E+04  0.25571253317E+04  0.25500000920E-02 0. -1.
       -2   -1    0    0    0  501  0.00000000000E+00  0.00000000000E+00 -0.93365214922E+03  0.93365214922E+03  0.25500000920E-02 0.  1.
    10030    2    1    2    0    0  0.00000000000E+00  0.00000000000E+00  0.16234731825E+04  0.34907774809E+04  0.30902851401E+04 0.  0.
        1    1    3    3  502    0  0.10049150942E+04 -0.32649677722E+03  0.20852346245E+04  0.23376607819E+04  0.50400001928E-02 0. -1.
       -1    1    3    3    0  502 -0.10049150942E+04  0.32649677722E+03 -0.46176144202E+03  0.11531166990E+04  0.50400001928E-02 0.  1.
</event>
<event>
 5   0  0.1200286E-06  0.3099791E+04  0.7818609E-02  0.8215795E-01
       -2   -1    0    0    0  501  0.00000000000E+00  0.00000000000E+00  0.19876879374E+04  0.19876879374E+04  0.25500000920E-02 0.  1.
        2   -1    0    0  501    0  0.00000000000E+00  0.00000000000E+00 -0.12085279365E+04  0.12085279365E+04  0.25500000920E-02 0. -1.
    10030    2    1    2    0    0  0.00000000000E+00  0.00000000000E+00  0.77916000098E+03  0.31962158739E+04  0.30997912197E+04 0.  0.
        5    1    3    3  502    0 -0.13421213506E+01  0.26555499310E+03  0.19640477244E+04  0.19819250262E+04  0.46999998093E+01 0.  1.
       -5    1    3    3    0  502  0.13421213506E+01 -0.26555499310E+03 -0.11848877235E+04  0.12142908477E+04  0.46999998093E+01 0. -1.
</event>
<event>
 5   0  0.1237580E-06  0.3103225E+04  0.7818609E-02  0.8214853E-01
        2   -1    0    0  501    0  0.00000000000E+00  0.00000000000E+00  0.17515781662E+04  0.17515781662E+04  0.25500000920E-02 0.  1.
       -2   -1    0    0    0  501  0.00000000000E+00  0.00000000000E+00 -0.13744757267E+04  0.13744757267E+04  0.25500000920E-02 0. -1.
    10030    2    1    2    0    0  0.00000000000E+00  0.00000000000E+00  0.37710243944E+03  0.31260538929E+04  0.31032252080E+04 0.  0.
        4    1    3    3  502    0  0.12724792266E+03 -0.13170344716E+03  0.17406525417E+04  0.17502601852E+04  0.12699999809E+01 0.  1.
       -4    1    3    3    0  502 -0.12724792266E+03  0.13170344716E+03 -0.13635501023E+04  0.13757937077E+04  0.12699999809E+01 0. -1.
</event>
<event>
 5   0  0.1200286E-06  0.3100445E+04  0.7818609E-02  0.8215616E-01
       -2   -1    0    0    0  501  0.00000000000E+00  0.00000000000E+00  0.16487134481E+04  0.16487134481E+04  0.25500000920E-02 0. -1.
        2   -1    0    0  501    0  0.00000000000E+00  0.00000000000E+00 -0.14576150172E+04  0.14576150172E+04  0.25500000920E-02 0.  1.
    10030    2    1    2    0    0  0.00000000000E+00  0.00000000000E+00  0.19109843091E+03  0.31063284654E+04  0.31004447946E+04 0.  0.
        5    1    3    3  502    0 -0.52777632652E+03 -0.11268383134E+04  0.10218874511E+04  0.16101516972E+04  0.46999998093E+01 0. -1.
       -5    1    3    3    0  502  0.52777632652E+03  0.11268383134E+04 -0.83078902019E+03  0.14961767681E+04  0.46999998093E+01 0.  1.
</event>
<event>
 5   0  0.1200286E-06  0.3116148E+04  0.7818609E-02  0.8211320E-01
       -2   -1    0    0    0  501  0.00000000000E+00  0.00000000000E+00  0.12792494572E+04  0.12792494572E+04  0.25500000920E-02 0.  1.
        2   -1    0    0  501    0  0.00000000000E+00  0.00000000000E+00 -0.18976709738E+04  0.18976709738E+04  0.25500000920E-02 0. -1.
    10030    2    1    2    0    0  0.00000000000E+00  0.00000000000E+00 -0.61842151659E+03  0.31769204310E+04  0.31161479831E+04 0.  0.
        5    1    3    3  502    0  0.33576191032E+03  0.66611480726E+03  0.10853580650E+04  0.13169924890E+04  0.46999998093E+01 0.  1.
       -5    1    3    3    0  502 -0.33576191032E+03 -0.66611480726E+03 -0.17037795816E+04  0.18599279420E+04  0.46999998093E+01 0. -1.
</event>
<event>
 5   0  0.4219337E-07  0.3107566E+04  0.7818609E-02  0.8213665E-01
        1   -1    0    0  501    0  0.00000000000E+00  0.00000000000E+00  0.17399121631E+04  0.17399121631E+04  0.50400001928E-02 0.  1.
       -1   -1    0    0    0  501  0.00000000000E+00  0.00000000000E+00 -0.13875648178E+04  0.13875648178E+04  0.50400001928E-02 0. -1.
    10030    2    1    2    0    0  0.00000000000E+00  0.00000000000E+00  0.35234734528E+03  0.31274769809E+04  0.31075655447E+04 0.  0.
        4    1    3    3  502    0 -0.12059764507E+04  0.26770279721E+03  0.11246534169E+04  0.16705959740E+04  0.12699999809E+01 0.  1.
       -4    1    3    3    0  502  0.12059764507E+04 -0.26770279721E+03 -0.77230607159E+03  0.14568810069E+04  0.12699999809E+01 0. -1.
</event>
<event>
 5   0  0.4173905E-07  0.3132315E+04  0.7818609E-02  0.8206925E-01
       -1   -1    0    0    0  501  0.00000000000E+00  0.00000000000E+00  0.15076088950E+04  0.15076088950E+04  0.50400001928E-02 0.  1.
        1   -1    0    0  501    0  0.00000000000E+00  0.00000000000E+00 -0.16269801539E+04  0.16269801540E+04  0.50400001928E-02 0. -1.
    10030    2    1    2    0    0  0.00000000000E+00  0.00000000000E+00 -0.11937125897E+03  0.31345890489E+04  0.31323152792E+04 0.  0.
        3    1    3    3  502    0  0.54872131651E+02 -0.11770121839E+04  0.97280025401E+03  0.15279754501E+04  0.10100000352E+00 0.  1.
       -3    1    3    3    0  502 -0.54872131651E+02  0.11770121839E+04 -0.10921715130E+04  0.16066135988E+04  0.10100000352E+00 0. -1.
</event>
<event>
 5   0  0.3935852E-07  0.3086008E+04  0.7818609E-02  0.8219589E-01
       -1   -1    0    0    0  501  0.00000000000E+00  0.00000000000E+00  0.11578382880E+04  0.11578382880E+04  0.50400001928E-02 0.  1.
        1   -1    0    0  501    0  0.00000000000E+00  0.00000000000E+00 -0.20562981240E+04  0.20562981240E+04  0.50400001928E-02 0. -1.
    10030    2    1    2    0    0  0.00000000000E+00  0.00000000000E+00 -0.89845983601E+03  0.32141364120E+04  0.30860075824E+04 0.  0.
        5    1    3    3  502    0 -0.89240997591E+02  0.15403304573E+04 -0.43254166703E+03  0.16024032754E+04  0.46999998093E+01 0.  1.
       -5    1    3    3    0  502  0.89240997591E+02 -0.15403304573E+04 -0.46591816898E+03  0.16117331366E+04  0.46999998093E+01 0. -1.
</event>
<event>
 5   0  0.1258262E-06  0.3083743E+04  0.7818609E-02  0.8220214E-01
        2   -1    0    0  501    0  0.00000000000E+00  0.00000000000E+00  0.21295356452E+04  0.21295356452E+04  0.25500000920E-02 0.  1.
       -2   -1    0    0    0  501  0.00000000000E+00  0.00000000000E+00 -0.11163782986E+04  0.11163782986E+04  0.25500000920E-02 0. -1.
    10030    2    1    2    0    0  0.00000000000E+00  0.00000000000E+00  0.10131573466E+04  0.32459139438E+04  0.30837427781E+04 0.  0.
        1    1    3    3  502    0  0.89831307323E+03 -0.32572097318E+02 -0.81203442914E+03  0.12113741095E+04  0.50400001928E-02 0. -1.
       -1    1    3    3    0  502 -0.89831307323E+03  0.32572097318E+02  0.18251917758E+04  0.20345398343E+04  0.50400001928E-02 0.  1.
</event>
<event>
 5   0  0.1200286E-06  0.3089670E+04  0.7818609E-02  0.8218579E-01
       -2   -1    0    0    0  501  0.00000000000E+00  0.00000000000E+00  0.18414360050E+04  0.18414360050E+04  0.25500000920E-02 0.  1.
        2   -1    0    0  501    0  0.00000000000E+00  0.00000000000E+00 -0.12960073728E+04  0.12960073728E+04  0.25500000920E-02 0. -1.
    10030    2    1    2    0    0  0.00000000000E+00  0.00000000000E+00  0.54542863225E+03  0.31374433778E+04  0.30896696517E+04 0.  0.
        5    1    3    3  502    0  0.13710226812E+04  0.57805501291E+03 -0.14921215717E+03  0.14953719097E+04  0.46999998093E+01 0. -1.
       -5    1    3    3    0  502 -0.13710226812E+04 -0.57805501291E+03  0.69464078942E+03  0.16420714682E+04  0.46999998093E+01 0.  1.
</event>
<event>
 5   0  0.3935852E-07  0.3105340E+04  0.7818609E-02  0.8214274E-01
        1   -1    0    0  501    0  0.00000000000E+00  0.00000000000E+00  0.14416478226E+04  0.14416478226E+04  0.50400001928E-02 0.  1.
       -1   -1    0    0    0  501  0.00000000000E+00  0.00000000000E+00 -0.16722420461E+04  0.16722420461E+04  0.50400001928E-02 0. -1.
    10030    2    1    2    0    0  0.00000000000E+00  0.00000000000E+00 -0.23059422350E+03  0.31138898686E+04  0.31053399843E+04 0.  0.
        5    1    3    3  502    0 -0.10178724508E+04  0.11537737894E+04  0.93852637000E+02  0.15414566782E+04  0.46999998093E+01 0. -1.
       -5    1    3    3    0  502  0.10178724508E+04 -0.11537737894E+04 -0.32444686050E+03  0.15724331905E+04  0.46999998093E+01 0.  1.
</event>
<event>
 5   0  0.4330395E-07  0.3102445E+04  0.7818609E-02  0.8215067E-01
        1   -1    0    0  501    0  0.00000000000E+00  0.00000000000E+00  0.20887164759E+04  0.20887164760E+04  0.50400001928E-02 0.  1.
       -1   -1    0    0    0  501  0.00000000000E+00  0.00000000000E+00 -0.11520432014E+04  0.11520432014E+04  0.50400001928E-02 0. -1.
    10030    2    1    2    0    0  0.00000000000E+00  0.00000000000E+00  0.93667327451E+03  0.32407596774E+04  0.31024452394E+04 0.  0.
        1    1    3    3  502    0  0.17385316667E+03 -0.95113526480E+03  0.17354320468E+04  0.19866070584E+04  0.50400001928E-02 0.  1.
       -1    1    3    3    0  502 -0.17385316667E+03  0.95113526480E+03 -0.79875877225E+03  0.12541526190E+04  0.50400001928E-02 0. -1.
</event>
<event>
 5   0  0.1237580E-06  0.3100161E+04  0.7818609E-02  0.8215694E-01
       -2   -1    0    0    0  501  0.00000000000E+00  0.00000000000E+00  0.13240809587E+04  0.13240809587E+04  0.25500000920E-02 0.  1.
        2   -1    0    0  501    0  0.00000000000E+00  0.00000000000E+00 -0.18146543227E+04  0.18146543227E+04  0.25500000920E-02 0. -1.
    10030    2    1    2    0    0  0.00000000000E+00  0.00000000000E+00 -0.49057336405E+03  0.31387352814E+04  0.31001607928E+04 0.  0.
        4    1    3    3  502    0  0.41230684025E+03  0.41956473288E+03  0.12066833284E+04  0.13424297983E+04  0.12699999809E+01 0.  1.
       -4    1    3    3    0  502 -0.41230684025E+03 -0.41956473288E+03 -0.16972566924E+04  0.17963054831E+04  0.12699999809E+01 0. -1.
</event>
<event>
 5   0  0.4330395E-07  0.3086156E+04  0.7818609E-02  0.8219547E-01
       -1   -1    0    0    0  501  0.00000000000E+00  0.00000000000E+00  0.19245903371E+04  0.19245903371E+04  0.50400001928E-02 0.  1.
        1   -1    0    0  501    0  0.00000000000E+00  0.00000000000E+00 -0.12371932564E+04  0.12371932564E+04  0.50400001928E-02 0. -1.
    10030    2    1    2    0    0  0.00000000000E+00  0.00000000000E+00  0.68739708072E+03  0.31617835935E+04  0.30861563061E+04 0.  0.
        1    1    3    3  502    0  0.16724975302E+03 -0.10733042862E+04  0.14665188142E+04  0.18250019187E+04  0.50400001928E-02 0.  1.
       -1    1    3    3    0  502 -0.16724975302E+03  0.10733042862E+04 -0.77912173350E+03  0.13367816749E+04  0.50400001928E-02 0. -1.
</event>
<event>
 5   0  0.1237580E-06  0.3105738E+04  0.7818609E-02  0.8214165E-01
        2   -1    0    0  501    0  0.00000000000E+00  0.00000000000E+00  0.16504081481E+04  0.16504081481E+04  0.25500000920E-02 0.  1.
       -2   -1    0    0    0  501  0.00000000000E+00  0.00000000000E+00 -0.14610947256E+04  0.14610947256E+04  0.25500000920E-02 0. -1.
    10030    2    1    2    0    0  0.00000000000E+00  0.00000000000E+00  0.18931342247E+03  0.31115028737E+04  0.31057383278E+04 0.  0.
        4    1    3    3  502    0 -0.18958580202E+03  0.30810317173E+03 -0.14182888618E+04  0.14636991663E+04  0.12699999809E+01 0. -1.
       -4    1    3    3    0  502  0.18958580202E+03 -0.30810317173E+03  0.16076022843E+04  0.16478037074E+04  0.12699999809E+01 0.  1.
</event>
<event>
 5   0  0.1258262E-06  0.3104392E+04  0.7818609E-02  0.8214534E-01
        2   -1    0    0  501    0  0.00000000000E+00  0.00000000000E+00  0.18160614306E+04  0.18160614306E+04  0.25500000920E-02 0. -1.
       -2   -1    0    0    0  501  0.00000000000E+00  0.00000000000E+00 -0.13266688009E+04  0.13266688009E+04  0.25500000920E-02 0.  1.
    10030    2    1    2    0    0  0.00000000000E+00  0.00000000000E+00  0.48939262976E+03  0.31427302315E+04  0.31043917539E+04 0.  0.
        1    1    3    3  502    0 -0.62004879221E+03 -0.59827710397E+03  0.15517320007E+04  0.17748994901E+04  0.50400001928E-02 0. -1.
       -1    1    3    3    0  502  0.62004879221E+03  0.59827710397E+03 -0.10623393710E+04  0.13678307414E+04  0.50400001928E-02 0.  1.
</event>
<event>
 5   0  0.4134019E-07  0.3045325E+04  0.7818609E-02  0.8230905E-01
       -1   -1    0    0    0  501  0.00000000000E+00  0.00000000000E+00  0.13460744595E+04  0.13460744595E+04  0.50400001928E-02 0. -1.
        1   -1    0    0  501    0  0.00000000000E+00  0.00000000000E+00 -0.17224161890E+04  0.17224161890E+04  0.50400001928E-02 0.  1.
    10030    2    1    2    0    0  0.00000000000E+00  0.00000000000E+00 -0.37634172954E+03  0.30684906485E+04  0.30453245743E+04 0.  0.
        2    1    3    3  502    0 -0.11309930520E+04  0.96434747034E+03  0.14508535849E+03  0.14933723878E+04  0.25500000920E-02 0. -1.
       -2    1    3    3    0  502  0.11309930520E+04 -0.96434747034E+03 -0.52142708803E+03  0.15751182608E+04  0.25500000920E-02 0.  1.
</event>
<event>
 5   0  0.4330395E-07  0.3093971E+04  0.7818609E-02  0.8217394E-01
        1   -1    0    0  501    0  0.00000000000E+00  0.00000000000E+00  0.21277878000E+04  0.21277878000E+04  0.50400001928E-02 0. -1.
       -1   -1    0    0    0  501  0.00000000000E+00  0.00000000000E+00 -0.11247195346E+04  0.11247195346E+04  0.50400001928E-02 0.  1.
    10030    2    1    2    0    0  0.00000000000E+00  0.00000000000E+00  0.10030682654E+04  0.32525073346E+04  0.30939712371E+04 0.  0.
        1    1    3    3  502    0 -0.53419496734E+03  0.67195834656E+03  0.18544409077E+04  0.20434880383E+04  0.50400001928E-02 0. -1.
       -1    1    3    3    0  502  0.53419496734E+03 -0.67195834656E+03 -0.85137264228E+03  0.12090192962E+04  0.50400001928E-02 0.  1.
</event>
<event>
 5   0  0.3902375E-07  0.3086923E+04  0.7818609E-02  0.8219336E-01
       -3   -1    0    0    0  501  0.00000000000E+00  0.00000000000E+00  0.16550495333E+04  0.16550495364E+04  0.10100000352E+00 0.  1.
        3   -1    0    0  501    0  0.00000000000E+00  0.00000000000E+00 -0.14393970726E+04  0.14393970762E+04  0.10100000352E+00 0. -1.
    10030    2    1    2    0    0  0.00000000000E+00  0.00000000000E+00  0.21565246065E+03  0.30944466125E+04  0.30869230399E+04 0.  0.
        1    1    3    3  502    0 -0.11331343515E+04  0.70396975372E+03 -0.67040770130E+03  0.14929880638E+04  0.50400001928E-02 0. -1.
       -1    1    3    3    0  502  0.11331343515E+04 -0.70396975372E+03  0.88606016195E+03  0.16014585487E+04  0.50400001928E-02 0.  1.
</event>
<event>
 5   0  0.1237580E-06  0.3091420E+04  0.7818609E-02  0.8218097E-01
       -2   -1    0    0    0  501  0.00000000000E+00  0.00000000000E+00  0.20473291700E+04  0.20473291700E+04  0.25500000920E-02 0.  1.
        2   -1    0    0  501    0  0.00000000000E+00  0.00000000000E+00 -0.11669932764E+04  0.11669932764E+04  0.25500000920E-02 0. -1.
    10030    2    1    2    0    0  0.00000000000E+00  0.00000000000E+00  0.88033589360E+03  0.32143224465E+04  0.30914199819E+04 0.  0.
        4    1    3    3  502    0 -0.13218865257E+03  0.74401226142E+03  0.18421776693E+04  0.19911424518E+04  0.12699999809E+01 0.  1.
       -4    1    3    3    0  502  0.13218865257E+03 -0.74401226142E+03 -0.96184177573E+03  0.12231799947E+04  0.12699999809E+01 0. -1.
</event>
<event>
 5   0  0.4219337E-07  0.3100268E+04  0.7818609E-02  0.8215664E-01
        1   -1    0    0  501    0  0.00000000000E+00  0.00000000000E+00  0.14752915068E+04  0.14752915068E+04  0.50400001928E-02 0. -1.
       -1   -1    0    0    0  501  0.00000000000E+00  0.00000000000E+00 -0.16287734670E+04  0.16287734670E+04  0.50400001928E-02 0.  1.
    10030    2    1    2    0    0  0.00000000000E+00  0.00000000000E+00 -0.15348196023E+03  0.31040649738E+04  0.31002681576E+04 0.  0.
        4    1    3    3  502    0 -0.62253930582E+03  0.13887338802E+04  0.21819926696E+03  0.15374490269E+04  0.12699999809E+01 0.  1.
       -4    1    3    3    0  502  0.62253930582E+03 -0.13887338802E+04 -0.37168122719E+03  0.15666159468E+04  0.12699999809E+01 0. -1.
</event>
<event>
 5   0  0.1237580E-06  0.3097123E+04  0.7818609E-02  0.8216528E-01
        2   -1    0    0  501    0  0.00000000000E+00  0.00000000000E+00  0.34107903172E+04  0.34107903172E+04  0.25500000920E-02 0. -1.
       -2   -1    0    0    0  501  0.00000000000E+00  0.00000000000E+00 -0.70307543762E+03  0.70307543762E+03  0.25500000920E-02 0.  1.
    10030    2    1    2    0    0  0.00000000000E+00  0.00000000000E+00  0.27077148795E+04  0.41138657548E+04  0.30971231134E+04 0.  0.
        4    1    3    3  502    0 -0.12010923743E+04  0.93500204693E+03  0.17323364043E+04  0.23060448283E+04  0.12699999809E+01 0. -1.
       -4    1    3    3    0  502  0.12010923743E+04 -0.93500204693E+03  0.97537847527E+03  0.18078209265E+04  0.12699999809E+01 0.  1.
</event>
<event>
 5   0  0.4134019E-07  0.3145558E+04  0.7818609E-02  0.8203345E-01
       -1   -1    0    0    0  501  0.00000000000E+00  0.00000000000E+00  0.96272512383E+03  0.96272512384E+03  0.50400001928E-02 0.  1.
        1   -1    0    0  501    0  0.00000000000E+00  0.00000000000E+00 -0.25694082258E+04  0.25694082258E+04  0.50400001928E-02 0. -1.
    10030    2    1    2    0    0  0.00000000000E+00  0.00000000000E+00 -0.16066831020E+04  0.35321333496E+04  0.31455580442E+04 0.  0.
        2    1    3    3  502    0 -0.82539288403E+03  0.12107655125E+04 -0.16180806804E+03  0.14742484153E+04  0.25500000920E-02 0.  1.
       -2    1    3    3    0  502  0.82539288403E+03 -0.12107655125E+04 -0.14448750339E+04  0.20578849343E+04  0.25500000920E-02 0. -1.
</event>
<event>
 5   0  0.1258262E-06  0.3109298E+04  0.7818609E-02  0.8213191E-01
        2   -1    0    0  501    0  0.00000000000E+00  0.00000000000E+00  0.14121208002E+04  0.14121208002E+04  0.25500000920E-02 0. -1.
       -2   -1    0    0    0  501  0.00000000000E+00  0.00000000000E+00 -0.17115628370E+04  0.17115628370E+04  0.25500000920E-02 0.  1.
    10030    2    1    2    0    0  0.00000000000E+00  0.00000000000E+00 -0.29944203675E+03  0.31236836372E+04  0.31092979805E+04 0.  0.
        1    1    3    3  502    0  0.12172140657E+04 -0.23506474911E+03 -0.10921807520E+04  0.16521877355E+04  0.50400001928E-02 0.  1.
       -1    1    3    3    0  502 -0.12172140657E+04  0.23506474911E+03  0.79273871530E+03  0.14714959017E+04  0.50400001928E-02 0. -1.
</event>
<event>
 5   0  0.4173905E-07  0.3118187E+04  0.7818609E-02  0.8210764E-01
        1   -1    0    0  501    0  0.00000000000E+00  0.00000000000E+00  0.18375532852E+04  0.18375532852E+04  0.50400001928E-02 0. -1.
       -1   -1    0    0    0  501  0.00000000000E+00  0.00000000000E+00 -0.13228310440E+04  0.13228310440E+04  0.50400001928E-02 0.  1.
    10030    2    1    2    0    0  0.00000000000E+00  0.00000000000E+00  0.51472224123E+03  0.31603843292E+04  0.31181869929E+04 0.  0.
        3    1    3    3  502    0  0.39186420354E+03  0.56697553220E+03  0.16747689446E+04  0.18110410918E+04  0.10100000352E+00 0. -1.
       -3    1    3    3    0  502 -0.39186420354E+03 -0.56697553220E+03 -0.11600467034E+04  0.13493432374E+04  0.10100000352E+00 0.  1.
</event>
<event>
 5   0  0.4330395E-07  0.3112155E+04  0.7818609E-02  0.8212410E-01
        1   -1    0    0  501    0  0.00000000000E+00  0.00000000000E+00  0.14991700697E+04  0.14991700697E+04  0.50400001928E-02 0. -1.
       -1   -1    0    0    0  501  0.00000000000E+00  0.00000000000E+00 -0.16151446167E+04  0.16151446167E+04  0.50400001928E-02 0.  1.
    10030    2    1    2    0    0  0.00000000000E+00  0.00000000000E+00 -0.11597454694E+03  0.31143146864E+04  0.31121545384E+04 0.  0.
        1    1    3    3  502    0 -0.21783854089E+03  0.21926491697E+03  0.14681436501E+04  0.15003254684E+04  0.50400001928E-02 0. -1.
       -1    1    3    3    0  502  0.21783854089E+03 -0.21926491697E+03 -0.15841181971E+04  0.16139892180E+04  0.50400001928E-02 0.  1.
</event>
<event>
 5   0  0.4173905E-07  0.3081102E+04  0.7818609E-02  0.8220944E-01
        1   -1    0    0  501    0  0.00000000000E+00  0.00000000000E+00  0.18677667878E+04  0.18677667878E+04  0.50400001928E-02 0.  1.
       -1   -1    0    0    0  501  0.00000000000E+00  0.00000000000E+00 -0.12706604330E+04  0.12706604330E+04  0.50400001928E-02 0. -1.
    10030    2    1    2    0    0  0.00000000000E+00  0.00000000000E+00  0.59710635484E+03  0.31384272208E+04  0.30811019816E+04 0.  0.
        3    1    3    3  502    0 -0.11718527486E+04 -0.99994573788E+03  0.28538981200E+03  0.15667091938E+04  0.10100000352E+00 0. -1.
       -3    1    3    3    0  502  0.11718527486E+04  0.99994573788E+03  0.31171654284E+03  0.15717180270E+04  0.10100000352E+00 0.  1.
</event>
<event>
 5   0  0.1193123E-06  0.3142581E+04  0.7818609E-02  0.8204148E-01
       -2   -1    0    0    0  501  0.00000000000E+00  0.00000000000E+00  0.94110799552E+03  0.94110799552E+03  0.25500000920E-02 0.  1.
        2   -1    0    0  501    0  0.00000000000E+00  0.00000000000E+00 -0.26234544958E+04  0.26234544958E+04  0.25500000920E-02 0. -1.
    10030    2    1    2    0    0  0.00000000000E+00  0.00000000000E+00 -0.16823465003E+04  0.35645624913E+04  0.31425811060E+04 0.  0.
        3    1    3    3  502    0  0.14448478175E+04  0.53609537915E+03 -0.49346455278E+03  0.16181751284E+04  0.10100000352E+00 0.  1.
       -3    1    3    3    0  502 -0.14448478175E+04 -0.53609537915E+03 -0.11888819475E+04  0.19463873629E+04  0.10100000352E+00 0. -1.
</event>
<event>
 5   0  0.1176002E-06  0.3136479E+04  0.7818609E-02  0.8205797E-01
       -2   -1    0    0    0  501  0.00000000000E+00  0.00000000000E+00  0.15544408316E+04  0.15544408316E+04  0.25500000920E-02 0.  1.
        2   -1    0    0  501    0  0.00000000000E+00  0.00000000000E+00 -0.15821602247E+04  0.15821602247E+04  0.25500000920E-02 0. -1.
    10030    2    1    2    0    0  0.00000000000E+00  0.00000000000E+00 -0.27719393092E+02  0.31366010563E+04  0.31364785702E+04 0.  0.
        2    1    3    3  502    0  0.15588364529E+04 -0.17125736226E+03 -0.22478874952E+02  0.15683766992E+04  0.25500000920E-02 0.  1.
       -2    1    3    3    0  502 -0.15588364529E+04  0.17125736226E+03 -0.52405181398E+01  0.15682243570E+04  0.25500000920E-02 0. -1.
</event>
<event>
 5   0  0.4219337E-07  0.3108400E+04  0.7818609E-02  0.8213436E-01
       -1   -1    0    0    0  501  0.00000000000E+00  0.00000000000E+00  0.99720664048E+03  0.99720664049E+03  0.50400001928E-02 0. -1.
        1   -1    0    0  501    0  0.00000000000E+00  0.00000000000E+00 -0.24223034029E+04  0.24223034029E+04  0.50400001928E-02 0.  1.
    10030    2    1    2    0    0  0.00000000000E+00  0.00000000000E+00 -0.14250967625E+04  0.34195100434E+04  0.31083996131E+04 0.  0.
        4    1    3    3  502    0  0.48290916778E+03  0.73170543063E+03  0.69922861390E+03  0.11213903731E+04  0.12699999809E+01 0. -1.
       -4    1    3    3    0  502 -0.48290916778E+03 -0.73170543063E+03 -0.21243253764E+04  0.22981196703E+04  0.12699999809E+01 0.  1.
</event>
<event>
 5   0  0.1258262E-06  0.3095391E+04  0.7818609E-02  0.8217004E-01
       -2   -1    0    0    0  501  0.00000000000E+00  0.00000000000E+00  0.13624396026E+04  0.13624396026E+04  0.25500000920E-02 0.  1.
        2   -1    0    0  501    0  0.00000000000E+00  0.00000000000E+00 -0.17581414260E+04  0.17581414260E+04  0.25500000920E-02 0. -1.
    10030    2    1    2    0    0  0.00000000000E+00  0.00000000000E+00 -0.39570182339E+03  0.31205810286E+04  0.30953910937E+04 0.  0.
        1    1    3    3  502    0  0.83857687885E+03 -0.79388509114E+03 -0.12367206325E+04  0.16920232394E+04  0.50400001928E-02 0. -1.
       -1    1    3    3    0  502 -0.83857687885E+03  0.79388509114E+03  0.84101880916E+03  0.14285577892E+04  0.50400001928E-02 0.  1.
</event>
<event>
 5   0  0.1200286E-06  0.3104086E+04  0.7818609E-02  0.8214617E-01
       -2   -1    0    0    0  501  0.00000000000E+00  0.00000000000E+00  0.12419397849E+04  0.12419397849E+04  0.25500000920E-02 0.  1.
        2   -1    0    0  501    0  0.00000000000E+00  0.00000000000E+00 -0.19395770635E+04  0.19395770635E+04  0.25500000920E-02 0. -1.
    10030    2    1    2    0    0  0.00000000000E+00  0.00000000000E+00 -0.69763727860E+03  0.31815168484E+04  0.31040862881E+04 0.  0.
        5    1    3    3  502    0 -0.64907586972E+03 -0.80719651868E+02  0.10937708210E+04  0.12744300082E+04  0.46999998093E+01 0.  1.
       -5    1    3    3    0  502  0.64907586972E+03  0.80719651868E+02 -0.17914080996E+04  0.19070868402E+04  0.46999998093E+01 0. -1.
</event>
<event>
 5   0  0.4219337E-07  0.3112391E+04  0.7818609E-02  0.8212346E-01
       -1   -1    0    0    0  501  0.00000000000E+00  0.00000000000E+00  0.13040836173E+04  0.13040836174E+04  0.50400001928E-02 0.  1.
        1   -1    0    0  501    0  0.00000000000E+00  0.00000000000E+00 -0.18570468204E+04  0.18570468204E+04  0.50400001928E-02 0. -1.
    10030    2    1    2    0    0  0.00000000000E+00  0.00000000000E+00 -0.55296320303E+03  0.31611304377E+04  0.31123909363E+04 0.  0.
        4    1    3    3  502    0  0.96461342101E+02  0.12892054112E+04  0.60333271284E+03  0.14266630149E+04  0.12699999809E+01 0.  1.
       -4    1    3    3    0  502 -0.96461342101E+02 -0.12892054112E+04 -0.11562959159E+04  0.17344674228E+04  0.12699999809E+01 0. -1.
</event>
<event>
 5   0  0.1258262E-06  0.3090136E+04  0.7818609E-02  0.8218450E-01
       -2   -1    0    0    0  501  0.00000000000E+00  0.00000000000E+00  0.28641852424E+04  0.28641852424E+04  0.25500000920E-02 0. -1.
        2   -1    0    0  501    0  0.00000000000E+00  0.00000000000E+00 -0.83347794453E+03  0.83347794454E+03  0.25500000920E-02 0.  1.
    10030    2    1    2    0    0  0.00000000000E+00  0.00000000000E+00  0.20307072979E+04  0.36976631870E+04  0.30901360673E+04 0.  0.
        1    1    3    3  502    0  0.63442216081E+03  0.52896015720E+03 -0.54709200706E+03  0.99075728120E+03  0.50400001928E-02 0.  1.
       -1    1    3    3    0  502 -0.63442216081E+03 -0.52896015720E+03  0.25777993049E+04  0.27069059058E+04  0.50400001928E-02 0. -1.
</event>
<event>
 5   0  0.4330395E-07  0.3103734E+04  0.7818609E-02  0.8214714E-01
        1   -1    0    0  501    0  0.00000000000E+00  0.00000000000E+00  0.18782256663E+04  0.18782256663E+04  0.50400001928E-02 0. -1.
       -1   -1    0    0    0  501  0.00000000000E+00  0.00000000000E+00 -0.12822161401E+04  0.12822161401E+04  0.50400001928E-02 0.  1.
    10030    2    1    2    0    0  0.00000000000E+00  0.00000000000E+00  0.59600952617E+03  0.31604418063E+04  0.31037340505E+04 0.  0.
        1    1    3    3  502    0  0.65924105449E+03 -0.85911254305E+03  0.14298979191E+04  0.17936781174E+04  0.50400001928E-02 0. -1.
       -1    1    3    3    0  502 -0.65924105449E+03  0.85911254305E+03 -0.83388839296E+03  0.13667636890E+04  0.50400001928E-02 0.  1.
</event>
<event>
 5   0  0.1258262E-06  0.3102452E+04  0.7818609E-02  0.8215065E-01
       -2   -1    0    0    0  501  0.00000000000E+00  0.00000000000E+00  0.10042330570E+04  0.10042330570E+04  0.25500000920E-02 0. -1.
        2   -1    0    0  501    0  0.00000000000E+00  0.00000000000E+00 -0.23961585126E+04  0.23961585126E+04  0.25500000920E-02 0.  1.
    10030    2    1    2    0    0  0.00000000000E+00  0.00000000000E+00 -0.13919254557E+04  0.34003915696E+04  0.31024516680E+04 0.  0.
        1    1    3    3  502    0 -0.32827364919E+03 -0.47887904095E+03 -0.22725807661E+04  0.23455728646E+04  0.50400001928E-02 0.  1.
       -1    1    3    3    0  502  0.32827364919E+03  0.47887904095E+03  0.88065531043E+03  0.10548187050E+04  0.50400001928E-02 0. -1.
</event>
<event>
 5   0  0.4219337E-07  0.3099819E+04  0.7818609E-02  0.8215787E-01
       -1   -1    0    0    0  501  0.00000000000E+00  0.00000000000E+00  0.10822297817E+04  0.10822297817E+04  0.50400001928E-02 0. -1.
        1   -1    0    0  501    0  0.00000000000E+00  0.00000000000E+00 -0.22196949843E+04  0.22196949843E+04  0.50400001928E-02 0.  1.
    10030    2    1    2    0    0  0.00000000000E+00  0.00000000000E+00 -0.11374652026E+04  0.33019247660E+04  0.30998193614E+04 0.  0.
        4    1    3    3  502    0  0.13421036980E+04 -0.85900887724E+02  0.25195273736E+03  0.13682481841E+04  0.12699999809E+01 0. -1.
       -4    1    3    3    0  502 -0.13421036980E+04  0.85900887724E+02 -0.13894179400E+04  0.19336765819E+04  0.12699999809E+01 0.  1.
</event>
<event>
 5   0  0.1176002E-06  0.3102270E+04  0.7818609E-02  0.8215115E-01
        2   -1    0    0  501    0  0.00000000000E+00  0.00000000000E+00  0.17268235910E+04  0.17268235910E+04  0.25500000920E-02 0.  1.
       -2   -1    0    0    0  501  0.00000000000E+00  0.00000000000E+00 -0.13933207614E+04  0.13933207614E+04  0.25500000920E-02 0. -1.
    10030    2    1    2    0    0  0.00000000000E+00  0.00000000000E+00  0.33350282960E+03  0.31201443524E+04  0.31022695954E+04 0.  0.
        2    1    3    3  502    0 -0.64949944848E+03 -0.12898442594E+04 -0.40261231581E+03  0.14992146024E+04  0.25500000920E-02 0. -1.
       -2    1    3    3    0  502  0.64949944848E+03  0.12898442594E+04  0.73611514542E+03  0.16209297500E+04  0.25500000920E-02 0.  1.
</event>
<event>
 5   0  0.1176002E-06  0.3119519E+04  0.7818609E-02  0.8210402E-01
       -2   -1    0    0    0  501  0.00000000000E+00  0.00000000000E+00  0.14714674628E+04  0.14714674628E+04  0.25500000920E-02 0.  1.
        2   -1    0    0  501    0  0.00000000000E+00  0.00000000000E+00 -0.16533489762E+04  0.16533489762E+04  0.25500000920E-02 0. -1.
    10030    2    1    2    0    0  0.00000000000E+00  0.00000000000E+00 -0.18188151333E+03  0.31248164390E+04  0.31195186957E+04 0.  0.
        2    1    3    3  502    0 -0.12505314948E+04 -0.89670230179E+03  0.16433548622E+03  0.15475497373E+04  0.25500000920E-02 0. -1.
       -2    1    3    3    0  502  0.12505314948E+04  0.89670230179E+03 -0.34621699955E+03  0.15772667017E+04  0.25500000920E-02 0.  1.
</event>
<event>
 5   0  0.4219337E-07  0.3085342E+04  0.7818609E-02  0.8219772E-01
       -1   -1    0    0    0  501  0.00000000000E+00  0.00000000000E+00  0.13654574784E+04  0.13654574784E+04  0.50400001928E-02 0.  1.
        1   -1    0    0  501    0  0.00000000000E+00  0.00000000000E+00 -0.17428838061E+04  0.17428838061E+04  0.50400001928E-02 0. -1.
    10030    2    1    2    0    0  0.00000000000E+00  0.00000000000E+00 -0.37742632771E+03  0.31083412845E+04  0.30853419435E+04 0.  0.
        4    1    3    3  502    0  0.17886602326E+03  0.11430073487E+04 -0.12167971739E+04  0.16790044160E+04  0.12699999809E+01 0. -1.
       -4    1    3    3    0  502 -0.17886602326E+03 -0.11430073487E+04  0.83937084618E+03  0.14293368686E+04  0.12699999809E+01 0.  1.
</event>
<event>
 5   0  0.3935852E-07  0.3107495E+04  0.7818609E-02  0.8213684E-01
       -1   -1    0    0    0  501  0.00000000000E+00  0.00000000000E+00  0.94834609830E+03  0.94834609832E+03  0.50400001928E-02 0.  1.
        1   -1    0    0  501    0  0.00000000000E+00  0.00000000000E+00 -0.25456229417E+04  0.25456229417E+04  0.50400001928E-02 0. -1.
    10030    2    1    2    0    0  0.00000000000E+00  0.00000000000E+00 -0.15972768434E+04  0.34939690400E+04  0.31074951872E+04 0.  0.
        5    1    3    3  502    0 -0.11319784608E+04 -0.89355138545E+03 -0.14487335225E+04  0.20441771507E+04  0.46999998093E+01 0. -1.
       -5    1    3    3    0  502  0.11319784608E+04  0.89355138545E+03 -0.14854332092E+03  0.14497918893E+04  0.46999998093E+01 0.  1.
</event>
<event>
 5   0  0.4134019E-07  0.3105045E+04  0.7818609E-02  0.8214355E-01
        1   -1    0    0  501    0  0.00000000000E+00  0.00000000000E+00  0.15968574922E+04  0.15968574922E+04  0.50400001928E-02 0.  1.
       -1   -1    0    0    0  501  0.00000000000E+00  0.00000000000E+00 -0.15094180797E+04  0.15094180798E+04  0.50400001928E-02 0. -1.
    10030    2    1    2    0    0  0.00000000000E+00  0.00000000000E+00  0.87439412440E+02  0.31062755719E+04  0.31050446499E+04 0.  0.
        2    1    3    3  502    0 -0.25857494278E+03 -0.84655826579E+03 -0.12322480610E+04  0.15172202155E+04  0.25500000920E-02 0. -1.
       -2    1    3    3    0  502  0.25857494278E+03  0.84655826579E+03  0.13196874734E+04  0.15890553565E+04  0.25500000920E-02 0.  1.
</event>
<event>
 5   0  0.1193123E-06  0.3100453E+04  0.7818609E-02  0.8215614E-01
        2   -1    0    0  501    0  0.00000000000E+00  0.00000000000E+00  0.21081843202E+04  0.21081843202E+04  0.25500000920E-02 0.  1.
       -2   -1    0    0    0  501  0.00000000000E+00  0.00000000000E+00 -0.11399391043E+04  0.11399391043E+04  0.25500000920E-02 0. -1.
    10030    2    1    2    0    0  0.00000000000E+00  0.00000000000E+00  0.96824521593E+03  0.32481234245E+04  0.31004527060E+04 0.  0.
        3    1    3    3  502    0 -0.15220607233E+04  0.28948706023E+03  0.42938330826E+03  0.16077442704E+04  0.10100000352E+00 0. -1.
       -3    1    3    3    0  502  0.15220607233E+04 -0.28948706023E+03  0.53886190768E+03  0.16403791541E+04  0.10100000352E+00 0.  1.
</event>
<event>
 5   0  0.4134019E-07  0.3098638E+04  0.7818609E-02  0.8216112E-01
        1   -1    0    0  501    0  0.00000000000E+00  0.00000000000E+00  0.14799018334E+04  0.14799018334E+04  0.50400001928E-02 0.  1.
       -1   -1    0    0    0  501  0.00000000000E+00  0.00000000000E+00 -0.16219924952E+04  0.16219924952E+04  0.50400001928E-02 0. -1.
    10030    2    1    2    0    0  0.00000000000E+00  0.00000000000E+00 -0.14209066172E+03  0.31018943286E+04  0.30986381960E+04 0.  0.
        2    1    3    3  502    0  0.10809499103E+04 -0.79248575812E+03 -0.84897408370E+03  0.15865822955E+04  0.25500000920E-02 0.  1.
       -2    1    3    3    0  502 -0.10809499103E+04  0.79248575812E+03  0.70688342199E+03  0.15153120331E+04  0.25500000920E-02 0. -1.
</event>
<event>
 5   0  0.4330395E-07  0.3118324E+04  0.7818609E-02  0.8210727E-01
       -1   -1    0    0    0  501  0.00000000000E+00  0.00000000000E+00  0.22334129620E+04  0.22334129620E+04  0.50400001928E-02 0. -1.
        1   -1    0    0  501    0  0.00000000000E+00  0.00000000000E+00 -0.10884624681E+04  0.10884624681E+04  0.50400001928E-02 0.  1.
    10030    2    1    2    0    0  0.00000000000E+00  0.00000000000E+00  0.11449504938E+04  0.33218754301E+04  0.31183240274E+04 0.  0.
        1    1    3    3  502    0  0.12747921836E+04 -0.41862534385E+03 -0.27349326702E+03  0.13693578265E+04  0.50400001928E-02 0.  1.
       -1    1    3    3    0  502 -0.12747921836E+04  0.41862534385E+03  0.14184437609E+04  0.19525176036E+04  0.50400001928E-02 0. -1.
</event>
<event>
 5   0  0.1258262E-06  0.3105784E+04  0.7818609E-02  0.8214152E-01
       -2   -1    0    0    0  501  0.00000000000E+00  0.00000000000E+00  0.13784110469E+04  0.13784110469E+04  0.25500000920E-02 0.  1.
        2   -1    0    0  501    0  0.00000000000E+00  0.00000000000E+00 -0.17494585238E+04  0.17494585238E+04  0.25500000920E-02 0. -1.
    10030    2    1    2    0    0  0.00000000000E+00  0.00000000000E+00 -0.37104747689E+03  0.31278695706E+04  0.31057836082E+04 0.  0.
        1    1    3    3  502    0  0.83688227309E+03 -0.99691526904E+03 -0.10384589406E+04  0.16651153005E+04  0.50400001928E-02 0. -1.
       -1    1    3    3    0  502 -0.83688227309E+03  0.99691526904E+03  0.66741146376E+03  0.14627542701E+04  0.50400001928E-02 0.  1.
</event>
<event>
 5   0  0.3935852E-07  0.3109987E+04  0.7818609E-02  0.8213002E-01
       -1   -1    0    0    0  501  0.00000000000E+00  0.00000000000E+00  0.23752906995E+04  0.23752906995E+04  0.50400001928E-02 0. -1.
        1   -1    0    0  501    0  0.00000000000E+00  0.00000000000E+00 -0.10179827062E+04  0.10179827062E+04  0.50400001928E-02 0.  1.
    10030    2    1    2    0    0  0.00000000000E+00  0.00000000000E+00  0.13573079933E+04  0.33932734057E+04  0.31099870445E+04 0.  0.
        5    1    3    3  502    0 -0.97638767163E+03  0.42615296831E+02 -0.64099298599E+03  0.11687784422E+04  0.46999998093E+01 0.  1.
       -5    1    3    3    0  502  0.97638767163E+03 -0.42615296831E+02  0.19983009793E+04  0.22244949635E+04  0.46999998093E+01 0. -1.
</event>
<event>
 5   0  0.3935852E-07  0.3100629E+04  0.7818609E-02  0.8215565E-01
        1   -1    0    0  501    0  0.00000000000E+00  0.00000000000E+00  0.22710593132E+04  0.22710593132E+04  0.50400001928E-02 0. -1.
       -1   -1    0    0    0  501  0.00000000000E+00  0.00000000000E+00 -0.10583058429E+04  0.10583058429E+04  0.50400001928E-02 0.  1.
    10030    2    1    2    0    0  0.00000000000E+00  0.00000000000E+00  0.12127534703E+04  0.33293651561E+04  0.31006291882E+04 0.  0.
        5    1    3    3  502    0 -0.83816905858E+03 -0.78933520383E+03  0.17211741758E+04  0.20707583317E+04  0.46999998093E+01 0. -1.
       -5    1    3    3    0  502  0.83816905858E+03  0.78933520383E+03 -0.50842070543E+03  0.12586068244E+04  0.46999998093E+01 0.  1.
</event>
<event>
 5   0  0.1176002E-06  0.3101959E+04  0.7818609E-02  0.8215200E-01
       -2   -1    0    0    0  501  0.00000000000E+00  0.00000000000E+00  0.72278074100E+03  0.72278074100E+03  0.25500000920E-02 0.  1.
        2   -1    0    0  501    0  0.00000000000E+00  0.00000000000E+00 -0.33281702807E+04  0.33281702807E+04  0.25500000920E-02 0. -1.
    10030    2    1    2    0    0  0.00000000000E+00  0.00000000000E+00 -0.26053895397E+04  0.40509510217E+04  0.31019589821E+04 0.  0.
        2    1    3    3  502    0 -0.70410043975E+03  0.13807630285E+04 -0.12279774572E+04  0.19774206951E+04  0.25500000920E-02 0.  1.
       -2    1    3    3    0  502  0.70410043975E+03 -0.13807630285E+04 -0.13774120825E+04  0.20735303266E+04  0.25500000920E-02 0. -1.
</event>
<event>
 5   0  0.1176002E-06  0.3077713E+04  0.7818609E-02  0.8221881E-01
       -2   -1    0    0    0  501  0.00000000000E+00  0.00000000000E+00  0.14119171362E+04  0.14119171362E+04  0.25500000920E-02 0. -1.
        2   -1    0    0  501    0  0.00000000000E+00  0.00000000000E+00 -0.16772079457E+04  0.16772079457E+04  0.25500000920E-02 0.  1.
    10030    2    1    2    0    0  0.00000000000E+00  0.00000000000E+00 -0.26529080950E+03  0.30891250818E+04  0.30777125528E+04 0.  0.
        2    1    3    3  502    0  0.62804204191E+03  0.75280832912E+03 -0.13231809425E+04  0.16468044794E+04  0.25500000920E-02 0.  1.
       -2    1    3    3    0  502 -0.62804204191E+03 -0.75280832912E+03  0.10578901330E+04  0.14423206024E+04  0.25500000920E-02 0. -1.
</event>
<event>
 5   0  0.4173905E-07  0.3098172E+04  0.7818609E-02  0.8216240E-01
        1   -1    0    0  501    0  0.00000000000E+00  0.00000000000E+00  0.19264626213E+04  0.19264626213E+04  0.50400001928E-02 0.  1.
       -1   -1    0    0    0  501  0.00000000000E+00  0.00000000000E+00 -0.12456340995E+04  0.12456340996E+04  0.50400001928E-02 0. -1.
    10030    2    1    2    0    0  0.00000000000E+00  0.00000000000E+00  0.68082852175E+03  0.31720967209E+04  0.30981720628E+04 0.  0.
        3    1    3    3  502    0  0.74579545888E+02 -0.41076881852E+01 -0.12437893232E+04  0.12460300447E+04  0.10100000352E+00 0. -1.
       -3    1    3    3    0  502 -0.74579545888E+02  0.41076881852E+01  0.19246178449E+04  0.19260666761E+04  0.10100000352E+00 0.  1.
</event>
<event>
 5   0  0.1200286E-06  0.3100408E+04  0.7818609E-02  0.8215626E-01
       -2   -1    0    0    0  501  0.00000000000E+00  0.00000000000E+00  0.10061868396E+04  0.10061868396E+04  0.25500000920E-02 0.  1.
        2   -1    0    0  501    0  0.00000000000E+00  0.00000000000E+00 -0.23883558926E+04  0.23883558926E+04  0.25500000920E-02 0. -1.
    10030    2    1    2    0    0  0.00000000000E+00  0.00000000000E+00 -0.13821690530E+04  0.33945427322E+04  0.31004078877E+04 0.  0.
        5    1    3    3  502    0 -0.14456672073E+04 -0.46327838476E+03 -0.10347579099E+04  0.18372061828E+04  0.46999998093E+01 0.  1.
       -5    1    3    3    0  502  0.14456672073E+04  0.46327838476E+03 -0.34741114308E+03  0.15573365495E+04  0.46999998093E+01 0. -1.
</event>
<event>
 5   0  0.4219337E-07  0.3109008E+04  0.7818609E-02  0.8213270E-01
       -1   -1    0    0    0  501  0.00000000000E+00  0.00000000000E+00  0.82714786493E+03  0.82714786495E+03  0.50400001928E-02 0.  1.
        1   -1    0    0  501    0  0.00000000000E+00  0.00000000000E+00 -0.29214640579E+04  0.29214640579E+04  0.50400001928E-02 0. -1.
    10030    2    1    2    0    0  0.00000000000E+00  0.00000000000E+00 -0.20943161930E+04  0.37486119228E+04  0.31090080463E+04 0.  0.
        4    1    3    3  502    0  0.12569590865E+04 -0.72053143213E+03 -0.17264105244E+04  0.22537982610E+04  0.12699999809E+01 0. -1.
       -4    1    3    3    0  502 -0.12569590865E+04  0.72053143213E+03 -0.36790566856E+03  0.14948136618E+04  0.12699999809E+01 0.  1.
</event>
<event>
 5   0  0.1176002E-06  0.3096875E+04  0.7818609E-02  0.8216596E-01
        2   -1    0    0  501    0  0.00000000000E+00  0.00000000000E+00  0.20177252007E+04  0.20177252007E+04  0.25500000920E-02 0.  1.
       -2   -1    0    0    0  501  0.00000000000E+00  0.00000000000E+00 -0.11882982884E+04  0.11882982884E+04  0.25500000920E-02 0. -1.
    10030    2    1    2    0    0  0.00000000000E+00  0.00000000000E+00  0.82942691234E+03  0.32060234891E+04  0.30968754592E+04 0.  0.
        2    1    3    3  502    0  0.93152892568E+03  0.87144918055E+03 -0.49399871859E+03  0.13679197885E+04  0.25500000920E-02 0. -1.
       -2    1    3    3    0  502 -0.93152892568E+03 -0.87144918055E+03  0.13234256309E+04  0.18381037006E+04  0.25500000920E-02 0.  1.
</event>
<event>
 5   0  0.3935852E-07  0.3092396E+04  0.7818609E-02  0.8217828E-01
       -1   -1    0    0    0  501  0.00000000000E+00  0.00000000000E+00  0.14921609070E+04  0.14921609071E+04  0.50400001928E-02 0. -1.
        1   -1    0    0  501    0  0.00000000000E+00  0.00000000000E+00 -0.16021923962E+04  0.16021923962E+04  0.50400001928E-02 0.  1.
    10030    2    1    2    0    0  0.00000000000E+00  0.00000000000E+00 -0.11003148913E+03  0.30943533032E+04  0.30923963906E+04 0.  0.
        5    1    3    3  502    0 -0.89422033908E+01 -0.64183366211E+03 -0.14625602085E+04  0.15972272432E+04  0.46999998093E+01 0.  1.
       -5    1    3    3    0  502  0.89422033908E+01  0.64183366211E+03  0.13525287194E+04  0.14971260600E+04  0.46999998093E+01 0. -1.
</event>
<event>
 5   0  0.3902375E-07  0.3111335E+04  0.7818609E-02  0.8212634E-01
        3   -1    0    0  501    0  0.00000000000E+00  0.00000000000E+00  0.97628538291E+03  0.97628538813E+03  0.10100000352E+00 0.  1.
       -3   -1    0    0    0  501  0.00000000000E+00  0.00000000000E+00 -0.24788870732E+04  0.24788870753E+04  0.10100000352E+00 0. -1.
    10030    2    1    2    0    0  0.00000000000E+00  0.00000000000E+00 -0.15026016903E+04  0.34551724634E+04  0.31113349084E+04 0.  0.
        2    1    3    3  502    0  0.91231018132E+03  0.12597388200E+04 -0.78366737144E+03  0.17416619392E+04  0.25500000920E-02 0. -1.
       -2    1    3    3    0  502 -0.91231018132E+03 -0.12597388200E+04 -0.71893431887E+03  0.17135105242E+04  0.25500000920E-02 0.  1.
</event>
<event>
 5   0  0.4134019E-07  0.3108446E+04  0.7818609E-02  0.8213424E-01
        1   -1    0    0  501    0  0.00000000000E+00  0.00000000000E+00  0.19845717260E+04  0.19845717260E+04  0.50400001928E-02 0.  1.
       -1   -1    0    0    0  501  0.00000000000E+00  0.00000000000E+00 -0.12171941745E+04  0.12171941745E+04  0.50400001928E-02 0. -1.
    10030    2    1    2    0    0  0.00000000000E+00  0.00000000000E+00  0.76737755143E+03  0.32017659005E+04  0.31084460065E+04 0.  0.
        2    1    3    3  502    0  0.78667641894E+03 -0.95633432970E+03  0.13511272950E+04  0.18327520578E+04  0.25500000920E-02 0.  1.
       -2    1    3    3    0  502 -0.78667641894E+03  0.95633432970E+03 -0.58374974356E+03  0.13690138427E+04  0.25500000920E-02 0. -1.
</event>
<event>
 5   0  0.3935852E-07  0.3080174E+04  0.7818609E-02  0.8221200E-01
        1   -1    0    0  501    0  0.00000000000E+00  0.00000000000E+00  0.16489243724E+04  0.16489243724E+04  0.50400001928E-02 0.  1.
       -1   -1    0    0    0  501  0.00000000000E+00  0.00000000000E+00 -0.14384337026E+04  0.14384337026E+04  0.50400001928E-02 0. -1.
    10030    2    1    2    0    0  0.00000000000E+00  0.00000000000E+00  0.21049066978E+03  0.30873580749E+04  0.30801742744E+04 0.  0.
        5    1    3    3  502    0  0.50593669737E+03 -0.10792428195E+04 -0.87227753314E+03  0.14770332393E+04  0.46999998093E+01 0. -1.
       -5    1    3    3    0  502 -0.50593669737E+03  0.10792428195E+04  0.10827682029E+04  0.16103248357E+04  0.46999998093E+01 0.  1.
</event>
<event>
 5   0  0.1176002E-06  0.3102693E+04  0.7818609E-02  0.8214999E-01
       -2   -1    0    0    0  501  0.00000000000E+00  0.00000000000E+00  0.13972776467E+04  0.13972776467E+04  0.25500000920E-02 0. -1.
        2   -1    0    0  501    0  0.00000000000E+00  0.00000000000E+00 -0.17224036873E+04  0.17224036873E+04  0.25500000920E-02 0.  1.
    10030    2    1    2    0    0  0.00000000000E+00  0.00000000000E+00 -0.32512604060E+03  0.31196813340E+04  0.31026931339E+04 0.  0.
        2    1    3    3  502    0 -0.12677342694E+04  0.88695822796E+03 -0.27645765491E+03  0.15717105048E+04  0.25500000920E-02 0.  1.
       -2    1    3    3    0  502  0.12677342694E+04 -0.88695822796E+03 -0.48668385693E+02  0.15479708291E+04  0.25500000920E-02 0. -1.
</event>
<event>
 5   0  0.1176002E-06  0.3103304E+04  0.7818609E-02  0.8214832E-01
       -2   -1    0    0    0  501  0.00000000000E+00  0.00000000000E+00  0.14177989636E+04  0.14177989636E+04  0.25500000920E-02 0.  1.
        2   -1    0    0  501    0  0.00000000000E+00  0.00000000000E+00 -0.16981417233E+04  0.16981417233E+04  0.25500000920E-02 0. -1.
    10030    2    1    2    0    0  0.00000000000E+00  0.00000000000E+00 -0.28034275970E+03  0.31159406869E+04  0.31033037720E+04 0.  0.
        2    1    3    3  502    0 -0.27416767224E+03 -0.26680782353E+03 -0.16500465080E+04  0.16938145724E+04  0.25500000920E-02 0. -1.
       -2    1    3    3    0  502  0.27416767224E+03  0.26680782353E+03  0.13697037483E+04  0.14221261144E+04  0.25500000920E-02 0.  1.
</event>
<event>
 5   0  0.4219337E-07  0.3132153E+04  0.7818609E-02  0.8206969E-01
       -1   -1    0    0    0  501  0.00000000000E+00  0.00000000000E+00  0.28266343668E+04  0.28266343668E+04  0.50400001928E-02 0.  1.
        1   -1    0    0  501    0  0.00000000000E+00  0.00000000000E+00 -0.86767357434E+03  0.86767357436E+03  0.50400001928E-02 0. -1.
    10030    2    1    2    0    0  0.00000000000E+00  0.00000000000E+00  0.19589607925E+04  0.36943079412E+04  0.31321532175E+04 0.  0.
        4    1    3    3  502    0  0.24020901797E+03  0.63294770228E+03 -0.68616366195E+03  0.96392185888E+03  0.12699999809E+01 0. -1.
       -4    1    3    3    0  502 -0.24020901797E+03 -0.63294770228E+03  0.26451244544E+04  0.27303860823E+04  0.12699999809E+01 0.  1.
</event>
<event>
 5   0  0.1237580E-06  0.3052083E+04  0.7818609E-02  0.8229013E-01
        2   -1    0    0  501    0  0.00000000000E+00  0.00000000000E+00  0.16687711902E+04  0.16687711902E+04  0.25500000920E-02 0.  1.
       -2   -1    0    0    0  501  0.00000000000E+00  0.00000000000E+00 -0.13955193750E+04  0.13955193750E+04  0.25500000920E-02 0. -1.
    10030    2    1    2    0    0  0.00000000000E+00  0.00000000000E+00  0.27325181517E+03  0.30642905653E+04  0.30520829140E+04 0.  0.
        4    1    3    3  502    0 -0.14853734430E+04  0.24277418855E+02 -0.21387968576E+03  0.15008896665E+04  0.12699999809E+01 0. -1.
       -4    1    3    3    0  502  0.14853734430E+04 -0.24277418855E+02  0.48713150093E+03  0.15634008988E+04  0.12699999809E+01 0.  1.
</event>
<event>
 5   0  0.3902375E-07  0.3091579E+04  0.7818609E-02  0.8218053E-01
        3   -1    0    0  501    0  0.00000000000E+00  0.00000000000E+00  0.12635448224E+04  0.12635448264E+04  0.10100000352E+00 0. -1.
       -3   -1    0    0    0  501  0.00000000000E+00  0.00000000000E+00 -0.18910800913E+04  0.18910800940E+04  0.10100000352E+00 0.  1.
    10030    2    1    2    0    0  0.00000000000E+00  0.00000000000E+00 -0.62753526891E+03  0.31546249204E+04  0.30915785409E+04 0.  0.
        3    1    3    3  502    0  0.13516239131E+03 -0.44047484440E+02 -0.18843958161E+04  0.18897504213E+04  0.10100000352E+00 0.  1.
       -3    1    3    3    0  502 -0.13516239131E+03  0.44047484440E+02  0.12568605472E+04  0.12648744990E+04  0.10100000352E+00 0. -1.
</event>
<event>
 5   0  0.3902375E-07  0.3091355E+04  0.7818609E-02  0.8218114E-01
       -3   -1    0    0    0  501  0.00000000000E+00  0.00000000000E+00  0.87642396749E+03  0.87642397331E+03  0.10100000352E+00 0.  1.
        3   -1    0    0  501    0  0.00000000000E+00  0.00000000000E+00 -0.27259862499E+04  0.27259862518E+04  0.10100000352E+00 0. -1.
    10030    2    1    2    0    0  0.00000000000E+00  0.00000000000E+00 -0.18495622824E+04  0.36024102251E+04  0.30913554945E+04 0.  0.
        2    1    3    3  502    0 -0.20570574324E+03 -0.39051659558E+03 -0.26509861790E+04  0.26874794484E+04  0.25500000920E-02 0. -1.
       -2    1    3    3    0  502  0.20570574324E+03  0.39051659558E+03  0.80142389656E+03  0.91493077673E+03  0.25500000920E-02 0.  1.
</event>
<event>
 5   0  0.4173905E-07  0.3103599E+04  0.7818609E-02  0.8214751E-01
        1   -1    0    0  501    0  0.00000000000E+00  0.00000000000E+00  0.21502123537E+04  0.21502123537E+04  0.50400001928E-02 0. -1.
       -1   -1    0    0    0  501  0.00000000000E+00  0.00000000000E+00 -0.11199277161E+04  0.11199277162E+04  0.50400001928E-02 0.  1.
    10030    2    1    2    0    0  0.00000000000E+00  0.00000000000E+00  0.10302846376E+04  0.32701400699E+04  0.31035994655E+04 0.  0.
        3    1    3    3  502    0 -0.23405884575E+03  0.85467325365E+03  0.18574050544E+04  0.20579609957E+04  0.10100000352E+00 0. -1.
       -3    1    3    3    0  502  0.23405884575E+03 -0.85467325365E+03 -0.82712041678E+03  0.12121790742E+04  0.10100000352E+00 0.  1.
</event>
<event>
 5   0  0.1176002E-06  0.3094814E+04  0.7818609E-02  0.8217163E-01
       -2   -1    0    0    0  501  0.00000000000E+00  0.00000000000E+00  0.16600081099E+04  0.16600081099E+04  0.25500000920E-02 0. -1.
        2   -1    0    0  501    0  0.00000000000E+00  0.00000000000E+00 -0.14424440987E+04  0.14424440987E+04  0.25500000920E-02 0.  1.
    10030    2    1    2    0    0  0.00000000000E+00  0.00000000000E+00  0.21756401122E+03  0.31024522086E+04  0.30948143090E+04 0.  0.
        2    1    3    3  502    0  0.54450930000E+03  0.35202273394E+03  0.15172614570E+04  0.16499977915E+04  0.25500000920E-02 0. -1.
       -2    1    3    3    0  502 -0.54450930000E+03 -0.35202273394E+03 -0.12996974458E+04  0.14524544171E+04  0.25500000920E-02 0.  1.
</event>
<event>
 5   0  0.4330395E-07  0.3094387E+04  0.7818609E-02  0.8217280E-01
        1   -1    0    0  501    0  0.00000000000E+00  0.00000000000E+00  0.21852833149E+04  0.21852833149E+04  0.50400001928E-02 0. -1.
       -1   -1    0    0    0  501  0.00000000000E+00  0.00000000000E+00 -0.10954218381E+04  0.10954218381E+04  0.50400001928E-02 0.  1.
    10030    2    1    2    0    0  0.00000000000E+00  0.00000000000E+00  0.10898614768E+04  0.32807051530E+04  0.30943865728E+04 0.  0.
        1    1    3    3  502    0  0.11853101191E+04 -0.24691652081E+03 -0.47633404664E+03  0.13010849206E+04  0.50400001928E-02 0.  1.
       -1    1    3    3    0  502 -0.11853101191E+04  0.24691652081E+03  0.15661955235E+04  0.19796202324E+04  0.50400001928E-02 0. -1.
</event>
<event>
 5   0  0.1176002E-06  0.3110867E+04  0.7818609E-02  0.8212762E-01
        2   -1    0    0  501    0  0.00000000000E+00  0.00000000000E+00  0.21164439917E+04  0.21164439917E+04  0.25500000920E-02 0. -1.
       -2   -1    0    0    0  501  0.00000000000E+00  0.00000000000E+00 -0.11431311058E+04  0.11431311058E+04  0.25500000920E-02 0.  1.
    10030    2    1    2    0    0  0.00000000000E+00  0.00000000000E+00  0.97331288595E+03  0.32595750975E+04  0.31108667349E+04 0.  0.
        2    1    3    3  502    0  0.40462577761E+03 -0.15017534195E+04  0.46602755796E+03  0.16236277399E+04  0.25500000920E-02 0. -1.
       -2    1    3    3    0  502 -0.40462577761E+03  0.15017534195E+04  0.50728532799E+03  0.16359473576E+04  0.25500000920E-02 0.  1.
</event>
<event>
 5   0  0.1176002E-06  0.3099202E+04  0.7818609E-02  0.8215957E-01
       -2   -1    0    0    0  501  0.00000000000E+00  0.00000000000E+00  0.15174649825E+04  0.15174649825E+04  0.25500000920E-02 0. -1.
        2   -1    0    0  501    0  0.00000000000E+00  0.00000000000E+00 -0.15824175811E+04  0.15824175811E+04  0.25500000920E-02 0.  1.
    10030    2    1    2    0    0  0.00000000000E+00  0.00000000000E+00 -0.64952598543E+02  0.30998825636E+04  0.30992020050E+04 0.  0.
        2    1    3    3  502    0 -0.48687017125E+03 -0.14704170719E+04  0.13297688597E+02  0.15489821682E+04  0.25500000920E-02 0.  1.
       -2    1    3    3    0  502  0.48687017125E+03  0.14704170719E+04 -0.78250287140E+02  0.15509003954E+04  0.25500000920E-02 0. -1.
</event>
<event>
 5   0  0.4173905E-07  0.3099906E+04  0.7818609E-02  0.8215764E-01
        1   -1    0    0  501    0  0.00000000000E+00  0.00000000000E+00  0.11452235262E+04  0.11452235262E+04  0.50400001928E-02 0. -1.
       -1   -1    0    0    0  501  0.00000000000E+00  0.00000000000E+00 -0.20977166627E+04  0.20977166627E+04  0.50400001928E-02 0.  1.
    10030    2    1    2    0    0  0.00000000000E+00  0.00000000000E+00 -0.95249313651E+03  0.32429401890E+04  0.30999061105E+04 0.  0.
        3    1    3    3  502    0 -0.93044032830E+03  0.11941809502E+04 -0.12838745032E+03  0.15192994089E+04  0.10100000352E+00 0.  1.
       -3    1    3    3    0  502  0.93044032830E+03 -0.11941809502E+04 -0.82410568619E+03  0.17236407800E+04  0.10100000352E+00 0. -1.
</event>
<event>
 5   0  0.4330395E-07  0.3094487E+04  0.7818609E-02  0.8217253E-01
       -1   -1    0    0    0  501  0.00000000000E+00  0.00000000000E+00  0.10010427850E+04  0.10010427850E+04  0.50400001928E-02 0. -1.
        1   -1    0    0  501    0  0.00000000000E+00  0.00000000000E+00 -0.23914682588E+04  0.23914682588E+04  0.50400001928E-02 0.  1.
    10030    2    1    2    0    0  0.00000000000E+00  0.00000000000E+00 -0.13904254739E+04  0.33925110438E+04  0.30944867400E+04 0.  0.
        1    1    3    3  502    0  0.99541473431E+03  0.10382515447E+04 -0.13203442218E+04  0.19524665496E+04  0.50400001928E-02 0.  1.
       -1    1    3    3    0  502 -0.99541473431E+03 -0.10382515447E+04 -0.70081252071E+02  0.14400444942E+04  0.50400001928E-02 0. -1.
</event>
<event>
 5   0  0.4173905E-07  0.3110923E+04  0.7818609E-02  0.8212746E-01
        1   -1    0    0  501    0  0.00000000000E+00  0.00000000000E+00  0.21059800554E+04  0.21059800554E+04  0.50400001928E-02 0.  1.
       -1   -1    0    0    0  501  0.00000000000E+00  0.00000000000E+00 -0.11488528323E+04  0.11488528323E+04  0.50400001928E-02 0. -1.
    10030    2    1    2    0    0  0.00000000000E+00  0.00000000000E+00  0.95712722306E+03  0.32548328877E+04  0.31109234329E+04 0.  0.
        3    1    3    3  502    0 -0.92011988543E+03 -0.57477599131E+03  0.16447900168E+04  0.19703609449E+04  0.10100000352E+00 0.  1.
       -3    1    3    3    0  502  0.92011988543E+03  0.57477599131E+03 -0.68766279369E+03  0.12844719428E+04  0.10100000352E+00 0. -1.
</event>
<event>
 5   0  0.3902375E-07  0.3115157E+04  0.7818609E-02  0.8211591E-01
       -3   -1    0    0    0  501  0.00000000000E+00  0.00000000000E+00  0.10624464574E+04  0.10624464622E+04  0.10100000352E+00 0. -1.
        3   -1    0    0  501    0  0.00000000000E+00  0.00000000000E+00 -0.22834566875E+04  0.22834566898E+04  0.10100000352E+00 0.  1.
    10030    2    1    2    0    0  0.00000000000E+00  0.00000000000E+00 -0.12210102301E+04  0.33459031520E+04  0.31151568051E+04 0.  0.
        1    1    3    3  502    0 -0.81221969574E+03 -0.13265374906E+04 -0.69807942728E+03  0.17049098026E+04  0.50400001928E-02 0.  1.
       -1    1    3    3    0  502  0.81221969574E+03  0.13265374906E+04 -0.52293080286E+03  0.16409933494E+04  0.50400001928E-02 0. -1.
</event>
<event>
 5   0  0.4219337E-07  0.3104046E+04  0.7818609E-02  0.8214628E-01
       -1   -1    0    0    0  501  0.00000000000E+00  0.00000000000E+00  0.20856543865E+04  0.20856543865E+04  0.50400001928E-02 0. -1.
        1   -1    0    0  501    0  0.00000000000E+00  0.00000000000E+00 -0.11549256776E+04  0.11549256776E+04  0.50400001928E-02 0.  1.
    10030    2    1    2    0    0  0.00000000000E+00  0.00000000000E+00  0.93072870884E+03  0.32405800641E+04  0.31040462662E+04 0.  0.
        4    1    3    3  502    0  0.78629678512E+03 -0.12593905097E+04 -0.66824371336E+01  0.14847132242E+04  0.12699999809E+01 0.  1.
       -4    1    3    3    0  502 -0.78629678512E+03  0.12593905097E+04  0.93741114597E+03  0.17558668400E+04  0.12699999809E+01 0. -1.
</event>
<event>
 5   0  0.4219337E-07  0.3109518E+04  0.7818609E-02  0.8213131E-01
       -1   -1    0    0    0  501  0.00000000000E+00  0.00000000000E+00  0.32917897798E+04  0.32917897798E+04  0.50400001928E-02 0.  1.
        1   -1    0    0  501    0  0.00000000000E+00  0.00000000000E+00 -0.73433450535E+03  0.73433450537E+03  0.50400001928E-02 0. -1.
    10030    2    1    2    0    0  0.00000000000E+00  0.00000000000E+00  0.25574552745E+04  0.40261242852E+04  0.31095175315E+04 0.  0.
        4    1    3    3  502    0  0.11663925834E+03 -0.73109435801E+03 -0.49145678245E+03  0.88861412256E+03  0.12699999809E+01 0. -1.
       -4    1    3    3    0  502 -0.11663925834E+03  0.73109435801E+03  0.30489120569E+04  0.31375101626E+04  0.12699999809E+01 0.  1.
</event>
<event>
 5   0  0.1258262E-06  0.3145484E+04  0.7818609E-02  0.8203365E-01
        2   -1    0    0  501    0  0.00000000000E+00  0.00000000000E+00  0.13125134852E+04  0.13125134852E+04  0.25500000920E-02 0.  1.
       -2   -1    0    0    0  501  0.00000000000E+00  0.00000000000E+00 -0.18845654682E+04  0.18845654682E+04  0.25500000920E-02 0. -1.
    10030    2    1    2    0    0  0.00000000000E+00  0.00000000000E+00 -0.57205198304E+03  0.31970789534E+04  0.31454841222E+04 0.  0.
        1    1    3    3  502    0 -0.79337456338E+03  0.11866503077E+04 -0.95711009705E+03  0.17186162715E+04  0.50400001928E-02 0. -1.
       -1    1    3    3    0  502  0.79337456338E+03 -0.11866503077E+04  0.38505811401E+03  0.14784626819E+04  0.50400001928E-02 0.  1.
</event>
<event>
 5   0  0.1193123E-06  0.2978694E+04  0.7818609E-02  0.8249841E-01
        2   -1    0    0  501    0  0.00000000000E+00  0.00000000000E+00  0.19099854200E+04  0.19099854201E+04  0.25500000920E-02 0.  1.
       -2   -1    0    0    0  501  0.00000000000E+00  0.00000000000E+00 -0.11613466517E+04  0.11613466517E+04  0.25500000920E-02 0. -1.
    10030    2    1    2    0    0  0.00000000000E+00  0.00000000000E+00  0.74863876838E+03  0.30713320717E+04  0.29786944605E+04 0.  0.
        3    1    3    3  502    0 -0.32631750991E+03 -0.37656277854E+02 -0.11235301483E+04  0.11705644438E+04  0.10100000352E+00 0. -1.
       -3    1    3    3    0  502  0.32631750991E+03  0.37656277854E+02  0.18721689167E+04  0.19007676280E+04  0.10100000352E+00 0.  1.
</event>
<event>
 5   0  0.3902375E-07  0.3103935E+04  0.7818609E-02  0.8214659E-01
        3   -1    0    0  501    0  0.00000000000E+00  0.00000000000E+00  0.19132133483E+04  0.19132133510E+04  0.10100000352E+00 0. -1.
       -3   -1    0    0    0  501  0.00000000000E+00  0.00000000000E+00 -0.12589310800E+04  0.12589310841E+04  0.10100000352E+00 0.  1.
    10030    2    1    2    0    0  0.00000000000E+00  0.00000000000E+00  0.65428226826E+03  0.31721444351E+04  0.31039354101E+04 0.  0.
        2    1    3    3  502    0  0.10430566751E+04 -0.11451881083E+04  0.22921946520E+03  0.15658750251E+04  0.25500000920E-02 0.  1.
       -2    1    3    3    0  502 -0.10430566751E+04  0.11451881083E+04  0.42506280306E+03  0.16062694100E+04  0.25500000920E-02 0. -1.
</event>
<event>
 5   0  0.1176002E-06  0.3105185E+04  0.7818609E-02  0.8214316E-01
       -2   -1    0    0    0  501  0.00000000000E+00  0.00000000000E+00  0.10829355472E+04  0.10829355472E+04  0.25500000920E-02 0. -1.
        2   -1    0    0  501    0  0.00000000000E+00  0.00000000000E+00 -0.22259343574E+04  0.22259343574E+04  0.25500000920E-02 0.  1.
    10030    2    1    2    0    0  0.00000000000E+00  0.00000000000E+00 -0.11429988102E+04  0.33088699045E+04  0.31051849808E+04 0.  0.
        2    1    3    3  502    0  0.11896657128E+04  0.78626387216E+03 -0.12258026136E+04  0.18804540495E+04  0.25500000920E-02 0. -1.
       -2    1    3    3    0  502 -0.11896657128E+04 -0.78626387216E+03  0.82803803339E+02  0.14284158550E+04  0.25500000920E-02 0.  1.
</event>
<event>
 5   0  0.1237580E-06  0.3103600E+04  0.7818609E-02  0.8214751E-01
        2   -1    0    0  501    0  0.00000000000E+00  0.00000000000E+00  0.20259019104E+04  0.20259019104E+04  0.25500000920E-02 0. -1.
       -2   -1    0    0    0  501  0.00000000000E+00  0.00000000000E+00 -0.11886472349E+04  0.11886472349E+04  0.25500000920E-02 0.  1.
    10030    2    1    2    0    0  0.00000000000E+00  0.00000000000E+00  0.83725467546E+03  0.32145491453E+04  0.31035996546E+04 0.  0.
        4    1    3    3  502    0  0.63452125163E+03 -0.67112210242E+03 -0.87297198895E+03  0.12708673422E+04  0.12699999809E+01 0.  1.
       -4    1    3    3    0  502 -0.63452125163E+03  0.67112210242E+03  0.17102266644E+04  0.19436818031E+04  0.12699999809E+01 0. -1.
</event>
<event>
 5   0  0.4219337E-07  0.3099245E+04  0.7818609E-02  0.8215945E-01
        1   -1    0    0  501    0  0.00000000000E+00  0.00000000000E+00  0.13270403606E+04  0.13270403607E+04  0.50400001928E-02 0.  1.
       -1   -1    0    0    0  501  0.00000000000E+00  0.00000000000E+00 -0.18095384370E+04  0.18095384370E+04  0.50400001928E-02 0. -1.
    10030    2    1    2    0    0  0.00000000000E+00  0.00000000000E+00 -0.48249807638E+03  0.31365787977E+04  0.30992454179E+04 0.  0.
        4    1    3    3  502    0  0.25051915450E+03 -0.14998077206E+04  0.60920636487E+02  0.15218068151E+04  0.12699999809E+01 0. -1.
       -4    1    3    3    0  502 -0.25051915450E+03  0.14998077206E+04 -0.54341871287E+03  0.16147719826E+04  0.12699999809E+01 0.  1.
</event>
<event>
 5   0  0.1200286E-06  0.3119634E+04  0.7818609E-02  0.8210370E-01
       -2   -1    0    0    0  501  0.00000000000E+00  0.00000000000E+00  0.11519991764E+04  0.11519991764E+04  0.25500000920E-02 0. -1.
        2   -1    0    0  501    0  0.00000000000E+00  0.00000000000E+00 -0.21120056294E+04  0.21120056294E+04  0.25500000920E-02 0.  1.
    10030    2    1    2    0    0  0.00000000000E+00  0.00000000000E+00 -0.96000645305E+03  0.32640048058E+04  0.31196337898E+04 0.  0.
        5    1    3    3  502    0  0.72299788796E+03 -0.95462714638E+03  0.56573480202E+03  0.13244307799E+04  0.46999998093E+01 0. -1.
       -5    1    3    3    0  502 -0.72299788796E+03  0.95462714638E+03 -0.15257412551E+04  0.19395740259E+04  0.46999998093E+01 0.  1.
</event>
<event>
 5   0  0.1193123E-06  0.3100820E+04  0.7818609E-02  0.8215513E-01
        2   -1    0    0  501    0  0.00000000000E+00  0.00000000000E+00  0.20654915420E+04  0.20654915420E+04  0.25500000920E-02 0. -1.
       -2   -1    0    0    0  501  0.00000000000E+00  0.00000000000E+00 -0.11637770076E+04  0.11637770076E+04  0.25500000920E-02 0.  1.
    10030    2    1    2    0    0  0.00000000000E+00  0.00000000000E+00  0.90171453437E+03  0.32292685497E+04  0.31008202567E+04 0.  0.
        3    1    3    3  502    0  0.77976492148E+03  0.11623235478E+04  0.11453724386E+04  0.18085650102E+04  0.10100000352E+00 0. -1.
       -3    1    3    3    0  502 -0.77976492148E+03 -0.11623235478E+04 -0.24365790426E+03  0.14207035395E+04  0.10100000352E+00 0.  1.
</event>
<event>
 5   0  0.4219337E-07  0.3101488E+04  0.7818609E-02  0.8215330E-01
        1   -1    0    0  501    0  0.00000000000E+00  0.00000000000E+00  0.16203534048E+04  0.16203534048E+04  0.50400001928E-02 0. -1.
       -1   -1    0    0    0  501  0.00000000000E+00  0.00000000000E+00 -0.14841245649E+04  0.14841245649E+04  0.50400001928E-02 0.  1.
    10030    2    1    2    0    0  0.00000000000E+00  0.00000000000E+00  0.13622883987E+03  0.31044779697E+04  0.31014875733E+04 0.  0.
        4    1    3    3  502    0  0.92669437230E+03 -0.53291502742E+03  0.11926048131E+04  0.16015831977E+04  0.12699999809E+01 0. -1.
       -4    1    3    3    0  502 -0.92669437230E+03  0.53291502742E+03 -0.10563759732E+04  0.15028947720E+04  0.12699999809E+01 0.  1.
</event>
<event>
 5   0  0.4173905E-07  0.3096213E+04  0.7818609E-02  0.8216778E-01
        1   -1    0    0  501    0  0.00000000000E+00  0.00000000000E+00  0.26583680523E+04  0.26583680523E+04  0.50400001928E-02 0. -1.
       -1   -1    0    0    0  501  0.00000000000E+00  0.00000000000E+00 -0.90154316321E+03  0.90154316322E+03  0.50400001928E-02 0.  1.
    10030    2    1    2    0    0  0.00000000000E+00  0.00000000000E+00  0.17568248891E+04  0.35599112155E+04  0.30962128757E+04 0.  0.
        3    1    3    3  502    0  0.79733644416E+02 -0.42632920779E+03 -0.83026061525E+03  0.93672127493E+03  0.10100000352E+00 0.  1.
       -3    1    3    3    0  502 -0.79733644416E+02  0.42632920779E+03  0.25870855044E+04  0.26231899406E+04  0.10100000352E+00 0. -1.
</event>
<event>
 5   0  0.1237580E-06  0.3142948E+04  0.7818609E-02  0.8204049E-01
       -2   -1    0    0    0  501  0.00000000000E+00  0.00000000000E+00  0.15762296318E+04  0.15762296319E+04  0.25500000920E-02 0. -1.
        2   -1    0    0  501    0  0.00000000000E+00  0.00000000000E+00 -0.15667331126E+04  0.15667331126E+04  0.25500000920E-02 0.  1.
    10030    2    1    2    0    0  0.00000000000E+00  0.00000000000E+00  0.94965192694E+01  0.31429627444E+04  0.31429483974E+04 0.  0.
        4    1    3    3  502    0 -0.88814444611E+02 -0.12318750768E+04 -0.96691729675E+03  0.15685454670E+04  0.12699999809E+01 0.  1.
       -4    1    3    3    0  502  0.88814444611E+02  0.12318750768E+04  0.97641381602E+03  0.15744172774E+04  0.12699999809E+01 0. -1.
</event>
<event>
 5   0  0.1193123E-06  0.3094221E+04  0.7818609E-02  0.8217326E-01
       -2   -1    0    0    0  501  0.00000000000E+00  0.00000000000E+00  0.20375421883E+04  0.20375421883E+04  0.25500000920E-02 0.  1.
        2   -1    0    0  501    0  0.00000000000E+00  0.00000000000E+00 -0.11747248682E+04  0.11747248682E+04  0.25500000920E-02 0. -1.
    10030    2    1    2    0    0  0.00000000000E+00  0.00000000000E+00  0.86281732006E+03  0.32122670565E+04  0.30942213745E+04 0.  0.
        3    1    3    3  502    0 -0.40339346265E+03 -0.85673712960E+03 -0.83871503688E+03  0.12649773588E+04  0.10100000352E+00 0. -1.
       -3    1    3    3    0  502  0.40339346265E+03  0.85673712960E+03  0.17015323569E+04  0.19472896977E+04  0.10100000352E+00 0.  1.
</event>
<event>
 5   0  0.1176002E-06  0.3091442E+04  0.7818609E-02  0.8218090E-01
        2   -1    0    0  501    0  0.00000000000E+00  0.00000000000E+00  0.21309441953E+04  0.21309441953E+04  0.25500000920E-02 0.  1.
       -2   -1    0    0    0  501  0.00000000000E+00  0.00000000000E+00 -0.11212184245E+04  0.11212184245E+04  0.25500000920E-02 0. -1.
    10030    2    1    2    0    0  0.00000000000E+00  0.00000000000E+00  0.10097257708E+04  0.32521626198E+04  0.30914423128E+04 0.  0.
        2    1    3    3  502    0  0.26817978096E+03  0.30802826893E+03 -0.10634304976E+04  0.11391603191E+04  0.25500000920E-02 0. -1.
       -2    1    3    3    0  502 -0.26817978096E+03 -0.30802826893E+03  0.20731562684E+04  0.21130023007E+04  0.25500000920E-02 0.  1.
</event>
<event>
 5   0  0.1176002E-06  0.3116982E+04  0.7818609E-02  0.8211093E-01
        2   -1    0    0  501    0  0.00000000000E+00  0.00000000000E+00  0.21439519984E+04  0.21439519984E+04  0.25500000920E-02 0.  1.
       -2   -1    0    0    0  501  0.00000000000E+00  0.00000000000E+00 -0.11329049705E+04  0.11329049705E+04  0.25500000920E-02 0. -1.
    10030    2    1    2    0    0  0.00000000000E+00  0.00000000000E+00  0.10110470279E+04  0.32768569689E+04  0.31169817937E+04 0.  0.
        2    1    3    3  502    0 -0.28271754009E+03 -0.11611775063E+04  0.15571470511E+04  0.19628982010E+04  0.25500000920E-02 0.  1.
       -2    1    3    3    0  502  0.28271754009E+03  0.11611775063E+04 -0.54610002314E+03  0.13139587680E+04  0.25500000920E-02 0. -1.
</event>
<event>
 5   0  0.1237580E-06  0.3100225E+04  0.7818609E-02  0.8215676E-01
       -2   -1    0    0    0  501  0.00000000000E+00  0.00000000000E+00  0.15829130802E+04  0.15829130802E+04  0.25500000920E-02 0.  1.
        2   -1    0    0  501    0  0.00000000000E+00  0.00000000000E+00 -0.15179920909E+04  0.15179920909E+04  0.25500000920E-02 0. -1.
    10030    2    1    2    0    0  0.00000000000E+00  0.00000000000E+00  0.64920989343E+02  0.31009051711E+04  0.31002254991E+04 0.  0.
        4    1    3    3  502    0 -0.10077415453E+04 -0.54692622377E+03  0.10758462277E+04  0.15722970569E+04  0.12699999809E+01 0.  1.
       -4    1    3    3    0  502  0.10077415453E+04  0.54692622377E+03 -0.10109252384E+04  0.15286081143E+04  0.12699999809E+01 0. -1.
</event>
<event>
 5   0  0.1200286E-06  0.2887298E+04  0.7818609E-02  0.8276667E-01
        2   -1    0    0  501    0  0.00000000000E+00  0.00000000000E+00  0.21907605659E+04  0.21907605659E+04  0.25500000920E-02 0.  1.
       -2   -1    0    0    0  501  0.00000000000E+00  0.00000000000E+00 -0.95132402087E+03  0.95132402087E+03  0.25500000920E-02 0. -1.
    10030    2    1    2    0    0  0.00000000000E+00  0.00000000000E+00  0.12394365450E+04  0.31420845867E+04  0.28872984953E+04 0.  0.
        5    1    3    3  502    0  0.80065151034E+03  0.87641937351E+03 -0.27433031278E+03  0.12183730832E+04  0.46999998093E+01 0. -1.
       -5    1    3    3    0  502 -0.80065151034E+03 -0.87641937351E+03  0.15137668578E+04  0.19237115036E+04  0.46999998093E+01 0.  1.
</event>
<event>
 5   0  0.1200286E-06  0.3098735E+04  0.7818609E-02  0.8216085E-01
       -2   -1    0    0    0  501  0.00000000000E+00  0.00000000000E+00  0.14035884127E+04  0.14035884127E+04  0.25500000920E-02 0.  1.
        2   -1    0    0  501    0  0.00000000000E+00  0.00000000000E+00 -0.17102877763E+04  0.17102877763E+04  0.25500000920E-02 0. -1.
    10030    2    1    2    0    0  0.00000000000E+00  0.00000000000E+00 -0.30669936362E+03  0.31138761891E+04  0.30987352938E+04 0.  0.
        5    1    3    3  502    0  0.27180432905E+03 -0.86919161025E+03  0.11062286606E+04  0.14328766828E+04  0.46999998093E+01 0.  1.
       -5    1    3    3    0  502 -0.27180432905E+03  0.86919161025E+03 -0.14129280242E+04  0.16809995063E+04  0.46999998093E+01 0. -1.
</event>
<event>
 5   0  0.1193123E-06  0.3090835E+04  0.7818609E-02  0.8218258E-01
       -2   -1    0    0    0  501  0.00000000000E+00  0.00000000000E+00  0.13396178663E+04  0.13396178663E+04  0.25500000920E-02 0. -1.
        2   -1    0    0  501    0  0.00000000000E+00  0.00000000000E+00 -0.17828333937E+04  0.17828333937E+04  0.25500000920E-02 0.  1.
    10030    2    1    2    0    0  0.00000000000E+00  0.00000000000E+00 -0.44321552743E+03  0.31224512601E+04  0.30908351408E+04 0.  0.
        3    1    3    3  502    0  0.82686530021E+03 -0.99505964689E+03 -0.10755145547E+04  0.16824332061E+04  0.10100000352E+00 0.  1.
       -3    1    3    3    0  502 -0.82686530021E+03  0.99505964689E+03  0.63229902726E+03  0.14400180539E+04  0.10100000352E+00 0. -1.
</event>
<event>
 5   0  0.4330395E-07  0.3121702E+04  0.7818609E-02  0.8209807E-01
        1   -1    0    0  501    0  0.00000000000E+00  0.00000000000E+00  0.19306368262E+04  0.19306368262E+04  0.50400001928E-02 0.  1.
       -1   -1    0    0    0  501  0.00000000000E+00  0.00000000000E+00 -0.12618921555E+04  0.12618921555E+04  0.50400001928E-02 0. -1.
    10030    2    1    2    0    0  0.00000000000E+00  0.00000000000E+00  0.66874467070E+03  0.31925289817E+04  0.31217017578E+04 0.  0.
        1    1    3    3  502    0  0.11453977533E+04 -0.10586446423E+04  0.27308798605E+03  0.15834271502E+04  0.50400001928E-02 0.  1.
       -1    1    3    3    0  502 -0.11453977533E+04  0.10586446423E+04  0.39565668465E+03  0.16091018315E+04  0.50400001928E-02 0. -1.
</event>
<event>
 5   0  0.4330395E-07  0.3106431E+04  0.7818609E-02  0.8213975E-01
        1   -1    0    0  501    0  0.00000000000E+00  0.00000000000E+00  0.20707566405E+04  0.20707566405E+04  0.50400001928E-02 0. -1.
       -1   -1    0    0    0  501  0.00000000000E+00  0.00000000000E+00 -0.11650226983E+04  0.11650226983E+04  0.50400001928E-02 0.  1.
    10030    2    1    2    0    0  0.00000000000E+00  0.00000000000E+00  0.90573394226E+03  0.32357793388E+04  0.31064310640E+04 0.  0.
        1    1    3    3  502    0  0.89461344883E+03 -0.26930778081E+03  0.17453467275E+04  0.19796704531E+04  0.50400001928E-02 0. -1.
       -1    1    3    3    0  502 -0.89461344883E+03  0.26930778081E+03 -0.83961278523E+03  0.12561088857E+04  0.50400001928E-02 0.  1.
</event>
<event>
 5   0  0.1176002E-06  0.3080606E+04  0.7818609E-02  0.8221081E-01
       -2   -1    0    0    0  501  0.00000000000E+00  0.00000000000E+00  0.11709560947E+04  0.11709560947E+04  0.25500000920E-02 0. -1.
        2   -1    0    0  501    0  0.00000000000E+00  0.00000000000E+00 -0.20261500355E+04  0.20261500355E+04  0.25500000920E-02 0.  1.
    10030    2    1    2    0    0  0.00000000000E+00  0.00000000000E+00 -0.85519394079E+03  0.31971061303E+04  0.30806056112E+04 0.  0.
        2    1    3    3  502    0  0.85767494675E+03  0.86045027639E+03 -0.14102690803E+04  0.18614080346E+04  0.25500000920E-02 0.  1.
       -2    1    3    3    0  502 -0.85767494675E+03 -0.86045027639E+03  0.55507513946E+03  0.13356980957E+04  0.25500000920E-02 0. -1.
</event>
<event>
 5   0  0.1237580E-06  0.3098937E+04  0.7818609E-02  0.8216030E-01
        2   -1    0    0  501    0  0.00000000000E+00  0.00000000000E+00  0.22581959924E+04  0.22581959924E+04  0.25500000920E-02 0.  1.
       -2   -1    0    0    0  501  0.00000000000E+00  0.00000000000E+00 -0.10631730255E+04  0.10631730255E+04  0.25500000920E-02 0. -1.
    10030    2    1    2    0    0  0.00000000000E+00  0.00000000000E+00  0.11950229669E+04  0.33213690179E+04  0.30989372794E+04 0.  0.
        4    1    3    3  502    0 -0.10148319354E+04 -0.10302685221E+04  0.11937839429E+04  0.18752223335E+04  0.12699999809E+01 0.  1.
       -4    1    3    3    0  502  0.10148319354E+04  0.10302685221E+04  0.12390239218E+01  0.14461466844E+04  0.12699999809E+01 0. -1.
</event>
<event>
 5   0  0.3935852E-07  0.3092427E+04  0.7818609E-02  0.8217819E-01
        1   -1    0    0  501    0  0.00000000000E+00  0.00000000000E+00  0.16644877179E+04  0.16644877179E+04  0.50400001928E-02 0. -1.
       -1   -1    0    0    0  501  0.00000000000E+00  0.00000000000E+00 -0.14363434511E+04  0.14363434511E+04  0.50400001928E-02 0.  1.
    10030    2    1    2    0    0  0.00000000000E+00  0.00000000000E+00  0.22814426688E+03  0.31008311690E+04  0.30924269000E+04 0.  0.
        5    1    3    3  502    0  0.35848640759E+03 -0.13661909235E+04  0.74487943493E+03  0.15968273565E+04  0.46999998093E+01 0. -1.
       -5    1    3    3    0  502 -0.35848640759E+03  0.13661909235E+04 -0.51673516805E+03  0.15040038125E+04  0.46999998093E+01 0.  1.
</event>
<event>
 5   0  0.1258262E-06  0.3095667E+04  0.7818609E-02  0.8216928E-01
       -2   -1    0    0    0  501  0.00000000000E+00  0.00000000000E+00  0.19101750716E+04  0.19101750716E+04  0.25500000920E-02 0. -1.
        2   -1    0    0  501    0  0.00000000000E+00  0.00000000000E+00 -0.12542244526E+04  0.12542244526E+04  0.25500000920E-02 0.  1.
    10030    2    1    2    0    0  0.00000000000E+00  0.00000000000E+00  0.65595061896E+03  0.31643995242E+04  0.30956668319E+04 0.  0.
        1    1    3    3  502    0 -0.20959861650E+03 -0.15228848092E+04  0.51276109552E+03  0.16205041386E+04  0.50400001928E-02 0. -1.
       -1    1    3    3    0  502  0.20959861650E+03  0.15228848092E+04  0.14318952344E+03  0.15438953856E+04  0.50400001928E-02 0.  1.
</event>
<event>
 5   0  0.3935852E-07  0.3105163E+04  0.7818609E-02  0.8214323E-01
       -1   -1    0    0    0  501  0.00000000000E+00  0.00000000000E+00  0.11301281424E+04  0.11301281425E+04  0.50400001928E-02 0.  1.
        1   -1    0    0  501    0  0.00000000000E+00  0.00000000000E+00 -0.21329516835E+04  0.21329516835E+04  0.50400001928E-02 0. -1.
    10030    2    1    2    0    0  0.00000000000E+00  0.00000000000E+00 -0.10028235411E+04  0.32630798260E+04  0.31051626199E+04 0.  0.
        5    1    3    3  502    0  0.38318552835E+03  0.14659691841E+04 -0.85713841694E+03  0.17408633357E+04  0.46999998093E+01 0.  1.
       -5    1    3    3    0  502 -0.38318552835E+03 -0.14659691841E+04 -0.14568512414E+03  0.15222164903E+04  0.46999998093E+01 0. -1.
</event>
<event>
 5   0  0.4219337E-07  0.3099589E+04  0.7818609E-02  0.8215851E-01
        1   -1    0    0  501    0  0.00000000000E+00  0.00000000000E+00  0.12457856601E+04  0.12457856601E+04  0.50400001928E-02 0.  1.
       -1   -1    0    0    0  501  0.00000000000E+00  0.00000000000E+00 -0.19279909484E+04  0.19279909484E+04  0.50400001928E-02 0. -1.
    10030    2    1    2    0    0  0.00000000000E+00  0.00000000000E+00 -0.68220528833E+03  0.31737766084E+04  0.30995893123E+04 0.  0.
        4    1    3    3  502    0 -0.42442366343E+03  0.88820223436E+03  0.88455309713E+03  0.13234328278E+04  0.12699999809E+01 0.  1.
       -4    1    3    3    0  502  0.42442366343E+03 -0.88820223436E+03 -0.15667583855E+04  0.18503437806E+04  0.12699999809E+01 0. -1.
</event>
<event>
 5   0  0.4330395E-07  0.3099459E+04  0.7818609E-02  0.8215886E-01
        1   -1    0    0  501    0  0.00000000000E+00  0.00000000000E+00  0.16685065414E+04  0.16685065414E+04  0.50400001928E-02 0. -1.
       -1   -1    0    0    0  501  0.00000000000E+00  0.00000000000E+00 -0.14394076199E+04  0.14394076200E+04  0.50400001928E-02 0.  1.
    10030    2    1    2    0    0  0.00000000000E+00  0.00000000000E+00  0.22909892148E+03  0.31079141614E+04  0.30994586816E+04 0.  0.
        1    1    3    3  502    0  0.21484232527E+03  0.11546133434E+04  0.11284319021E+04  0.16286951081E+04  0.50400001928E-02 0. -1.
       -1    1    3    3    0  502 -0.21484232527E+03 -0.11546133434E+04 -0.89933298061E+03  0.14792190533E+04  0.50400001928E-02 0.  1.
</event>
<event>
 5   0  0.4330395E-07  0.3117375E+04  0.7818609E-02  0.8210986E-01
       -1   -1    0    0    0  501  0.00000000000E+00  0.00000000000E+00  0.15052467821E+04  0.15052467821E+04  0.50400001928E-02 0. -1.
        1   -1    0    0  501    0  0.00000000000E+00  0.00000000000E+00 -0.16140250732E+04  0.16140250732E+04  0.50400001928E-02 0.  1.
    10030    2    1    2    0    0  0.00000000000E+00  0.00000000000E+00 -0.10877829109E+03  0.31192718553E+04  0.31173745669E+04 0.  0.
        1    1    3    3  502    0  0.46156188253E+03 -0.59056015134E+03  0.13130827963E+04  0.15119481121E+04  0.50400001928E-02 0. -1.
       -1    1    3    3    0  502 -0.46156188253E+03  0.59056015134E+03 -0.14218610873E+04  0.16073237432E+04  0.50400001928E-02 0.  1.
</event>
<event>
 5   0  0.4330395E-07  0.2938848E+04  0.7818609E-02  0.8261412E-01
        1   -1    0    0  501    0  0.00000000000E+00  0.00000000000E+00  0.19137398224E+04  0.19137398224E+04  0.50400001928E-02 0.  1.
       -1   -1    0    0    0  501  0.00000000000E+00  0.00000000000E+00 -0.11282653906E+04  0.11282653906E+04  0.50400001928E-02 0. -1.
    10030    2    1    2    0    0  0.00000000000E+00  0.00000000000E+00  0.78547443176E+03  0.30420052130E+04  0.29388476709E+04 0.  0.
        1    1    3    3  502    0  0.56514076421E+03 -0.11068322220E+03  0.17920669817E+04  0.18823227476E+04  0.50400001928E-02 0.  1.
       -1    1    3    3    0  502 -0.56514076421E+03  0.11068322220E+03 -0.10065925499E+04  0.11596824654E+04  0.50400001928E-02 0. -1.
</event>
<event>
 5   0  0.4134019E-07  0.3099253E+04  0.7818609E-02  0.8215943E-01
        1   -1    0    0  501    0  0.00000000000E+00  0.00000000000E+00  0.15734563430E+04  0.15734563430E+04  0.50400001928E-02 0. -1.
       -1   -1    0    0    0  501  0.00000000000E+00  0.00000000000E+00 -0.15261576163E+04  0.15261576163E+04  0.50400001928E-02 0.  1.
    10030    2    1    2    0    0  0.00000000000E+00  0.00000000000E+00  0.47298726685E+02  0.30996139594E+04  0.30992530596E+04 0.  0.
        2    1    3    3  502    0  0.14949691612E+04 -0.17614526121E+03  0.39163573205E+03  0.15554222876E+04  0.25500000920E-02 0. -1.
       -2    1    3    3    0  502 -0.14949691612E+04  0.17614526121E+03 -0.34433700536E+03  0.15441916718E+04  0.25500000920E-02 0.  1.
</event>
<event>
 5   0  0.3935852E-07  0.3084081E+04  0.7818609E-02  0.8220120E-01
       -1   -1    0    0    0  501  0.00000000000E+00  0.00000000000E+00  0.12731267512E+04  0.12731267512E+04  0.50400001928E-02 0.  1.
        1   -1    0    0  501    0  0.00000000000E+00  0.00000000000E+00 -0.18677555478E+04  0.18677555478E+04  0.50400001928E-02 0. -1.
    10030    2    1    2    0    0  0.00000000000E+00  0.00000000000E+00 -0.59462879656E+03  0.31408822990E+04  0.30840814208E+04 0.  0.
        5    1    3    3  502    0 -0.12575209475E+04 -0.73877865333E+03 -0.80725039022E+03  0.16669817379E+04  0.46999998093E+01 0. -1.
       -5    1    3    3    0  502  0.12575209475E+04  0.73877865333E+03  0.21262159366E+03  0.14739005611E+04  0.46999998093E+01 0.  1.
</event>
<event>
 5   0  0.1193123E-06  0.3095442E+04  0.7818609E-02  0.8216990E-01
        2   -1    0    0  501    0  0.00000000000E+00  0.00000000000E+00  0.23298238575E+04  0.23298238575E+04  0.25500000920E-02 0.  1.
       -2   -1    0    0    0  501  0.00000000000E+00  0.00000000000E+00 -0.10281638542E+04  0.10281638542E+04  0.25500000920E-02 0. -1.
    10030    2    1    2    0    0  0.00000000000E+00  0.00000000000E+00  0.13016600033E+04  0.33579877117E+04  0.30954422475E+04 0.  0.
        3    1    3    3  502    0  0.35509178970E+02 -0.14258074629E+04  0.13028516780E+04  0.19317376448E+04  0.10100000352E+00 0.  1.
       -3    1    3    3    0  502 -0.35509178970E+02  0.14258074629E+04 -0.11916746880E+01  0.14262500670E+04  0.10100000352E+00 0. -1.
</event>
<event>
 5   0  0.4173905E-07  0.3100873E+04  0.7818609E-02  0.8215498E-01
       -1   -1    0    0    0  501  0.00000000000E+00  0.00000000000E+00  0.21792603639E+04  0.21792603639E+04  0.50400001928E-02 0.  1.
        1   -1    0    0  501    0  0.00000000000E+00  0.00000000000E+00 -0.11030596133E+04  0.11030596133E+04  0.50400001928E-02 0. -1.
    10030    2    1    2    0    0  0.00000000000E+00  0.00000000000E+00  0.10762007506E+04  0.32823199772E+04  0.31008734861E+04 0.  0.
        3    1    3    3  502    0  0.23246794406E+03  0.29044254340E+03  0.21313164206E+04  0.21635405961E+04  0.10100000352E+00 0.  1.
       -3    1    3    3    0  502 -0.23246794406E+03 -0.29044254340E+03 -0.10551156701E+04  0.11187793810E+04  0.10100000352E+00 0. -1.
</event>
<event>
 5   0  0.4134019E-07  0.3089750E+04  0.7818609E-02  0.8218556E-01
        1   -1    0    0  501    0  0.00000000000E+00  0.00000000000E+00  0.19953739252E+04  0.19953739252E+04  0.50400001928E-02 0. -1.
       -1   -1    0    0    0  501  0.00000000000E+00  0.00000000000E+00 -0.11960862554E+04  0.11960862554E+04  0.50400001928E-02 0.  1.
    10030    2    1    2    0    0  0.00000000000E+00  0.00000000000E+00  0.79928766987E+03  0.31914601806E+04  0.30897503630E+04 0.  0.
        2    1    3    3  502    0  0.11675336640E+04  0.10483764686E+03 -0.63971726270E+03  0.13354265105E+04  0.25500000920E-02 0.  1.
       -2    1    3    3    0  502 -0.11675336640E+04 -0.10483764686E+03  0.14390049326E+04  0.18560336701E+04  0.25500000920E-02 0. -1.
</event>
<event>
 5   0  0.1200286E-06  0.3089539E+04  0.7818609E-02  0.8218615E-01
        2   -1    0    0  501    0  0.00000000000E+00  0.00000000000E+00  0.16180346447E+04  0.16180346447E+04  0.25500000920E-02 0.  1.
       -2   -1    0    0    0  501  0.00000000000E+00  0.00000000000E+00 -0.14748217692E+04  0.14748217692E+04  0.25500000920E-02 0. -1.
    10030    2    1    2    0    0  0.00000000000E+00  0.00000000000E+00  0.14321287551E+03  0.30928564139E+04  0.30895389412E+04 0.  0.
        5    1    3    3  502    0  0.46640715052E+03 -0.47870305737E+03  0.14657965269E+04  0.16109853493E+04  0.46999998093E+01 0.  1.
       -5    1    3    3    0  502 -0.46640715052E+03  0.47870305737E+03 -0.13225836514E+04  0.14818710646E+04  0.46999998093E+01 0. -1.
</event>
<event>
 5   0  0.1193123E-06  0.3102950E+04  0.7818609E-02  0.8214929E-01
        2   -1    0    0  501    0  0.00000000000E+00  0.00000000000E+00  0.17249925134E+04  0.17249925134E+04  0.25500000920E-02 0.  1.
       -2   -1    0    0    0  501  0.00000000000E+00  0.00000000000E+00 -0.13954114409E+04  0.13954114409E+04  0.25500000920E-02 0. -1.
    10030    2    1    2    0    0  0.00000000000E+00  0.00000000000E+00  0.32958107250E+03  0.31204039544E+04  0.31029497507E+04 0.  0.
        3    1    3    3  502    0 -0.19827066415E+03  0.10039407886E+04  0.13374829648E+04  0.16840632573E+04  0.10100000352E+00 0.  1.
       -3    1    3    3    0  502  0.19827066415E+03 -0.10039407886E+04 -0.10079018923E+04  0.14363406971E+04  0.10100000352E+00 0. -1.
</event>
<event>
 5   0  0.4330395E-07  0.3096505E+04  0.7818609E-02  0.8216698E-01
        1   -1    0    0  501    0  0.00000000000E+00  0.00000000000E+00  0.22184058183E+04  0.22184058183E+04  0.50400001928E-02 0.  1.
       -1   -1    0    0    0  501  0.00000000000E+00  0.00000000000E+00 -0.10805444618E+04  0.10805444618E+04  0.50400001928E-02 0. -1.
    10030    2    1    2    0    0  0.00000000000E+00  0.00000000000E+00  0.11378613565E+04  0.32989502801E+04  0.30965052049E+04 0.  0.
        1    1    3    3  502    0  0.11019054253E+04  0.66913793699E+03 -0.34453125260E+03  0.13344073325E+04  0.50400001928E-02 0. -1.
       -1    1    3    3    0  502 -0.11019054253E+04 -0.66913793699E+03  0.14823926091E+04  0.19645429475E+04  0.50400001928E-02 0.  1.
</event>
<event>
 5   0  0.1237580E-06  0.3097547E+04  0.7818609E-02  0.8216411E-01
        2   -1    0    0  501    0  0.00000000000E+00  0.00000000000E+00  0.15567904714E+04  0.15567904714E+04  0.25500000920E-02 0. -1.
       -2   -1    0    0    0  501  0.00000000000E+00  0.00000000000E+00 -0.15407977595E+04  0.15407977595E+04  0.25500000920E-02 0.  1.
    10030    2    1    2    0    0  0.00000000000E+00  0.00000000000E+00  0.15992711886E+02  0.30975882309E+04  0.30975469458E+04 0.  0.
        4    1    3    3  502    0 -0.50378406010E+03 -0.93278621721E+02  0.14695897745E+04  0.15563402580E+04  0.12699999809E+01 0. -1.
       -4    1    3    3    0  502  0.50378406010E+03  0.93278621721E+02 -0.14535970626E+04  0.15412479729E+04  0.12699999809E+01 0.  1.
</event>
<event>
 5   0  0.1258262E-06  0.3093375E+04  0.7818609E-02  0.8217559E-01
       -2   -1    0    0    0  501  0.00000000000E+00  0.00000000000E+00  0.14877013304E+04  0.14877013304E+04  0.25500000920E-02 0. -1.
        2   -1    0    0  501    0  0.00000000000E+00  0.00000000000E+00 -0.16080120721E+04  0.16080120721E+04  0.25500000920E-02 0.  1.
    10030    2    1    2    0    0  0.00000000000E+00  0.00000000000E+00 -0.12031074168E+03  0.30957134024E+04  0.30933746614E+04 0.  0.
        1    1    3    3  502    0  0.40537599256E+03 -0.52325701936E+03  0.13387978171E+04  0.14934882653E+04  0.50400001928E-02 0. -1.
       -1    1    3    3    0  502 -0.40537599256E+03  0.52325701936E+03 -0.14591085588E+04  0.16022251371E+04  0.50400001928E-02 0.  1.
</event>
<event>
 5   0  0.1193123E-06  0.3079015E+04  0.7818609E-02  0.8221521E-01
       -2   -1    0    0    0  501  0.00000000000E+00  0.00000000000E+00  0.12975068335E+04  0.12975068335E+04  0.25500000920E-02 0. -1.
        2   -1    0    0  501    0  0.00000000000E+00  0.00000000000E+00 -0.18266445653E+04  0.18266445653E+04  0.25500000920E-02 0.  1.
    10030    2    1    2    0    0  0.00000000000E+00  0.00000000000E+00 -0.52913773179E+03  0.31241513987E+04  0.30790153009E+04 0.  0.
        3    1    3    3  502    0  0.81329961619E+03 -0.63573317067E+03 -0.14234460613E+04  0.17583548076E+04  0.10100000352E+00 0.  1.
       -3    1    3    3    0  502 -0.81329961619E+03  0.63573317067E+03  0.89430832946E+03  0.13657965911E+04  0.10100000352E+00 0. -1.
</event>
<event>
 5   0  0.3935852E-07  0.3066829E+04  0.7818609E-02  0.8224901E-01
       -1   -1    0    0    0  501  0.00000000000E+00  0.00000000000E+00  0.17973999994E+04  0.17973999994E+04  0.50400001928E-02 0.  1.
        1   -1    0    0  501    0  0.00000000000E+00  0.00000000000E+00 -0.13082011702E+04  0.13082011702E+04  0.50400001928E-02 0. -1.
    10030    2    1    2    0    0  0.00000000000E+00  0.00000000000E+00  0.48919882919E+03  0.31056011696E+04  0.30668294915E+04 0.  0.
        5    1    3    3  502    0 -0.31834182175E+03 -0.12986924460E+04 -0.51548632821E+03  0.14330707692E+04  0.46999998093E+01 0. -1.
       -5    1    3    3    0  502  0.31834182175E+03  0.12986924460E+04  0.10046851574E+04  0.16725304004E+04  0.46999998093E+01 0.  1.
</event>
<event>
 5   0  0.4134019E-07  0.3109377E+04  0.7818609E-02  0.8213169E-01
       -1   -1    0    0    0  501  0.00000000000E+00  0.00000000000E+00  0.91378353782E+03  0.91378353783E+03  0.50400001928E-02 0. -1.
        1   -1    0    0  501    0  0.00000000000E+00  0.00000000000E+00 -0.26451090463E+04  0.26451090463E+04  0.50400001928E-02 0.  1.
    10030    2    1    2    0    0  0.00000000000E+00  0.00000000000E+00 -0.17313255085E+04  0.35588925841E+04  0.31093774954E+04 0.  0.
        2    1    3    3  502    0 -0.11462202123E+04 -0.72561693341E+03 -0.17348684778E+04  0.22022963798E+04  0.25500000920E-02 0.  1.
       -2    1    3    3    0  502  0.11462202123E+04  0.72561693341E+03  0.35429693458E+01  0.13565962044E+04  0.25500000920E-02 0. -1.
</event>
<event>
 5   0  0.4173905E-07  0.3040898E+04  0.7818609E-02  0.8232148E-01
        1   -1    0    0  501    0  0.00000000000E+00  0.00000000000E+00  0.94128192521E+03  0.94128192522E+03  0.50400001928E-02 0.  1.
       -1   -1    0    0    0  501  0.00000000000E+00  0.00000000000E+00 -0.24559756764E+04  0.24559756764E+04  0.50400001928E-02 0. -1.
    10030    2    1    2    0    0  0.00000000000E+00  0.00000000000E+00 -0.15146937512E+04  0.33972576016E+04  0.30408982311E+04 0.  0.
        3    1    3    3  502    0  0.13499849763E+04  0.69474210294E+03 -0.66631499320E+03  0.16580415273E+04  0.10100000352E+00 0.  1.
       -3    1    3    3    0  502 -0.13499849763E+04 -0.69474210294E+03 -0.84837875802E+03  0.17392160743E+04  0.10100000352E+00 0. -1.
</event>
<event>
 5   0  0.1176002E-06  0.3090654E+04  0.7818609E-02  0.8218308E-01
       -2   -1    0    0    0  501  0.00000000000E+00  0.00000000000E+00  0.11987687279E+04  0.11987687279E+04  0.25500000920E-02 0.  1.
        2   -1    0    0  501    0  0.00000000000E+00  0.00000000000E+00 -0.19920730632E+04  0.19920730632E+04  0.25500000920E-02 0. -1.
    10030    2    1    2    0    0  0.00000000000E+00  0.00000000000E+00 -0.79330433534E+03  0.31908417910E+04  0.30906535825E+04 0.  0.
        2    1    3    3  502    0  0.45812317200E+03 -0.12887506771E+03 -0.19145324213E+04  0.19727949756E+04  0.25500000920E-02 0. -1.
       -2    1    3    3    0  502 -0.45812317200E+03  0.12887506771E+03  0.11212280859E+04  0.12180468154E+04  0.25500000920E-02 0.  1.
</event>
<event>
 5   0  0.1237580E-06  0.3268861E+04  0.7818609E-02  0.8170864E-01
        2   -1    0    0  501    0  0.00000000000E+00  0.00000000000E+00  0.23330742683E+04  0.23330742683E+04  0.25500000920E-02 0. -1.
       -2   -1    0    0    0  501  0.00000000000E+00  0.00000000000E+00 -0.11449972823E+04  0.11449972823E+04  0.25500000920E-02 0.  1.
    10030    2    1    2    0    0  0.00000000000E+00  0.00000000000E+00  0.11880769860E+04  0.34780715505E+04  0.32688613898E+04 0.  0.
        4    1    3    3  502    0  0.90846187597E+03 -0.36917274870E+03  0.19853069124E+04  0.22142801647E+04  0.12699999809E+01 0. -1.
       -4    1    3    3    0  502 -0.90846187597E+03  0.36917274870E+03 -0.79722992640E+03  0.12637913858E+04  0.12699999809E+01 0.  1.
</event>
<event>
 5   0  0.4134019E-07  0.3102328E+04  0.7818609E-02  0.8215099E-01
       -1   -1    0    0    0  501  0.00000000000E+00  0.00000000000E+00  0.15839268598E+04  0.15839268598E+04  0.50400001928E-02 0.  1.
        1   -1    0    0  501    0  0.00000000000E+00  0.00000000000E+00 -0.15190790989E+04  0.15190790989E+04  0.50400001928E-02 0. -1.
    10030    2    1    2    0    0  0.00000000000E+00  0.00000000000E+00  0.64847760906E+02  0.31030059587E+04  0.31023282785E+04 0.  0.
        2    1    3    3  502    0  0.41676103693E+03  0.12920797214E+04 -0.71804023589E+03  0.15358195040E+04  0.25500000920E-02 0. -1.
       -2    1    3    3    0  502 -0.41676103693E+03 -0.12920797214E+04  0.78288799680E+03  0.15671864547E+04  0.25500000920E-02 0.  1.
</event>
<event>
 5   0  0.3935852E-07  0.3105990E+04  0.7818609E-02  0.8214096E-01
       -1   -1    0    0    0  501  0.00000000000E+00  0.00000000000E+00  0.10435617888E+04  0.10435617888E+04  0.50400001928E-02 0.  1.
        1   -1    0    0  501    0  0.00000000000E+00  0.00000000000E+00 -0.23111163398E+04  0.23111163398E+04  0.50400001928E-02 0. -1.
    10030    2    1    2    0    0  0.00000000000E+00  0.00000000000E+00 -0.12675545510E+04  0.33546781286E+04  0.31059895053E+04 0.  0.
        5    1    3    3  502    0  0.45667090673E+03  0.30131333311E+03 -0.22035699595E+04  0.22704802792E+04  0.46999998093E+01 0. -1.
       -5    1    3    3    0  502 -0.45667090673E+03 -0.30131333311E+03  0.93601540851E+03  0.10841978494E+04  0.46999998093E+01 0.  1.
</event>
<event>
 5   0  0.4134019E-07  0.3094525E+04  0.7818609E-02  0.8217242E-01
        1   -1    0    0  501    0  0.00000000000E+00  0.00000000000E+00  0.18514099441E+04  0.18514099442E+04  0.50400001928E-02 0. -1.
       -1   -1    0    0    0  501  0.00000000000E+00  0.00000000000E+00 -0.12930801304E+04  0.12930801304E+04  0.50400001928E-02 0.  1.
    10030    2    1    2    0    0  0.00000000000E+00  0.00000000000E+00  0.55832981373E+03  0.31444900746E+04  0.30945251087E+04 0.  0.
        2    1    3    3  502    0 -0.63328753773E+03 -0.73685290612E+03  0.15027738141E+04  0.17895067608E+04  0.25500000920E-02 0. -1.
       -2    1    3    3    0  502  0.63328753773E+03  0.73685290612E+03 -0.94444400036E+03  0.13549833137E+04  0.25500000920E-02 0.  1.
</event>
<event>
 5   0  0.1176002E-06  0.3106183E+04  0.7818609E-02  0.8214043E-01
       -2   -1    0    0    0  501  0.00000000000E+00  0.00000000000E+00  0.18130834086E+04  0.18130834086E+04  0.25500000920E-02 0.  1.
        2   -1    0    0  501    0  0.00000000000E+00  0.00000000000E+00 -0.13303821481E+04  0.13303821481E+04  0.25500000920E-02 0. -1.
    10030    2    1    2    0    0  0.00000000000E+00  0.00000000000E+00  0.48270126053E+03  0.31434655568E+04  0.31061833815E+04 0.  0.
        2    1    3    3  502    0 -0.12048164807E+04  0.56124742218E+03  0.10544317972E+04  0.16965871142E+04  0.25500000920E-02 0.  1.
       -2    1    3    3    0  502  0.12048164807E+04 -0.56124742218E+03 -0.57173053664E+03  0.14468784426E+04  0.25500000920E-02 0. -1.
</event>
<event>
 5   0  0.1193123E-06  0.3097175E+04  0.7818609E-02  0.8216514E-01
        2   -1    0    0  501    0  0.00000000000E+00  0.00000000000E+00  0.15518338628E+04  0.15518338628E+04  0.25500000920E-02 0. -1.
       -2   -1    0    0    0  501  0.00000000000E+00  0.00000000000E+00 -0.15453483841E+04  0.15453483841E+04  0.25500000920E-02 0.  1.
    10030    2    1    2    0    0  0.00000000000E+00  0.00000000000E+00  0.64854786956E+01  0.30971822470E+04  0.30971754567E+04 0.  0.
        3    1    3    3  502    0  0.10355241675E+04  0.14121577337E+03  0.11459926998E+04  0.15509840342E+04  0.10100000352E+00 0. -1.
       -3    1    3    3    0  502 -0.10355241675E+04 -0.14121577337E+03 -0.11395072211E+04  0.15461982128E+04  0.10100000352E+00 0.  1.
</event>
<event>
 5   0  0.1176002E-06  0.3120431E+04  0.7818609E-02  0.8210153E-01
       -2   -1    0    0    0  501  0.00000000000E+00  0.00000000000E+00  0.12766038465E+04  0.12766038465E+04  0.25500000920E-02 0.  1.
        2   -1    0    0  501    0  0.00000000000E+00  0.00000000000E+00 -0.19068349904E+04  0.19068349904E+04  0.25500000920E-02 0. -1.
    10030    2    1    2    0    0  0.00000000000E+00  0.00000000000E+00 -0.63023114387E+03  0.31834388369E+04  0.31204313057E+04 0.  0.
        2    1    3    3  502    0  0.59960113634E+02 -0.13108130318E+04 -0.11762245621E+04  0.17621947226E+04  0.25500000920E-02 0. -1.
       -2    1    3    3    0  502 -0.59960113634E+02  0.13108130318E+04  0.54599341827E+03  0.14212441143E+04  0.25500000920E-02 0.  1.
</event>
<event>
 5   0  0.4173905E-07  0.3132750E+04  0.7818609E-02  0.8206807E-01
        1   -1    0    0  501    0  0.00000000000E+00  0.00000000000E+00  0.13154169673E+04  0.13154169673E+04  0.50400001928E-02 0.  1.
       -1   -1    0    0    0  501  0.00000000000E+00  0.00000000000E+00 -0.18652119078E+04  0.18652119078E+04  0.50400001928E-02 0. -1.
    10030    2    1    2    0    0  0.00000000000E+00  0.00000000000E+00 -0.54979494051E+03  0.31806288751E+04  0.31327504792E+04 0.  0.
        3    1    3    3  502    0  0.13600046622E+04 -0.44799051326E+03 -0.91960085182E+03  0.17017561276E+04  0.10100000352E+00 0. -1.
       -3    1    3    3    0  502 -0.13600046622E+04  0.44799051326E+03  0.36980591130E+03  0.14788727475E+04  0.10100000352E+00 0.  1.
</event>
<event>
 5   0  0.3935852E-07  0.3098646E+04  0.7818609E-02  0.8216110E-01
       -1   -1    0    0    0  501  0.00000000000E+00  0.00000000000E+00  0.14995206875E+04  0.14995206875E+04  0.50400001928E-02 0. -1.
        1   -1    0    0  501    0  0.00000000000E+00  0.00000000000E+00 -0.16007795436E+04  0.16007795436E+04  0.50400001928E-02 0.  1.
    10030    2    1    2    0    0  0.00000000000E+00  0.00000000000E+00 -0.10125885614E+03  0.31003002311E+04  0.30986461830E+04 0.  0.
        5    1    3    3  502    0 -0.10194342081E+04 -0.64561727232E+03  0.92164655946E+03  0.15183946251E+04  0.46999998093E+01 0. -1.
       -5    1    3    3    0  502  0.10194342081E+04  0.64561727232E+03 -0.10229054156E+04  0.15819056060E+04  0.46999998093E+01 0.  1.
</event>
<event>
 5   0  0.1200286E-06  0.3087440E+04  0.7818609E-02  0.8219193E-01
        2   -1    0    0  501    0  0.00000000000E+00  0.00000000000E+00  0.16550255220E+04  0.16550255220E+04  0.25500000920E-02 0. -1.
       -2   -1    0    0    0  501  0.00000000000E+00  0.00000000000E+00 -0.14399005483E+04  0.14399005483E+04  0.25500000920E-02 0.  1.
    10030    2    1    2    0    0  0.00000000000E+00  0.00000000000E+00  0.21512497369E+03  0.30949260704E+04  0.30874404653E+04 0.  0.
        5    1    3    3  502    0  0.68550437224E+03  0.12655264287E+04 -0.45198140678E+03  0.15085697425E+04  0.46999998093E+01 0. -1.
       -5    1    3    3    0  502 -0.68550437224E+03 -0.12655264287E+04  0.66710638047E+03  0.15863563278E+04  0.46999998093E+01 0.  1.
</event>
<event>
 5   0  0.3935852E-07  0.3097799E+04  0.7818609E-02  0.8216342E-01
        1   -1    0    0  501    0  0.00000000000E+00  0.00000000000E+00  0.75445166136E+03  0.75445166138E+03  0.50400001928E-02 0.  1.
       -1   -1    0    0    0  501  0.00000000000E+00  0.00000000000E+00 -0.31799109520E+04  0.31799109521E+04  0.50400001928E-02 0. -1.
    10030    2    1    2    0    0  0.00000000000E+00  0.00000000000E+00 -0.24254592907E+04  0.39343626134E+04  0.30977986383E+04 0.  0.
        5    1    3    3  502    0 -0.94625660423E+02 -0.10932799194E+04  0.17555416711E+03  0.11113308928E+04  0.46999998093E+01 0.  1.
       -5    1    3    3    0  502  0.94625660423E+02  0.10932799194E+04 -0.26010134578E+04  0.28230317206E+04  0.46999998093E+01 0. -1.
</event>
<event>
 5   0  0.4134019E-07  0.3089335E+04  0.7818609E-02  0.8218671E-01
        1   -1    0    0  501    0  0.00000000000E+00  0.00000000000E+00  0.12234561860E+04  0.12234561860E+04  0.50400001928E-02 0. -1.
       -1   -1    0    0    0  501  0.00000000000E+00  0.00000000000E+00 -0.19502114249E+04  0.19502114249E+04  0.50400001928E-02 0.  1.
    10030    2    1    2    0    0  0.00000000000E+00  0.00000000000E+00 -0.72675523891E+03  0.31736676110E+04  0.30893353537E+04 0.  0.
        2    1    3    3  502    0 -0.49506741393E+03  0.71118965155E+03 -0.16770003006E+04  0.18876473381E+04  0.25500000920E-02 0.  1.
       -2    1    3    3    0  502  0.49506741393E+03 -0.71118965155E+03  0.95024506174E+03  0.12860202728E+04  0.25500000920E-02 0. -1.
</event>
<event>
 5   0  0.1200286E-06  0.3094419E+04  0.7818609E-02  0.8217271E-01
        2   -1    0    0  501    0  0.00000000000E+00  0.00000000000E+00  0.25065620622E+04  0.25065620622E+04  0.25500000920E-02 0.  1.
       -2   -1    0    0    0  501  0.00000000000E+00  0.00000000000E+00 -0.95503600065E+03  0.95503600065E+03  0.25500000920E-02 0. -1.
    10030    2    1    2    0    0  0.00000000000E+00  0.00000000000E+00  0.15515260616E+04  0.34615980629E+04  0.30944188516E+04 0.  0.
        5    1    3    3  502    0 -0.14637776015E+04 -0.12311568742E+03  0.23228309410E+03  0.14872053876E+04  0.46999998093E+01 0. -1.
       -5    1    3    3    0  502  0.14637776015E+04  0.12311568742E+03  0.13192429675E+04  0.19743926753E+04  0.46999998093E+01 0.  1.
</event>
<event>
 5   0  0.4330395E-07  0.3101239E+04  0.7818609E-02  0.8215398E-01
       -1   -1    0    0    0  501  0.00000000000E+00  0.00000000000E+00  0.12355708732E+04  0.12355708732E+04  0.50400001928E-02 0. -1.
        1   -1    0    0  501    0  0.00000000000E+00  0.00000000000E+00 -0.19460000150E+04  0.19460000150E+04  0.50400001928E-02 0.  1.
    10030    2    1    2    0    0  0.00000000000E+00  0.00000000000E+00 -0.71042914185E+03  0.31815708882E+04  0.31012390670E+04 0.  0.
        1    1    3    3  502    0  0.10565807061E+04  0.25427157299E+03 -0.14899414087E+04  0.18441643698E+04  0.50400001928E-02 0.  1.
       -1    1    3    3    0  502 -0.10565807061E+04 -0.25427157299E+03  0.77951226690E+03  0.13374065184E+04  0.50400001928E-02 0. -1.
</event>
<event>
 5   0  0.1193123E-06  0.3096348E+04  0.7818609E-02  0.8216741E-01
        2   -1    0    0  501    0  0.00000000000E+00  0.00000000000E+00  0.20507006070E+04  0.20507006070E+04  0.25500000920E-02 0.  1.
       -2   -1    0    0    0  501  0.00000000000E+00  0.00000000000E+00 -0.11687923444E+04  0.11687923444E+04  0.25500000920E-02 0. -1.
    10030    2    1    2    0    0  0.00000000000E+00  0.00000000000E+00  0.88190826264E+03  0.32194929514E+04  0.30963482815E+04 0.  0.
        3    1    3    3  502    0  0.11747990485E+04 -0.30713661464E+03  0.14395443438E+04  0.18832879845E+04  0.10100000352E+00 0. -1.
       -3    1    3    3    0  502 -0.11747990485E+04  0.30713661464E+03 -0.55763608117E+03  0.13362049669E+04  0.10100000352E+00 0.  1.
</event>
<event>
 5   0  0.1258262E-06  0.3071849E+04  0.7818609E-02  0.8223507E-01
        2   -1    0    0  501    0  0.00000000000E+00  0.00000000000E+00  0.12991307739E+04  0.12991307739E+04  0.25500000920E-02 0.  1.
       -2   -1    0    0    0  501  0.00000000000E+00  0.00000000000E+00 -0.18158782395E+04  0.18158782395E+04  0.25500000920E-02 0. -1.
    10030    2    1    2    0    0  0.00000000000E+00  0.00000000000E+00 -0.51674746556E+03  0.31150090134E+04  0.30718485006E+04 0.  0.
        1    1    3    3  502    0  0.72921335232E+03  0.45236961444E+03  0.10333659723E+04  0.13432183791E+04  0.50400001928E-02 0.  1.
       -1    1    3    3    0  502 -0.72921335232E+03 -0.45236961444E+03 -0.15501134379E+04  0.17717906343E+04  0.50400001928E-02 0. -1.
</event>
<event>
 5   0  0.1193123E-06  0.3085688E+04  0.7818609E-02  0.8219677E-01
       -2   -1    0    0    0  501  0.00000000000E+00  0.00000000000E+00  0.14832441322E+04  0.14832441322E+04  0.25500000920E-02 0. -1.
        2   -1    0    0  501    0  0.00000000000E+00  0.00000000000E+00 -0.16048388540E+04  0.16048388540E+04  0.25500000920E-02 0.  1.
    10030    2    1    2    0    0  0.00000000000E+00  0.00000000000E+00 -0.12159472185E+03  0.30880829862E+04  0.30856881329E+04 0.  0.
        3    1    3    3  502    0  0.13432246521E+04  0.70015466732E+03  0.23251504193E+03  0.15324921791E+04  0.10100000352E+00 0.  1.
       -3    1    3    3    0  502 -0.13432246521E+04 -0.70015466732E+03 -0.35410976378E+03  0.15555908071E+04  0.10100000352E+00 0. -1.
</event>
<event>
 5   0  0.4134019E-07  0.3098266E+04  0.7818609E-02  0.8216214E-01
        1   -1    0    0  501    0  0.00000000000E+00  0.00000000000E+00  0.17977432897E+04  0.17977432897E+04  0.50400001928E-02 0.  1.
       -1   -1    0    0    0  501  0.00000000000E+00  0.00000000000E+00 -0.13349031418E+04  0.13349031418E+04  0.50400001928E-02 0. -1.
    10030    2    1    2    0    0  0.00000000000E+00  0.00000000000E+00  0.46284014788E+03  0.31326464314E+04  0.30982660735E+04 0.  0.
        2    1    3    3  502    0 -0.61742412985E+03 -0.60909714748E+03 -0.10664126752E+04  0.13745718915E+04  0.25500000920E-02 0. -1.
       -2    1    3    3    0  502  0.61742412985E+03  0.60909714748E+03  0.15292528230E+04  0.17580745399E+04  0.25500000920E-02 0.  1.
</event>
<event>
 5   0  0.1237580E-06  0.3144596E+04  0.7818609E-02  0.8203605E-01
        2   -1    0    0  501    0  0.00000000000E+00  0.00000000000E+00  0.19687350607E+04  0.19687350607E+04  0.25500000920E-02 0. -1.
       -2   -1    0    0    0  501  0.00000000000E+00  0.00000000000E+00 -0.12556897083E+04  0.12556897083E+04  0.25500000920E-02 0.  1.
    10030    2    1    2    0    0  0.00000000000E+00  0.00000000000E+00  0.71304535233E+03  0.32244247690E+04  0.31445955887E+04 0.  0.
        4    1    3    3  502    0  0.87350709374E+03  0.68219103366E+02  0.16952114233E+04  0.19082483778E+04  0.12699999809E+01 0. -1.
       -4    1    3    3    0  502 -0.87350709374E+03 -0.68219103366E+02 -0.98216607096E+03  0.13161763912E+04  0.12699999809E+01 0.  1.
</event>
<event>
 5   0  0.3935852E-07  0.3108051E+04  0.7818609E-02  0.8213532E-01
        1   -1    0    0  501    0  0.00000000000E+00  0.00000000000E+00  0.17154237574E+04  0.17154237574E+04  0.50400001928E-02 0. -1.
       -1   -1    0    0    0  501  0.00000000000E+00  0.00000000000E+00 -0.14078127255E+04  0.14078127255E+04  0.50400001928E-02 0.  1.
    10030    2    1    2    0    0  0.00000000000E+00  0.00000000000E+00  0.30761103187E+03  0.31232364829E+04  0.31080510905E+04 0.  0.
        5    1    3    3  502    0  0.22281102929E+03 -0.13664671274E+04  0.86301299700E+03  0.16314688743E+04  0.46999998093E+01 0. -1.
       -5    1    3    3    0  502 -0.22281102929E+03  0.13664671274E+04 -0.55540196513E+03  0.14917676085E+04  0.46999998093E+01 0.  1.
</event>
<event>
 5   0  0.4134019E-07  0.3033573E+04  0.7818609E-02  0.8234208E-01
       -1   -1    0    0    0  501  0.00000000000E+00  0.00000000000E+00  0.15098885934E+04  0.15098885934E+04  0.50400001928E-02 0. -1.
        1   -1    0    0  501    0  0.00000000000E+00  0.00000000000E+00 -0.15237158727E+04  0.15237158727E+04  0.50400001928E-02 0.  1.
    10030    2    1    2    0    0  0.00000000000E+00  0.00000000000E+00 -0.13827279336E+02  0.30336044661E+04  0.30335729533E+04 0.  0.
        2    1    3    3  502    0 -0.15400070860E+03  0.14825017383E+04  0.27436066989E+03  0.15155201745E+04  0.25500000920E-02 0. -1.
       -2    1    3    3    0  502  0.15400070860E+03 -0.14825017383E+04 -0.28818794922E+03  0.15180842916E+04  0.25500000920E-02 0.  1.
</event>
<event>
 5   0  0.4134019E-07  0.3097617E+04  0.7818609E-02  0.8216392E-01
        1   -1    0    0  501    0  0.00000000000E+00  0.00000000000E+00  0.11349292858E+04  0.11349292858E+04  0.50400001928E-02 0.  1.
       -1   -1    0    0    0  501  0.00000000000E+00  0.00000000000E+00 -0.21136187899E+04  0.21136187899E+04  0.50400001928E-02 0. -1.
    10030    2    1    2    0    0  0.00000000000E+00  0.00000000000E+00 -0.97868950413E+03  0.32485480757E+04  0.30976170607E+04 0.  0.
        2    1    3    3  502    0  0.15049183006E+04  0.31581016948E+03 -0.68355067341E+03  0.16827824214E+04  0.25500000920E-02 0. -1.
       -2    1    3    3    0  502 -0.15049183006E+04 -0.31581016948E+03 -0.29513883072E+03  0.15657656543E+04  0.25500000920E-02 0.  1.
</event>
<event>
 5   0  0.4173905E-07  0.3106968E+04  0.7818609E-02  0.8213828E-01
       -1   -1    0    0    0  501  0.00000000000E+00  0.00000000000E+00  0.15875408878E+04  0.15875408878E+04  0.50400001928E-02 0.  1.
        1   -1    0    0  501    0  0.00000000000E+00  0.00000000000E+00 -0.15201579976E+04  0.15201579976E+04  0.50400001928E-02 0. -1.
    10030    2    1    2    0    0  0.00000000000E+00  0.00000000000E+00  0.67382890277E+02  0.31076988854E+04  0.31069682825E+04 0.  0.
        3    1    3    3  502    0 -0.11722390061E+04  0.60776838213E+03 -0.78490571489E+03  0.15361001547E+04  0.10100000352E+00 0. -1.
       -3    1    3    3    0  502  0.11722390061E+04 -0.60776838213E+03  0.85228860517E+03  0.15715987307E+04  0.10100000352E+00 0.  1.
</event>
<event>
 5   0  0.3935852E-07  0.3101607E+04  0.7818609E-02  0.8215297E-01
        1   -1    0    0  501    0  0.00000000000E+00  0.00000000000E+00  0.28697138278E+04  0.28697138278E+04  0.50400001928E-02 0. -1.
       -1   -1    0    0    0  501  0.00000000000E+00  0.00000000000E+00 -0.83805961661E+03  0.83805961662E+03  0.50400001928E-02 0.  1.
    10030    2    1    2    0    0  0.00000000000E+00  0.00000000000E+00  0.20316542112E+04  0.37077734445E+04  0.31016068548E+04 0.  0.
        5    1    3    3  502    0  0.81612381353E+02 -0.10046142309E+04  0.24247485010E+04  0.26258975069E+04  0.46999998093E+01 0. -1.
       -5    1    3    3    0  502 -0.81612381353E+02  0.10046142309E+04 -0.39309428975E+03  0.10818759376E+04  0.46999998093E+01 0.  1.
</event>
<event>
 5   0  0.1200286E-06  0.3103510E+04  0.7818609E-02  0.8214775E-01
       -2   -1    0    0    0  501  0.00000000000E+00  0.00000000000E+00  0.14633514199E+04  0.14633514199E+04  0.25500000920E-02 0. -1.
        2   -1    0    0  501    0  0.00000000000E+00  0.00000000000E+00 -0.16454994780E+04  0.16454994780E+04  0.25500000920E-02 0.  1.
    10030    2    1    2    0    0  0.00000000000E+00  0.00000000000E+00 -0.18214805819E+03  0.31088508979E+04  0.31035102691E+04 0.  0.
        5    1    3    3  502    0  0.17338155817E+03 -0.47802257248E+03  0.13775167576E+04  0.14683804861E+04  0.46999998093E+01 0. -1.
       -5    1    3    3    0  502 -0.17338155817E+03  0.47802257248E+03 -0.15596648158E+04  0.16404704118E+04  0.46999998093E+01 0.  1.
</event>
<event>
 5   0  0.4173905E-07  0.3099349E+04  0.7818609E-02  0.8215917E-01
       -1   -1    0    0    0  501  0.00000000000E+00  0.00000000000E+00  0.84673190972E+03  0.84673190974E+03  0.50400001928E-02 0.  1.
        1   -1    0    0  501    0  0.00000000000E+00  0.00000000000E+00 -0.28361881704E+04  0.28361881704E+04  0.50400001928E-02 0. -1.
    10030    2    1    2    0    0  0.00000000000E+00  0.00000000000E+00 -0.19894562607E+04  0.36829200802E+04  0.30993489806E+04 0.  0.
        3    1    3    3  502    0 -0.38890907829E+03  0.23337121923E+03  0.76609644501E+03  0.89028993615E+03  0.10100000352E+00 0.  1.
       -3    1    3    3    0  502  0.38890907829E+03 -0.23337121923E+03 -0.27555527057E+04  0.27926301440E+04  0.10100000352E+00 0. -1.
</event>
<event>
 5   0  0.3935852E-07  0.3095813E+04  0.7818609E-02  0.8216888E-01
       -1   -1    0    0    0  501  0.00000000000E+00  0.00000000000E+00  0.10961207441E+04  0.10961207441E+04  0.50400001928E-02 0. -1.
        1   -1    0    0  501    0  0.00000000000E+00  0.00000000000E+00 -0.21859031872E+04  0.21859031872E+04  0.50400001928E-02 0.  1.
    10030    2    1    2    0    0  0.00000000000E+00  0.00000000000E+00 -0.10897824431E+04  0.32820239313E+04  0.30958125448E+04 0.  0.
        5    1    3    3  502    0 -0.14508808493E+04 -0.20370574898E+03 -0.15410023066E+02  0.14651999283E+04  0.46999998093E+01 0. -1.
       -5    1    3    3    0  502  0.14508808493E+04  0.20370574898E+03 -0.10743724200E+04  0.18168240030E+04  0.46999998093E+01 0.  1.
</event>
<event>
 5   0  0.4219337E-07  0.3124730E+04  0.7818609E-02  0.8208984E-01
        1   -1    0    0  501    0  0.00000000000E+00  0.00000000000E+00  0.80914226604E+03  0.80914226605E+03  0.50400001928E-02 0.  1.
       -1   -1    0    0    0  501  0.00000000000E+00  0.00000000000E+00 -0.30167555388E+04  0.30167555388E+04  0.50400001928E-02 0. -1.
    10030    2    1    2    0    0  0.00000000000E+00  0.00000000000E+00 -0.22076132727E+04  0.38258978048E+04  0.31247300125E+04 0.  0.
        4    1    3    3  502    0  0.41459981332E+03  0.99434279609E+02  0.73653502556E+03  0.85103797680E+03  0.12699999809E+01 0.  1.
       -4    1    3    3    0  502 -0.41459981332E+03 -0.99434279609E+02 -0.29441482983E+04  0.29748598280E+04  0.12699999809E+01 0. -1.
</event>
<event>
 5   0  0.4134019E-07  0.3106756E+04  0.7818609E-02  0.8213886E-01
        1   -1    0    0  501    0  0.00000000000E+00  0.00000000000E+00  0.28025727495E+04  0.28025727495E+04  0.50400001928E-02 0.  1.
       -1   -1    0    0    0  501  0.00000000000E+00  0.00000000000E+00 -0.86098882011E+03  0.86098882012E+03  0.50400001928E-02 0. -1.
    10030    2    1    2    0    0  0.00000000000E+00  0.00000000000E+00  0.19415839294E+04  0.36635615696E+04  0.31067563824E+04 0.  0.
        2    1    3    3  502    0  0.83344546721E+03  0.11274796275E+04  0.18226036910E+03  0.14138813597E+04  0.25500000920E-02 0.  1.
       -2    1    3    3    0  502 -0.83344546721E+03 -0.11274796275E+04  0.17593235603E+04  0.22496802099E+04  0.25500000920E-02 0. -1.
</event>
<event>
 5   0  0.1176002E-06  0.3122419E+04  0.7818609E-02  0.8209612E-01
       -2   -1    0    0    0  501  0.00000000000E+00  0.00000000000E+00  0.13481396596E+04  0.13481396596E+04  0.25500000920E-02 0. -1.
        2   -1    0    0  501    0  0.00000000000E+00  0.00000000000E+00 -0.18079548197E+04  0.18079548197E+04  0.25500000920E-02 0.  1.
    10030    2    1    2    0    0  0.00000000000E+00  0.00000000000E+00 -0.45981516013E+03  0.31560944793E+04  0.31224193154E+04 0.  0.
        2    1    3    3  502    0  0.85519946916E+03 -0.26485346422E+03  0.10628947222E+04  0.13896973340E+04  0.25500000920E-02 0. -1.
       -2    1    3    3    0  502 -0.85519946916E+03  0.26485346422E+03 -0.15227098823E+04  0.17663971454E+04  0.25500000920E-02 0.  1.
</event>
<event>
 5   0  0.1193123E-06  0.3097081E+04  0.7818609E-02  0.8216539E-01
       -2   -1    0    0    0  501  0.00000000000E+00  0.00000000000E+00  0.14905653385E+04  0.14905653385E+04  0.25500000920E-02 0. -1.
        2   -1    0    0  501    0  0.00000000000E+00  0.00000000000E+00 -0.16087710096E+04  0.16087710096E+04  0.25500000920E-02 0.  1.
    10030    2    1    2    0    0  0.00000000000E+00  0.00000000000E+00 -0.11820567104E+03  0.30993363481E+04  0.30970814032E+04 0.  0.
        3    1    3    3  502    0  0.10771847674E+04  0.10400567294E+04 -0.45427421532E+03  0.15647396258E+04  0.10100000352E+00 0.  1.
       -3    1    3    3    0  502 -0.10771847674E+04 -0.10400567294E+04  0.33606854428E+03  0.15345967223E+04  0.10100000352E+00 0. -1.
</event>
<event>
 5   0  0.1237580E-06  0.3086238E+04  0.7818609E-02  0.8219525E-01
        2   -1    0    0  501    0  0.00000000000E+00  0.00000000000E+00  0.26031801093E+04  0.26031801093E+04  0.25500000920E-02 0.  1.
       -2   -1    0    0    0  501  0.00000000000E+00  0.00000000000E+00 -0.91473360572E+03  0.91473360572E+03  0.25500000920E-02 0. -1.
    10030    2    1    2    0    0  0.00000000000E+00  0.00000000000E+00  0.16884465035E+04  0.35179137150E+04  0.30862380515E+04 0.  0.
        4    1    3    3  502    0 -0.47331772215E+03 -0.27181621585E+03  0.24894727692E+04  0.25486055016E+04  0.12699999809E+01 0.  1.
       -4    1    3    3    0  502  0.47331772215E+03  0.27181621585E+03 -0.80102626567E+03  0.96930821336E+03  0.12699999809E+01 0. -1.
</event>
<event>
 5   0  0.3935852E-07  0.3092541E+04  0.7818609E-02  0.8217788E-01
       -1   -1    0    0    0  501  0.00000000000E+00  0.00000000000E+00  0.21611863173E+04  0.21611863173E+04  0.50400001928E-02 0.  1.
        1   -1    0    0  501    0  0.00000000000E+00  0.00000000000E+00 -0.11063148007E+04  0.11063148007E+04  0.50400001928E-02 0. -1.
    10030    2    1    2    0    0  0.00000000000E+00  0.00000000000E+00  0.10548715166E+04  0.32675011180E+04  0.30925409681E+04 0.  0.
        5    1    3    3  502    0 -0.92229712413E+03  0.85250774559E+03 -0.42555078946E+03  0.13260908739E+04  0.46999998093E+01 0. -1.
       -5    1    3    3    0  502  0.92229712413E+03 -0.85250774559E+03  0.14804223061E+04  0.19414102441E+04  0.46999998093E+01 0.  1.
</event>
<event>
 5   0  0.1258262E-06  0.3076890E+04  0.7818609E-02  0.8222109E-01
        2   -1    0    0  501    0  0.00000000000E+00  0.00000000000E+00  0.17351035564E+04  0.17351035564E+04  0.25500000920E-02 0. -1.
       -2   -1    0    0    0  501  0.00000000000E+00  0.00000000000E+00 -0.13640761368E+04  0.13640761368E+04  0.25500000920E-02 0.  1.
    10030    2    1    2    0    0  0.00000000000E+00  0.00000000000E+00  0.37102741956E+03  0.30991796932E+04  0.30768902198E+04 0.  0.
        1    1    3    3  502    0 -0.12462642830E+04 -0.72277500110E+03 -0.35805760807E+03  0.14845146062E+04  0.50400001928E-02 0.  1.
       -1    1    3    3    0  502  0.12462642830E+04  0.72277500110E+03  0.72908502763E+03  0.16146650869E+04  0.50400001928E-02 0. -1.
</event>
<event>
 5   0  0.1200286E-06  0.3103653E+04  0.7818609E-02  0.8214736E-01
        2   -1    0    0  501    0  0.00000000000E+00  0.00000000000E+00  0.23382552759E+04  0.23382552759E+04  0.25500000920E-02 0.  1.
       -2   -1    0    0    0  501  0.00000000000E+00  0.00000000000E+00 -0.10298984763E+04  0.10298984763E+04  0.25500000920E-02 0. -1.
    10030    2    1    2    0    0  0.00000000000E+00  0.00000000000E+00  0.13083567996E+04  0.33681537522E+04  0.31036530385E+04 0.  0.
        5    1    3    3  502    0 -0.14659529985E+04 -0.81626712717E+02  0.10890156670E+03  0.14722644991E+04  0.46999998093E+01 0. -1.
       -5    1    3    3    0  502  0.14659529985E+04  0.81626712717E+02  0.11994552329E+04  0.18958892531E+04  0.46999998093E+01 0.  1.
</event>
<event>
 5   0  0.4219337E-07  0.3102100E+04  0.7818609E-02  0.8215162E-01
        1   -1    0    0  501    0  0.00000000000E+00  0.00000000000E+00  0.12729657986E+04  0.12729657987E+04  0.50400001928E-02 0. -1.
       -1   -1    0    0    0  501  0.00000000000E+00  0.00000000000E+00 -0.18898827268E+04  0.18898827268E+04  0.50400001928E-02 0.  1.
    10030    2    1    2    0    0  0.00000000000E+00  0.00000000000E+00 -0.61691692819E+03  0.31628485255E+04  0.31020999821E+04 0.  0.
        4    1    3    3  502    0  0.60449290910E+03  0.77436422370E+03 -0.15322566561E+04  0.18201273860E+04  0.12699999809E+01 0.  1.
       -4    1    3    3    0  502 -0.60449290910E+03 -0.77436422370E+03  0.91533972792E+03  0.13427211395E+04  0.12699999809E+01 0. -1.
</event>
<event>
 5   0  0.4134019E-07  0.3087949E+04  0.7818609E-02  0.8219053E-01
        1   -1    0    0  501    0  0.00000000000E+00  0.00000000000E+00  0.13253937893E+04  0.13253937893E+04  0.50400001928E-02 0.  1.
       -1   -1    0    0    0  501  0.00000000000E+00  0.00000000000E+00 -0.17986029718E+04  0.17986029719E+04  0.50400001928E-02 0. -1.
    10030    2    1    2    0    0  0.00000000000E+00  0.00000000000E+00 -0.47320918255E+03  0.31239967612E+04  0.30879489687E+04 0.  0.
        2    1    3    3  502    0 -0.11439812016E+04 -0.88949607604E+03 -0.77570513536E+03  0.16436589415E+04  0.25500000920E-02 0. -1.
       -2    1    3    3    0  502  0.11439812016E+04  0.88949607604E+03  0.30249595281E+03  0.14803378197E+04  0.25500000920E-02 0.  1.
</event>
<event>
 5   0  0.4134019E-07  0.3106362E+04  0.7818609E-02  0.8213994E-01
       -1   -1    0    0    0  501  0.00000000000E+00  0.00000000000E+00  0.10027719573E+04  0.10027719574E+04  0.50400001928E-02 0. -1.
        1   -1    0    0  501    0  0.00000000000E+00  0.00000000000E+00 -0.24057033821E+04  0.24057033822E+04  0.50400001928E-02 0.  1.
    10030    2    1    2    0    0  0.00000000000E+00  0.00000000000E+00 -0.14029314248E+04  0.34084753395E+04  0.31063624317E+04 0.  0.
        2    1    3    3  502    0  0.53705010841E+03 -0.35458739273E+03  0.84959693581E+03  0.10658189299E+04  0.25500000920E-02 0. -1.
       -2    1    3    3    0  502 -0.53705010841E+03  0.35458739273E+03 -0.22525283606E+04  0.23426564096E+04  0.25500000920E-02 0.  1.
</event>
<event>
 5   0  0.3935852E-07  0.3121921E+04  0.7818609E-02  0.8209748E-01
        1   -1    0    0  501    0  0.00000000000E+00  0.00000000000E+00  0.29500709618E+04  0.29500709618E+04  0.50400001928E-02 0.  1.
       -1   -1    0    0    0  501  0.00000000000E+00  0.00000000000E+00 -0.82594529178E+03  0.82594529180E+03  0.50400001928E-02 0. -1.
    10030    2    1    2    0    0  0.00000000000E+00  0.00000000000E+00  0.21241256700E+04  0.37760162536E+04  0.31219207045E+04 0.  0.
        5    1    3    3  502    0 -0.47736970727E+03 -0.35119441324E+03  0.28086974664E+04  0.28705440079E+04  0.46999998093E+01 0.  1.
       -5    1    3    3    0  502  0.47736970727E+03  0.35119441324E+03 -0.68457179641E+03  0.90547224571E+03  0.46999998093E+01 0. -1.
</event>
<event>
 5   0  0.4134019E-07  0.3099086E+04  0.7818609E-02  0.8215989E-01
        1   -1    0    0  501    0  0.00000000000E+00  0.00000000000E+00  0.11719069619E+04  0.11719069619E+04  0.50400001928E-02 0. -1.
       -1   -1    0    0    0  501  0.00000000000E+00  0.00000000000E+00 -0.20488689678E+04  0.20488689678E+04  0.50400001928E-02 0.  1.
    10030    2    1    2    0    0  0.00000000000E+00  0.00000000000E+00 -0.87696200593E+03  0.32207759298E+04  0.30990861927E+04 0.  0.
        2    1    3    3  502    0 -0.54191268384E+03  0.12644786414E+04  0.30261734281E+03  0.14085996052E+04  0.25500000920E-02 0. -1.
       -2    1    3    3    0  502  0.54191268384E+03 -0.12644786414E+04 -0.11795793487E+04  0.18121763246E+04  0.25500000920E-02 0.  1.
</event>
<event>
 5   0  0.1176002E-06  0.3091979E+04  0.7818609E-02  0.8217943E-01
        2   -1    0    0  501    0  0.00000000000E+00  0.00000000000E+00  0.98778496894E+03  0.98778496894E+03  0.25500000920E-02 0. -1.
       -2   -1    0    0    0  501  0.00000000000E+00  0.00000000000E+00 -0.24196400938E+04  0.24196400938E+04  0.25500000920E-02 0.  1.
    10030    2    1    2    0    0  0.00000000000E+00  0.00000000000E+00 -0.14318551249E+04  0.34074250627E+04  0.30919793757E+04 0.  0.
        2    1    3    3  502    0 -0.10209074941E+04 -0.93848067929E+03 -0.14690891437E+04  0.20202032099E+04  0.25500000920E-02 0.  1.
       -2    1    3    3    0  502  0.10209074941E+04  0.93848067929E+03  0.37234018883E+02  0.13872218529E+04  0.25500000920E-02 0. -1.
</event>
<event>
 5   0  0.1176002E-06  0.3120094E+04  0.7818609E-02  0.8210245E-01
       -2   -1    0    0    0  501  0.00000000000E+00  0.00000000000E+00  0.17885117725E+04  0.17885117725E+04  0.25500000920E-02 0.  1.
        2   -1    0    0  501    0  0.00000000000E+00  0.00000000000E+00 -0.13607660263E+04  0.13607660263E+04  0.25500000920E-02 0. -1.
    10030    2    1    2    0    0  0.00000000000E+00  0.00000000000E+00  0.42774574614E+03  0.31492777988E+04  0.31200936253E+04 0.  0.
        2    1    3    3  502    0  0.13145240475E+04  0.46423008160E+03  0.92061000940E+03  0.16706303689E+04  0.25500000920E-02 0.  1.
       -2    1    3    3    0  502 -0.13145240475E+04 -0.46423008160E+03 -0.49286426326E+03  0.14786474299E+04  0.25500000920E-02 0. -1.
</event>
<event>
 5   0  0.1193123E-06  0.3104332E+04  0.7818609E-02  0.8214550E-01
        2   -1    0    0  501    0  0.00000000000E+00  0.00000000000E+00  0.18818462069E+04  0.18818462069E+04  0.25500000920E-02 0.  1.
       -2   -1    0    0    0  501  0.00000000000E+00  0.00000000000E+00 -0.12802427173E+04  0.12802427173E+04  0.25500000920E-02 0. -1.
    10030    2    1    2    0    0  0.00000000000E+00  0.00000000000E+00  0.60160348959E+03  0.31620889242E+04  0.31043323929E+04 0.  0.
        3    1    3    3  502    0  0.12658840781E+04  0.83350360911E+03  0.64173654695E+03  0.16459090411E+04  0.10100000352E+00 0. -1.
       -3    1    3    3    0  502 -0.12658840781E+04 -0.83350360911E+03 -0.40133057367E+02  0.15161798831E+04  0.10100000352E+00 0.  1.
</event>
<event>
 5   0  0.4330395E-07  0.3137069E+04  0.7818609E-02  0.8205638E-01
        1   -1    0    0  501    0  0.00000000000E+00  0.00000000000E+00  0.28690408845E+04  0.28690408845E+04  0.50400001928E-02 0.  1.
       -1   -1    0    0    0  501  0.00000000000E+00  0.00000000000E+00 -0.85753426487E+03  0.85753426488E+03  0.50400001928E-02 0. -1.
    10030    2    1    2    0    0  0.00000000000E+00  0.00000000000E+00  0.20115066197E+04  0.37265751494E+04  0.31370692475E+04 0.  0.
        1    1    3    3  502    0 -0.97256369676E+03 -0.99267629408E+03  0.14174172663E+03  0.13969169933E+04  0.50400001928E-02 0.  1.
       -1    1    3    3    0  502  0.97256369676E+03  0.99267629408E+03  0.18697648930E+04  0.23296581561E+04  0.50400001928E-02 0. -1.
</event>
<event>
 5   0  0.4134019E-07  0.3110015E+04  0.7818609E-02  0.8212995E-01
       -1   -1    0    0    0  501  0.00000000000E+00  0.00000000000E+00  0.15306530768E+04  0.15306530768E+04  0.50400001928E-02 0.  1.
        1   -1    0    0  501    0  0.00000000000E+00  0.00000000000E+00 -0.15797496277E+04  0.15797496277E+04  0.50400001928E-02 0. -1.
    10030    2    1    2    0    0  0.00000000000E+00  0.00000000000E+00 -0.49096550885E+02  0.31104027045E+04  0.31100151950E+04 0.  0.
        2    1    3    3  502    0  0.15542961852E+04 -0.45735797876E+02 -0.35514760491E+02  0.15553744542E+04  0.25500000920E-02 0. -1.
       -2    1    3    3    0  502 -0.15542961852E+04  0.45735797876E+02 -0.13581790395E+02  0.15550282504E+04  0.25500000920E-02 0.  1.
</event>
<event>
 5   0  0.4134019E-07  0.3127457E+04  0.7818609E-02  0.8208243E-01
        1   -1    0    0  501    0  0.00000000000E+00  0.00000000000E+00  0.25156455666E+04  0.25156455666E+04  0.50400001928E-02 0.  1.
       -1   -1    0    0    0  501  0.00000000000E+00  0.00000000000E+00 -0.97201535758E+03  0.97201535759E+03  0.50400001928E-02 0. -1.
    10030    2    1    2    0    0  0.00000000000E+00  0.00000000000E+00  0.15436302090E+04  0.34876609242E+04  0.31274565544E+04 0.  0.
        2    1    3    3  502    0  0.10170178311E+04  0.91763142744E+03  0.16129212209E+04  0.21161019754E+04  0.25500000920E-02 0.  1.
       -2    1    3    3    0  502 -0.10170178311E+04 -0.91763142744E+03 -0.69291011947E+02  0.13715589487E+04  0.25500000920E-02 0. -1.
</event>
<event>
 5   0  0.1193123E-06  0.3106538E+04  0.7818609E-02  0.8213946E-01
        2   -1    0    0  501    0  0.00000000000E+00  0.00000000000E+00  0.11892407612E+04  0.11892407612E+04  0.25500000920E-02 0.  1.
       -2   -1    0    0    0  501  0.00000000000E+00  0.00000000000E+00 -0.20287269815E+04  0.20287269815E+04  0.25500000920E-02 0. -1.
    10030    2    1    2    0    0  0.00000000000E+00  0.00000000000E+00 -0.83948622027E+03  0.32179677427E+04  0.31065381503E+04 0.  0.
        3    1    3    3  502    0  0.71710976174E+03  0.13573717423E+04 -0.66474396147E+03  0.16728983836E+04  0.10100000352E+00 0. -1.
       -3    1    3    3    0  502 -0.71710976174E+03 -0.13573717423E+04 -0.17474225880E+03  0.15450693591E+04  0.10100000352E+00 0.  1.
</event>
<event>
 5   0  0.1176002E-06  0.3119069E+04  0.7818609E-02  0.8210524E-01
       -2   -1    0    0    0  501  0.00000000000E+00  0.00000000000E+00  0.79167151832E+03  0.79167151832E+03  0.25500000920E-02 0.  1.
        2   -1    0    0  501    0  0.00000000000E+00  0.00000000000E+00 -0.30721673927E+04  0.30721673927E+04  0.25500000920E-02 0. -1.
    10030    2    1    2    0    0  0.00000000000E+00  0.00000000000E+00 -0.22804958744E+04  0.38638389110E+04  0.31190687227E+04 0.  0.
        2    1    3    3  502    0  0.61407198325E+03  0.27480615232E+03 -0.28831649689E+04  0.29606153177E+04  0.25500000920E-02 0. -1.
       -2    1    3    3    0  502 -0.61407198325E+03 -0.27480615232E+03  0.60266909449E+03  0.90322359327E+03  0.25500000920E-02 0.  1.
</event>
<event>
 5   0  0.1176002E-06  0.3124027E+04  0.7818609E-02  0.8209175E-01
        2   -1    0    0  501    0  0.00000000000E+00  0.00000000000E+00  0.18708384197E+04  0.18708384197E+04  0.25500000920E-02 0. -1.
       -2   -1    0    0    0  501  0.00000000000E+00  0.00000000000E+00 -0.13041675631E+04  0.13041675631E+04  0.25500000920E-02 0.  1.
    10030    2    1    2    0    0  0.00000000000E+00  0.00000000000E+00  0.56667085656E+03  0.31750059828E+04  0.31240273896E+04 0.  0.
        2    1    3    3  502    0 -0.82995123628E+03 -0.82690039510E+03 -0.76662679728E+03  0.14001071260E+04  0.25500000920E-02 0.  1.
       -2    1    3    3    0  502  0.82995123628E+03  0.82690039510E+03  0.13332976538E+04  0.17748988568E+04  0.25500000920E-02 0. -1.
</event>
<event>
 5   0  0.4219337E-07  0.3103047E+04  0.7818609E-02  0.8214902E-01
        1   -1    0    0  501    0  0.00000000000E+00  0.00000000000E+00  0.12589098590E+04  0.12589098590E+04  0.50400001928E-02 0. -1.
       -1   -1    0    0    0  501  0.00000000000E+00  0.00000000000E+00 -0.19121499541E+04  0.19121499541E+04  0.50400001928E-02 0.  1.
    10030    2    1    2    0    0  0.00000000000E+00  0.00000000000E+00 -0.65324009506E+03  0.31710598131E+04  0.31030465218E+04 0.  0.
        4    1    3    3  502    0  0.40921276092E+03  0.99819408958E+03 -0.14661282043E+04  0.18202692242E+04  0.12699999809E+01 0.  1.
       -4    1    3    3    0  502 -0.40921276092E+03 -0.99819408958E+03  0.81288810922E+03  0.13507905889E+04  0.12699999809E+01 0. -1.
</event>
<event>
 5   0  0.3902375E-07  0.3107112E+04  0.7818609E-02  0.8213789E-01
        3   -1    0    0  501    0  0.00000000000E+00  0.00000000000E+00  0.16727823406E+04  0.16727823437E+04  0.10100000352E+00 0. -1.
       -3   -1    0    0    0  501  0.00000000000E+00  0.00000000000E+00 -0.14428276675E+04  0.14428276710E+04  0.10100000352E+00 0.  1.
    10030    2    1    2    0    0  0.00000000000E+00  0.00000000000E+00  0.22995467313E+03  0.31156100147E+04  0.31071122625E+04 0.  0.
        1    1    3    3  502    0 -0.36092646333E+03 -0.51455201757E+03 -0.13096492892E+04  0.14526572037E+04  0.50400001928E-02 0.  1.
       -1    1    3    3    0  502  0.36092646333E+03  0.51455201757E+03  0.15396039623E+04  0.16629528110E+04  0.50400001928E-02 0. -1.
</event>
<event>
 5   0  0.1258262E-06  0.3103006E+04  0.7818609E-02  0.8214913E-01
        2   -1    0    0  501    0  0.00000000000E+00  0.00000000000E+00  0.13137779893E+04  0.13137779893E+04  0.25500000920E-02 0. -1.
       -2   -1    0    0    0  501  0.00000000000E+00  0.00000000000E+00 -0.18322436644E+04  0.18322436645E+04  0.25500000920E-02 0.  1.
    10030    2    1    2    0    0  0.00000000000E+00  0.00000000000E+00 -0.51846567518E+03  0.31460216537E+04  0.31030058958E+04 0.  0.
        1    1    3    3  502    0 -0.34907264031E+03 -0.15056325736E+04 -0.39668599576E+03  0.15956631644E+04  0.50400001928E-02 0. -1.
       -1    1    3    3    0  502  0.34907264031E+03  0.15056325736E+04 -0.12177967942E+03  0.15503584893E+04  0.50400001928E-02 0.  1.
</event>
<event>
 5   0  0.1193123E-06  0.3132585E+04  0.7818609E-02  0.8206852E-01
       -2   -1    0    0    0  501  0.00000000000E+00  0.00000000000E+00  0.87845882460E+03  0.87845882460E+03  0.25500000920E-02 0.  1.
        2   -1    0    0  501    0  0.00000000000E+00  0.00000000000E+00 -0.27927009318E+04  0.27927009318E+04  0.25500000920E-02 0. -1.
    10030    2    1    2    0    0  0.00000000000E+00  0.00000000000E+00 -0.19142421072E+04  0.36711597564E+04  0.31325853719E+04 0.  0.
        3    1    3    3  502    0  0.14647177274E+04  0.55481290525E+03 -0.94824321477E+03  0.18309507326E+04  0.10100000352E+00 0.  1.
       -3    1    3    3    0  502 -0.14647177274E+04 -0.55481290525E+03 -0.96599889243E+03  0.18402090238E+04  0.10100000352E+00 0. -1.
</event>
<event>
 5   0  0.4134019E-07  0.3009369E+04  0.7818609E-02  0.8241061E-01
       -1   -1    0    0    0  501  0.00000000000E+00  0.00000000000E+00  0.95450521339E+03  0.95450521340E+03  0.50400001928E-02 0.  1.
        1   -1    0    0  501    0  0.00000000000E+00  0.00000000000E+00 -0.23719881835E+04  0.23719881835E+04  0.50400001928E-02 0. -1.
    10030    2    1    2    0    0  0.00000000000E+00  0.00000000000E+00 -0.14174829701E+04  0.33264933969E+04  0.30093687626E+04 0.  0.
        2    1    3    3  502    0 -0.15331761800E+03  0.89192362686E+03  0.62003320622E+03  0.10970301842E+04  0.25500000920E-02 0.  1.
       -2    1    3    3    0  502  0.15331761800E+03 -0.89192362686E+03 -0.20375161763E+04  0.22294632127E+04  0.25500000920E-02 0. -1.
</event>
<event>
 5   0  0.1193123E-06  0.3095100E+04  0.7818609E-02  0.8217084E-01
        2   -1    0    0  501    0  0.00000000000E+00  0.00000000000E+00  0.15772762470E+04  0.15772762470E+04  0.25500000920E-02 0.  1.
       -2   -1    0    0    0  501  0.00000000000E+00  0.00000000000E+00 -0.15183840671E+04  0.15183840671E+04  0.25500000920E-02 0. -1.
    10030    2    1    2    0    0  0.00000000000E+00  0.00000000000E+00  0.58892179899E+02  0.30956603141E+04  0.30951000777E+04 0.  0.
        3    1    3    3  502    0 -0.70152580328E+01 -0.17088519734E+03 -0.15089025799E+04  0.15185644439E+04  0.10100000352E+00 0. -1.
       -3    1    3    3    0  502  0.70152580328E+01  0.17088519734E+03  0.15677947598E+04  0.15770958701E+04  0.10100000352E+00 0.  1.
</event>
<event>
 5   0  0.1176002E-06  0.3095743E+04  0.7818609E-02  0.8216907E-01
        2   -1    0    0  501    0  0.00000000000E+00  0.00000000000E+00  0.21007964664E+04  0.21007964664E+04  0.25500000920E-02 0.  1.
       -2   -1    0    0    0  501  0.00000000000E+00  0.00000000000E+00 -0.11404754936E+04  0.11404754936E+04  0.25500000920E-02 0. -1.
    10030    2    1    2    0    0  0.00000000000E+00  0.00000000000E+00  0.96032097283E+03  0.32412719600E+04  0.30957434564E+04 0.  0.
        2    1    3    3  502    0 -0.47681859843E+03  0.14541452232E+04  0.72349178491E+03  0.16927299456E+04  0.25500000920E-02 0. -1.
       -2    1    3    3    0  502  0.47681859843E+03 -0.14541452232E+04  0.23682918792E+03  0.15485420144E+04  0.25500000920E-02 0.  1.
</event>
<event>
 5   0  0.1200286E-06  0.3101372E+04  0.7818609E-02  0.8215361E-01
        2   -1    0    0  501    0  0.00000000000E+00  0.00000000000E+00  0.20035166852E+04  0.20035166852E+04  0.25500000920E-02 0.  1.
       -2   -1    0    0    0  501  0.00000000000E+00  0.00000000000E+00 -0.12002032016E+04  0.12002032016E+04  0.25500000920E-02 0. -1.
    10030    2    1    2    0    0  0.00000000000E+00  0.00000000000E+00  0.80331348362E+03  0.32037198868E+04  0.31013720448E+04 0.  0.
        5    1    3    3  502    0  0.12760424234E+03 -0.87295954430E+03 -0.91567808070E+03  0.12715461636E+04  0.46999998093E+01 0. -1.
       -5    1    3    3    0  502 -0.12760424234E+03  0.87295954430E+03  0.17189915643E+04  0.19321737233E+04  0.46999998093E+01 0.  1.
</event>
<event>
 5   0  0.3935852E-07  0.3054050E+04  0.7818609E-02  0.8228463E-01
        1   -1    0    0  501    0  0.00000000000E+00  0.00000000000E+00  0.20474368318E+04  0.20474368318E+04  0.50400001928E-02 0.  1.
       -1   -1    0    0    0  501  0.00000000000E+00  0.00000000000E+00 -0.11388898980E+04  0.11388898980E+04  0.50400001928E-02 0. -1.
    10030    2    1    2    0    0  0.00000000000E+00  0.00000000000E+00  0.90854693378E+03  0.31863267298E+04  0.30540498520E+04 0.  0.
        5    1    3    3  502    0 -0.30920580148E+03 -0.72706001809E+03  0.18176065869E+04  0.19819031995E+04  0.46999998093E+01 0.  1.
       -5    1    3    3    0  502  0.30920580148E+03  0.72706001809E+03 -0.90905965307E+03  0.12044235303E+04  0.46999998093E+01 0. -1.
</event>
<event>
 5   0  0.3935852E-07  0.3106081E+04  0.7818609E-02  0.8214071E-01
        1   -1    0    0  501    0  0.00000000000E+00  0.00000000000E+00  0.23011953013E+04  0.23011953013E+04  0.50400001928E-02 0. -1.
       -1   -1    0    0    0  501  0.00000000000E+00  0.00000000000E+00 -0.10481226213E+04  0.10481226213E+04  0.50400001928E-02 0.  1.
    10030    2    1    2    0    0  0.00000000000E+00  0.00000000000E+00  0.12530726800E+04  0.33493179226E+04  0.31060810364E+04 0.  0.
        5    1    3    3  502    0  0.65055747949E+03  0.84375328463E+02 -0.89138106102E+03  0.11067639839E+04  0.46999998093E+01 0.  1.
       -5    1    3    3    0  502 -0.65055747949E+03 -0.84375328463E+02  0.21444537411E+04  0.22425539386E+04  0.46999998093E+01 0. -1.
</event>
<event>
 5   0  0.1258262E-06  0.3085944E+04  0.7818609E-02  0.8219606E-01
        2   -1    0    0  501    0  0.00000000000E+00  0.00000000000E+00  0.15536075285E+04  0.15536075285E+04  0.25500000920E-02 0. -1.
       -2   -1    0    0    0  501  0.00000000000E+00  0.00000000000E+00 -0.15324093533E+04  0.15324093533E+04  0.25500000920E-02 0.  1.
    10030    2    1    2    0    0  0.00000000000E+00  0.00000000000E+00  0.21198175230E+02  0.30860168819E+04  0.30859440748E+04 0.  0.
        1    1    3    3  502    0 -0.40806690016E+03 -0.31468789961E+03 -0.14438133193E+04  0.15330179288E+04  0.50400001928E-02 0.  1.
       -1    1    3    3    0  502  0.40806690016E+03  0.31468789961E+03  0.14650114945E+04  0.15529989530E+04  0.50400001928E-02 0. -1.
</event>
<event>
 5   0  0.4219337E-07  0.3111754E+04  0.7818609E-02  0.8212520E-01
        1   -1    0    0  501    0  0.00000000000E+00  0.00000000000E+00  0.21987474036E+04  0.21987474036E+04  0.50400001928E-02 0. -1.
       -1   -1    0    0    0  501  0.00000000000E+00  0.00000000000E+00 -0.11009689211E+04  0.11009689211E+04  0.50400001928E-02 0.  1.
    10030    2    1    2    0    0  0.00000000000E+00  0.00000000000E+00  0.10977784825E+04  0.32997163247E+04  0.31117535614E+04 0.  0.
        4    1    3    3  502    0 -0.50222544960E+03 -0.11545711035E+04  0.15181508847E+04  0.19723206020E+04  0.12699999809E+01 0. -1.
       -4    1    3    3    0  502  0.50222544960E+03  0.11545711035E+04 -0.42037240222E+03  0.13273957227E+04  0.12699999809E+01 0.  1.
</event>
<event>
 5   0  0.1176002E-06  0.3104073E+04  0.7818609E-02  0.8214621E-01
        2   -1    0    0  501    0  0.00000000000E+00  0.00000000000E+00  0.89449723132E+03  0.89449723132E+03  0.25500000920E-02 0. -1.
       -2   -1    0    0    0  501  0.00000000000E+00  0.00000000000E+00 -0.26929294327E+04  0.26929294327E+04  0.25500000920E-02 0.  1.
    10030    2    1    2    0    0  0.00000000000E+00  0.00000000000E+00 -0.17984322014E+04  0.35874266640E+04  0.31040734023E+04 0.  0.
        2    1    3    3  502    0 -0.55679738643E+03  0.27582118398E+03  0.74446908201E+03  0.96970865168E+03  0.25500000920E-02 0. -1.
       -2    1    3    3    0  502  0.55679738643E+03 -0.27582118398E+03 -0.25429012834E+04  0.26177180124E+04  0.25500000920E-02 0.  1.
</event>
<event>
 5   0  0.4330395E-07  0.3097878E+04  0.7818609E-02  0.8216320E-01
       -1   -1    0    0    0  501  0.00000000000E+00  0.00000000000E+00  0.14941928958E+04  0.14941928958E+04  0.50400001928E-02 0.  1.
        1   -1    0    0  501    0  0.00000000000E+00  0.00000000000E+00 -0.16056911383E+04  0.16056911383E+04  0.50400001928E-02 0. -1.
    10030    2    1    2    0    0  0.00000000000E+00  0.00000000000E+00 -0.11149824253E+03  0.30998840341E+04  0.30978781717E+04 0.  0.
        1    1    3    3  502    0 -0.11120403188E+04 -0.10608071806E+04  0.13742184554E+03  0.15429939432E+04  0.50400001928E-02 0.  1.
       -1    1    3    3    0  502  0.11120403188E+04  0.10608071806E+04 -0.24892008806E+03  0.15568900909E+04  0.50400001928E-02 0. -1.
</event>
<event>
 5   0  0.1237580E-06  0.3106365E+04  0.7818609E-02  0.8213993E-01
       -2   -1    0    0    0  501  0.00000000000E+00  0.00000000000E+00  0.12549918131E+04  0.12549918131E+04  0.25500000920E-02 0.  1.
        2   -1    0    0  501    0  0.00000000000E+00  0.00000000000E+00 -0.19222248070E+04  0.19222248070E+04  0.25500000920E-02 0. -1.
    10030    2    1    2    0    0  0.00000000000E+00  0.00000000000E+00 -0.66723299390E+03  0.31772166201E+04  0.31063653331E+04 0.  0.
        4    1    3    3  502    0 -0.62786460415E+03 -0.90797689365E+03  0.78388714344E+03  0.13539263891E+04  0.12699999809E+01 0.  1.
       -4    1    3    3    0  502  0.62786460415E+03  0.90797689365E+03 -0.14511201373E+04  0.18232902310E+04  0.12699999809E+01 0. -1.
</event>
<event>
 5   0  0.4219337E-07  0.3092534E+04  0.7818609E-02  0.8217790E-01
       -1   -1    0    0    0  501  0.00000000000E+00  0.00000000000E+00  0.11202311242E+04  0.11202311242E+04  0.50400001928E-02 0. -1.
        1   -1    0    0  501    0  0.00000000000E+00  0.00000000000E+00 -0.21343287608E+04  0.21343287609E+04  0.50400001928E-02 0.  1.
    10030    2    1    2    0    0  0.00000000000E+00  0.00000000000E+00 -0.10140976367E+04  0.32545598850E+04  0.30925339171E+04 0.  0.
        4    1    3    3  502    0  0.10991570416E+04 -0.75841623861E+03  0.31327655077E+03  0.13716724111E+04  0.12699999809E+01 0. -1.
       -4    1    3    3    0  502 -0.10991570416E+04  0.75841623861E+03 -0.13273741874E+04  0.18828874740E+04  0.12699999809E+01 0.  1.
</event>
<event>
 5   0  0.3902375E-07  0.3117205E+04  0.7818609E-02  0.8211032E-01
        4   -1    0    0  501    0  0.00000000000E+00  0.00000000000E+00  0.17167513237E+04  0.17167517935E+04  0.12699999809E+01 0. -1.
       -4   -1    0    0    0  501  0.00000000000E+00  0.00000000000E+00 -0.14150211334E+04  0.14150217033E+04  0.12699999809E+01 0.  1.
    10030    2    1    2    0    0  0.00000000000E+00  0.00000000000E+00  0.30173019031E+03  0.31317734968E+04  0.31172045373E+04 0.  0.
        3    1    3    3  502    0  0.50766691099E+03 -0.19736587525E+03 -0.13162895130E+04  0.14245339847E+04  0.10100000352E+00 0.  1.
       -3    1    3    3    0  502 -0.50766691099E+03  0.19736587525E+03  0.16180197033E+04  0.17072395121E+04  0.10100000352E+00 0. -1.
</event>
<event>
 5   0  0.4219337E-07  0.3091546E+04  0.7818609E-02  0.8218062E-01
        1   -1    0    0  501    0  0.00000000000E+00  0.00000000000E+00  0.23223780435E+04  0.23223780435E+04  0.50400001928E-02 0.  1.
       -1   -1    0    0    0  501  0.00000000000E+00  0.00000000000E+00 -0.10288653531E+04  0.10288653531E+04  0.50400001928E-02 0. -1.
    10030    2    1    2    0    0  0.00000000000E+00  0.00000000000E+00  0.12935126904E+04  0.33512433967E+04  0.30915460895E+04 0.  0.
        4    1    3    3  502    0  0.14594383936E+04 -0.36314840911E+03  0.10339372119E+04  0.18250657420E+04  0.12699999809E+01 0.  1.
       -4    1    3    3    0  502 -0.14594383936E+04  0.36314840911E+03  0.25957547853E+03  0.15261776547E+04  0.12699999809E+01 0. -1.
</event>
<event>
 5   0  0.3935852E-07  0.3090680E+04  0.7818609E-02  0.8218300E-01
       -1   -1    0    0    0  501  0.00000000000E+00  0.00000000000E+00  0.13239163968E+04  0.13239163968E+04  0.50400001928E-02 0.  1.
        1   -1    0    0  501    0  0.00000000000E+00  0.00000000000E+00 -0.18037965889E+04  0.18037965889E+04  0.50400001928E-02 0. -1.
    10030    2    1    2    0    0  0.00000000000E+00  0.00000000000E+00 -0.47988019210E+03  0.31277129857E+04  0.30906801067E+04 0.  0.
        5    1    3    3  502    0 -0.13035899920E+04  0.76426440116E+03  0.87365096594E+02  0.15136385606E+04  0.46999998093E+01 0. -1.
       -5    1    3    3    0  502  0.13035899920E+04 -0.76426440116E+03 -0.56724528870E+03  0.16140744251E+04  0.46999998093E+01 0.  1.
</event>
<event>
 5   0  0.1258262E-06  0.3090925E+04  0.7818609E-02  0.8218233E-01
        2   -1    0    0  501    0  0.00000000000E+00  0.00000000000E+00  0.19816389915E+04  0.19816389915E+04  0.25500000920E-02 0.  1.
       -2   -1    0    0    0  501  0.00000000000E+00  0.00000000000E+00 -0.12052925488E+04  0.12052925488E+04  0.25500000920E-02 0. -1.
    10030    2    1    2    0    0  0.00000000000E+00  0.00000000000E+00  0.77634644273E+03  0.31869315402E+04  0.30909252406E+04 0.  0.
        1    1    3    3  502    0  0.59359671139E+03 -0.29355514652E+03 -0.10515962735E+04  0.12427334398E+04  0.50400001928E-02 0. -1.
       -1    1    3    3    0  502 -0.59359671139E+03  0.29355514652E+03  0.18279427163E+04  0.19441981005E+04  0.50400001928E-02 0.  1.
</event>
<event>
 5   0  0.3935852E-07  0.3094596E+04  0.7818609E-02  0.8217222E-01
        1   -1    0    0  501    0  0.00000000000E+00  0.00000000000E+00  0.96435217359E+03  0.96435217360E+03  0.50400001928E-02 0. -1.
       -1   -1    0    0    0  501  0.00000000000E+00  0.00000000000E+00 -0.24826322168E+04  0.24826322168E+04  0.50400001928E-02 0.  1.
    10030    2    1    2    0    0  0.00000000000E+00  0.00000000000E+00 -0.15182800432E+04  0.34469843904E+04  0.30945964354E+04 0.  0.
        5    1    3    3  502    0 -0.71905811063E+03  0.17885770443E+03 -0.22721518130E+04  0.23899227176E+04  0.46999998093E+01 0.  1.
       -5    1    3    3    0  502  0.71905811063E+03 -0.17885770443E+03  0.75387176975E+03  0.10570616728E+04  0.46999998093E+01 0. -1.
</event>
<event>
 5   0  0.1258262E-06  0.3094882E+04  0.7818609E-02  0.8217144E-01
        2   -1    0    0  501    0  0.00000000000E+00  0.00000000000E+00  0.14658852462E+04  0.14658852462E+04  0.25500000920E-02 0.  1.
       -2   -1    0    0    0  501  0.00000000000E+00  0.00000000000E+00 -0.16335340267E+04  0.16335340267E+04  0.25500000920E-02 0. -1.
    10030    2    1    2    0    0  0.00000000000E+00  0.00000000000E+00 -0.16764878059E+03  0.30994192729E+04  0.30948818581E+04 0.  0.
        1    1    3    3  502    0  0.54523811101E+03 -0.12731739395E+04 -0.77499342461E+03  0.15870952354E+04  0.50400001928E-02 0. -1.
       -1    1    3    3    0  502 -0.54523811101E+03  0.12731739395E+04  0.60734464402E+03  0.15123240375E+04  0.50400001928E-02 0.  1.
</event>
<event>
 5   0  0.4173905E-07  0.3109033E+04  0.7818609E-02  0.8213263E-01
       -1   -1    0    0    0  501  0.00000000000E+00  0.00000000000E+00  0.12515322157E+04  0.12515322158E+04  0.50400001928E-02 0.  1.
        1   -1    0    0  501    0  0.00000000000E+00  0.00000000000E+00 -0.19308504844E+04  0.19308504844E+04  0.50400001928E-02 0. -1.
    10030    2    1    2    0    0  0.00000000000E+00  0.00000000000E+00 -0.67931826869E+03  0.31823827002E+04  0.31090330234E+04 0.  0.
        3    1    3    3  502    0  0.73665333135E+03 -0.35502974704E+03  0.10135816855E+04  0.13023256487E+04  0.10100000352E+00 0.  1.
       -3    1    3    3    0  502 -0.73665333135E+03  0.35502974704E+03 -0.16928999542E+04  0.18800570515E+04  0.10100000352E+00 0. -1.
</event>
<event>
 5   0  0.3935852E-07  0.3037029E+04  0.7818609E-02  0.8233235E-01
       -1   -1    0    0    0  501  0.00000000000E+00  0.00000000000E+00  0.10320590926E+04  0.10320590926E+04  0.50400001928E-02 0.  1.
        1   -1    0    0  501    0  0.00000000000E+00  0.00000000000E+00 -0.22342586443E+04  0.22342586443E+04  0.50400001928E-02 0. -1.
    10030    2    1    2    0    0  0.00000000000E+00  0.00000000000E+00 -0.12021995517E+04  0.32663177368E+04  0.30370294361E+04 0.  0.
        5    1    3    3  502    0 -0.71821024473E+03 -0.68847666731E+03 -0.18348969514E+04  0.20872697452E+04  0.46999998093E+01 0. -1.
       -5    1    3    3    0  502  0.71821024473E+03  0.68847666731E+03  0.63269739965E+03  0.11790479916E+04  0.46999998093E+01 0.  1.
</event>
<event>
 5   0  0.1237580E-06  0.3084582E+04  0.7818609E-02  0.8219982E-01
        2   -1    0    0  501    0  0.00000000000E+00  0.00000000000E+00  0.14829650011E+04  0.14829650011E+04  0.25500000920E-02 0. -1.
       -2   -1    0    0    0  501  0.00000000000E+00  0.00000000000E+00 -0.16039899611E+04  0.16039899611E+04  0.25500000920E-02 0.  1.
    10030    2    1    2    0    0  0.00000000000E+00  0.00000000000E+00 -0.12102495998E+03  0.30869549622E+04  0.30845816407E+04 0.  0.
        4    1    3    3  502    0  0.65065212031E+03  0.11937126734E+04 -0.78933185573E+03  0.15720510550E+04  0.12699999809E+01 0. -1.
       -4    1    3    3    0  502 -0.65065212031E+03 -0.11937126734E+04  0.66830689576E+03  0.15149039072E+04  0.12699999809E+01 0.  1.
</event>
<event>
 5   0  0.1176002E-06  0.3104946E+04  0.7818609E-02  0.8214382E-01
        2   -1    0    0  501    0  0.00000000000E+00  0.00000000000E+00  0.17885480515E+04  0.17885480515E+04  0.25500000920E-02 0. -1.
       -2   -1    0    0    0  501  0.00000000000E+00  0.00000000000E+00 -0.13475581805E+04  0.13475581805E+04  0.25500000920E-02 0.  1.
    10030    2    1    2    0    0  0.00000000000E+00  0.00000000000E+00  0.44098987105E+03  0.31361062320E+04  0.31049460917E+04 0.  0.
        2    1    3    3  502    0  0.55358559538E+03  0.14081365096E+04  0.57164340722E+03  0.16174305630E+04  0.25500000920E-02 0. -1.
       -2    1    3    3    0  502 -0.55358559538E+03 -0.14081365096E+04 -0.13065353618E+03  0.15186756690E+04  0.25500000920E-02 0.  1.
</event>
<event>
 5   0  0.4219337E-07  0.3170090E+04  0.7818609E-02  0.8196761E-01
       -1   -1    0    0    0  501  0.00000000000E+00  0.00000000000E+00  0.19502138736E+04  0.19502138736E+04  0.50400001928E-02 0.  1.
        1   -1    0    0  501    0  0.00000000000E+00  0.00000000000E+00 -0.12882520247E+04  0.12882520247E+04  0.50400001928E-02 0. -1.
    10030    2    1    2    0    0  0.00000000000E+00  0.00000000000E+00  0.66196184899E+03  0.32384658983E+04  0.31700895705E+04 0.  0.
        4    1    3    3  502    0 -0.93874785396E+03  0.12676746968E+04  0.48963258973E+03  0.16516623009E+04  0.12699999809E+01 0.  1.
       -4    1    3    3    0  502  0.93874785396E+03 -0.12676746968E+04  0.17232925926E+03  0.15868035974E+04  0.12699999809E+01 0. -1.
</event>
<event>
 5   0  0.1200286E-06  0.3098235E+04  0.7818609E-02  0.8216223E-01
        2   -1    0    0  501    0  0.00000000000E+00  0.00000000000E+00  0.19873156367E+04  0.19873156367E+04  0.25500000920E-02 0.  1.
       -2   -1    0    0    0  501  0.00000000000E+00  0.00000000000E+00 -0.12075408099E+04  0.12075408099E+04  0.25500000920E-02 0. -1.
    10030    2    1    2    0    0  0.00000000000E+00  0.00000000000E+00  0.77977482683E+03  0.31948564466E+04  0.30982348094E+04 0.  0.
        5    1    3    3  502    0 -0.79640837701E+03 -0.64331686841E+03  0.15887358577E+04  0.18900334948E+04  0.46999998093E+01 0.  1.
       -5    1    3    3    0  502  0.79640837701E+03  0.64331686841E+03 -0.80896103083E+03  0.13048229518E+04  0.46999998093E+01 0. -1.
</event>
<event>
 5   0  0.4330395E-07  0.3096959E+04  0.7818609E-02  0.8216573E-01
       -1   -1    0    0    0  501  0.00000000000E+00  0.00000000000E+00  0.76224405942E+03  0.76224405944E+03  0.50400001928E-02 0. -1.
        1   -1    0    0  501    0  0.00000000000E+00  0.00000000000E+00 -0.31456971586E+04  0.31456971587E+04  0.50400001928E-02 0.  1.
    10030    2    1    2    0    0  0.00000000000E+00  0.00000000000E+00 -0.23834530992E+04  0.39079412181E+04  0.30969591356E+04 0.  0.
        1    1    3    3  502    0  0.56305768203E+03  0.14167085049E+04 -0.84917746596E+03  0.17450499448E+04  0.50400001928E-02 0. -1.
       -1    1    3    3    0  502 -0.56305768203E+03 -0.14167085049E+04 -0.15342756333E+04  0.21628912733E+04  0.50400001928E-02 0.  1.
</event>
<event>
 5   0  0.1237580E-06  0.3113410E+04  0.7818609E-02  0.8212067E-01
        2   -1    0    0  501    0  0.00000000000E+00  0.00000000000E+00  0.12030800056E+04  0.12030800056E+04  0.25500000920E-02 0.  1.
       -2   -1    0    0    0  501  0.00000000000E+00  0.00000000000E+00 -0.20142715906E+04  0.20142715906E+04  0.25500000920E-02 0. -1.
    10030    2    1    2    0    0  0.00000000000E+00  0.00000000000E+00 -0.81119158504E+03  0.32173515962E+04  0.31134096271E+04 0.  0.
        4    1    3    3  502    0  0.33292151551E+03 -0.13829424311E+04  0.24794318650E+03  0.14438988676E+04  0.12699999809E+01 0.  1.
       -4    1    3    3    0  502 -0.33292151551E+03  0.13829424311E+04 -0.10591347715E+04  0.17734527286E+04  0.12699999809E+01 0. -1.
</event>
<event>
 5   0  0.4134019E-07  0.3101264E+04  0.7818609E-02  0.8215391E-01
       -1   -1    0    0    0  501  0.00000000000E+00  0.00000000000E+00  0.14055597355E+04  0.14055597355E+04  0.50400001928E-02 0.  1.
        1   -1    0    0  501    0  0.00000000000E+00  0.00000000000E+00 -0.17106781249E+04  0.17106781249E+04  0.50400001928E-02 0. -1.
    10030    2    1    2    0    0  0.00000000000E+00  0.00000000000E+00 -0.30511838943E+03  0.31162378604E+04  0.31012644471E+04 0.  0.
        2    1    3    3  502    0  0.10976516065E+04  0.10951796537E+04 -0.16686766436E+03  0.15595199071E+04  0.25500000920E-02 0. -1.
       -2    1    3    3    0  502 -0.10976516065E+04 -0.10951796537E+04 -0.13825072507E+03  0.15567179533E+04  0.25500000920E-02 0.  1.
</event>
<event>
 5   0  0.4134019E-07  0.3099682E+04  0.7818609E-02  0.8215825E-01
        1   -1    0    0  501    0  0.00000000000E+00  0.00000000000E+00  0.17923997316E+04  0.17923997316E+04  0.50400001928E-02 0.  1.
       -1   -1    0    0    0  501  0.00000000000E+00  0.00000000000E+00 -0.13401069498E+04  0.13401069498E+04  0.50400001928E-02 0. -1.
    10030    2    1    2    0    0  0.00000000000E+00  0.00000000000E+00  0.45229278175E+03  0.31325066814E+04  0.30996821367E+04 0.  0.
        2    1    3    3  502    0 -0.30343019888E+03 -0.10784218176E+04 -0.85614927963E+03  0.14099840748E+04  0.25500000920E-02 0. -1.
       -2    1    3    3    0  502  0.30343019888E+03  0.10784218176E+04  0.13084420614E+04  0.17225226066E+04  0.25500000920E-02 0.  1.
</event>
<event>
 5   0  0.1176002E-06  0.3105009E+04  0.7818609E-02  0.8214364E-01
       -2   -1    0    0    0  501  0.00000000000E+00  0.00000000000E+00  0.12609937835E+04  0.12609937835E+04  0.25500000920E-02 0.  1.
        2   -1    0    0  501    0  0.00000000000E+00  0.00000000000E+00 -0.19114057737E+04  0.19114057737E+04  0.25500000920E-02 0. -1.
    10030    2    1    2    0    0  0.00000000000E+00  0.00000000000E+00 -0.65041199013E+03  0.31723995572E+04  0.31050093710E+04 0.  0.
        2    1    3    3  502    0 -0.37127496600E+01 -0.99176904647E+03  0.89514248389E+03  0.13360013819E+04  0.25500000920E-02 0.  1.
       -2    1    3    3    0  502  0.37127496600E+01  0.99176904647E+03 -0.15455544740E+04  0.18363981753E+04  0.25500000920E-02 0. -1.
</event>
<event>
 5   0  0.3935852E-07  0.3101916E+04  0.7818609E-02  0.8215212E-01
       -1   -1    0    0    0  501  0.00000000000E+00  0.00000000000E+00  0.10956862362E+04  0.10956862362E+04  0.50400001928E-02 0.  1.
        1   -1    0    0  501    0  0.00000000000E+00  0.00000000000E+00 -0.21954010567E+04  0.21954010567E+04  0.50400001928E-02 0. -1.
    10030    2    1    2    0    0  0.00000000000E+00  0.00000000000E+00 -0.10997148205E+04  0.32910872929E+04  0.31019160020E+04 0.  0.
        5    1    3    3  502    0  0.13346203634E+03 -0.14438880332E+04  0.33996800128E+02  0.14504491166E+04  0.46999998093E+01 0.  1.
       -5    1    3    3    0  502 -0.13346203634E+03  0.14438880332E+04 -0.11337116207E+04  0.18406381764E+04  0.46999998093E+01 0. -1.
</event>
<event>
 5   0  0.4330395E-07  0.3095073E+04  0.7818609E-02  0.8217091E-01
        1   -1    0    0  501    0  0.00000000000E+00  0.00000000000E+00  0.24701528261E+04  0.24701528261E+04  0.50400001928E-02 0.  1.
       -1   -1    0    0    0  501  0.00000000000E+00  0.00000000000E+00 -0.96952294333E+03  0.96952294334E+03  0.50400001928E-02 0. -1.
    10030    2    1    2    0    0  0.00000000000E+00  0.00000000000E+00  0.15006298828E+04  0.34396757695E+04  0.30950734004E+04 0.  0.
        1    1    3    3  502    0 -0.74931448610E+03 -0.42721955275E+03 -0.67760694760E+03  0.10968773499E+04  0.50400001928E-02 0. -1.
       -1    1    3    3    0  502  0.74931448610E+03  0.42721955275E+03  0.21782368304E+04  0.23427984195E+04  0.50400001928E-02 0.  1.
</event>
<event>
 5   0  0.3935852E-07  0.3105280E+04  0.7818609E-02  0.8214290E-01
        1   -1    0    0  501    0  0.00000000000E+00  0.00000000000E+00  0.11082781159E+04  0.11082781159E+04  0.50400001928E-02 0. -1.
       -1   -1    0    0    0  501  0.00000000000E+00  0.00000000000E+00 -0.21751685831E+04  0.21751685831E+04  0.50400001928E-02 0.  1.
    10030    2    1    2    0    0  0.00000000000E+00  0.00000000000E+00 -0.10668904672E+04  0.32834466990E+04  0.31052804955E+04 0.  0.
        5    1    3    3  502    0  0.15301152207E+02 -0.67138938011E+03 -0.20136466294E+04  0.21226852482E+04  0.46999998093E+01 0.  1.
       -5    1    3    3    0  502 -0.15301152207E+02  0.67138938011E+03  0.94675616214E+03  0.11607614507E+04  0.46999998093E+01 0. -1.
</event>
<event>
 5   0  0.1176002E-06  0.3113444E+04  0.7818609E-02  0.8212058E-01
       -2   -1    0    0    0  501  0.00000000000E+00  0.00000000000E+00  0.18128282640E+04  0.18128282640E+04  0.25500000920E-02 0.  1.
        2   -1    0    0  501    0  0.00000000000E+00  0.00000000000E+00 -0.13367972593E+04  0.13367972593E+04  0.25500000920E-02 0. -1.
    10030    2    1    2    0    0  0.00000000000E+00  0.00000000000E+00  0.47603100470E+03  0.31496255234E+04  0.31134443017E+04 0.  0.
        2    1    3    3  502    0 -0.48239864308E+03 -0.68740511643E+03 -0.10879991082E+04  0.13744003436E+04  0.25500000920E-02 0. -1.
       -2    1    3    3    0  502  0.48239864308E+03  0.68740511643E+03  0.15640301129E+04  0.17752251798E+04  0.25500000920E-02 0.  1.
</event>
<event>
 5   0  0.1176002E-06  0.3068567E+04  0.7818609E-02  0.8224418E-01
       -2   -1    0    0    0  501  0.00000000000E+00  0.00000000000E+00  0.19943991001E+04  0.19943991001E+04  0.25500000920E-02 0.  1.
        2   -1    0    0  501    0  0.00000000000E+00  0.00000000000E+00 -0.11803183450E+04  0.11803183450E+04  0.25500000920E-02 0. -1.
    10030    2    1    2    0    0  0.00000000000E+00  0.00000000000E+00  0.81408075509E+03  0.31747174451E+04  0.30685669914E+04 0.  0.
        2    1    3    3  502    0 -0.12469965879E+04  0.84133984251E+02 -0.51365821906E+03  0.13512674730E+04  0.25500000920E-02 0. -1.
       -2    1    3    3    0  502  0.12469965879E+04 -0.84133984251E+02  0.13277389742E+04  0.18234499722E+04  0.25500000920E-02 0.  1.
</event>
<event>
 5   0  0.4330395E-07  0.3121609E+04  0.7818609E-02  0.8209833E-01
       -1   -1    0    0    0  501  0.00000000000E+00  0.00000000000E+00  0.10680351973E+04  0.10680351973E+04  0.50400001928E-02 0. -1.
        1   -1    0    0  501    0  0.00000000000E+00  0.00000000000E+00 -0.22809266654E+04  0.22809266655E+04  0.50400001928E-02 0.  1.
    10030    2    1    2    0    0  0.00000000000E+00  0.00000000000E+00 -0.12128914681E+04  0.33489618628E+04  0.31216085349E+04 0.  0.
        1    1    3    3  502    0 -0.10797858489E+04  0.28367461939E+03  0.56372898398E+03  0.12506794700E+04  0.50400001928E-02 0. -1.
       -1    1    3    3    0  502  0.10797858489E+04 -0.28367461939E+03 -0.17766204521E+04  0.20982823928E+04  0.50400001928E-02 0.  1.
</event>
<event>
 5   0  0.1193123E-06  0.3097519E+04  0.7818609E-02  0.8216419E-01
        2   -1    0    0  501    0  0.00000000000E+00  0.00000000000E+00  0.14725618544E+04  0.14725618544E+04  0.25500000920E-02 0. -1.
       -2   -1    0    0    0  501  0.00000000000E+00  0.00000000000E+00 -0.16288995901E+04  0.16288995901E+04  0.25500000920E-02 0.  1.
    10030    2    1    2    0    0  0.00000000000E+00  0.00000000000E+00 -0.15633773561E+03  0.31014614445E+04  0.30975186205E+04 0.  0.
        3    1    3    3  502    0 -0.78041839732E+03 -0.11062560469E+03  0.12567064737E+04  0.14834426415E+04  0.10100000352E+00 0. -1.
       -3    1    3    3    0  502  0.78041839732E+03  0.11062560469E+03 -0.14130442093E+04  0.16180188030E+04  0.10100000352E+00 0.  1.
</event>
<event>
 5   0  0.1193123E-06  0.3097339E+04  0.7818609E-02  0.8216468E-01
       -2   -1    0    0    0  501  0.00000000000E+00  0.00000000000E+00  0.17560226447E+04  0.17560226447E+04  0.25500000920E-02 0. -1.
        2   -1    0    0  501    0  0.00000000000E+00  0.00000000000E+00 -0.13658011679E+04  0.13658011679E+04  0.25500000920E-02 0.  1.
    10030    2    1    2    0    0  0.00000000000E+00  0.00000000000E+00  0.39022147679E+03  0.31218238125E+04  0.30973393608E+04 0.  0.
        3    1    3    3  502    0  0.14613217416E+04  0.47289119994E+03  0.39489583790E+03  0.15858846278E+04  0.10100000352E+00 0.  1.
       -3    1    3    3    0  502 -0.14613217416E+04 -0.47289119994E+03 -0.46743611047E+01  0.15359391848E+04  0.10100000352E+00 0. -1.
</event>
<event>
 5   0  0.1237580E-06  0.3098375E+04  0.7818609E-02  0.8216184E-01
        2   -1    0    0  501    0  0.00000000000E+00  0.00000000000E+00  0.22038556185E+04  0.22038556185E+04  0.25500000920E-02 0. -1.
       -2   -1    0    0    0  501  0.00000000000E+00  0.00000000000E+00 -0.10889921550E+04  0.10889921550E+04  0.25500000920E-02 0.  1.
    10030    2    1    2    0    0  0.00000000000E+00  0.00000000000E+00  0.11148634635E+04  0.32928477734E+04  0.30983747218E+04 0.  0.
        4    1    3    3  502    0 -0.11720238976E+02  0.74041580621E+03  0.20035854488E+04  0.21360499043E+04  0.12699999809E+01 0. -1.
       -4    1    3    3    0  502  0.11720238976E+02 -0.74041580621E+03 -0.88872198529E+03  0.11567978692E+04  0.12699999809E+01 0.  1.
</event>
<event>
 5   0  0.4219337E-07  0.3106337E+04  0.7818609E-02  0.8214001E-01
        1   -1    0    0  501    0  0.00000000000E+00  0.00000000000E+00  0.80244565680E+03  0.80244565682E+03  0.50400001928E-02 0.  1.
       -1   -1    0    0    0  501  0.00000000000E+00  0.00000000000E+00 -0.30062252103E+04  0.30062252103E+04  0.50400001928E-02 0. -1.
    10030    2    1    2    0    0  0.00000000000E+00  0.00000000000E+00 -0.22037795535E+04  0.38086708671E+04  0.31063369833E+04 0.  0.
        4    1    3    3  502    0  0.12927358783E+04  0.36776480214E+03 -0.14749010650E+03  0.13520990885E+04  0.12699999809E+01 0. -1.
       -4    1    3    3    0  502 -0.12927358783E+04 -0.36776480214E+03 -0.20562894470E+04  0.24565717786E+04  0.12699999809E+01 0.  1.
</event>
<event>
 5   0  0.4219337E-07  0.3099638E+04  0.7818609E-02  0.8215837E-01
       -1   -1    0    0    0  501  0.00000000000E+00  0.00000000000E+00  0.13051345074E+04  0.13051345074E+04  0.50400001928E-02 0.  1.
        1   -1    0    0  501    0  0.00000000000E+00  0.00000000000E+00 -0.18403769429E+04  0.18403769429E+04  0.50400001928E-02 0. -1.
    10030    2    1    2    0    0  0.00000000000E+00  0.00000000000E+00 -0.53524243552E+03  0.31455114503E+04  0.30996383368E+04 0.  0.
        4    1    3    3  502    0 -0.10927481119E+04  0.26903921440E+03  0.81372720592E+03  0.13887527186E+04  0.12699999809E+01 0.  1.
       -4    1    3    3    0  502  0.10927481119E+04 -0.26903921440E+03 -0.13489696414E+04  0.17567587317E+04  0.12699999809E+01 0. -1.
</event>
<event>
 5   0  0.1200286E-06  0.3083247E+04  0.7818609E-02  0.8220351E-01
       -2   -1    0    0    0  501  0.00000000000E+00  0.00000000000E+00  0.13564664837E+04  0.13564664837E+04  0.25500000920E-02 0.  1.
        2   -1    0    0  501    0  0.00000000000E+00  0.00000000000E+00 -0.17520540654E+04  0.17520540654E+04  0.25500000920E-02 0. -1.
    10030    2    1    2    0    0  0.00000000000E+00  0.00000000000E+00 -0.39558758165E+03  0.31085205491E+04  0.30832467416E+04 0.  0.
        5    1    3    3  502    0 -0.14312932099E+04 -0.21961237561E+03  0.33545642059E+03  0.14863993233E+04  0.46999998093E+01 0.  1.
       -5    1    3    3    0  502  0.14312932099E+04  0.21961237561E+03 -0.73104400224E+03  0.16221212258E+04  0.46999998093E+01 0. -1.
</event>
<event>
 5   0  0.4219337E-07  0.3190209E+04  0.7818609E-02  0.8191408E-01
       -1   -1    0    0    0  501  0.00000000000E+00  0.00000000000E+00  0.17529687875E+04  0.17529687875E+04  0.50400001928E-02 0.  1.
        1   -1    0    0  501    0  0.00000000000E+00  0.00000000000E+00 -0.14514570362E+04  0.14514570362E+04  0.50400001928E-02 0. -1.
    10030    2    1    2    0    0  0.00000000000E+00  0.00000000000E+00  0.30151175125E+03  0.32044258237E+04  0.31902093228E+04 0.  0.
        4    1    3    3  502    0  0.71630890213E+03  0.12038892703E+04 -0.61547341184E+03  0.15301166466E+04  0.12699999809E+01 0. -1.
       -4    1    3    3    0  502 -0.71630890213E+03 -0.12038892703E+04  0.91698516309E+03  0.16743091772E+04  0.12699999809E+01 0.  1.
</event>
<event>
 5   0  0.1193123E-06  0.3110365E+04  0.7818609E-02  0.8212899E-01
       -2   -1    0    0    0  501  0.00000000000E+00  0.00000000000E+00  0.15250184479E+04  0.15250184479E+04  0.25500000920E-02 0.  1.
        2   -1    0    0  501    0  0.00000000000E+00  0.00000000000E+00 -0.15859432003E+04  0.15859432003E+04  0.25500000920E-02 0. -1.
    10030    2    1    2    0    0  0.00000000000E+00  0.00000000000E+00 -0.60924752421E+02  0.31109616482E+04  0.31103650190E+04 0.  0.
        3    1    3    3  502    0  0.14200739003E+04  0.12356286852E+02 -0.66448464724E+03  0.15678974509E+04  0.10100000352E+00 0. -1.
       -3    1    3    3    0  502 -0.14200739003E+04 -0.12356286852E+02  0.60355989482E+03  0.15430641973E+04  0.10100000352E+00 0.  1.
</event>
<event>
 5   0  0.1200286E-06  0.3126606E+04  0.7818609E-02  0.8208474E-01
       -2   -1    0    0    0  501  0.00000000000E+00  0.00000000000E+00  0.22583199621E+04  0.22583199621E+04  0.25500000920E-02 0. -1.
        2   -1    0    0  501    0  0.00000000000E+00  0.00000000000E+00 -0.10821836301E+04  0.10821836301E+04  0.25500000920E-02 0.  1.
    10030    2    1    2    0    0  0.00000000000E+00  0.00000000000E+00  0.11761363321E+04  0.33405035922E+04  0.31266063996E+04 0.  0.
        5    1    3    3  502    0 -0.13522693679E+04  0.28001480247E+03 -0.19476074461E+03  0.13946306216E+04  0.46999998093E+01 0.  1.
       -5    1    3    3    0  502  0.13522693679E+04 -0.28001480247E+03  0.13708970767E+04  0.19458729706E+04  0.46999998093E+01 0. -1.
</event>
<event>
 5   0  0.4219337E-07  0.3139100E+04  0.7818609E-02  0.8205088E-01
        1   -1    0    0  501    0  0.00000000000E+00  0.00000000000E+00  0.18131953609E+04  0.18131953609E+04  0.50400001928E-02 0.  1.
       -1   -1    0    0    0  501  0.00000000000E+00  0.00000000000E+00 -0.13586445047E+04  0.13586445047E+04  0.50400001928E-02 0. -1.
    10030    2    1    2    0    0  0.00000000000E+00  0.00000000000E+00  0.45455085612E+03  0.31718398656E+04  0.31391004527E+04 0.  0.
        4    1    3    3  502    0  0.83044998159E+03  0.13281670223E+04  0.32736146762E+03  0.16002630891E+04  0.12699999809E+01 0. -1.
       -4    1    3    3    0  502 -0.83044998159E+03 -0.13281670223E+04  0.12718938850E+03  0.15715767765E+04  0.12699999809E+01 0.  1.
</event>
<event>
 5   0  0.4173905E-07  0.3095823E+04  0.7818609E-02  0.8216885E-01
       -1   -1    0    0    0  501  0.00000000000E+00  0.00000000000E+00  0.13260596444E+04  0.13260596444E+04  0.50400001928E-02 0. -1.
        1   -1    0    0  501    0  0.00000000000E+00  0.00000000000E+00 -0.18068795415E+04  0.18068795415E+04  0.50400001928E-02 0.  1.
    10030    2    1    2    0    0  0.00000000000E+00  0.00000000000E+00 -0.48081989710E+03  0.31329391859E+04  0.30958230197E+04 0.  0.
        3    1    3    3  502    0  0.12642331954E+04  0.76877985877E+03  0.21970800183E+03  0.14958541573E+04  0.10100000352E+00 0.  1.
       -3    1    3    3    0  502 -0.12642331954E+04 -0.76877985877E+03 -0.70052789893E+03  0.16370850286E+04  0.10100000352E+00 0. -1.
</event>
<event>
 5   0  0.4219337E-07  0.3123945E+04  0.7818609E-02  0.8209197E-01
        1   -1    0    0  501    0  0.00000000000E+00  0.00000000000E+00  0.16960824979E+04  0.16960824979E+04  0.50400001928E-02 0. -1.
       -1   -1    0    0    0  501  0.00000000000E+00  0.00000000000E+00 -0.14384666271E+04  0.14384666271E+04  0.50400001928E-02 0.  1.
    10030    2    1    2    0    0  0.00000000000E+00  0.00000000000E+00  0.25761587071E+03  0.31345491250E+04  0.31239449867E+04 0.  0.
        4    1    3    3  502    0  0.10616337934E+04  0.29270174740E+03 -0.98265961185E+03  0.14759275558E+04  0.12699999809E+01 0. -1.
       -4    1    3    3    0  502 -0.10616337934E+04 -0.29270174740E+03  0.12402754826E+04  0.16586215692E+04  0.12699999809E+01 0.  1.
</event>
<event>
 5   0  0.1200286E-06  0.3084402E+04  0.7818609E-02  0.8220032E-01
       -2   -1    0    0    0  501  0.00000000000E+00  0.00000000000E+00  0.13908507116E+04  0.13908507117E+04  0.25500000920E-02 0. -1.
        2   -1    0    0  501    0  0.00000000000E+00  0.00000000000E+00 -0.17100205544E+04  0.17100205544E+04  0.25500000920E-02 0.  1.
    10030    2    1    2    0    0  0.00000000000E+00  0.00000000000E+00 -0.31916984271E+03  0.31008712660E+04  0.30844015983E+04 0.  0.
        5    1    3    3  502    0  0.60398712922E+03 -0.84056618203E+03 -0.13089345209E+04  0.16687371359E+04  0.46999998093E+01 0.  1.
       -5    1    3    3    0  502 -0.60398712922E+03  0.84056618203E+03  0.98976467817E+03  0.14321341302E+04  0.46999998093E+01 0. -1.
</event>
<event>
 5   0  0.4219337E-07  0.3092283E+04  0.7818609E-02  0.8217859E-01
       -1   -1    0    0    0  501  0.00000000000E+00  0.00000000000E+00  0.15240779289E+04  0.15240779289E+04  0.50400001928E-02 0. -1.
        1   -1    0    0  501    0  0.00000000000E+00  0.00000000000E+00 -0.15685245300E+04  0.15685245300E+04  0.50400001928E-02 0.  1.
    10030    2    1    2    0    0  0.00000000000E+00  0.00000000000E+00 -0.44446601023E+02  0.30926024589E+04  0.30922830512E+04 0.  0.
        4    1    3    3  502    0  0.15895846757E+03 -0.33309736511E+03  0.14793745442E+04  0.15247204019E+04  0.12699999809E+01 0. -1.
       -4    1    3    3    0  502 -0.15895846757E+03  0.33309736511E+03 -0.15238211452E+04  0.15678820570E+04  0.12699999809E+01 0.  1.
</event>
<event>
 5   0  0.4134019E-07  0.3064295E+04  0.7818609E-02  0.8225606E-01
       -1   -1    0    0    0  501  0.00000000000E+00  0.00000000000E+00  0.78997466620E+03  0.78997466622E+03  0.50400001928E-02 0.  1.
        1   -1    0    0  501    0  0.00000000000E+00  0.00000000000E+00 -0.29715829131E+04  0.29715829131E+04  0.50400001928E-02 0. -1.
    10030    2    1    2    0    0  0.00000000000E+00  0.00000000000E+00 -0.21816082469E+04  0.37615575793E+04  0.30642945158E+04 0.  0.
        2    1    3    3  502    0  0.14381047928E+04 -0.80967165130E+01 -0.17395056137E+04  0.22570092450E+04  0.25500000920E-02 0. -1.
       -2    1    3    3    0  502 -0.14381047928E+04  0.80967165130E+01 -0.44210263320E+03  0.15045483343E+04  0.25500000920E-02 0.  1.
</event>
<event>
 5   0  0.3935852E-07  0.3093754E+04  0.7818609E-02  0.8217454E-01
        1   -1    0    0  501    0  0.00000000000E+00  0.00000000000E+00  0.15208418313E+04  0.15208418313E+04  0.50400001928E-02 0.  1.
       -1   -1    0    0    0  501  0.00000000000E+00  0.00000000000E+00 -0.15733580135E+04  0.15733580136E+04  0.50400001928E-02 0. -1.
    10030    2    1    2    0    0  0.00000000000E+00  0.00000000000E+00 -0.52516182276E+02  0.30941998448E+04  0.30937541483E+04 0.  0.
        5    1    3    3  502    0  0.11469991456E+04 -0.78364340639E+03  0.65435634152E+03  0.15355482214E+04  0.46999998093E+01 0.  1.
       -5    1    3    3    0  502 -0.11469991456E+04  0.78364340639E+03 -0.70687252380E+03  0.15586516235E+04  0.46999998093E+01 0. -1.
</event>
<event>
 5   0  0.1176002E-06  0.3139926E+04  0.7818609E-02  0.8204865E-01
       -2   -1    0    0    0  501  0.00000000000E+00  0.00000000000E+00  0.10014661800E+04  0.10014661800E+04  0.25500000920E-02 0.  1.
        2   -1    0    0  501    0  0.00000000000E+00  0.00000000000E+00 -0.24611749543E+04  0.24611749543E+04  0.25500000920E-02 0. -1.
    10030    2    1    2    0    0  0.00000000000E+00  0.00000000000E+00 -0.14597087743E+04  0.34626411342E+04  0.31399257823E+04 0.  0.
        2    1    3    3  502    0  0.43133692336E+03 -0.13241114767E+04 -0.15292435120E+04  0.20683105336E+04  0.25500000920E-02 0.  1.
       -2    1    3    3    0  502 -0.43133692336E+03  0.13241114767E+04  0.69534737714E+02  0.13943306007E+04  0.25500000920E-02 0. -1.
</event>
<event>
 5   0  0.1237580E-06  0.3088708E+04  0.7818609E-02  0.8218844E-01
        2   -1    0    0  501    0  0.00000000000E+00  0.00000000000E+00  0.17780540741E+04  0.17780540741E+04  0.25500000920E-02 0.  1.
       -2   -1    0    0    0  501  0.00000000000E+00  0.00000000000E+00 -0.13413705332E+04  0.13413705332E+04  0.25500000920E-02 0. -1.
    10030    2    1    2    0    0  0.00000000000E+00  0.00000000000E+00  0.43668354093E+03  0.31194246073E+04  0.30887080415E+04 0.  0.
        4    1    3    3  502    0 -0.79698870850E+03  0.10755824855E+04 -0.55935444156E+03  0.14508437851E+04  0.12699999809E+01 0.  1.
       -4    1    3    3    0  502  0.79698870850E+03 -0.10755824855E+04  0.99603798249E+03  0.16685808222E+04  0.12699999809E+01 0. -1.
</event>
<event>
 5   0  0.1193123E-06  0.3095728E+04  0.7818609E-02  0.8216911E-01
       -2   -1    0    0    0  501  0.00000000000E+00  0.00000000000E+00  0.92227812059E+03  0.92227812059E+03  0.25500000920E-02 0.  1.
        2   -1    0    0  501    0  0.00000000000E+00  0.00000000000E+00 -0.25977882294E+04  0.25977882294E+04  0.25500000920E-02 0. -1.
    10030    2    1    2    0    0  0.00000000000E+00  0.00000000000E+00 -0.16755101088E+04  0.35200663500E+04  0.30957281831E+04 0.  0.
        3    1    3    3  502    0  0.80117113019E+03  0.10443034267E+04 -0.17639199886E+04  0.22008767715E+04  0.10100000352E+00 0. -1.
       -3    1    3    3    0  502 -0.80117113019E+03 -0.10443034267E+04  0.88409879800E+02  0.13191895785E+04  0.10100000352E+00 0.  1.
</event>
<event>
 5   0  0.4330395E-07  0.3101563E+04  0.7818609E-02  0.8215309E-01
       -1   -1    0    0    0  501  0.00000000000E+00  0.00000000000E+00  0.14124197365E+04  0.14124197365E+04  0.50400001928E-02 0.  1.
        1   -1    0    0  501    0  0.00000000000E+00  0.00000000000E+00 -0.17026971370E+04  0.17026971371E+04  0.50400001928E-02 0. -1.
    10030    2    1    2    0    0  0.00000000000E+00  0.00000000000E+00 -0.29027740052E+03  0.31151168736E+04  0.31015628588E+04 0.  0.
        1    1    3    3  502    0 -0.83724431585E+03 -0.53594334801E+03 -0.13405963501E+04  0.16689553291E+04  0.50400001928E-02 0. -1.
       -1    1    3    3    0  502  0.83724431585E+03  0.53594334801E+03  0.10503189496E+04  0.14461615444E+04  0.50400001928E-02 0.  1.
</event>
<event>
 5   0  0.4173905E-07  0.3108480E+04  0.7818609E-02  0.8213415E-01
       -1   -1    0    0    0  501  0.00000000000E+00  0.00000000000E+00  0.91263374593E+03  0.91263374594E+03  0.50400001928E-02 0. -1.
        1   -1    0    0  501    0  0.00000000000E+00  0.00000000000E+00 -0.26469122595E+04  0.26469122595E+04  0.50400001928E-02 0.  1.
    10030    2    1    2    0    0  0.00000000000E+00  0.00000000000E+00 -0.17342785136E+04  0.35595460055E+04  0.31084796609E+04 0.  0.
        3    1    3    3  502    0  0.32734795504E+03  0.96038291168E+03  0.48106202931E+03  0.11229036944E+04  0.10100000352E+00 0. -1.
       -3    1    3    3    0  502 -0.32734795504E+03 -0.96038291168E+03 -0.22153405429E+04  0.24366423110E+04  0.10100000352E+00 0.  1.
</event>
<event>
 5   0  0.3935852E-07  0.3099422E+04  0.7818609E-02  0.8215897E-01
        1   -1    0    0  501    0  0.00000000000E+00  0.00000000000E+00  0.16406039837E+04  0.16406039837E+04  0.50400001928E-02 0. -1.
       -1   -1    0    0    0  501  0.00000000000E+00  0.00000000000E+00 -0.14638535090E+04  0.14638535090E+04  0.50400001928E-02 0.  1.
    10030    2    1    2    0    0  0.00000000000E+00  0.00000000000E+00  0.17675047472E+03  0.31044574927E+04  0.30994218161E+04 0.  0.
        5    1    3    3  502    0  0.29663443928E+02  0.35162521143E+03  0.15998204933E+04  0.16382819995E+04  0.46999998093E+01 0. -1.
       -5    1    3    3    0  502 -0.29663443928E+02 -0.35162521143E+03 -0.14230700186E+04  0.14661754932E+04  0.46999998093E+01 0.  1.
</event>
<event>
 5   0  0.3935852E-07  0.3104535E+04  0.7818609E-02  0.8214494E-01
        1   -1    0    0  501    0  0.00000000000E+00  0.00000000000E+00  0.14096042679E+04  0.14096042679E+04  0.50400001928E-02 0.  1.
       -1   -1    0    0    0  501  0.00000000000E+00  0.00000000000E+00 -0.17093696202E+04  0.17093696202E+04  0.50400001928E-02 0. -1.
    10030    2    1    2    0    0  0.00000000000E+00  0.00000000000E+00 -0.29976535222E+03  0.31189738881E+04  0.31045352065E+04 0.  0.
        5    1    3    3  502    0  0.74299577202E+03  0.10972066066E+03 -0.15146671984E+04  0.16906567222E+04  0.46999998093E+01 0. -1.
       -5    1    3    3    0  502 -0.74299577202E+03 -0.10972066066E+03  0.12149018461E+04  0.14283171659E+04  0.46999998093E+01 0.  1.
</event>
<event>
 5   0  0.1176002E-06  0.3113794E+04  0.7818609E-02  0.8211963E-01
       -2   -1    0    0    0  501  0.00000000000E+00  0.00000000000E+00  0.13797312498E+04  0.13797312498E+04  0.25500000920E-02 0. -1.
        2   -1    0    0  501    0  0.00000000000E+00  0.00000000000E+00 -0.17568116617E+04  0.17568116617E+04  0.25500000920E-02 0.  1.
    10030    2    1    2    0    0  0.00000000000E+00  0.00000000000E+00 -0.37708041191E+03  0.31365429116E+04  0.31137937952E+04 0.  0.
        2    1    3    3  502    0  0.96211406561E+03 -0.24254602436E+03 -0.13970705235E+04  0.17135629830E+04  0.25500000920E-02 0. -1.
       -2    1    3    3    0  502 -0.96211406561E+03  0.24254602436E+03  0.10199901116E+04  0.14229799285E+04  0.25500000920E-02 0.  1.
</event>
<event>
 5   0  0.1176002E-06  0.3108023E+04  0.7818609E-02  0.8213540E-01
       -2   -1    0    0    0  501  0.00000000000E+00  0.00000000000E+00  0.11607059094E+04  0.11607059094E+04  0.25500000920E-02 0. -1.
        2   -1    0    0  501    0  0.00000000000E+00  0.00000000000E+00 -0.20805886604E+04  0.20805886604E+04  0.25500000920E-02 0.  1.
    10030    2    1    2    0    0  0.00000000000E+00  0.00000000000E+00 -0.91988275098E+03  0.32412945697E+04  0.31080228783E+04 0.  0.
        2    1    3    3  502    0 -0.83044589422E+03  0.11940948693E+04 -0.10306250481E+04  0.17826079013E+04  0.25500000920E-02 0.  1.
       -2    1    3    3    0  502  0.83044589422E+03 -0.11940948693E+04  0.11074229709E+03  0.14586866684E+04  0.25500000920E-02 0. -1.
</event>
<event>
 5   0  0.4173905E-07  0.3101486E+04  0.7818609E-02  0.8215330E-01
       -1   -1    0    0    0  501  0.00000000000E+00  0.00000000000E+00  0.18091433060E+04  0.18091433060E+04  0.50400001928E-02 0.  1.
        1   -1    0    0  501    0  0.00000000000E+00  0.00000000000E+00 -0.13292501779E+04  0.13292501779E+04  0.50400001928E-02 0. -1.
    10030    2    1    2    0    0  0.00000000000E+00  0.00000000000E+00  0.47989312808E+03  0.31383934839E+04  0.31014861350E+04 0.  0.
        3    1    3    3  502    0 -0.10161897624E+04  0.93090792860E+02  0.14215304693E+04  0.17498732566E+04  0.10100000352E+00 0.  1.
       -3    1    3    3    0  502  0.10161897624E+04 -0.93090792860E+02 -0.94163734120E+03  0.13885202273E+04  0.10100000352E+00 0. -1.
</event>
<event>
 5   0  0.4330395E-07  0.3090700E+04  0.7818609E-02  0.8218295E-01
        1   -1    0    0  501    0  0.00000000000E+00  0.00000000000E+00  0.16283630745E+04  0.16283630745E+04  0.50400001928E-02 0. -1.
       -1   -1    0    0    0  501  0.00000000000E+00  0.00000000000E+00 -0.14665685902E+04  0.14665685902E+04  0.50400001928E-02 0.  1.
    10030    2    1    2    0    0  0.00000000000E+00  0.00000000000E+00  0.16179448429E+03  0.30949316648E+04  0.30906996869E+04 0.  0.
        1    1    3    3  502    0 -0.60997876064E+03 -0.73200955953E+03 -0.11374009058E+04  0.14837765682E+04  0.50400001928E-02 0.  1.
       -1    1    3    3    0  502  0.60997876064E+03  0.73200955953E+03  0.12991953901E+04  0.16111550966E+04  0.50400001928E-02 0. -1.
</event>
<event>
 5   0  0.1193123E-06  0.3310038E+04  0.7818609E-02  0.8160346E-01
        2   -1    0    0  501    0  0.00000000000E+00  0.00000000000E+00  0.10711000599E+04  0.10711000599E+04  0.25500000920E-02 0.  1.
       -2   -1    0    0    0  501  0.00000000000E+00  0.00000000000E+00 -0.25572657637E+04  0.25572657637E+04  0.25500000920E-02 0. -1.
    10030    2    1    2    0    0  0.00000000000E+00  0.00000000000E+00 -0.14861657038E+04  0.36283658236E+04  0.33100377718E+04 0.  0.
        3    1    3    3  502    0 -0.65246774508E+03  0.13138754209E+04  0.96833245453E+02  0.14701562732E+04  0.10100000352E+00 0.  1.
       -3    1    3    3    0  502  0.65246774508E+03 -0.13138754209E+04 -0.15829989493E+04  0.21582095504E+04  0.10100000352E+00 0. -1.
</event>
<event>
 5   0  0.1200286E-06  0.3110091E+04  0.7818609E-02  0.8212974E-01
        2   -1    0    0  501    0  0.00000000000E+00  0.00000000000E+00  0.11980663998E+04  0.11980663998E+04  0.25500000920E-02 0. -1.
       -2   -1    0    0    0  501  0.00000000000E+00  0.00000000000E+00 -0.20183910951E+04  0.20183910951E+04  0.25500000920E-02 0.  1.
    10030    2    1    2    0    0  0.00000000000E+00  0.00000000000E+00 -0.82032469523E+03  0.32164574949E+04  0.31100910293E+04 0.  0.
        5    1    3    3  502    0  0.12681588320E+04 -0.70436224208E+03 -0.98949136757E+03  0.17559807083E+04  0.46999998093E+01 0.  1.
       -5    1    3    3    0  502 -0.12681588320E+04  0.70436224208E+03  0.16916667235E+03  0.14604767866E+04  0.46999998093E+01 0. -1.
</event>
<event>
 5   0  0.4134019E-07  0.3100593E+04  0.7818609E-02  0.8215575E-01
        1   -1    0    0  501    0  0.00000000000E+00  0.00000000000E+00  0.16014300077E+04  0.16014300077E+04  0.50400001928E-02 0.  1.
       -1   -1    0    0    0  501  0.00000000000E+00  0.00000000000E+00 -0.15007954747E+04  0.15007954747E+04  0.50400001928E-02 0. -1.
    10030    2    1    2    0    0  0.00000000000E+00  0.00000000000E+00  0.10063453296E+03  0.31022254824E+04  0.31005927876E+04 0.  0.
        2    1    3    3  502    0 -0.45638967414E+03  0.92733726698E+03 -0.11057880380E+04  0.15136093044E+04  0.25500000920E-02 0. -1.
       -2    1    3    3    0  502  0.45638967414E+03 -0.92733726698E+03  0.12064225709E+04  0.15886161780E+04  0.25500000920E-02 0.  1.
</event>
<event>
 5   0  0.4134019E-07  0.3101654E+04  0.7818609E-02  0.8215284E-01
       -1   -1    0    0    0  501  0.00000000000E+00  0.00000000000E+00  0.16546871753E+04  0.16546871753E+04  0.50400001928E-02 0. -1.
        1   -1    0    0  501    0  0.00000000000E+00  0.00000000000E+00 -0.14534862516E+04  0.14534862516E+04  0.50400001928E-02 0.  1.
    10030    2    1    2    0    0  0.00000000000E+00  0.00000000000E+00  0.20120092363E+03  0.31081734269E+04  0.31016544360E+04 0.  0.
        2    1    3    3  502    0 -0.50463949295E+03 -0.10372590583E+03  0.15664273788E+04  0.16489738671E+04  0.25500000920E-02 0. -1.
       -2    1    3    3    0  502  0.50463949295E+03  0.10372590583E+03 -0.13652264552E+04  0.14591995598E+04  0.25500000920E-02 0.  1.
</event>
<event>
 5   0  0.4173905E-07  0.3101303E+04  0.7818609E-02  0.8215380E-01
       -1   -1    0    0    0  501  0.00000000000E+00  0.00000000000E+00  0.17641774626E+04  0.17641774626E+04  0.50400001928E-02 0. -1.
        1   -1    0    0  501    0  0.00000000000E+00  0.00000000000E+00 -0.13629697943E+04  0.13629697943E+04  0.50400001928E-02 0.  1.
    10030    2    1    2    0    0  0.00000000000E+00  0.00000000000E+00  0.40120766830E+03  0.31271472570E+04  0.31013033347E+04 0.  0.
        3    1    3    3  502    0 -0.12248263907E+04 -0.68426380760E+02 -0.75579306081E+03  0.14408695354E+04  0.10100000352E+00 0. -1.
       -3    1    3    3    0  502  0.12248263907E+04  0.68426380760E+02  0.11570007291E+04  0.16862777216E+04  0.10100000352E+00 0.  1.
</event>
<event>
 5   0  0.1193123E-06  0.3185250E+04  0.7818609E-02  0.8192723E-01
        2   -1    0    0  501    0  0.00000000000E+00  0.00000000000E+00  0.22674404288E+04  0.22674404288E+04  0.25500000920E-02 0. -1.
       -2   -1    0    0    0  501  0.00000000000E+00  0.00000000000E+00 -0.11186422400E+04  0.11186422400E+04  0.25500000920E-02 0.  1.
    10030    2    1    2    0    0  0.00000000000E+00  0.00000000000E+00  0.11487981889E+04  0.33860826688E+04  0.31852501568E+04 0.  0.
        3    1    3    3  502    0  0.89724183339E+03  0.12034127775E+04  0.11401273241E+04  0.18849762720E+04  0.10100000352E+00 0. -1.
       -3    1    3    3    0  502 -0.89724183339E+03 -0.12034127775E+04  0.86708647964E+01  0.15011063969E+04  0.10100000352E+00 0.  1.
</event>
<event>
 5   0  0.3935852E-07  0.3088202E+04  0.7818609E-02  0.8218983E-01
       -1   -1    0    0    0  501  0.00000000000E+00  0.00000000000E+00  0.96591555722E+03  0.96591555723E+03  0.50400001928E-02 0. -1.
        1   -1    0    0  501    0  0.00000000000E+00  0.00000000000E+00 -0.24683819895E+04  0.24683819895E+04  0.50400001928E-02 0.  1.
    10030    2    1    2    0    0  0.00000000000E+00  0.00000000000E+00 -0.15024664323E+04  0.34342975467E+04  0.30882024317E+04 0.  0.
        5    1    3    3  502    0 -0.29502200287E+03 -0.12058617458E+04  0.26986632977E+03  0.12704292417E+04  0.46999998093E+01 0. -1.
       -5    1    3    3    0  502  0.29502200287E+03  0.12058617458E+04 -0.17723327620E+04  0.21638683050E+04  0.46999998093E+01 0.  1.
</event>
<event>
 5   0  0.4219337E-07  0.3106619E+04  0.7818609E-02  0.8213924E-01
       -1   -1    0    0    0  501  0.00000000000E+00  0.00000000000E+00  0.12592090250E+04  0.12592090251E+04  0.50400001928E-02 0.  1.
        1   -1    0    0  501    0  0.00000000000E+00  0.00000000000E+00 -0.19160994092E+04  0.19160994092E+04  0.50400001928E-02 0. -1.
    10030    2    1    2    0    0  0.00000000000E+00  0.00000000000E+00 -0.65689038417E+03  0.31753084343E+04  0.31066185276E+04 0.  0.
        4    1    3    3  502    0 -0.77543221599E+03 -0.10793726703E+04 -0.11502296537E+04  0.17576604770E+04  0.12699999809E+01 0. -1.
       -4    1    3    3    0  502  0.77543221599E+03  0.10793726703E+04  0.49333926958E+03  0.14176479573E+04  0.12699999809E+01 0.  1.
</event>
<event>
 5   0  0.1193123E-06  0.3105039E+04  0.7818609E-02  0.8214356E-01
        2   -1    0    0  501    0  0.00000000000E+00  0.00000000000E+00  0.23266464045E+04  0.23266464045E+04  0.25500000920E-02 0.  1.
       -2   -1    0    0    0  501  0.00000000000E+00  0.00000000000E+00 -0.10359617422E+04  0.10359617423E+04  0.25500000920E-02 0. -1.
    10030    2    1    2    0    0  0.00000000000E+00  0.00000000000E+00  0.12906846623E+04  0.33626081468E+04  0.31050389130E+04 0.  0.
        3    1    3    3  502    0 -0.51458014702E+03 -0.69451833092E+03 -0.75127459660E+03  0.11452344604E+04  0.10100000352E+00 0. -1.
       -3    1    3    3    0  502  0.51458014702E+03  0.69451833092E+03  0.20419592589E+04  0.22173736863E+04  0.10100000352E+00 0.  1.
</event>
<event>
 5   0  0.1200286E-06  0.3170437E+04  0.7818609E-02  0.8196669E-01
       -2   -1    0    0    0  501  0.00000000000E+00  0.00000000000E+00  0.23411476070E+04  0.23411476070E+04  0.25500000920E-02 0. -1.
        2   -1    0    0  501    0  0.00000000000E+00  0.00000000000E+00 -0.10733697038E+04  0.10733697038E+04  0.25500000920E-02 0.  1.
    10030    2    1    2    0    0  0.00000000000E+00  0.00000000000E+00  0.12677779032E+04  0.34145173109E+04  0.31704365085E+04 0.  0.
        5    1    3    3  502    0 -0.47068175133E+03  0.14957675855E+04  0.88423409283E+03  0.18002094327E+04  0.46999998093E+01 0. -1.
       -5    1    3    3    0  502  0.47068175133E+03 -0.14957675855E+04  0.38354381038E+03  0.16143078781E+04  0.46999998093E+01 0.  1.
</event>
<event>
 5   0  0.1200286E-06  0.3113066E+04  0.7818609E-02  0.8212161E-01
        2   -1    0    0  501    0  0.00000000000E+00  0.00000000000E+00  0.22026580096E+04  0.22026580096E+04  0.25500000920E-02 0.  1.
       -2   -1    0    0    0  501  0.00000000000E+00  0.00000000000E+00 -0.10999415245E+04  0.10999415245E+04  0.25500000920E-02 0. -1.
    10030    2    1    2    0    0  0.00000000000E+00  0.00000000000E+00  0.11027164851E+04  0.33025995341E+04  0.31130660186E+04 0.  0.
        5    1    3    3  502    0 -0.11018862780E+04  0.10653316591E+04  0.83934066831E+03  0.17474552243E+04  0.46999998093E+01 0.  1.
       -5    1    3    3    0  502  0.11018862780E+04 -0.10653316591E+04  0.26337581676E+03  0.15551443098E+04  0.46999998093E+01 0. -1.
</event>
<event>
 5   0  0.1200286E-06  0.3101388E+04  0.7818609E-02  0.8215357E-01
        2   -1    0    0  501    0  0.00000000000E+00  0.00000000000E+00  0.13585128322E+04  0.13585128322E+04  0.25500000920E-02 0.  1.
       -2   -1    0    0    0  501  0.00000000000E+00  0.00000000000E+00 -0.17700614314E+04  0.17700614314E+04  0.25500000920E-02 0. -1.
    10030    2    1    2    0    0  0.00000000000E+00  0.00000000000E+00 -0.41154859921E+03  0.31285742637E+04  0.31013875401E+04 0.  0.
        5    1    3    3  502    0  0.13569736768E+04 -0.37086508864E+03  0.45241022252E+03  0.14777061862E+04  0.46999998093E+01 0.  1.
       -5    1    3    3    0  502 -0.13569736768E+04  0.37086508864E+03 -0.86395882174E+03  0.16508680774E+04  0.46999998093E+01 0. -1.
</event>
<event>
 5   0  0.1176002E-06  0.3142378E+04  0.7818609E-02  0.8204203E-01
       -2   -1    0    0    0  501  0.00000000000E+00  0.00000000000E+00  0.14818130992E+04  0.14818130992E+04  0.25500000920E-02 0.  1.
        2   -1    0    0  501    0  0.00000000000E+00  0.00000000000E+00 -0.16659551469E+04  0.16659551469E+04  0.25500000920E-02 0. -1.
    10030    2    1    2    0    0  0.00000000000E+00  0.00000000000E+00 -0.18414204768E+03  0.31477682461E+04  0.31423775453E+04 0.  0.
        2    1    3    3  502    0  0.57353473483E+03  0.13460652174E+04 -0.66559184823E+03  0.16074346550E+04  0.25500000920E-02 0.  1.
       -2    1    3    3    0  502 -0.57353473483E+03 -0.13460652174E+04  0.48144980055E+03  0.15403335911E+04  0.25500000920E-02 0. -1.
</event>
<event>
 5   0  0.1237580E-06  0.3101640E+04  0.7818609E-02  0.8215288E-01
       -2   -1    0    0    0  501  0.00000000000E+00  0.00000000000E+00  0.10446967366E+04  0.10446967367E+04  0.25500000920E-02 0.  1.
        2   -1    0    0  501    0  0.00000000000E+00  0.00000000000E+00 -0.23021438134E+04  0.23021438134E+04  0.25500000920E-02 0. -1.
    10030    2    1    2    0    0  0.00000000000E+00  0.00000000000E+00 -0.12574470767E+04  0.33468405500E+04  0.31016396497E+04 0.  0.
        4    1    3    3  502    0  0.15227327205E+04  0.25797671545E+03 -0.78045878430E+03  0.17304289788E+04  0.12699999809E+01 0.  1.
       -4    1    3    3    0  502 -0.15227327205E+04 -0.25797671545E+03 -0.47698829244E+03  0.16164115713E+04  0.12699999809E+01 0. -1.
</event>
<event>
 5   0  0.1200286E-06  0.3101657E+04  0.7818609E-02  0.8215283E-01
       -2   -1    0    0    0  501  0.00000000000E+00  0.00000000000E+00  0.14319862021E+04  0.14319862021E+04  0.25500000920E-02 0.  1.
        2   -1    0    0  501    0  0.00000000000E+00  0.00000000000E+00 -0.16795335088E+04  0.16795335088E+04  0.25500000920E-02 0. -1.
    10030    2    1    2    0    0  0.00000000000E+00  0.00000000000E+00 -0.24754730668E+03  0.31115197109E+04  0.31016568544E+04 0.  0.
        5    1    3    3  502    0 -0.32157283846E+03 -0.13411600017E+03  0.13922068974E+04  0.14351509771E+04  0.46999998093E+01 0.  1.
       -5    1    3    3    0  502  0.32157283846E+03  0.13411600017E+03 -0.16397542041E+04  0.16763687338E+04  0.46999998093E+01 0. -1.
</event>
<event>
 5   0  0.1200286E-06  0.3101182E+04  0.7818609E-02  0.8215414E-01
       -2   -1    0    0    0  501  0.00000000000E+00  0.00000000000E+00  0.10956751317E+04  0.10956751317E+04  0.25500000920E-02 0. -1.
        2   -1    0    0  501    0  0.00000000000E+00  0.00000000000E+00 -0.21943843045E+04  0.21943843045E+04  0.25500000920E-02 0.  1.
    10030    2    1    2    0    0  0.00000000000E+00  0.00000000000E+00 -0.10987091727E+04  0.32900594362E+04  0.31011819114E+04 0.  0.
        5    1    3    3  502    0  0.11301050209E+04  0.76516849624E+03 -0.13301763776E+04  0.19057836896E+04  0.46999998093E+01 0.  1.
       -5    1    3    3    0  502 -0.11301050209E+04 -0.76516849624E+03  0.23146720491E+03  0.13842757466E+04  0.46999998093E+01 0. -1.
</event>
<event>
 5   0  0.1258262E-06  0.3110321E+04  0.7818609E-02  0.8212911E-01
        2   -1    0    0  501    0  0.00000000000E+00  0.00000000000E+00  0.24985218308E+04  0.24985218308E+04  0.25500000920E-02 0. -1.
       -2   -1    0    0    0  501  0.00000000000E+00  0.00000000000E+00 -0.96798191280E+03  0.96798191280E+03  0.25500000920E-02 0.  1.
    10030    2    1    2    0    0  0.00000000000E+00  0.00000000000E+00  0.15305399180E+04  0.34665037436E+04  0.31103208458E+04 0.  0.
        1    1    3    3  502    0  0.15544458613E+04 -0.20626509166E+01  0.81775588334E+03  0.17564255962E+04  0.50400001928E-02 0. -1.
       -1    1    3    3    0  502 -0.15544458613E+04  0.20626509166E+01  0.71278403467E+03  0.17100781474E+04  0.50400001928E-02 0.  1.
</event>
<event>
 5   0  0.3902375E-07  0.3095524E+04  0.7818609E-02  0.8216967E-01
       -3   -1    0    0    0  501  0.00000000000E+00  0.00000000000E+00  0.14212131716E+04  0.14212131752E+04  0.10100000352E+00 0.  1.
        3   -1    0    0  501    0  0.00000000000E+00  0.00000000000E+00 -0.16855792593E+04  0.16855792623E+04  0.10100000352E+00 0. -1.
    10030    2    1    2    0    0  0.00000000000E+00  0.00000000000E+00 -0.26436608766E+03  0.31067924375E+04  0.30955241594E+04 0.  0.
        5    1    3    3  502    0 -0.12670963690E+04  0.79935940356E+03  0.25786606216E+03  0.15202057954E+04  0.46999998093E+01 0.  1.
       -5    1    3    3    0  502  0.12670963690E+04 -0.79935940356E+03 -0.52223214982E+03  0.15865866421E+04  0.46999998093E+01 0. -1.
</event>
<event>
 5   0  0.1258262E-06  0.3120642E+04  0.7818609E-02  0.8210096E-01
       -2   -1    0    0    0  501  0.00000000000E+00  0.00000000000E+00  0.19833151611E+04  0.19833151611E+04  0.25500000920E-02 0.  1.
        2   -1    0    0  501    0  0.00000000000E+00  0.00000000000E+00 -0.12275413702E+04  0.12275413702E+04  0.25500000920E-02 0. -1.
    10030    2    1    2    0    0  0.00000000000E+00  0.00000000000E+00  0.75577379086E+03  0.32108565313E+04  0.31206418637E+04 0.  0.
        1    1    3    3  502    0 -0.96507157374E+03  0.37721136854E+03  0.15782096293E+04  0.18879611207E+04  0.50400001928E-02 0.  1.
       -1    1    3    3    0  502  0.96507157374E+03 -0.37721136854E+03 -0.82243583848E+03  0.13228954106E+04  0.50400001928E-02 0. -1.
</event>
<event>
 5   0  0.4134019E-07  0.3099695E+04  0.7818609E-02  0.8215822E-01
        1   -1    0    0  501    0  0.00000000000E+00  0.00000000000E+00  0.11997390015E+04  0.11997390015E+04  0.50400001928E-02 0. -1.
       -1   -1    0    0    0  501  0.00000000000E+00  0.00000000000E+00 -0.20021250174E+04  0.20021250174E+04  0.50400001928E-02 0.  1.
    10030    2    1    2    0    0  0.00000000000E+00  0.00000000000E+00 -0.80238601591E+03  0.32018640189E+04  0.30996951264E+04 0.  0.
        2    1    3    3  502    0  0.13797323683E+04  0.93398032541E+02  0.32161610622E+03  0.14197962954E+04  0.25500000920E-02 0.  1.
       -2    1    3    3    0  502 -0.13797323683E+04 -0.93398032541E+02 -0.11240021221E+04  0.17820677235E+04  0.25500000920E-02 0. -1.
</event>
<event>
 5   0  0.1193123E-06  0.3120467E+04  0.7818609E-02  0.8210143E-01
        2   -1    0    0  501    0  0.00000000000E+00  0.00000000000E+00  0.16883709967E+04  0.16883709967E+04  0.25500000920E-02 0. -1.
       -2   -1    0    0    0  501  0.00000000000E+00  0.00000000000E+00 -0.14418205979E+04  0.14418205979E+04  0.25500000920E-02 0.  1.
    10030    2    1    2    0    0  0.00000000000E+00  0.00000000000E+00  0.24655039875E+03  0.31301915946E+04  0.31204666830E+04 0.  0.
        3    1    3    3  502    0 -0.10827317743E+04 -0.24722600147E+03 -0.97599552719E+03  0.14785114373E+04  0.10100000352E+00 0.  1.
       -3    1    3    3    0  502  0.10827317743E+04  0.24722600147E+03  0.12225459259E+04  0.16516801573E+04  0.10100000352E+00 0. -1.
</event>
<event>
 5   0  0.4219337E-07  0.3090781E+04  0.7818609E-02  0.8218273E-01
       -1   -1    0    0    0  501  0.00000000000E+00  0.00000000000E+00  0.10343954147E+04  0.10343954147E+04  0.50400001928E-02 0. -1.
        1   -1    0    0  501    0  0.00000000000E+00  0.00000000000E+00 -0.23088185310E+04  0.23088185310E+04  0.50400001928E-02 0.  1.
    10030    2    1    2    0    0  0.00000000000E+00  0.00000000000E+00 -0.12744231162E+04  0.33432139457E+04  0.30907806793E+04 0.  0.
        4    1    3    3  502    0  0.12315194936E+04 -0.87315171078E+02 -0.16426238209E+04  0.20548671081E+04  0.12699999809E+01 0. -1.
       -4    1    3    3    0  502 -0.12315194936E+04  0.87315171078E+02  0.36820070465E+03  0.12883468376E+04  0.12699999809E+01 0.  1.
</event>
<event>
 5   0  0.4330395E-07  0.3172696E+04  0.7818609E-02  0.8196066E-01
        1   -1    0    0  501    0  0.00000000000E+00  0.00000000000E+00  0.25439089747E+04  0.25439089747E+04  0.50400001928E-02 0.  1.
       -1   -1    0    0    0  501  0.00000000000E+00  0.00000000000E+00 -0.98922548133E+03  0.98922548135E+03  0.50400001928E-02 0. -1.
    10030    2    1    2    0    0  0.00000000000E+00  0.00000000000E+00  0.15546834934E+04  0.35331344561E+04  0.31726957497E+04 0.  0.
        1    1    3    3  502    0  0.49018728885E+03 -0.81220703009E+03 -0.63853155985E+03  0.11435411627E+04  0.50400001928E-02 0. -1.
       -1    1    3    3    0  502 -0.49018728885E+03  0.81220703009E+03  0.21932150532E+04  0.23895932934E+04  0.50400001928E-02 0.  1.
</event>
<event>
 5   0  0.3935852E-07  0.3111786E+04  0.7818609E-02  0.8212511E-01
       -1   -1    0    0    0  501  0.00000000000E+00  0.00000000000E+00  0.18764897494E+04  0.18764897495E+04  0.50400001928E-02 0. -1.
        1   -1    0    0  501    0  0.00000000000E+00  0.00000000000E+00 -0.12900700877E+04  0.12900700877E+04  0.50400001928E-02 0.  1.
    10030    2    1    2    0    0  0.00000000000E+00  0.00000000000E+00  0.58641966177E+03  0.31665598371E+04  0.31117861724E+04 0.  0.
        5    1    3    3  502    0  0.26639646578E+03  0.14655258663E+04 -0.16419979409E+03  0.14985715880E+04  0.46999998093E+01 0.  1.
       -5    1    3    3    0  502 -0.26639646578E+03 -0.14655258663E+04  0.75061945587E+03  0.16679882492E+04  0.46999998093E+01 0. -1.
</event>
<event>
 5   0  0.1237580E-06  0.3096041E+04  0.7818609E-02  0.8216825E-01
        2   -1    0    0  501    0  0.00000000000E+00  0.00000000000E+00  0.20490695968E+04  0.20490695968E+04  0.25500000920E-02 0. -1.
       -2   -1    0    0    0  501  0.00000000000E+00  0.00000000000E+00 -0.11694901622E+04  0.11694901622E+04  0.25500000920E-02 0.  1.
    10030    2    1    2    0    0  0.00000000000E+00  0.00000000000E+00  0.87957943468E+03  0.32185597590E+04  0.30960405263E+04 0.  0.
        4    1    3    3  502    0  0.11044879400E+04  0.17117898774E+03  0.15532345189E+04  0.19135660269E+04  0.12699999809E+01 0. -1.
       -4    1    3    3    0  502 -0.11044879400E+04 -0.17117898774E+03 -0.67365508425E+03  0.13049937321E+04  0.12699999809E+01 0.  1.
</event>
<event>
 5   0  0.4134019E-07  0.3090669E+04  0.7818609E-02  0.8218303E-01
       -1   -1    0    0    0  501  0.00000000000E+00  0.00000000000E+00  0.13566325753E+04  0.13566325753E+04  0.50400001928E-02 0. -1.
        1   -1    0    0  501    0  0.00000000000E+00  0.00000000000E+00 -0.17602841898E+04  0.17602841898E+04  0.50400001928E-02 0.  1.
    10030    2    1    2    0    0  0.00000000000E+00  0.00000000000E+00 -0.40365161445E+03  0.31169167651E+04  0.30906691015E+04 0.  0.
        2    1    3    3  502    0  0.10455860229E+03 -0.94528823615E+03 -0.14301831981E+04  0.17175349577E+04  0.25500000920E-02 0.  1.
       -2    1    3    3    0  502 -0.10455860229E+03  0.94528823615E+03  0.10265315837E+04  0.13993818074E+04  0.25500000920E-02 0. -1.
</event>
<event>
 5   0  0.1176002E-06  0.3106909E+04  0.7818609E-02  0.8213844E-01
       -2   -1    0    0    0  501  0.00000000000E+00  0.00000000000E+00  0.88002637477E+03  0.88002637477E+03  0.25500000920E-02 0. -1.
        2   -1    0    0  501    0  0.00000000000E+00  0.00000000000E+00 -0.27422144047E+04  0.27422144047E+04  0.25500000920E-02 0.  1.
    10030    2    1    2    0    0  0.00000000000E+00  0.00000000000E+00 -0.18621880299E+04  0.36222407795E+04  0.31069090759E+04 0.  0.
        2    1    3    3  502    0  0.72097463275E+03  0.75818214588E+02  0.67071819291E+03  0.98763136698E+03  0.25500000920E-02 0. -1.
       -2    1    3    3    0  502 -0.72097463275E+03 -0.75818214588E+02 -0.25329062228E+04  0.26346094125E+04  0.25500000920E-02 0.  1.
</event>
<event>
 5   0  0.1258262E-06  0.3095630E+04  0.7818609E-02  0.8216938E-01
        2   -1    0    0  501    0  0.00000000000E+00  0.00000000000E+00  0.19812302859E+04  0.19812302859E+04  0.25500000920E-02 0.  1.
       -2   -1    0    0    0  501  0.00000000000E+00  0.00000000000E+00 -0.12092142624E+04  0.12092142624E+04  0.25500000920E-02 0. -1.
    10030    2    1    2    0    0  0.00000000000E+00  0.00000000000E+00  0.77201602349E+03  0.31904445483E+04  0.30956304165E+04 0.  0.
        1    1    3    3  502    0  0.11177821634E+04  0.56139793873E+03 -0.55357654852E+03  0.13678638841E+04  0.50400001928E-02 0. -1.
       -1    1    3    3    0  502 -0.11177821634E+04 -0.56139793873E+03  0.13255925720E+04  0.18225806642E+04  0.50400001928E-02 0.  1.
</event>
<event>
 5   0  0.1200286E-06  0.3102427E+04  0.7818609E-02  0.8215072E-01
        2   -1    0    0  501    0  0.00000000000E+00  0.00000000000E+00  0.17952714460E+04  0.17952714460E+04  0.25500000920E-02 0. -1.
       -2   -1    0    0    0  501  0.00000000000E+00  0.00000000000E+00 -0.13403341519E+04  0.13403341519E+04  0.25500000920E-02 0.  1.
    10030    2    1    2    0    0  0.00000000000E+00  0.00000000000E+00  0.45493729403E+03  0.31356055979E+04  0.31024271988E+04 0.  0.
        5    1    3    3  502    0 -0.54862572758E+03 -0.14507567749E+04  0.25130330057E+03  0.15712609101E+04  0.46999998093E+01 0.  1.
       -5    1    3    3    0  502  0.54862572758E+03  0.14507567749E+04  0.20363399346E+03  0.15643446878E+04  0.46999998093E+01 0. -1.
</event>
<event>
 5   0  0.4134019E-07  0.3124114E+04  0.7818609E-02  0.8209151E-01
        1   -1    0    0  501    0  0.00000000000E+00  0.00000000000E+00  0.23611028712E+04  0.23611028712E+04  0.50400001928E-02 0. -1.
       -1   -1    0    0    0  501  0.00000000000E+00  0.00000000000E+00 -0.10334245893E+04  0.10334245893E+04  0.50400001928E-02 0.  1.
    10030    2    1    2    0    0  0.00000000000E+00  0.00000000000E+00  0.13276782820E+04  0.33945274605E+04  0.31241138039E+04 0.  0.
        2    1    3    3  502    0  0.16875938177E+03  0.96794125669E+03 -0.65561491391E+03  0.11811947006E+04  0.25500000920E-02 0.  1.
       -2    1    3    3    0  502 -0.16875938177E+03 -0.96794125669E+03  0.19832931959E+04  0.22133327599E+04  0.25500000920E-02 0. -1.
</event>
<event>
 5   0  0.4219337E-07  0.3114195E+04  0.7818609E-02  0.8211853E-01
        1   -1    0    0  501    0  0.00000000000E+00  0.00000000000E+00  0.11556445523E+04  0.11556445523E+04  0.50400001928E-02 0. -1.
       -1   -1    0    0    0  501  0.00000000000E+00  0.00000000000E+00 -0.20980086054E+04  0.20980086055E+04  0.50400001928E-02 0.  1.
    10030    2    1    2    0    0  0.00000000000E+00  0.00000000000E+00 -0.94236405317E+03  0.32536531577E+04  0.31141947374E+04 0.  0.
        4    1    3    3  502    0  0.30832181859E+03 -0.12234693607E+04  0.48215520862E+03  0.13507090281E+04  0.12699999809E+01 0. -1.
       -4    1    3    3    0  502 -0.30832181859E+03  0.12234693607E+04 -0.14245192618E+04  0.19029441297E+04  0.12699999809E+01 0.  1.
</event>
<event>
 5   0  0.1237580E-06  0.3121104E+04  0.7818609E-02  0.8209970E-01
       -2   -1    0    0    0  501  0.00000000000E+00  0.00000000000E+00  0.10567719242E+04  0.10567719242E+04  0.25500000920E-02 0.  1.
        2   -1    0    0  501    0  0.00000000000E+00  0.00000000000E+00 -0.23044919157E+04  0.23044919157E+04  0.25500000920E-02 0. -1.
    10030    2    1    2    0    0  0.00000000000E+00  0.00000000000E+00 -0.12477199915E+04  0.33612638400E+04  0.31211038792E+04 0.  0.
        4    1    3    3  502    0 -0.55782561412E+02  0.26758131158E+03 -0.22785111097E+04  0.22948476948E+04  0.12699999809E+01 0. -1.
       -4    1    3    3    0  502  0.55782561412E+02 -0.26758131158E+03  0.10307911182E+04  0.10664161452E+04  0.12699999809E+01 0.  1.
</event>
<event>
 5   0  0.1193123E-06  0.3089578E+04  0.7818609E-02  0.8218604E-01
       -2   -1    0    0    0  501  0.00000000000E+00  0.00000000000E+00  0.23173299439E+04  0.23173299439E+04  0.25500000920E-02 0.  1.
        2   -1    0    0  501    0  0.00000000000E+00  0.00000000000E+00 -0.10297941895E+04  0.10297941895E+04  0.25500000920E-02 0. -1.
    10030    2    1    2    0    0  0.00000000000E+00  0.00000000000E+00  0.12875357544E+04  0.33471241334E+04  0.30895779073E+04 0.  0.
        3    1    3    3  502    0  0.95750988325E+03 -0.45224803013E+03  0.18622559113E+04  0.21422769538E+04  0.10100000352E+00 0.  1.
       -3    1    3    3    0  502 -0.95750988325E+03  0.45224803013E+03 -0.57472015687E+03  0.12048471796E+04  0.10100000352E+00 0. -1.
</event>
<event>
 5   0  0.4330395E-07  0.3069256E+04  0.7818609E-02  0.8224226E-01
       -1   -1    0    0    0  501  0.00000000000E+00  0.00000000000E+00  0.14611450276E+04  0.14611450276E+04  0.50400001928E-02 0.  1.
        1   -1    0    0  501    0  0.00000000000E+00  0.00000000000E+00 -0.16118069490E+04  0.16118069490E+04  0.50400001928E-02 0. -1.
    10030    2    1    2    0    0  0.00000000000E+00  0.00000000000E+00 -0.15066192146E+03  0.30729519766E+04  0.30692563979E+04 0.  0.
        1    1    3    3  502    0  0.10041840299E+04  0.51768064296E+03 -0.11151886994E+04  0.15874585504E+04  0.50400001928E-02 0. -1.
       -1    1    3    3    0  502 -0.10041840299E+04 -0.51768064296E+03  0.96452677792E+03  0.14854934262E+04  0.50400001928E-02 0.  1.
</event>
<event>
 5   0  0.4173905E-07  0.3093225E+04  0.7818609E-02  0.8217600E-01
        1   -1    0    0  501    0  0.00000000000E+00  0.00000000000E+00  0.94742267703E+03  0.94742267705E+03  0.50400001928E-02 0. -1.
       -1   -1    0    0    0  501  0.00000000000E+00  0.00000000000E+00 -0.25247555338E+04  0.25247555338E+04  0.50400001928E-02 0.  1.
    10030    2    1    2    0    0  0.00000000000E+00  0.00000000000E+00 -0.15773328568E+04  0.34721782108E+04  0.30932252726E+04 0.  0.
        3    1    3    3  502    0  0.10029927664E+03  0.33185825978E+03  0.90324448614E+03  0.96749184050E+03  0.10100000352E+00 0. -1.
       -3    1    3    3    0  502 -0.10029927664E+03 -0.33185825978E+03 -0.24805773429E+04  0.25046863703E+04  0.10100000352E+00 0.  1.
</event>
<event>
 5   0  0.4134019E-07  0.3103001E+04  0.7818609E-02  0.8214915E-01
       -1   -1    0    0    0  501  0.00000000000E+00  0.00000000000E+00  0.14211857086E+04  0.14211857086E+04  0.50400001928E-02 0.  1.
        1   -1    0    0  501    0  0.00000000000E+00  0.00000000000E+00 -0.16937645342E+04  0.16937645342E+04  0.50400001928E-02 0. -1.
    10030    2    1    2    0    0  0.00000000000E+00  0.00000000000E+00 -0.27257882555E+03  0.31149502428E+04  0.31030010955E+04 0.  0.
        2    1    3    3  502    0  0.37120257875E+03 -0.73210366509E+03 -0.14579408413E+04  0.16731283955E+04  0.25500000920E-02 0. -1.
       -2    1    3    3    0  502 -0.37120257875E+03  0.73210366509E+03  0.11853620158E+04  0.14418218473E+04  0.25500000920E-02 0.  1.
</event>
<event>
 5   0  0.4134019E-07  0.3100694E+04  0.7818609E-02  0.8215548E-01
        1   -1    0    0  501    0  0.00000000000E+00  0.00000000000E+00  0.16850633617E+04  0.16850633617E+04  0.50400001928E-02 0. -1.
       -1   -1    0    0    0  501  0.00000000000E+00  0.00000000000E+00 -0.14264005997E+04  0.14264005997E+04  0.50400001928E-02 0.  1.
    10030    2    1    2    0    0  0.00000000000E+00  0.00000000000E+00  0.25866276196E+03  0.31114639614E+04  0.31006937221E+04 0.  0.
        2    1    3    3  502    0 -0.54289976550E+03  0.12775784989E+04 -0.56344946122E+03  0.14981396035E+04  0.25500000920E-02 0.  1.
       -2    1    3    3    0  502  0.54289976550E+03 -0.12775784989E+04  0.82211222318E+03  0.16133243579E+04  0.25500000920E-02 0. -1.
</event>
<event>
 5   0  0.1200286E-06  0.3089205E+04  0.7818609E-02  0.8218707E-01
       -2   -1    0    0    0  501  0.00000000000E+00  0.00000000000E+00  0.99688885613E+03  0.99688885614E+03  0.25500000920E-02 0. -1.
        2   -1    0    0  501    0  0.00000000000E+00  0.00000000000E+00 -0.23932420658E+04  0.23932420658E+04  0.25500000920E-02 0.  1.
    10030    2    1    2    0    0  0.00000000000E+00  0.00000000000E+00 -0.13963532097E+04  0.33901309220E+04  0.30892046520E+04 0.  0.
        5    1    3    3  502    0  0.11917787065E+04 -0.97970250063E+03 -0.78045164469E+03  0.17289535375E+04  0.46999998093E+01 0. -1.
       -5    1    3    3    0  502 -0.11917787065E+04  0.97970250063E+03 -0.61590156501E+03  0.16611773845E+04  0.46999998093E+01 0.  1.
</event>
<event>
 5   0  0.3935852E-07  0.3104276E+04  0.7818609E-02  0.8214565E-01
        1   -1    0    0  501    0  0.00000000000E+00  0.00000000000E+00  0.17545946643E+04  0.17545946643E+04  0.50400001928E-02 0.  1.
       -1   -1    0    0    0  501  0.00000000000E+00  0.00000000000E+00 -0.13730419135E+04  0.13730419136E+04  0.50400001928E-02 0. -1.
    10030    2    1    2    0    0  0.00000000000E+00  0.00000000000E+00  0.38155275075E+03  0.31276365779E+04  0.31042757709E+04 0.  0.
        5    1    3    3  502    0 -0.12191688964E+04  0.38325866354E+03 -0.69667557749E+03  0.14555545168E+04  0.46999998093E+01 0. -1.
       -5    1    3    3    0  502  0.12191688964E+04 -0.38325866354E+03  0.10782283282E+04  0.16720820611E+04  0.46999998093E+01 0.  1.
</event>
<event>
 5   0  0.4173905E-07  0.3120663E+04  0.7818609E-02  0.8210090E-01
        1   -1    0    0  501    0  0.00000000000E+00  0.00000000000E+00  0.14384803840E+04  0.14384803840E+04  0.50400001928E-02 0.  1.
       -1   -1    0    0    0  501  0.00000000000E+00  0.00000000000E+00 -0.16925040535E+04  0.16925040535E+04  0.50400001928E-02 0. -1.
    10030    2    1    2    0    0  0.00000000000E+00  0.00000000000E+00 -0.25402366947E+03  0.31309844375E+04  0.31206626737E+04 0.  0.
        3    1    3    3  502    0  0.11719105579E+04  0.38570695089E+03 -0.10854146025E+04  0.16432495480E+04  0.10100000352E+00 0. -1.
       -3    1    3    3    0  502 -0.11719105579E+04 -0.38570695089E+03  0.83139093299E+03  0.14877348895E+04  0.10100000352E+00 0.  1.
</event>
<event>
 5   0  0.3935852E-07  0.3106562E+04  0.7818609E-02  0.8213939E-01
        1   -1    0    0  501    0  0.00000000000E+00  0.00000000000E+00  0.26613458020E+04  0.26613458020E+04  0.50400001928E-02 0. -1.
       -1   -1    0    0    0  501  0.00000000000E+00  0.00000000000E+00 -0.90656470563E+03  0.90656470565E+03  0.50400001928E-02 0.  1.
    10030    2    1    2    0    0  0.00000000000E+00  0.00000000000E+00  0.17547810963E+04  0.35679105076E+04  0.31065621987E+04 0.  0.
        5    1    3    3  502    0  0.62687096206E+03  0.21297671114E+02 -0.75463815750E+03  0.98128570387E+03  0.46999998093E+01 0.  1.
       -5    1    3    3    0  502 -0.62687096206E+03 -0.21297671114E+02  0.25094192538E+04  0.25866248037E+04  0.46999998093E+01 0. -1.
</event>
<event>
 5   0  0.4330395E-07  0.3118760E+04  0.7818609E-02  0.8210608E-01
        1   -1    0    0  501    0  0.00000000000E+00  0.00000000000E+00  0.13603196169E+04  0.13603196169E+04  0.50400001928E-02 0.  1.
       -1   -1    0    0    0  501  0.00000000000E+00  0.00000000000E+00 -0.17875700225E+04  0.17875700225E+04  0.50400001928E-02 0. -1.
    10030    2    1    2    0    0  0.00000000000E+00  0.00000000000E+00 -0.42725040559E+03  0.31478896395E+04  0.31187603744E+04 0.  0.
        1    1    3    3  502    0 -0.57566740091E+03  0.10093568182E+04  0.83602650291E+03  0.14314798135E+04  0.50400001928E-02 0. -1.
       -1    1    3    3    0  502  0.57566740091E+03 -0.10093568182E+04 -0.12632769085E+04  0.17164098259E+04  0.50400001928E-02 0.  1.
</event>
<event>
 5   0  0.1176002E-06  0.3097209E+04  0.7818609E-02  0.8216504E-01
       -2   -1    0    0    0  501  0.00000000000E+00  0.00000000000E+00  0.15902129881E+04  0.15902129881E+04  0.25500000920E-02 0. -1.
        2   -1    0    0  501    0  0.00000000000E+00  0.00000000000E+00 -0.15080845871E+04  0.15080845871E+04  0.25500000920E-02 0.  1.
    10030    2    1    2    0    0  0.00000000000E+00  0.00000000000E+00  0.82128400999E+02  0.30982975752E+04  0.30972088710E+04 0.  0.
        2    1    3    3  502    0 -0.23419173699E+03  0.69769983290E+03  0.14040940219E+04  0.15852794229E+04  0.25500000920E-02 0. -1.
       -2    1    3    3    0  502  0.23419173699E+03 -0.69769983290E+03 -0.13219656209E+04  0.15130181523E+04  0.25500000920E-02 0.  1.
</event>
<event>
 5   0  0.1258262E-06  0.3097150E+04  0.7818609E-02  0.8216521E-01
        2   -1    0    0  501    0  0.00000000000E+00  0.00000000000E+00  0.17830945270E+04  0.17830945270E+04  0.25500000920E-02 0. -1.
       -2   -1    0    0    0  501  0.00000000000E+00  0.00000000000E+00 -0.13449002851E+04  0.13449002851E+04  0.25500000920E-02 0.  1.
    10030    2    1    2    0    0  0.00000000000E+00  0.00000000000E+00  0.43819424192E+03  0.31279948121E+04  0.30971498754E+04 0.  0.
        1    1    3    3  502    0  0.82903020969E+03  0.12104339915E+04  0.71965675305E+03  0.16341197565E+04  0.50400001928E-02 0. -1.
       -1    1    3    3    0  502 -0.82903020969E+03 -0.12104339915E+04 -0.28146251114E+03  0.14938750556E+04  0.50400001928E-02 0.  1.
</event>
<event>
 5   0  0.3935852E-07  0.3101969E+04  0.7818609E-02  0.8215198E-01
        1   -1    0    0  501    0  0.00000000000E+00  0.00000000000E+00  0.23806062576E+04  0.23806062576E+04  0.50400001928E-02 0. -1.
       -1   -1    0    0    0  501  0.00000000000E+00  0.00000000000E+00 -0.10104793129E+04  0.10104793129E+04  0.50400001928E-02 0.  1.
    10030    2    1    2    0    0  0.00000000000E+00  0.00000000000E+00  0.13701269447E+04  0.33910855706E+04  0.31019692942E+04 0.  0.
        5    1    3    3  502    0  0.13504458062E+04  0.75637068388E+03  0.57722456081E+03  0.16519717826E+04  0.46999998093E+01 0. -1.
       -5    1    3    3    0  502 -0.13504458062E+04 -0.75637068388E+03  0.79290238389E+03  0.17391137879E+04  0.46999998093E+01 0.  1.
</event>
<event>
 5   0  0.4134019E-07  0.3144652E+04  0.7818609E-02  0.8203589E-01
       -1   -1    0    0    0  501  0.00000000000E+00  0.00000000000E+00  0.18516799820E+04  0.18516799821E+04  0.50400001928E-02 0. -1.
        1   -1    0    0  501    0  0.00000000000E+00  0.00000000000E+00 -0.13351169768E+04  0.13351169768E+04  0.50400001928E-02 0.  1.
    10030    2    1    2    0    0  0.00000000000E+00  0.00000000000E+00  0.51656300523E+03  0.31867969589E+04  0.31446522095E+04 0.  0.
        2    1    3    3  502    0  0.34121727134E+03 -0.14368619123E+04 -0.28858764555E+03  0.15047538704E+04  0.25500000920E-02 0.  1.
       -2    1    3    3    0  502 -0.34121727134E+03  0.14368619123E+04  0.80515065079E+03  0.16820430885E+04  0.25500000920E-02 0. -1.
</event>
<event>
 5   0  0.4173905E-07  0.3102636E+04  0.7818609E-02  0.8215015E-01
       -1   -1    0    0    0  501  0.00000000000E+00  0.00000000000E+00  0.15112010762E+04  0.15112010762E+04  0.50400001928E-02 0.  1.
        1   -1    0    0  501    0  0.00000000000E+00  0.00000000000E+00 -0.15924995830E+04  0.15924995830E+04  0.50400001928E-02 0. -1.
    10030    2    1    2    0    0  0.00000000000E+00  0.00000000000E+00 -0.81298506735E+02  0.31037006592E+04  0.31026357077E+04 0.  0.
        3    1    3    3  502    0  0.12172900874E+04  0.80171000590E+03 -0.57191814991E+03  0.15657664165E+04  0.10100000352E+00 0. -1.
       -3    1    3    3    0  502 -0.12172900874E+04 -0.80171000590E+03  0.49061964317E+03  0.15379342428E+04  0.10100000352E+00 0.  1.
</event>
<event>
 5   0  0.1176002E-06  0.3083730E+04  0.7818609E-02  0.8220217E-01
       -2   -1    0    0    0  501  0.00000000000E+00  0.00000000000E+00  0.15203591743E+04  0.15203591743E+04  0.25500000920E-02 0.  1.
        2   -1    0    0  501    0  0.00000000000E+00  0.00000000000E+00 -0.15636748176E+04  0.15636748176E+04  0.25500000920E-02 0. -1.
    10030    2    1    2    0    0  0.00000000000E+00  0.00000000000E+00 -0.43315643296E+02  0.30840339919E+04  0.30837297901E+04 0.  0.
        2    1    3    3  502    0 -0.71840457475E+03  0.12926058172E+04 -0.45806358692E+03  0.15481463695E+04  0.25500000920E-02 0. -1.
       -2    1    3    3    0  502  0.71840457475E+03 -0.12926058172E+04  0.41474794362E+03  0.15358876224E+04  0.25500000920E-02 0.  1.
</event>
<event>
 5   0  0.1193123E-06  0.3100099E+04  0.7818609E-02  0.8215711E-01
        2   -1    0    0  501    0  0.00000000000E+00  0.00000000000E+00  0.30386340796E+04  0.30386340796E+04  0.25500000920E-02 0.  1.
       -2   -1    0    0    0  501  0.00000000000E+00  0.00000000000E+00 -0.79070174630E+03  0.79070174630E+03  0.25500000920E-02 0. -1.
    10030    2    1    2    0    0  0.00000000000E+00  0.00000000000E+00  0.22479323333E+04  0.38293358260E+04  0.31000988843E+04 0.  0.
        3    1    3    3  502    0  0.64504580645E+03 -0.10466201305E+04  0.22900362343E+04  0.25991852097E+04  0.10100000352E+00 0.  1.
       -3    1    3    3    0  502 -0.64504580645E+03  0.10466201305E+04 -0.42103900920E+02  0.12301506162E+04  0.10100000352E+00 0. -1.
</event>
<event>
 5   0  0.4330395E-07  0.3036030E+04  0.7818609E-02  0.8233517E-01
        1   -1    0    0  501    0  0.00000000000E+00  0.00000000000E+00  0.24131219648E+04  0.24131219649E+04  0.50400001928E-02 0.  1.
       -1   -1    0    0    0  501  0.00000000000E+00  0.00000000000E+00 -0.95493259238E+03  0.95493259240E+03  0.50400001928E-02 0. -1.
    10030    2    1    2    0    0  0.00000000000E+00  0.00000000000E+00  0.14581893725E+04  0.33680545573E+04  0.30360295214E+04 0.  0.
        1    1    3    3  502    0 -0.62605001389E+03 -0.55037207492E+03 -0.67831786811E+03  0.10746921285E+04  0.50400001928E-02 0. -1.
       -1    1    3    3    0  502  0.62605001389E+03  0.55037207492E+03  0.21365072406E+04  0.22933624288E+04  0.50400001928E-02 0.  1.
</event>
<event>
 5   0  0.1176002E-06  0.3090947E+04  0.7818609E-02  0.8218227E-01
       -2   -1    0    0    0  501  0.00000000000E+00  0.00000000000E+00  0.90753637805E+03  0.90753637805E+03  0.25500000920E-02 0. -1.
        2   -1    0    0  501    0  0.00000000000E+00  0.00000000000E+00 -0.26318368338E+04  0.26318368338E+04  0.25500000920E-02 0.  1.
    10030    2    1    2    0    0  0.00000000000E+00  0.00000000000E+00 -0.17243004557E+04  0.35393732118E+04  0.30909465655E+04 0.  0.
        2    1    3    3  502    0 -0.57449238126E+03  0.51387347839E+03  0.67173229413E+03  0.10224146531E+04  0.25500000920E-02 0. -1.
       -2    1    3    3    0  502  0.57449238126E+03 -0.51387347839E+03 -0.23960327499E+04  0.25169585587E+04  0.25500000920E-02 0.  1.
</event>
<event>
 5   0  0.4219337E-07  0.3095578E+04  0.7818609E-02  0.8216953E-01
        1   -1    0    0  501    0  0.00000000000E+00  0.00000000000E+00  0.19379946734E+04  0.19379946734E+04  0.50400001928E-02 0. -1.
       -1   -1    0    0    0  501  0.00000000000E+00  0.00000000000E+00 -0.12361490753E+04  0.12361490753E+04  0.50400001928E-02 0.  1.
    10030    2    1    2    0    0  0.00000000000E+00  0.00000000000E+00  0.70184559809E+03  0.31741437487E+04  0.30955776996E+04 0.  0.
        4    1    3    3  502    0  0.45458339628E+03 -0.10708211424E+04  0.13977875298E+04  0.18185476553E+04  0.12699999809E+01 0. -1.
       -4    1    3    3    0  502 -0.45458339628E+03  0.10708211424E+04 -0.69594193172E+03  0.13555960934E+04  0.12699999809E+01 0.  1.
</event>
<event>
 5   0  0.4173905E-07  0.3095100E+04  0.7818609E-02  0.8217084E-01
       -1   -1    0    0    0  501  0.00000000000E+00  0.00000000000E+00  0.14742540565E+04  0.14742540565E+04  0.50400001928E-02 0.  1.
        1   -1    0    0  501    0  0.00000000000E+00  0.00000000000E+00 -0.16244905345E+04  0.16244905345E+04  0.50400001928E-02 0. -1.
    10030    2    1    2    0    0  0.00000000000E+00  0.00000000000E+00 -0.15023647800E+03  0.30987445910E+04  0.30951004896E+04 0.  0.
        3    1    3    3  502    0  0.14008352692E+04  0.56057420277E+03  0.26927639097E+03  0.15326750058E+04  0.10100000352E+00 0.  1.
       -3    1    3    3    0  502 -0.14008352692E+04 -0.56057420277E+03 -0.41951286897E+03  0.15660695852E+04  0.10100000352E+00 0. -1.
</event>
<event>
 5   0  0.1200286E-06  0.3099980E+04  0.7818609E-02  0.8215743E-01
        2   -1    0    0  501    0  0.00000000000E+00  0.00000000000E+00  0.17503477855E+04  0.17503477855E+04  0.25500000920E-02 0. -1.
       -2   -1    0    0    0  501  0.00000000000E+00  0.00000000000E+00 -0.13725670424E+04  0.13725670424E+04  0.25500000920E-02 0.  1.
    10030    2    1    2    0    0  0.00000000000E+00  0.00000000000E+00  0.37778074302E+03  0.31229148279E+04  0.30999804407E+04 0.  0.
        5    1    3    3  502    0 -0.39923186167E+03 -0.40241666317E+03 -0.12643919548E+04  0.13856530429E+04  0.46999998093E+01 0.  1.
       -5    1    3    3    0  502  0.39923186167E+03  0.40241666317E+03  0.16421726978E+04  0.17372617850E+04  0.46999998093E+01 0. -1.
</event>
<event>
 5   0  0.1176002E-06  0.3102864E+04  0.7818609E-02  0.8214952E-01
        2   -1    0    0  501    0  0.00000000000E+00  0.00000000000E+00  0.15126870927E+04  0.15126870927E+04  0.25500000920E-02 0. -1.
       -2   -1    0    0    0  501  0.00000000000E+00  0.00000000000E+00 -0.15911692979E+04  0.15911692979E+04  0.25500000920E-02 0.  1.
    10030    2    1    2    0    0  0.00000000000E+00  0.00000000000E+00 -0.78482205209E+02  0.31038563906E+04  0.31028640056E+04 0.  0.
        2    1    3    3  502    0  0.62572353433E+03  0.13535545911E+04  0.38903282315E+03  0.15410991240E+04  0.25500000920E-02 0. -1.
       -2    1    3    3    0  502 -0.62572353433E+03 -0.13535545911E+04 -0.46751502836E+03  0.15627572666E+04  0.25500000920E-02 0.  1.
</event>
<event>
 5   0  0.3902375E-07  0.3101649E+04  0.7818609E-02  0.8215286E-01
       -3   -1    0    0    0  501  0.00000000000E+00  0.00000000000E+00  0.90190908580E+03  0.90190909146E+03  0.10100000352E+00 0.  1.
        3   -1    0    0  501    0  0.00000000000E+00  0.00000000000E+00 -0.26666278624E+04  0.26666278643E+04  0.10100000352E+00 0. -1.
    10030    2    1    2    0    0  0.00000000000E+00  0.00000000000E+00 -0.17647187766E+04  0.35685369558E+04  0.31016485366E+04 0.  0.
        3    1    3    3  502    0  0.10924021212E+04 -0.34491324513E+03  0.32034167836E+03  0.11895067643E+04  0.10100000352E+00 0.  1.
       -3    1    3    3    0  502 -0.10924021212E+04  0.34491324513E+03 -0.20850604550E+04  0.23790301915E+04  0.10100000352E+00 0. -1.
</event>
<event>
 5   0  0.3935852E-07  0.3093621E+04  0.7818609E-02  0.8217491E-01
       -1   -1    0    0    0  501  0.00000000000E+00  0.00000000000E+00  0.12292987980E+04  0.12292987980E+04  0.50400001928E-02 0.  1.
        1   -1    0    0  501    0  0.00000000000E+00  0.00000000000E+00 -0.19463314218E+04  0.19463314218E+04  0.50400001928E-02 0. -1.
    10030    2    1    2    0    0  0.00000000000E+00  0.00000000000E+00 -0.71703262380E+03  0.31756302199E+04  0.30936210999E+04 0.  0.
        5    1    3    3  502    0  0.11805910508E+04 -0.51154489470E+03 -0.12398372258E+04  0.17868105230E+04  0.46999998093E+01 0. -1.
       -5    1    3    3    0  502 -0.11805910508E+04  0.51154489470E+03  0.52280460202E+03  0.13888196969E+04  0.46999998093E+01 0.  1.
</event>
<event>
 5   0  0.4134019E-07  0.3104278E+04  0.7818609E-02  0.8214565E-01
       -1   -1    0    0    0  501  0.00000000000E+00  0.00000000000E+00  0.15334072026E+04  0.15334072026E+04  0.50400001928E-02 0.  1.
        1   -1    0    0  501    0  0.00000000000E+00  0.00000000000E+00 -0.15710999207E+04  0.15710999207E+04  0.50400001928E-02 0. -1.
    10030    2    1    2    0    0  0.00000000000E+00  0.00000000000E+00 -0.37692718139E+02  0.31045071233E+04  0.31042782957E+04 0.  0.
        2    1    3    3  502    0 -0.11459662397E+04 -0.28705410371E+03 -0.10256465756E+04  0.15644774140E+04  0.25500000920E-02 0. -1.
       -2    1    3    3    0  502  0.11459662397E+04  0.28705410371E+03  0.98795385743E+03  0.15400297093E+04  0.25500000920E-02 0.  1.
</event>
<event>
 5   0  0.4330395E-07  0.3112644E+04  0.7818609E-02  0.8212276E-01
        1   -1    0    0  501    0  0.00000000000E+00  0.00000000000E+00  0.13174231755E+04  0.13174231755E+04  0.50400001928E-02 0.  1.
       -1   -1    0    0    0  501  0.00000000000E+00  0.00000000000E+00 -0.18385426864E+04  0.18385426865E+04  0.50400001928E-02 0. -1.
    10030    2    1    2    0    0  0.00000000000E+00  0.00000000000E+00 -0.52111951099E+03  0.31559658619E+04  0.31126443704E+04 0.  0.
        1    1    3    3  502    0 -0.58765064654E+03 -0.29740007867E+03  0.11691574870E+04  0.13419051079E+04  0.50400001928E-02 0.  1.
       -1    1    3    3    0  502  0.58765064654E+03  0.29740007867E+03 -0.16902769980E+04  0.18140607540E+04  0.50400001928E-02 0. -1.
</event>
<event>
 5   0  0.1176002E-06  0.3107843E+04  0.7818609E-02  0.8213589E-01
       -2   -1    0    0    0  501  0.00000000000E+00  0.00000000000E+00  0.18262314128E+04  0.18262314128E+04  0.25500000920E-02 0. -1.
        2   -1    0    0  501    0  0.00000000000E+00  0.00000000000E+00 -0.13222154178E+04  0.13222154178E+04  0.25500000920E-02 0.  1.
    10030    2    1    2    0    0  0.00000000000E+00  0.00000000000E+00  0.50401599507E+03  0.31484468306E+04  0.31078425510E+04 0.  0.
        2    1    3    3  502    0 -0.72057507473E+03  0.49198795133E+03  0.15546500872E+04  0.17827555851E+04  0.25500000920E-02 0. -1.
       -2    1    3    3    0  502  0.72057507473E+03 -0.49198795133E+03 -0.10506340921E+04  0.13656912455E+04  0.25500000920E-02 0.  1.
</event>
<event>
 5   0  0.4330395E-07  0.3093053E+04  0.7818609E-02  0.8217647E-01
       -1   -1    0    0    0  501  0.00000000000E+00  0.00000000000E+00  0.19341514281E+04  0.19341514281E+04  0.50400001928E-02 0.  1.
        1   -1    0    0  501    0  0.00000000000E+00  0.00000000000E+00 -0.12365857000E+04  0.12365857000E+04  0.50400001928E-02 0. -1.
    10030    2    1    2    0    0  0.00000000000E+00  0.00000000000E+00  0.69756572807E+03  0.31707371281E+04  0.30930528593E+04 0.  0.
        1    1    3    3  502    0  0.42871000978E+03  0.39276597914E+03 -0.11202786517E+04  0.12621733812E+04  0.50400001928E-02 0. -1.
       -1    1    3    3    0  502 -0.42871000978E+03 -0.39276597914E+03  0.18178443797E+04  0.19085637469E+04  0.50400001928E-02 0.  1.
</event>
<event>
 5   0  0.1200286E-06  0.3101064E+04  0.7818609E-02  0.8215446E-01
       -2   -1    0    0    0  501  0.00000000000E+00  0.00000000000E+00  0.16753341498E+04  0.16753341498E+04  0.25500000920E-02 0.  1.
        2   -1    0    0  501    0  0.00000000000E+00  0.00000000000E+00 -0.14350266949E+04  0.14350266949E+04  0.25500000920E-02 0. -1.
    10030    2    1    2    0    0  0.00000000000E+00  0.00000000000E+00  0.24030745497E+03  0.31103608447E+04  0.31010638354E+04 0.  0.
        5    1    3    3  502    0 -0.11029328382E+04 -0.22035035085E+03 -0.95033792769E+03  0.14724739011E+04  0.46999998093E+01 0. -1.
       -5    1    3    3    0  502  0.11029328382E+04  0.22035035085E+03  0.11906453827E+04  0.16378869436E+04  0.46999998093E+01 0.  1.
</event>
<event>
 5   0  0.4173905E-07  0.3098095E+04  0.7818609E-02  0.8216261E-01
       -1   -1    0    0    0  501  0.00000000000E+00  0.00000000000E+00  0.12103642106E+04  0.12103642106E+04  0.50400001928E-02 0. -1.
        1   -1    0    0  501    0  0.00000000000E+00  0.00000000000E+00 -0.19825007425E+04  0.19825007425E+04  0.50400001928E-02 0.  1.
    10030    2    1    2    0    0  0.00000000000E+00  0.00000000000E+00 -0.77213653191E+03  0.31928649530E+04  0.30980948637E+04 0.  0.
        3    1    3    3  502    0 -0.10506620429E+04 -0.11086598996E+04 -0.12024314644E+03  0.15321474883E+04  0.10100000352E+00 0. -1.
       -3    1    3    3    0  502  0.10506620429E+04  0.11086598996E+04 -0.65189338546E+03  0.16607174647E+04  0.10100000352E+00 0.  1.
</event>
<event>
 5   0  0.3902375E-07  0.3106128E+04  0.7818609E-02  0.8214058E-01
        3   -1    0    0  501    0  0.00000000000E+00  0.00000000000E+00  0.17514863319E+04  0.17514863348E+04  0.10100000352E+00 0. -1.
       -3   -1    0    0    0  501  0.00000000000E+00  0.00000000000E+00 -0.13771206278E+04  0.13771206315E+04  0.10100000352E+00 0.  1.
    10030    2    1    2    0    0  0.00000000000E+00  0.00000000000E+00  0.37436570412E+03  0.31286069663E+04  0.31061281154E+04 0.  0.
        1    1    3    3  502    0  0.78250686328E+03  0.15743449508E+03 -0.11547143374E+04  0.14037335261E+04  0.50400001928E-02 0.  1.
       -1    1    3    3    0  502 -0.78250686328E+03 -0.15743449508E+03  0.15290800415E+04  0.17248734402E+04  0.50400001928E-02 0. -1.
</event>
<event>
 5   0  0.3935852E-07  0.3100505E+04  0.7818609E-02  0.8215599E-01
        1   -1    0    0  501    0  0.00000000000E+00  0.00000000000E+00  0.15934875841E+04  0.15934875841E+04  0.50400001928E-02 0.  1.
       -1   -1    0    0    0  501  0.00000000000E+00  0.00000000000E+00 -0.15081906608E+04  0.15081906609E+04  0.50400001928E-02 0. -1.
    10030    2    1    2    0    0  0.00000000000E+00  0.00000000000E+00  0.85296923243E+02  0.31016782450E+04  0.31005051798E+04 0.  0.
        5    1    3    3  502    0 -0.76529647726E+03 -0.59142281931E+03 -0.11693384353E+04  0.15175091813E+04  0.46999998093E+01 0. -1.
       -5    1    3    3    0  502  0.76529647726E+03  0.59142281931E+03  0.12546353585E+04  0.15841690636E+04  0.46999998093E+01 0.  1.
</event>
<event>
 5   0  0.1176002E-06  0.3116351E+04  0.7818609E-02  0.8211265E-01
       -2   -1    0    0    0  501  0.00000000000E+00  0.00000000000E+00  0.12881078722E+04  0.12881078722E+04  0.25500000920E-02 0.  1.
        2   -1    0    0  501    0  0.00000000000E+00  0.00000000000E+00 -0.18848666629E+04  0.18848666629E+04  0.25500000920E-02 0. -1.
    10030    2    1    2    0    0  0.00000000000E+00  0.00000000000E+00 -0.59675879068E+03  0.31729745350E+04  0.31163514477E+04 0.  0.
        2    1    3    3  502    0 -0.12950512390E+04  0.60880111961E+03 -0.92611635843E+03  0.17045492144E+04  0.25500000920E-02 0. -1.
       -2    1    3    3    0  502  0.12950512390E+04 -0.60880111961E+03  0.32935756775E+03  0.14684253207E+04  0.25500000920E-02 0.  1.
</event>
<event>
 5   0  0.3902375E-07  0.3086601E+04  0.7818609E-02  0.8219425E-01
        3   -1    0    0  501    0  0.00000000000E+00  0.00000000000E+00  0.27067506292E+04  0.27067506311E+04  0.10100000352E+00 0. -1.
       -3   -1    0    0    0  501  0.00000000000E+00  0.00000000000E+00 -0.87993934161E+03  0.87993934740E+03  0.10100000352E+00 0.  1.
    10030    2    1    2    0    0  0.00000000000E+00  0.00000000000E+00  0.18268112876E+04  0.35866899785E+04  0.30866009657E+04 0.  0.
        3    1    3    3  502    0 -0.53563554369E+03 -0.14420971014E+04  0.10567956489E+04  0.18663779197E+04  0.10100000352E+00 0. -1.
       -3    1    3    3    0  502  0.53563554369E+03  0.14420971014E+04  0.77001563872E+03  0.17203120588E+04  0.10100000352E+00 0.  1.
</event>
<event>
 5   0  0.4330395E-07  0.3078290E+04  0.7818609E-02  0.8221721E-01
       -1   -1    0    0    0  501  0.00000000000E+00  0.00000000000E+00  0.14129613129E+04  0.14129613129E+04  0.50400001928E-02 0. -1.
        1   -1    0    0  501    0  0.00000000000E+00  0.00000000000E+00 -0.16765976705E+04  0.16765976705E+04  0.50400001928E-02 0.  1.
    10030    2    1    2    0    0  0.00000000000E+00  0.00000000000E+00 -0.26363635759E+03  0.30895589835E+04  0.30782902045E+04 0.  0.
        1    1    3    3  502    0  0.27634103181E+03  0.14863271984E+04  0.15808994612E+03  0.15200412289E+04  0.50400001928E-02 0.  1.
       -1    1    3    3    0  502 -0.27634103181E+03 -0.14863271984E+04 -0.42172630371E+03  0.15695177545E+04  0.50400001928E-02 0. -1.
</event>
<event>
 5   0  0.1176002E-06  0.3107849E+04  0.7818609E-02  0.8213587E-01
        2   -1    0    0  501    0  0.00000000000E+00  0.00000000000E+00  0.17621325063E+04  0.17621325063E+04  0.25500000920E-02 0.  1.
       -2   -1    0    0    0  501  0.00000000000E+00  0.00000000000E+00 -0.13703173371E+04  0.13703173371E+04  0.25500000920E-02 0. -1.
    10030    2    1    2    0    0  0.00000000000E+00  0.00000000000E+00  0.39181516921E+03  0.31324498433E+04  0.31078485958E+04 0.  0.
        2    1    3    3  502    0 -0.30105432540E+03 -0.86461946813E+02  0.17299844228E+04  0.17581113384E+04  0.25500000920E-02 0.  1.
       -2    1    3    3    0  502  0.30105432540E+03  0.86461946813E+02 -0.13381692536E+04  0.13743385050E+04  0.25500000920E-02 0. -1.
</event>
<event>
 5   0  0.4134019E-07  0.3110046E+04  0.7818609E-02  0.8212986E-01
        1   -1    0    0  501    0  0.00000000000E+00  0.00000000000E+00  0.18054762374E+04  0.18054762374E+04  0.50400001928E-02 0. -1.
       -1   -1    0    0    0  501  0.00000000000E+00  0.00000000000E+00 -0.13393124011E+04  0.13393124011E+04  0.50400001928E-02 0.  1.
    10030    2    1    2    0    0  0.00000000000E+00  0.00000000000E+00  0.46616383630E+03  0.31447886385E+04  0.31100461184E+04 0.  0.
        2    1    3    3  502    0  0.13676574926E+04  0.36728653148E+03  0.88268381926E+03  0.16686872499E+04  0.25500000920E-02 0. -1.
       -2    1    3    3    0  502 -0.13676574926E+04 -0.36728653148E+03 -0.41651998296E+03  0.14761013886E+04  0.25500000920E-02 0.  1.
</event>
<event>
 5   0  0.4134019E-07  0.3090684E+04  0.7818609E-02  0.8218299E-01
        1   -1    0    0  501    0  0.00000000000E+00  0.00000000000E+00  0.16609495976E+04  0.16609495976E+04  0.50400001928E-02 0. -1.
       -1   -1    0    0    0  501  0.00000000000E+00  0.00000000000E+00 -0.14377813772E+04  0.14377813772E+04  0.50400001928E-02 0.  1.
    10030    2    1    2    0    0  0.00000000000E+00  0.00000000000E+00  0.22316822043E+03  0.30987309749E+04  0.30906843255E+04 0.  0.
        2    1    3    3  502    0  0.65704862252E+02 -0.13758955780E+04 -0.59072274964E+03  0.14987858878E+04  0.25500000920E-02 0.  1.
       -2    1    3    3    0  502 -0.65704862252E+02  0.13758955780E+04  0.81389097006E+03  0.15999450871E+04  0.25500000920E-02 0. -1.
</event>
<event>
 5   0  0.4219337E-07  0.3098839E+04  0.7818609E-02  0.8216057E-01
        1   -1    0    0  501    0  0.00000000000E+00  0.00000000000E+00  0.24220544158E+04  0.24220544158E+04  0.50400001928E-02 0.  1.
       -1   -1    0    0    0  501  0.00000000000E+00  0.00000000000E+00 -0.99118348154E+03  0.99118348156E+03  0.50400001928E-02 0. -1.
    10030    2    1    2    0    0  0.00000000000E+00  0.00000000000E+00  0.14308709343E+04  0.34132378974E+04  0.30988387040E+04 0.  0.
        4    1    3    3  502    0 -0.74861642422E+03  0.42581957695E+03  0.21341147166E+04  0.23013465839E+04  0.12699999809E+01 0.  1.
       -4    1    3    3    0  502  0.74861642422E+03 -0.42581957695E+03 -0.70324378232E+03  0.11118913135E+04  0.12699999809E+01 0. -1.
</event>
<event>
 5   0  0.4219337E-07  0.3070080E+04  0.7818609E-02  0.8223997E-01
        1   -1    0    0  501    0  0.00000000000E+00  0.00000000000E+00  0.29689582171E+04  0.29689582171E+04  0.50400001928E-02 0.  1.
       -1   -1    0    0    0  501  0.00000000000E+00  0.00000000000E+00 -0.79366145530E+03  0.79366145531E+03  0.50400001928E-02 0. -1.
    10030    2    1    2    0    0  0.00000000000E+00  0.00000000000E+00  0.21752967618E+04  0.37626196724E+04  0.30700799334E+04 0.  0.
        4    1    3    3  502    0 -0.52361509069E+03 -0.13802451328E+04  0.16034062574E+04  0.21794867811E+04  0.12699999809E+01 0.  1.
       -4    1    3    3    0  502  0.52361509069E+03  0.13802451328E+04  0.57189050439E+03  0.15831328913E+04  0.12699999809E+01 0. -1.
</event>
<event>
 5   0  0.3935852E-07  0.3098069E+04  0.7818609E-02  0.8216268E-01
        1   -1    0    0  501    0  0.00000000000E+00  0.00000000000E+00  0.17258420064E+04  0.17258420064E+04  0.50400001928E-02 0. -1.
       -1   -1    0    0    0  501  0.00000000000E+00  0.00000000000E+00 -0.13903407552E+04  0.13903407552E+04  0.50400001928E-02 0.  1.
    10030    2    1    2    0    0  0.00000000000E+00  0.00000000000E+00  0.33550125120E+03  0.31161827616E+04  0.30980693849E+04 0.  0.
        5    1    3    3  502    0  0.16978554757E+03 -0.15152031605E+04  0.44287982325E+03  0.15877129393E+04  0.46999998093E+01 0. -1.
       -5    1    3    3    0  502 -0.16978554757E+03  0.15152031605E+04 -0.10737857204E+03  0.15284698223E+04  0.46999998093E+01 0.  1.
</event>
<event>
 5   0  0.4173905E-07  0.3121725E+04  0.7818609E-02  0.8209801E-01
        1   -1    0    0  501    0  0.00000000000E+00  0.00000000000E+00  0.19630730865E+04  0.19630730866E+04  0.50400001928E-02 0.  1.
       -1   -1    0    0    0  501  0.00000000000E+00  0.00000000000E+00 -0.12410604893E+04  0.12410604893E+04  0.50400001928E-02 0. -1.
    10030    2    1    2    0    0  0.00000000000E+00  0.00000000000E+00  0.72201259725E+03  0.32041335759E+04  0.31217254494E+04 0.  0.
        3    1    3    3  502    0 -0.89826975501E+03 -0.12764612796E+04  0.36829908455E+03  0.16037101287E+04  0.10100000352E+00 0.  1.
       -3    1    3    3    0  502  0.89826975501E+03  0.12764612796E+04  0.35371351270E+03  0.16004234472E+04  0.10100000352E+00 0. -1.
</event>
<event>
 5   0  0.1200286E-06  0.3111156E+04  0.7818609E-02  0.8212683E-01
        2   -1    0    0  501    0  0.00000000000E+00  0.00000000000E+00  0.18768602689E+04  0.18768602689E+04  0.25500000920E-02 0.  1.
       -2   -1    0    0    0  501  0.00000000000E+00  0.00000000000E+00 -0.12892927297E+04  0.12892927297E+04  0.25500000920E-02 0. -1.
    10030    2    1    2    0    0  0.00000000000E+00  0.00000000000E+00  0.58756753915E+03  0.31661529986E+04  0.31111556048E+04 0.  0.
        5    1    3    3  502    0 -0.61416024105E+03 -0.80566887081E+03 -0.90755209443E+03  0.13601352966E+04  0.46999998093E+01 0. -1.
       -5    1    3    3    0  502  0.61416024105E+03  0.80566887081E+03  0.14951196336E+04  0.18060177020E+04  0.46999998093E+01 0.  1.
</event>
<event>
 5   0  0.3935852E-07  0.3093604E+04  0.7818609E-02  0.8217495E-01
        1   -1    0    0  501    0  0.00000000000E+00  0.00000000000E+00  0.21572559328E+04  0.21572559328E+04  0.50400001928E-02 0.  1.
       -1   -1    0    0    0  501  0.00000000000E+00  0.00000000000E+00 -0.11090925578E+04  0.11090925578E+04  0.50400001928E-02 0. -1.
    10030    2    1    2    0    0  0.00000000000E+00  0.00000000000E+00  0.10481633750E+04  0.32663484905E+04  0.30936040472E+04 0.  0.
        5    1    3    3  502    0 -0.35125985085E+03 -0.49226421493E+03 -0.97909628513E+03  0.11508080490E+04  0.46999998093E+01 0. -1.
       -5    1    3    3    0  502  0.35125985085E+03  0.49226421493E+03  0.20272596601E+04  0.21155404415E+04  0.46999998093E+01 0.  1.
</event>
<event>
 5   0  0.1258262E-06  0.3288160E+04  0.7818609E-02  0.8165915E-01
       -2   -1    0    0    0  501  0.00000000000E+00  0.00000000000E+00  0.93951150782E+03  0.93951150782E+03  0.25500000920E-02 0.  1.
        2   -1    0    0  501    0  0.00000000000E+00  0.00000000000E+00 -0.28770255915E+04  0.28770255915E+04  0.25500000920E-02 0. -1.
    10030    2    1    2    0    0  0.00000000000E+00  0.00000000000E+00 -0.19375140836E+04  0.38165370993E+04  0.32881597598E+04 0.  0.
        1    1    3    3  502    0  0.80763082803E+03 -0.10762822048E+03  0.68869462826E+03  0.10668419186E+04  0.50400001928E-02 0.  1.
       -1    1    3    3    0  502 -0.80763082803E+03  0.10762822048E+03 -0.26262087119E+04  0.27496951807E+04  0.50400001928E-02 0. -1.
</event>
<event>
 5   0  0.4173905E-07  0.3105831E+04  0.7818609E-02  0.8214139E-01
        1   -1    0    0  501    0  0.00000000000E+00  0.00000000000E+00  0.17921884964E+04  0.17921884964E+04  0.50400001928E-02 0. -1.
       -1   -1    0    0    0  501  0.00000000000E+00  0.00000000000E+00 -0.13455877639E+04  0.13455877639E+04  0.50400001928E-02 0.  1.
    10030    2    1    2    0    0  0.00000000000E+00  0.00000000000E+00  0.44660073250E+03  0.31377762602E+04  0.31058312325E+04 0.  0.
        3    1    3    3  502    0 -0.73863391506E+03  0.15101122508E+03  0.15948954730E+04  0.17641077151E+04  0.10100000352E+00 0. -1.
       -3    1    3    3    0  502  0.73863391506E+03 -0.15101122508E+03 -0.11482947405E+04  0.13736685451E+04  0.10100000352E+00 0.  1.
</event>
<event>
 5   0  0.4219337E-07  0.3124488E+04  0.7818609E-02  0.8209049E-01
        1   -1    0    0  501    0  0.00000000000E+00  0.00000000000E+00  0.15539898013E+04  0.15539898013E+04  0.50400001928E-02 0.  1.
       -1   -1    0    0    0  501  0.00000000000E+00  0.00000000000E+00 -0.15705420284E+04  0.15705420284E+04  0.50400001928E-02 0. -1.
    10030    2    1    2    0    0  0.00000000000E+00  0.00000000000E+00 -0.16552227087E+02  0.31245318297E+04  0.31244879866E+04 0.  0.
        4    1    3    3  502    0 -0.66532118083E+03 -0.12964099167E+04  0.55500236106E+03  0.15592819436E+04  0.12699999809E+01 0. -1.
       -4    1    3    3    0  502  0.66532118083E+03  0.12964099167E+04 -0.57155458814E+03  0.15652498861E+04  0.12699999809E+01 0.  1.
</event>
<event>
 5   0  0.1258262E-06  0.3080217E+04  0.7818609E-02  0.8221188E-01
        2   -1    0    0  501    0  0.00000000000E+00  0.00000000000E+00  0.17719972146E+04  0.17719972146E+04  0.25500000920E-02 0. -1.
       -2   -1    0    0    0  501  0.00000000000E+00  0.00000000000E+00 -0.13385654844E+04  0.13385654844E+04  0.25500000920E-02 0.  1.
    10030    2    1    2    0    0  0.00000000000E+00  0.00000000000E+00  0.43343173022E+03  0.31105626990E+04  0.30802170767E+04 0.  0.
        1    1    3    3  502    0 -0.14078995427E+04 -0.15042989243E+02 -0.41355373546E+03  0.14674583831E+04  0.50400001928E-02 0.  1.
       -1    1    3    3    0  502  0.14078995427E+04  0.15042989243E+02  0.84698546568E+03  0.16431043159E+04  0.50400001928E-02 0. -1.
</event>
<event>
 5   0  0.1193123E-06  0.3098489E+04  0.7818609E-02  0.8216153E-01
       -2   -1    0    0    0  501  0.00000000000E+00  0.00000000000E+00  0.11121046441E+04  0.11121046441E+04  0.25500000920E-02 0. -1.
        2   -1    0    0  501    0  0.00000000000E+00  0.00000000000E+00 -0.21582129677E+04  0.21582129677E+04  0.25500000920E-02 0.  1.
    10030    2    1    2    0    0  0.00000000000E+00  0.00000000000E+00 -0.10461083236E+04  0.32703176118E+04  0.30984890927E+04 0.  0.
        3    1    3    3  502    0 -0.14518638509E+04  0.53538604112E+03 -0.60212039252E+03  0.16604504907E+04  0.10100000352E+00 0. -1.
       -3    1    3    3    0  502  0.14518638509E+04 -0.53538604112E+03 -0.44398793111E+03  0.16098671212E+04  0.10100000352E+00 0.  1.
</event>
<event>
 5   0  0.1258262E-06  0.3063246E+04  0.7818609E-02  0.8225898E-01
       -2   -1    0    0    0  501  0.00000000000E+00  0.00000000000E+00  0.12181762218E+04  0.12181762218E+04  0.25500000920E-02 0. -1.
        2   -1    0    0  501    0  0.00000000000E+00  0.00000000000E+00 -0.19257225700E+04  0.19257225700E+04  0.25500000920E-02 0.  1.
    10030    2    1    2    0    0  0.00000000000E+00  0.00000000000E+00 -0.70754634820E+03  0.31438987917E+04  0.30632462810E+04 0.  0.
        1    1    3    3  502    0  0.60443841013E+02 -0.70791038812E+03  0.10388154354E+04  0.12585420471E+04  0.50400001928E-02 0. -1.
       -1    1    3    3    0  502 -0.60443841013E+02  0.70791038812E+03 -0.17463617836E+04  0.18853567447E+04  0.50400001928E-02 0.  1.
</event>
<event>
 5   0  0.1193123E-06  0.3099090E+04  0.7818609E-02  0.8215988E-01
       -2   -1    0    0    0  501  0.00000000000E+00  0.00000000000E+00  0.89727346695E+03  0.89727346695E+03  0.25500000920E-02 0.  1.
        2   -1    0    0  501    0  0.00000000000E+00  0.00000000000E+00 -0.26759850435E+04  0.26759850435E+04  0.25500000920E-02 0. -1.
    10030    2    1    2    0    0  0.00000000000E+00  0.00000000000E+00 -0.17787115766E+04  0.35732585105E+04  0.30990904327E+04 0.  0.
        3    1    3    3  502    0 -0.42439514164E+03  0.27413720681E+03 -0.25783479480E+04  0.26273828415E+04  0.10100000352E+00 0. -1.
       -3    1    3    3    0  502  0.42439514164E+03 -0.27413720681E+03  0.79963637146E+03  0.94587566898E+03  0.10100000352E+00 0.  1.
</event>
<event>
 5   0  0.1176002E-06  0.3117266E+04  0.7818609E-02  0.8211015E-01
       -2   -1    0    0    0  501  0.00000000000E+00  0.00000000000E+00  0.22029199980E+04  0.22029199980E+04  0.25500000920E-02 0.  1.
        2   -1    0    0  501    0  0.00000000000E+00  0.00000000000E+00 -0.11027803779E+04  0.11027803779E+04  0.25500000920E-02 0. -1.
    10030    2    1    2    0    0  0.00000000000E+00  0.00000000000E+00  0.11001396201E+04  0.33057003759E+04  0.31172660765E+04 0.  0.
        2    1    3    3  502    0 -0.40601056216E+03  0.98947012419E+03 -0.65223816840E+03  0.12527211707E+04  0.25500000920E-02 0. -1.
       -2    1    3    3    0  502  0.40601056216E+03 -0.98947012419E+03  0.17523777885E+04  0.20529792052E+04  0.25500000920E-02 0.  1.
</event>
<event>
 5   0  0.1258262E-06  0.3093120E+04  0.7818609E-02  0.8217629E-01
        2   -1    0    0  501    0  0.00000000000E+00  0.00000000000E+00  0.20232880948E+04  0.20232880948E+04  0.25500000920E-02 0.  1.
       -2   -1    0    0    0  501  0.00000000000E+00  0.00000000000E+00 -0.11821589110E+04  0.11821589110E+04  0.25500000920E-02 0. -1.
    10030    2    1    2    0    0  0.00000000000E+00  0.00000000000E+00  0.84112918376E+03  0.32054470058E+04  0.30931201404E+04 0.  0.
        1    1    3    3  502    0  0.11367820394E+04  0.13585672083E+02 -0.66603044856E+03  0.13175942221E+04  0.50400001928E-02 0. -1.
       -1    1    3    3    0  502 -0.11367820394E+04 -0.13585672083E+02  0.15071596323E+04  0.18878527837E+04  0.50400001928E-02 0.  1.
</event>
<event>
 5   0  0.3935852E-07  0.3090077E+04  0.7818609E-02  0.8218466E-01
        1   -1    0    0  501    0  0.00000000000E+00  0.00000000000E+00  0.17660735351E+04  0.17660735351E+04  0.50400001928E-02 0. -1.
       -1   -1    0    0    0  501  0.00000000000E+00  0.00000000000E+00 -0.13516677720E+04  0.13516677720E+04  0.50400001928E-02 0.  1.
    10030    2    1    2    0    0  0.00000000000E+00  0.00000000000E+00  0.41440576317E+03  0.31177413071E+04  0.30900774621E+04 0.  0.
        5    1    3    3  502    0  0.34153778365E+03 -0.11935432203E+04 -0.72077515326E+03  0.14355251262E+04  0.46999998093E+01 0.  1.
       -5    1    3    3    0  502 -0.34153778365E+03  0.11935432203E+04  0.11351809164E+04  0.16822161809E+04  0.46999998093E+01 0. -1.
</event>
<event>
 5   0  0.3935852E-07  0.3088786E+04  0.7818609E-02  0.8218822E-01
        1   -1    0    0  501    0  0.00000000000E+00  0.00000000000E+00  0.22017737150E+04  0.22017737150E+04  0.50400001928E-02 0.  1.
       -1   -1    0    0    0  501  0.00000000000E+00  0.00000000000E+00 -0.10832855468E+04  0.10832855468E+04  0.50400001928E-02 0. -1.
    10030    2    1    2    0    0  0.00000000000E+00  0.00000000000E+00  0.11184881683E+04  0.32850592618E+04  0.30887859381E+04 0.  0.
        5    1    3    3  502    0  0.97188429006E+02 -0.10494753679E+04  0.17598166423E+04  0.20512973561E+04  0.46999998093E+01 0.  1.
       -5    1    3    3    0  502 -0.97188429006E+02  0.10494753679E+04 -0.64132847399E+03  0.12337619058E+04  0.46999998093E+01 0. -1.
</event>
<event>
 5   0  0.1176002E-06  0.2929029E+04  0.7818609E-02  0.8264292E-01
       -2   -1    0    0    0  501  0.00000000000E+00  0.00000000000E+00  0.85401081700E+03  0.85401081700E+03  0.25500000920E-02 0.  1.
        2   -1    0    0  501    0  0.00000000000E+00  0.00000000000E+00 -0.25114471065E+04  0.25114471065E+04  0.25500000920E-02 0. -1.
    10030    2    1    2    0    0  0.00000000000E+00  0.00000000000E+00 -0.16574362895E+04  0.33654579235E+04  0.29290291875E+04 0.  0.
        2    1    3    3  502    0 -0.20418723041E+03  0.69127010417E+03  0.63609214909E+03  0.96133241084E+03  0.25500000920E-02 0.  1.
       -2    1    3    3    0  502  0.20418723041E+03 -0.69127010417E+03 -0.22935284386E+04  0.24041255126E+04  0.25500000920E-02 0. -1.
</event>
<event>
 5   0  0.4173905E-07  0.3093318E+04  0.7818609E-02  0.8217574E-01
       -1   -1    0    0    0  501  0.00000000000E+00  0.00000000000E+00  0.14625281042E+04  0.14625281042E+04  0.50400001928E-02 0.  1.
        1   -1    0    0  501    0  0.00000000000E+00  0.00000000000E+00 -0.16356293188E+04  0.16356293188E+04  0.50400001928E-02 0. -1.
    10030    2    1    2    0    0  0.00000000000E+00  0.00000000000E+00 -0.17310121453E+03  0.30981574230E+04  0.30933178607E+04 0.  0.
        3    1    3    3  502    0  0.13455174526E+04 -0.58849808688E+03  0.39939568270E+03  0.15219277694E+04  0.10100000352E+00 0. -1.
       -3    1    3    3    0  502 -0.13455174526E+04  0.58849808688E+03 -0.57249689723E+03  0.15762296537E+04  0.10100000352E+00 0.  1.
</event>
<event>
 5   0  0.3935852E-07  0.3098601E+04  0.7818609E-02  0.8216122E-01
       -1   -1    0    0    0  501  0.00000000000E+00  0.00000000000E+00  0.12375229593E+04  0.12375229593E+04  0.50400001928E-02 0. -1.
        1   -1    0    0  501    0  0.00000000000E+00  0.00000000000E+00 -0.19396268801E+04  0.19396268801E+04  0.50400001928E-02 0.  1.
    10030    2    1    2    0    0  0.00000000000E+00  0.00000000000E+00 -0.70210392078E+03  0.31771498394E+04  0.30986014888E+04 0.  0.
        5    1    3    3  502    0 -0.10301349143E+04  0.75203339704E+03 -0.12528809201E+04  0.17878660078E+04  0.46999998093E+01 0.  1.
       -5    1    3    3    0  502  0.10301349143E+04 -0.75203339704E+03  0.55077699930E+03  0.13892838317E+04  0.46999998093E+01 0. -1.
</event>
<event>
 5   0  0.4134019E-07  0.3103836E+04  0.7818609E-02  0.8214686E-01
        1   -1    0    0  501    0  0.00000000000E+00  0.00000000000E+00  0.30745449486E+04  0.30745449486E+04  0.50400001928E-02 0. -1.
       -1   -1    0    0    0  501  0.00000000000E+00  0.00000000000E+00 -0.78335134362E+03  0.78335134364E+03  0.50400001928E-02 0.  1.
    10030    2    1    2    0    0  0.00000000000E+00  0.00000000000E+00  0.22911936049E+04  0.38578962922E+04  0.31038356377E+04 0.  0.
        2    1    3    3  502    0  0.11503354586E+04  0.40998320597E+03 -0.44707638440E+02  0.12220297335E+04  0.25500000920E-02 0.  1.
       -2    1    3    3    0  502 -0.11503354586E+04 -0.40998320597E+03  0.23359012434E+04  0.26358665587E+04  0.25500000920E-02 0. -1.
</event>
<event>
 5   0  0.1193123E-06  0.3085410E+04  0.7818609E-02  0.8219754E-01
       -2   -1    0    0    0  501  0.00000000000E+00  0.00000000000E+00  0.12847036222E+04  0.12847036222E+04  0.25500000920E-02 0. -1.
        2   -1    0    0  501    0  0.00000000000E+00  0.00000000000E+00 -0.18525191333E+04  0.18525191333E+04  0.25500000920E-02 0.  1.
    10030    2    1    2    0    0  0.00000000000E+00  0.00000000000E+00 -0.56781551114E+03  0.31372227555E+04  0.30854095616E+04 0.  0.
        3    1    3    3  502    0  0.15354610763E+03  0.14823041631E+04 -0.68952531039E+03  0.16420253356E+04  0.10100000352E+00 0. -1.
       -3    1    3    3    0  502 -0.15354610763E+03 -0.14823041631E+04  0.12170979925E+03  0.14951974199E+04  0.10100000352E+00 0.  1.
</event>
<event>
 5   0  0.3935852E-07  0.3095438E+04  0.7818609E-02  0.8216991E-01
        1   -1    0    0  501    0  0.00000000000E+00  0.00000000000E+00  0.14645713618E+04  0.14645713618E+04  0.50400001928E-02 0. -1.
       -1   -1    0    0    0  501  0.00000000000E+00  0.00000000000E+00 -0.16355875651E+04  0.16355875651E+04  0.50400001928E-02 0.  1.
    10030    2    1    2    0    0  0.00000000000E+00  0.00000000000E+00 -0.17101620322E+03  0.31001589269E+04  0.30954383906E+04 0.  0.
        5    1    3    3  502    0 -0.38922973877E+03 -0.59767285882E+03  0.12901585716E+04  0.14741926148E+04  0.46999998093E+01 0. -1.
       -5    1    3    3    0  502  0.38922973877E+03  0.59767285882E+03 -0.14611747748E+04  0.16259663121E+04  0.46999998093E+01 0.  1.
</event>
<event>
 5   0  0.1176002E-06  0.3079720E+04  0.7818609E-02  0.8221326E-01
        2   -1    0    0  501    0  0.00000000000E+00  0.00000000000E+00  0.21117220011E+04  0.21117220011E+04  0.25500000920E-02 0. -1.
       -2   -1    0    0    0  501  0.00000000000E+00  0.00000000000E+00 -0.11228605928E+04  0.11228605928E+04  0.25500000920E-02 0.  1.
    10030    2    1    2    0    0  0.00000000000E+00  0.00000000000E+00  0.98886140832E+03  0.32345825939E+04  0.30797203886E+04 0.  0.
        2    1    3    3  502    0  0.16492794120E+03  0.10832444280E+04 -0.64189252882E+03  0.12698998918E+04  0.25500000920E-02 0.  1.
       -2    1    3    3    0  502 -0.16492794120E+03 -0.10832444280E+04  0.16307539371E+04  0.19646827021E+04  0.25500000920E-02 0. -1.
</event>
<event>
 5   0  0.4330395E-07  0.3100526E+04  0.7818609E-02  0.8215593E-01
        1   -1    0    0  501    0  0.00000000000E+00  0.00000000000E+00  0.74566898328E+03  0.74566898330E+03  0.50400001928E-02 0.  1.
       -1   -1    0    0    0  501  0.00000000000E+00  0.00000000000E+00 -0.32230333275E+04  0.32230333275E+04  0.50400001928E-02 0. -1.
    10030    2    1    2    0    0  0.00000000000E+00  0.00000000000E+00 -0.24773643443E+04  0.39687023108E+04  0.31005263969E+04 0.  0.
        1    1    3    3  502    0  0.13126664410E+04 -0.81570782077E+03 -0.10827333911E+04  0.18870039826E+04  0.50400001928E-02 0. -1.
       -1    1    3    3    0  502 -0.13126664410E+04  0.81570782077E+03 -0.13946309532E+04  0.20816983282E+04  0.50400001928E-02 0.  1.
</event>
<event>
 5   0  0.1193123E-06  0.3070002E+04  0.7818609E-02  0.8224019E-01
       -2   -1    0    0    0  501  0.00000000000E+00  0.00000000000E+00  0.14175363808E+04  0.14175363808E+04  0.25500000920E-02 0. -1.
        2   -1    0    0  501    0  0.00000000000E+00  0.00000000000E+00 -0.16621998210E+04  0.16621998210E+04  0.25500000920E-02 0.  1.
    10030    2    1    2    0    0  0.00000000000E+00  0.00000000000E+00 -0.24466344019E+03  0.30797362019E+04  0.30700024225E+04 0.  0.
        3    1    3    3  502    0 -0.12652657138E+04 -0.20729004507E+03  0.72435985610E+03  0.14726043938E+04  0.10100000352E+00 0. -1.
       -3    1    3    3    0  502  0.12652657138E+04  0.20729004507E+03 -0.96902329629E+03  0.16071318080E+04  0.10100000352E+00 0.  1.
</event>
<event>
 5   0  0.4134019E-07  0.3098308E+04  0.7818609E-02  0.8216202E-01
       -1   -1    0    0    0  501  0.00000000000E+00  0.00000000000E+00  0.21650614971E+04  0.21650614971E+04  0.50400001928E-02 0. -1.
        1   -1    0    0  501    0  0.00000000000E+00  0.00000000000E+00 -0.11084570767E+04  0.11084570767E+04  0.50400001928E-02 0.  1.
    10030    2    1    2    0    0  0.00000000000E+00  0.00000000000E+00  0.10566044204E+04  0.32735185738E+04  0.30983077562E+04 0.  0.
        2    1    3    3  502    0  0.12572979695E+03 -0.15317436308E+04  0.32280054475E+03  0.15704288345E+04  0.25500000920E-02 0.  1.
       -2    1    3    3    0  502 -0.12572979695E+03  0.15317436308E+04  0.73380387568E+03  0.17030897394E+04  0.25500000920E-02 0. -1.
</event>
<event>
 5   0  0.4173905E-07  0.3098056E+04  0.7818609E-02  0.8216271E-01
       -1   -1    0    0    0  501  0.00000000000E+00  0.00000000000E+00  0.11474613735E+04  0.11474613735E+04  0.50400001928E-02 0. -1.
        1   -1    0    0  501    0  0.00000000000E+00  0.00000000000E+00 -0.20911279005E+04  0.20911279005E+04  0.50400001928E-02 0.  1.
    10030    2    1    2    0    0  0.00000000000E+00  0.00000000000E+00 -0.94366652704E+03  0.32385892741E+04  0.30980564830E+04 0.  0.
        3    1    3    3  502    0  0.24643526175E+03  0.45055266588E+03 -0.19995499095E+04  0.20644437250E+04  0.10100000352E+00 0.  1.
       -3    1    3    3    0  502 -0.24643526175E+03 -0.45055266588E+03  0.10558833824E+04  0.11741455491E+04  0.10100000352E+00 0. -1.
</event>
<event>
 5   0  0.3935852E-07  0.3141524E+04  0.7818609E-02  0.8204434E-01
        1   -1    0    0  501    0  0.00000000000E+00  0.00000000000E+00  0.25512385013E+04  0.25512385013E+04  0.50400001928E-02 0. -1.
       -1   -1    0    0    0  501  0.00000000000E+00  0.00000000000E+00 -0.96709607711E+03  0.96709607712E+03  0.50400001928E-02 0.  1.
    10030    2    1    2    0    0  0.00000000000E+00  0.00000000000E+00  0.15841424242E+04  0.35183345785E+04  0.31415236726E+04 0.  0.
        5    1    3    3  502    0  0.75101175066E+03  0.89263194703E+03 -0.38598143931E+03  0.12287449711E+04  0.46999998093E+01 0.  1.
       -5    1    3    3    0  502 -0.75101175066E+03 -0.89263194703E+03  0.19701238635E+04  0.22895896074E+04  0.46999998093E+01 0. -1.
</event>
<event>
 5   0  0.4134019E-07  0.3088856E+04  0.7818609E-02  0.8218803E-01
       -1   -1    0    0    0  501  0.00000000000E+00  0.00000000000E+00  0.93498251728E+03  0.93498251730E+03  0.50400001928E-02 0.  1.
        1   -1    0    0  501    0  0.00000000000E+00  0.00000000000E+00 -0.25511257657E+04  0.25511257657E+04  0.50400001928E-02 0. -1.
    10030    2    1    2    0    0  0.00000000000E+00  0.00000000000E+00 -0.16161432484E+04  0.34861082830E+04  0.30888560927E+04 0.  0.
        2    1    3    3  502    0  0.12559843740E+04  0.89320784767E+03 -0.92059891735E+03  0.17952212603E+04  0.25500000920E-02 0. -1.
       -2    1    3    3    0  502 -0.12559843740E+04 -0.89320784767E+03 -0.69554433103E+03  0.16908870226E+04  0.25500000920E-02 0.  1.
</event>
<event>
 5   0  0.1237580E-06  0.3205307E+04  0.7818609E-02  0.8187417E-01
        2   -1    0    0  501    0  0.00000000000E+00  0.00000000000E+00  0.21133706586E+04  0.21133706586E+04  0.25500000920E-02 0. -1.
       -2   -1    0    0    0  501  0.00000000000E+00  0.00000000000E+00 -0.12153564952E+04  0.12153564952E+04  0.25500000920E-02 0.  1.
    10030    2    1    2    0    0  0.00000000000E+00  0.00000000000E+00  0.89801416339E+03  0.33287271538E+04  0.32053073218E+04 0.  0.
        4    1    3    3  502    0  0.62942964643E+03 -0.14623437093E+04  0.64012114846E+03  0.17159217644E+04  0.12699999809E+01 0.  1.
       -4    1    3    3    0  502 -0.62942964643E+03  0.14623437093E+04  0.25789301494E+03  0.16128053894E+04  0.12699999809E+01 0. -1.
</event>
<event>
 5   0  0.4219337E-07  0.3108173E+04  0.7818609E-02  0.8213498E-01
       -1   -1    0    0    0  501  0.00000000000E+00  0.00000000000E+00  0.10731999300E+04  0.10731999300E+04  0.50400001928E-02 0. -1.
        1   -1    0    0  501    0  0.00000000000E+00  0.00000000000E+00 -0.22504520372E+04  0.22504520372E+04  0.50400001928E-02 0.  1.
    10030    2    1    2    0    0  0.00000000000E+00  0.00000000000E+00 -0.11772521072E+04  0.33236519672E+04  0.31081730768E+04 0.  0.
        4    1    3    3  502    0 -0.14120492165E+04  0.29457886477E+03 -0.12071033552E+04  0.18808933570E+04  0.12699999809E+01 0. -1.
       -4    1    3    3    0  502  0.14120492165E+04 -0.29457886477E+03  0.29851247999E+02  0.14427586102E+04  0.12699999809E+01 0.  1.
</event>
<event>
 5   0  0.3935852E-07  0.3102256E+04  0.7818609E-02  0.8215119E-01
        1   -1    0    0  501    0  0.00000000000E+00  0.00000000000E+00  0.82672031498E+03  0.82672031500E+03  0.50400001928E-02 0.  1.
       -1   -1    0    0    0  501  0.00000000000E+00  0.00000000000E+00 -0.29102917319E+04  0.29102917319E+04  0.50400001928E-02 0. -1.
    10030    2    1    2    0    0  0.00000000000E+00  0.00000000000E+00 -0.20835714169E+04  0.37370120469E+04  0.31022555003E+04 0.  0.
        5    1    3    3  502    0 -0.75438858272E+03 -0.28040160251E+03  0.55551617041E+03  0.97793021122E+03  0.46999998093E+01 0.  1.
       -5    1    3    3    0  502  0.75438858272E+03  0.28040160251E+03 -0.26390875873E+04  0.27590818357E+04  0.46999998093E+01 0. -1.
</event>
<event>
 5   0  0.4134019E-07  0.3098894E+04  0.7818609E-02  0.8216042E-01
       -1   -1    0    0    0  501  0.00000000000E+00  0.00000000000E+00  0.15283358669E+04  0.15283358669E+04  0.50400001928E-02 0. -1.
        1   -1    0    0  501    0  0.00000000000E+00  0.00000000000E+00 -0.15708495742E+04  0.15708495742E+04  0.50400001928E-02 0.  1.
    10030    2    1    2    0    0  0.00000000000E+00  0.00000000000E+00 -0.42513707313E+02  0.30991854411E+04  0.30988938321E+04 0.  0.
        2    1    3    3  502    0  0.11130354379E+04 -0.10745145951E+04 -0.10703347627E+03  0.15507693788E+04  0.25500000920E-02 0. -1.
       -2    1    3    3    0  502 -0.11130354379E+04  0.10745145951E+04  0.64519768954E+02  0.15484160622E+04  0.25500000920E-02 0.  1.
</event>
<event>
 5   0  0.1258262E-06  0.3143276E+04  0.7818609E-02  0.8203961E-01
       -2   -1    0    0    0  501  0.00000000000E+00  0.00000000000E+00  0.11174803229E+04  0.11174803229E+04  0.25500000920E-02 0.  1.
        2   -1    0    0  501    0  0.00000000000E+00  0.00000000000E+00 -0.22103703349E+04  0.22103703349E+04  0.25500000920E-02 0. -1.
    10030    2    1    2    0    0  0.00000000000E+00  0.00000000000E+00 -0.10928900120E+04  0.33278506578E+04  0.31432755881E+04 0.  0.
        1    1    3    3  502    0  0.42336974572E+03  0.45106077180E+01  0.10559639038E+04  0.11376827560E+04  0.50400001928E-02 0.  1.
       -1    1    3    3    0  502 -0.42336974572E+03 -0.45106077180E+01 -0.21488539157E+04  0.21901679018E+04  0.50400001928E-02 0. -1.
</event>
<event>
 5   0  0.1193123E-06  0.3098477E+04  0.7818609E-02  0.8216156E-01
        2   -1    0    0  501    0  0.00000000000E+00  0.00000000000E+00  0.24800882410E+04  0.24800882410E+04  0.25500000920E-02 0. -1.
       -2   -1    0    0    0  501  0.00000000000E+00  0.00000000000E+00 -0.96776405376E+03  0.96776405376E+03  0.25500000920E-02 0.  1.
    10030    2    1    2    0    0  0.00000000000E+00  0.00000000000E+00  0.15123241873E+04  0.34478522948E+04  0.30984772065E+04 0.  0.
        3    1    3    3  502    0 -0.85719085780E+03  0.97718255158E+01  0.21921225861E+04  0.23537784726E+04  0.10100000352E+00 0. -1.
       -3    1    3    3    0  502  0.85719085780E+03 -0.97718255158E+01 -0.67979839881E+03  0.10940738222E+04  0.10100000352E+00 0.  1.
</event>
<event>
 5   0  0.1193123E-06  0.3068793E+04  0.7818609E-02  0.8224355E-01
        2   -1    0    0  501    0  0.00000000000E+00  0.00000000000E+00  0.12349887357E+04  0.12349887357E+04  0.25500000920E-02 0. -1.
       -2   -1    0    0    0  501  0.00000000000E+00  0.00000000000E+00 -0.19063917733E+04  0.19063917733E+04  0.25500000920E-02 0.  1.
    10030    2    1    2    0    0  0.00000000000E+00  0.00000000000E+00 -0.67140303763E+03  0.31413805090E+04  0.30687928349E+04 0.  0.
        3    1    3    3  502    0  0.16682896447E+03 -0.13248469926E+04  0.43803488132E+03  0.14053206128E+04  0.10100000352E+00 0. -1.
       -3    1    3    3    0  502 -0.16682896447E+03  0.13248469926E+04 -0.11094379190E+04  0.17360598963E+04  0.10100000352E+00 0.  1.
</event>
<event>
 5   0  0.4219337E-07  0.3020680E+04  0.7818609E-02  0.8237850E-01
        1   -1    0    0  501    0  0.00000000000E+00  0.00000000000E+00  0.89253831136E+03  0.89253831137E+03  0.50400001928E-02 0.  1.
       -1   -1    0    0    0  501  0.00000000000E+00  0.00000000000E+00 -0.25557745935E+04  0.25557745935E+04  0.50400001928E-02 0. -1.
    10030    2    1    2    0    0  0.00000000000E+00  0.00000000000E+00 -0.16632362821E+04  0.34483129049E+04  0.30206798837E+04 0.  0.
        4    1    3    3  502    0  0.11434669773E+04  0.96720384765E+03 -0.10545168489E+04  0.18316679308E+04  0.12699999809E+01 0. -1.
       -4    1    3    3    0  502 -0.11434669773E+04 -0.96720384765E+03 -0.60871943325E+03  0.16166449741E+04  0.12699999809E+01 0.  1.
</event>
<event>
 5   0  0.1258262E-06  0.3091550E+04  0.7818609E-02  0.8218061E-01
       -2   -1    0    0    0  501  0.00000000000E+00  0.00000000000E+00  0.29037007881E+04  0.29037007881E+04  0.25500000920E-02 0. -1.
        2   -1    0    0  501    0  0.00000000000E+00  0.00000000000E+00 -0.82288808746E+03  0.82288808747E+03  0.25500000920E-02 0.  1.
    10030    2    1    2    0    0  0.00000000000E+00  0.00000000000E+00  0.20808127006E+04  0.37265888756E+04  0.30915502830E+04 0.  0.
        1    1    3    3  502    0  0.11651749541E+04  0.21279927120E+03 -0.15684331023E+03  0.11947870218E+04  0.50400001928E-02 0.  1.
       -1    1    3    3    0  502 -0.11651749541E+04 -0.21279927120E+03  0.22376560109E+04  0.25318018537E+04  0.50400001928E-02 0. -1.
</event>
<event>
 5   0  0.4134019E-07  0.3100199E+04  0.7818609E-02  0.8215683E-01
        1   -1    0    0  501    0  0.00000000000E+00  0.00000000000E+00  0.29280137641E+04  0.29280137641E+04  0.50400001928E-02 0.  1.
       -1   -1    0    0    0  501  0.00000000000E+00  0.00000000000E+00 -0.82062728200E+03  0.82062728201E+03  0.50400001928E-02 0. -1.
    10030    2    1    2    0    0  0.00000000000E+00  0.00000000000E+00  0.21073864821E+04  0.37486410461E+04  0.31001986884E+04 0.  0.
        2    1    3    3  502    0  0.58471709151E+03 -0.10918743064E+04 -0.73310447944E+02  0.12407489673E+04  0.25500000920E-02 0. -1.
       -2    1    3    3    0  502 -0.58471709151E+03  0.10918743064E+04  0.21806969300E+04  0.25078920788E+04  0.25500000920E-02 0.  1.
</event>
<event>
 5   0  0.4173905E-07  0.3084391E+04  0.7818609E-02  0.8220035E-01
        1   -1    0    0  501    0  0.00000000000E+00  0.00000000000E+00  0.15882622840E+04  0.15882622840E+04  0.50400001928E-02 0.  1.
       -1   -1    0    0    0  501  0.00000000000E+00  0.00000000000E+00 -0.14974648594E+04  0.14974648594E+04  0.50400001928E-02 0. -1.
    10030    2    1    2    0    0  0.00000000000E+00  0.00000000000E+00  0.90797424584E+02  0.30857271434E+04  0.30843909984E+04 0.  0.
        3    1    3    3  502    0 -0.24244161818E+03  0.11524795191E+04  0.10415106922E+04  0.15721741355E+04  0.10100000352E+00 0.  1.
       -3    1    3    3    0  502  0.24244161818E+03 -0.11524795191E+04 -0.95071326767E+03  0.15135530079E+04  0.10100000352E+00 0. -1.
</event>
<event>
 5   0  0.3935852E-07  0.3043963E+04  0.7818609E-02  0.8231287E-01
       -1   -1    0    0    0  501  0.00000000000E+00  0.00000000000E+00  0.13001312813E+04  0.13001312813E+04  0.50400001928E-02 0. -1.
        1   -1    0    0  501    0  0.00000000000E+00  0.00000000000E+00 -0.17816872056E+04  0.17816872056E+04  0.50400001928E-02 0.  1.
    10030    2    1    2    0    0  0.00000000000E+00  0.00000000000E+00 -0.48155592428E+03  0.30818184869E+04  0.30439627261E+04 0.  0.
        5    1    3    3  502    0  0.40500529421E+03  0.14381717720E+04  0.52720061289E+02  0.14950481025E+04  0.46999998093E+01 0.  1.
       -5    1    3    3    0  502 -0.40500529421E+03 -0.14381717720E+04 -0.53427598557E+03  0.15867703844E+04  0.46999998093E+01 0. -1.
</event>
<event>
 5   0  0.1176002E-06  0.3099470E+04  0.7818609E-02  0.8215883E-01
        2   -1    0    0  501    0  0.00000000000E+00  0.00000000000E+00  0.22079685408E+04  0.22079685408E+04  0.25500000920E-02 0. -1.
       -2   -1    0    0    0  501  0.00000000000E+00  0.00000000000E+00 -0.10877322283E+04  0.10877322283E+04  0.25500000920E-02 0.  1.
    10030    2    1    2    0    0  0.00000000000E+00  0.00000000000E+00  0.11202363124E+04  0.32957007691E+04  0.30994699811E+04 0.  0.
        2    1    3    3  502    0  0.73953166678E+03 -0.74038475822E+03  0.17755538206E+04  0.20609871534E+04  0.25500000920E-02 0. -1.
       -2    1    3    3    0  502 -0.73953166678E+03  0.74038475822E+03 -0.65531750819E+03  0.12347136157E+04  0.25500000920E-02 0.  1.
</event>
<event>
 5   0  0.1258262E-06  0.3075613E+04  0.7818609E-02  0.8222463E-01
       -2   -1    0    0    0  501  0.00000000000E+00  0.00000000000E+00  0.14976152563E+04  0.14976152563E+04  0.25500000920E-02 0.  1.
        2   -1    0    0  501    0  0.00000000000E+00  0.00000000000E+00 -0.15790767155E+04  0.15790767155E+04  0.25500000920E-02 0. -1.
    10030    2    1    2    0    0  0.00000000000E+00  0.00000000000E+00 -0.81461459235E+02  0.30766919717E+04  0.30756133567E+04 0.  0.
        1    1    3    3  502    0 -0.10194789096E+03  0.11254724204E+03  0.14900964784E+04  0.14978143307E+04  0.50400001928E-02 0.  1.
       -1    1    3    3    0  502  0.10194789096E+03 -0.11254724204E+03 -0.15715579376E+04  0.15788776411E+04  0.50400001928E-02 0. -1.
</event>
<event>
 5   0  0.1200286E-06  0.3064192E+04  0.7818609E-02  0.8225634E-01
       -2   -1    0    0    0  501  0.00000000000E+00  0.00000000000E+00  0.18857193947E+04  0.18857193947E+04  0.25500000920E-02 0. -1.
        2   -1    0    0  501    0  0.00000000000E+00  0.00000000000E+00 -0.12447868144E+04  0.12447868144E+04  0.25500000920E-02 0.  1.
    10030    2    1    2    0    0  0.00000000000E+00  0.00000000000E+00  0.64093258027E+03  0.31305062091E+04  0.30641923165E+04 0.  0.
        5    1    3    3  502    0  0.10952548906E+04 -0.86564368336E+03 -0.32436217329E+03  0.14332324206E+04  0.46999998093E+01 0.  1.
       -5    1    3    3    0  502 -0.10952548906E+04  0.86564368336E+03  0.96529475356E+03  0.16972737885E+04  0.46999998093E+01 0. -1.
</event>
<event>
 5   0  0.3902375E-07  0.3020536E+04  0.7818609E-02  0.8237891E-01
        3   -1    0    0  501    0  0.00000000000E+00  0.00000000000E+00  0.19512245323E+04  0.19512245349E+04  0.10100000352E+00 0. -1.
       -3   -1    0    0    0  501  0.00000000000E+00  0.00000000000E+00 -0.11689630325E+04  0.11689630369E+04  0.10100000352E+00 0.  1.
    10030    2    1    2    0    0  0.00000000000E+00  0.00000000000E+00  0.78226149982E+03  0.31201875718E+04  0.30205359506E+04 0.  0.
        5    1    3    3  502    0  0.92913521012E+03  0.74136418662E+03  0.13535185180E+04  0.18013737992E+04  0.46999998093E+01 0. -1.
       -5    1    3    3    0  502 -0.92913521012E+03 -0.74136418662E+03 -0.57125701820E+03  0.13188137726E+04  0.46999998093E+01 0.  1.
</event>
<event>
 5   0  0.4134019E-07  0.3106667E+04  0.7818609E-02  0.8213911E-01
       -1   -1    0    0    0  501  0.00000000000E+00  0.00000000000E+00  0.31379998519E+04  0.31379998519E+04  0.50400001928E-02 0. -1.
        1   -1    0    0  501    0  0.00000000000E+00  0.00000000000E+00 -0.76891179268E+03  0.76891179270E+03  0.50400001928E-02 0.  1.
    10030    2    1    2    0    0  0.00000000000E+00  0.00000000000E+00  0.23690880592E+04  0.39069116446E+04  0.31066670833E+04 0.  0.
        2    1    3    3  502    0  0.15294397606E+04  0.25746866890E+03  0.10765889696E+04  0.18879936192E+04  0.25500000920E-02 0.  1.
       -2    1    3    3    0  502 -0.15294397606E+04 -0.25746866890E+03  0.12924990897E+04  0.20189180254E+04  0.25500000920E-02 0. -1.
</event>
<event>
 5   0  0.1237580E-06  0.3145357E+04  0.7818609E-02  0.8203399E-01
        2   -1    0    0  501    0  0.00000000000E+00  0.00000000000E+00  0.20816431339E+04  0.20816431339E+04  0.25500000920E-02 0. -1.
       -2   -1    0    0    0  501  0.00000000000E+00  0.00000000000E+00 -0.11881567808E+04  0.11881567808E+04  0.25500000920E-02 0.  1.
    10030    2    1    2    0    0  0.00000000000E+00  0.00000000000E+00  0.89348635307E+03  0.32697999146E+04  0.31453574707E+04 0.  0.
        4    1    3    3  502    0 -0.79940503978E+03  0.13266359943E+04  0.16336845829E+03  0.15574666433E+04  0.12699999809E+01 0.  1.
       -4    1    3    3    0  502  0.79940503978E+03 -0.13266359943E+04  0.73011789478E+03  0.17123332713E+04  0.12699999809E+01 0. -1.
</event>
<event>
 5   0  0.1258262E-06  0.3056254E+04  0.7818609E-02  0.8227847E-01
       -2   -1    0    0    0  501  0.00000000000E+00  0.00000000000E+00  0.11344514954E+04  0.11344514954E+04  0.25500000920E-02 0. -1.
        2   -1    0    0  501    0  0.00000000000E+00  0.00000000000E+00 -0.20584146498E+04  0.20584146498E+04  0.25500000920E-02 0.  1.
    10030    2    1    2    0    0  0.00000000000E+00  0.00000000000E+00 -0.92396315447E+03  0.31928661452E+04  0.30562536397E+04 0.  0.
        1    1    3    3  502    0 -0.59109759154E+03 -0.14086889502E+04 -0.42330432466E+03  0.15852405093E+04  0.50400001928E-02 0. -1.
       -1    1    3    3    0  502  0.59109759154E+03  0.14086889502E+04 -0.50065882981E+03  0.16076256359E+04  0.50400001928E-02 0.  1.
</event>
<event>
 5   0  0.4330395E-07  0.3096166E+04  0.7818609E-02  0.8216791E-01
       -1   -1    0    0    0  501  0.00000000000E+00  0.00000000000E+00  0.15171794797E+04  0.15171794797E+04  0.50400001928E-02 0. -1.
        1   -1    0    0  501    0  0.00000000000E+00  0.00000000000E+00 -0.15796156080E+04  0.15796156080E+04  0.50400001928E-02 0.  1.
    10030    2    1    2    0    0  0.00000000000E+00  0.00000000000E+00 -0.62436128291E+02  0.30967950876E+04  0.30961656197E+04 0.  0.
        1    1    3    3  502    0 -0.27253368422E+02 -0.11236171181E+04  0.10335650463E+04  0.15269298868E+04  0.50400001928E-02 0. -1.
       -1    1    3    3    0  502  0.27253368422E+02  0.11236171181E+04 -0.10960011746E+04  0.15698652009E+04  0.50400001928E-02 0.  1.
</event>
<event>
 5   0  0.3935852E-07  0.3089163E+04  0.7818609E-02  0.8218718E-01
       -1   -1    0    0    0  501  0.00000000000E+00  0.00000000000E+00  0.15040189497E+04  0.15040189498E+04  0.50400001928E-02 0. -1.
        1   -1    0    0  501    0  0.00000000000E+00  0.00000000000E+00 -0.15862381138E+04  0.15862381138E+04  0.50400001928E-02 0.  1.
    10030    2    1    2    0    0  0.00000000000E+00  0.00000000000E+00 -0.82219164035E+02  0.30902570636E+04  0.30891631112E+04 0.  0.
        5    1    3    3  502    0 -0.23144567195E+03  0.58658151867E+03  0.13693773603E+04  0.15076012145E+04  0.46999998093E+01 0. -1.
       -5    1    3    3    0  502  0.23144567195E+03 -0.58658151867E+03 -0.14515965243E+04  0.15826558490E+04  0.46999998093E+01 0.  1.
</event>
<event>
 5   0  0.1200286E-06  0.3097320E+04  0.7818609E-02  0.8216474E-01
       -2   -1    0    0    0  501  0.00000000000E+00  0.00000000000E+00  0.11104900985E+04  0.11104900985E+04  0.25500000920E-02 0. -1.
        2   -1    0    0  501    0  0.00000000000E+00  0.00000000000E+00 -0.21597196338E+04  0.21597196338E+04  0.25500000920E-02 0.  1.
    10030    2    1    2    0    0  0.00000000000E+00  0.00000000000E+00 -0.10492295352E+04  0.32702097323E+04  0.30973196599E+04 0.  0.
        5    1    3    3  502    0 -0.14094136306E+04  0.18657948815E+03  0.12371885895E+03  0.14270904434E+04  0.46999998093E+01 0. -1.
       -5    1    3    3    0  502  0.14094136306E+04 -0.18657948815E+03 -0.11729483942E+04  0.18431192889E+04  0.46999998093E+01 0.  1.
</event>
<event>
 5   0  0.1200286E-06  0.3103848E+04  0.7818609E-02  0.8214683E-01
        2   -1    0    0  501    0  0.00000000000E+00  0.00000000000E+00  0.29740429983E+04  0.29740429983E+04  0.25500000920E-02 0. -1.
       -2   -1    0    0    0  501  0.00000000000E+00  0.00000000000E+00 -0.80982971059E+03  0.80982971060E+03  0.25500000920E-02 0.  1.
    10030    2    1    2    0    0  0.00000000000E+00  0.00000000000E+00  0.21642132877E+04  0.37838727089E+04  0.31038481796E+04 0.  0.
        5    1    3    3  502    0 -0.13020544119E+04  0.83729731248E+03  0.12158393446E+04  0.19684257372E+04  0.46999998093E+01 0. -1.
       -5    1    3    3    0  502  0.13020544119E+04 -0.83729731248E+03  0.94837394304E+03  0.18154469716E+04  0.46999998093E+01 0.  1.
</event>
<event>
 5   0  0.1200286E-06  0.3023241E+04  0.7818609E-02  0.8237125E-01
       -2   -1    0    0    0  501  0.00000000000E+00  0.00000000000E+00  0.98172229975E+03  0.98172229975E+03  0.25500000920E-02 0. -1.
        2   -1    0    0  501    0  0.00000000000E+00  0.00000000000E+00 -0.23275384783E+04  0.23275384783E+04  0.25500000920E-02 0.  1.
    10030    2    1    2    0    0  0.00000000000E+00  0.00000000000E+00 -0.13458161785E+04  0.33092607780E+04  0.30232409283E+04 0.  0.
        5    1    3    3  502    0  0.98215358837E+03 -0.48615078123E+02  0.58373951340E+03  0.11435746615E+04  0.46999998093E+01 0. -1.
       -5    1    3    3    0  502 -0.98215358837E+03  0.48615078123E+02 -0.19295556919E+04  0.21656861165E+04  0.46999998093E+01 0.  1.
</event>
<event>
 5   0  0.1237580E-06  0.3087966E+04  0.7818609E-02  0.8219048E-01
        2   -1    0    0  501    0  0.00000000000E+00  0.00000000000E+00  0.29824723742E+04  0.29824723742E+04  0.25500000920E-02 0. -1.
       -2   -1    0    0    0  501  0.00000000000E+00  0.00000000000E+00 -0.79929795115E+03  0.79929795116E+03  0.25500000920E-02 0.  1.
    10030    2    1    2    0    0  0.00000000000E+00  0.00000000000E+00  0.21831744230E+04  0.37817703253E+04  0.30879663587E+04 0.  0.
        4    1    3    3  502    0 -0.61182731891E+03  0.83701382783E+03 -0.30956521647E+03  0.10820152736E+04  0.12699999809E+01 0.  1.
       -4    1    3    3    0  502  0.61182731891E+03 -0.83701382783E+03  0.24927396395E+04  0.26997550517E+04  0.12699999809E+01 0. -1.
</event>
<event>
 5   0  0.1237580E-06  0.3091356E+04  0.7818609E-02  0.8218114E-01
        2   -1    0    0  501    0  0.00000000000E+00  0.00000000000E+00  0.13816048832E+04  0.13816048832E+04  0.25500000920E-02 0.  1.
       -2   -1    0    0    0  501  0.00000000000E+00  0.00000000000E+00 -0.17292361324E+04  0.17292361324E+04  0.25500000920E-02 0. -1.
    10030    2    1    2    0    0  0.00000000000E+00  0.00000000000E+00 -0.34763124919E+03  0.31108410156E+04  0.30913563915E+04 0.  0.
        4    1    3    3  502    0 -0.14227371146E+03 -0.98577478663E+03 -0.13632664336E+04  0.16883396343E+04  0.12699999809E+01 0. -1.
       -4    1    3    3    0  502  0.14227371146E+03  0.98577478663E+03  0.10156351844E+04  0.14225013813E+04  0.12699999809E+01 0.  1.
</event>
<event>
 5   0  0.3935852E-07  0.3098469E+04  0.7818609E-02  0.8216158E-01
       -1   -1    0    0    0  501  0.00000000000E+00  0.00000000000E+00  0.10627331238E+04  0.10627331238E+04  0.50400001928E-02 0. -1.
        1   -1    0    0  501    0  0.00000000000E+00  0.00000000000E+00 -0.22584473172E+04  0.22584473172E+04  0.50400001928E-02 0.  1.
    10030    2    1    2    0    0  0.00000000000E+00  0.00000000000E+00 -0.11957141934E+04  0.33211804410E+04  0.30984685071E+04 0.  0.
        5    1    3    3  502    0  0.55407857084E+03  0.14455226998E+04 -0.66186306494E+03  0.16836340888E+04  0.46999998093E+01 0. -1.
       -5    1    3    3    0  502 -0.55407857084E+03 -0.14455226998E+04 -0.53385112842E+03  0.16375463522E+04  0.46999998093E+01 0.  1.
</event>
<event>
 5   0  0.1193123E-06  0.3097735E+04  0.7818609E-02  0.8216360E-01
       -2   -1    0    0    0  501  0.00000000000E+00  0.00000000000E+00  0.14616673154E+04  0.14616673154E+04  0.25500000920E-02 0. -1.
        2   -1    0    0  501    0  0.00000000000E+00  0.00000000000E+00 -0.16412697601E+04  0.16412697601E+04  0.25500000920E-02 0.  1.
    10030    2    1    2    0    0  0.00000000000E+00  0.00000000000E+00 -0.17960244477E+03  0.31029370755E+04  0.30977348913E+04 0.  0.
        3    1    3    3  502    0 -0.95030871880E+03 -0.64145775875E+03  0.95330998511E+03  0.14910917662E+04  0.10100000352E+00 0. -1.
       -3    1    3    3    0  502  0.95030871880E+03  0.64145775875E+03 -0.11329124299E+04  0.16118453093E+04  0.10100000352E+00 0.  1.
</event>
<event>
 5   0  0.1176002E-06  0.3095054E+04  0.7818609E-02  0.8217097E-01
        2   -1    0    0  501    0  0.00000000000E+00  0.00000000000E+00  0.14988095658E+04  0.14988095658E+04  0.25500000920E-02 0.  1.
       -2   -1    0    0    0  501  0.00000000000E+00  0.00000000000E+00 -0.15978275144E+04  0.15978275144E+04  0.25500000920E-02 0. -1.
    10030    2    1    2    0    0  0.00000000000E+00  0.00000000000E+00 -0.99017948615E+02  0.30966370802E+04  0.30950535782E+04 0.  0.
        2    1    3    3  502    0  0.74498877468E+03  0.71987897026E+03  0.11006900655E+04  0.15115398197E+04  0.25500000920E-02 0.  1.
       -2    1    3    3    0  502 -0.74498877468E+03 -0.71987897026E+03 -0.11997080141E+04  0.15850972605E+04  0.25500000920E-02 0. -1.
</event>
<event>
 5   0  0.4173905E-07  0.3110093E+04  0.7818609E-02  0.8212973E-01
       -1   -1    0    0    0  501  0.00000000000E+00  0.00000000000E+00  0.28869574462E+04  0.28869574462E+04  0.50400001928E-02 0.  1.
        1   -1    0    0  501    0  0.00000000000E+00  0.00000000000E+00 -0.83761892519E+03  0.83761892521E+03  0.50400001928E-02 0. -1.
    10030    2    1    2    0    0  0.00000000000E+00  0.00000000000E+00  0.20493385210E+04  0.37245763714E+04  0.31100933704E+04 0.  0.
        3    1    3    3  502    0  0.13710440331E+04 -0.59330695938E+03  0.15417054335E+04  0.21467721217E+04  0.10100000352E+00 0.  1.
       -3    1    3    3    0  502 -0.13710440331E+04  0.59330695938E+03  0.50763308753E+03  0.15778042497E+04  0.10100000352E+00 0. -1.
</event>
<event>
 5   0  0.1200286E-06  0.3062540E+04  0.7818609E-02  0.8226094E-01
       -2   -1    0    0    0  501  0.00000000000E+00  0.00000000000E+00  0.31372595473E+04  0.31372595473E+04  0.25500000920E-02 0. -1.
        2   -1    0    0  501    0  0.00000000000E+00  0.00000000000E+00 -0.74740010987E+03  0.74740010987E+03  0.25500000920E-02 0.  1.
    10030    2    1    2    0    0  0.00000000000E+00  0.00000000000E+00  0.23898594374E+04  0.38846596571E+04  0.30625402073E+04 0.  0.
        5    1    3    3  502    0 -0.12257176630E+04 -0.87653406040E+03  0.84971189973E+03  0.17299503319E+04  0.46999998093E+01 0.  1.
       -5    1    3    3    0  502  0.12257176630E+04  0.87653406040E+03  0.15401475377E+04  0.21547093252E+04  0.46999998093E+01 0. -1.
</event>
<event>
 5   0  0.1176002E-06  0.3110484E+04  0.7818609E-02  0.8212866E-01
       -2   -1    0    0    0  501  0.00000000000E+00  0.00000000000E+00  0.14180639555E+04  0.14180639555E+04  0.25500000920E-02 0. -1.
        2   -1    0    0  501    0  0.00000000000E+00  0.00000000000E+00 -0.17056904669E+04  0.17056904669E+04  0.25500000920E-02 0.  1.
    10030    2    1    2    0    0  0.00000000000E+00  0.00000000000E+00 -0.28762651132E+03  0.31237544224E+04  0.31104843162E+04 0.  0.
        2    1    3    3  502    0  0.49859982306E+03  0.12064972476E+04  0.70509816724E+03  0.14837118377E+04  0.25500000920E-02 0. -1.
       -2    1    3    3    0  502 -0.49859982306E+03 -0.12064972476E+04 -0.99272467857E+03  0.16400425846E+04  0.25500000920E-02 0.  1.
</event>
<event>
 5   0  0.4330395E-07  0.3082778E+04  0.7818609E-02  0.8220480E-01
       -1   -1    0    0    0  501  0.00000000000E+00  0.00000000000E+00  0.19042891709E+04  0.19042891709E+04  0.50400001928E-02 0.  1.
        1   -1    0    0  501    0  0.00000000000E+00  0.00000000000E+00 -0.12476467954E+04  0.12476467954E+04  0.50400001928E-02 0. -1.
    10030    2    1    2    0    0  0.00000000000E+00  0.00000000000E+00  0.65664237548E+03  0.31519359664E+04  0.30827781508E+04 0.  0.
        1    1    3    3  502    0  0.27015174558E+03  0.12011022270E+04  0.12766258760E+04  0.17735281652E+04  0.50400001928E-02 0. -1.
       -1    1    3    3    0  502 -0.27015174558E+03 -0.12011022270E+04 -0.61998350052E+03  0.13784078012E+04  0.50400001928E-02 0.  1.
</event>
<event>
 5   0  0.1200286E-06  0.3102516E+04  0.7818609E-02  0.8215048E-01
        2   -1    0    0  501    0  0.00000000000E+00  0.00000000000E+00  0.21849624585E+04  0.21849624585E+04  0.25500000920E-02 0. -1.
       -2   -1    0    0    0  501  0.00000000000E+00  0.00000000000E+00 -0.11013467049E+04  0.11013467049E+04  0.25500000920E-02 0.  1.
    10030    2    1    2    0    0  0.00000000000E+00  0.00000000000E+00  0.10836157536E+04  0.32863091634E+04  0.31025158849E+04 0.  0.
        5    1    3    3  502    0  0.47928147305E+03 -0.50496441627E+03 -0.92655995791E+03  0.11589802577E+04  0.46999998093E+01 0.  1.
       -5    1    3    3    0  502 -0.47928147305E+03  0.50496441627E+03  0.20101757115E+04  0.21273289057E+04  0.46999998093E+01 0. -1.
</event>
<event>
 5   0  0.4134019E-07  0.3101773E+04  0.7818609E-02  0.8215251E-01
       -1   -1    0    0    0  501  0.00000000000E+00  0.00000000000E+00  0.12076928230E+04  0.12076928230E+04  0.50400001928E-02 0.  1.
        1   -1    0    0  501    0  0.00000000000E+00  0.00000000000E+00 -0.19916070213E+04  0.19916070213E+04  0.50400001928E-02 0. -1.
    10030    2    1    2    0    0  0.00000000000E+00  0.00000000000E+00 -0.78391419835E+03  0.31992998443E+04  0.31017733675E+04 0.  0.
        2    1    3    3  502    0 -0.22852010757E+03 -0.71717227976E+03 -0.17905759387E+04  0.19423490188E+04  0.25500000920E-02 0. -1.
       -2    1    3    3    0  502  0.22852010757E+03  0.71717227976E+03  0.10066617403E+04  0.12569508256E+04  0.25500000920E-02 0.  1.
</event>
<event>
 5   0  0.1193123E-06  0.3102660E+04  0.7818609E-02  0.8215008E-01
       -2   -1    0    0    0  501  0.00000000000E+00  0.00000000000E+00  0.18198434062E+04  0.18198434062E+04  0.25500000920E-02 0.  1.
        2   -1    0    0  501    0  0.00000000000E+00  0.00000000000E+00 -0.13224348602E+04  0.13224348602E+04  0.25500000920E-02 0. -1.
    10030    2    1    2    0    0  0.00000000000E+00  0.00000000000E+00  0.49740854596E+03  0.31422782664E+04  0.31026597367E+04 0.  0.
        3    1    3    3  502    0 -0.13981573001E+04  0.67075727966E+03  0.20496499615E+03  0.15642154020E+04  0.10100000352E+00 0.  1.
       -3    1    3    3    0  502  0.13981573001E+04 -0.67075727966E+03  0.29244354981E+03  0.15780628644E+04  0.10100000352E+00 0. -1.
</event>
<event>
 5   0  0.4134019E-07  0.3093646E+04  0.7818609E-02  0.8217484E-01
        1   -1    0    0  501    0  0.00000000000E+00  0.00000000000E+00  0.19044364076E+04  0.19044364076E+04  0.50400001928E-02 0.  1.
       -1   -1    0    0    0  501  0.00000000000E+00  0.00000000000E+00 -0.12563618247E+04  0.12563618247E+04  0.50400001928E-02 0. -1.
    10030    2    1    2    0    0  0.00000000000E+00  0.00000000000E+00  0.64807458295E+03  0.31607982323E+04  0.30936458750E+04 0.  0.
        2    1    3    3  502    0 -0.14343538795E+04  0.54142021136E+03  0.53380910442E+03  0.16234097009E+04  0.25500000920E-02 0.  1.
       -2    1    3    3    0  502  0.14343538795E+04 -0.54142021136E+03  0.11426547853E+03  0.15373885314E+04  0.25500000920E-02 0. -1.
</event>
<event>
 5   0  0.3935852E-07  0.3106279E+04  0.7818609E-02  0.8214017E-01
       -1   -1    0    0    0  501  0.00000000000E+00  0.00000000000E+00  0.10916087616E+04  0.10916087616E+04  0.50400001928E-02 0. -1.
        1   -1    0    0  501    0  0.00000000000E+00  0.00000000000E+00 -0.22098041237E+04  0.22098041237E+04  0.50400001928E-02 0.  1.
    10030    2    1    2    0    0  0.00000000000E+00  0.00000000000E+00 -0.11181953621E+04  0.33014128853E+04  0.31062785084E+04 0.  0.
        5    1    3    3  502    0  0.39465797306E+03  0.12080923278E+04  0.38971934832E+03  0.13293401554E+04  0.46999998093E+01 0. -1.
       -5    1    3    3    0  502 -0.39465797306E+03 -0.12080923278E+04 -0.15079147104E+04  0.19720727299E+04  0.46999998093E+01 0.  1.
</event>
<event>
 5   0  0.1176002E-06  0.3100658E+04  0.7818609E-02  0.8215557E-01
       -2   -1    0    0    0  501  0.00000000000E+00  0.00000000000E+00  0.13886365177E+04  0.13886365177E+04  0.25500000920E-02 0. -1.
        2   -1    0    0  501    0  0.00000000000E+00  0.00000000000E+00 -0.17308484691E+04  0.17308484691E+04  0.25500000920E-02 0.  1.
    10030    2    1    2    0    0  0.00000000000E+00  0.00000000000E+00 -0.34221195137E+03  0.31194849868E+04  0.31006576017E+04 0.  0.
        2    1    3    3  502    0 -0.25147823780E+03 -0.72544787142E+02  0.13662482932E+04  0.13910925379E+04  0.25500000920E-02 0. -1.
       -2    1    3    3    0  502  0.25147823780E+03  0.72544787142E+02 -0.17084602446E+04  0.17283924489E+04  0.25500000920E-02 0.  1.
</event>
<event>
 5   0  0.1258262E-06  0.3089971E+04  0.7818609E-02  0.8218496E-01
        2   -1    0    0  501    0  0.00000000000E+00  0.00000000000E+00  0.14753617106E+04  0.14753617106E+04  0.25500000920E-02 0.  1.
       -2   -1    0    0    0  501  0.00000000000E+00  0.00000000000E+00 -0.16178953525E+04  0.16178953525E+04  0.25500000920E-02 0. -1.
    10030    2    1    2    0    0  0.00000000000E+00  0.00000000000E+00 -0.14253364191E+03  0.30932570631E+04  0.30899714270E+04 0.  0.
        1    1    3    3  502    0  0.13364712756E+04  0.64523446838E+03 -0.50125569887E+03  0.15664419126E+04  0.50400001928E-02 0. -1.
       -1    1    3    3    0  502 -0.13364712756E+04 -0.64523446838E+03  0.35872205696E+03  0.15268151506E+04  0.50400001928E-02 0.  1.
</event>
<event>
 5   0  0.4219337E-07  0.3068870E+04  0.7818609E-02  0.8224333E-01
        1   -1    0    0  501    0  0.00000000000E+00  0.00000000000E+00  0.18852742893E+04  0.18852742893E+04  0.50400001928E-02 0.  1.
       -1   -1    0    0    0  501  0.00000000000E+00  0.00000000000E+00 -0.12488853782E+04  0.12488853782E+04  0.50400001928E-02 0. -1.
    10030    2    1    2    0    0  0.00000000000E+00  0.00000000000E+00  0.63638891104E+03  0.31341596675E+04  0.30688704722E+04 0.  0.
        4    1    3    3  502    0 -0.51798240780E+03  0.14314840528E+04  0.51474011874E+03  0.16069882921E+04  0.12699999809E+01 0.  1.
       -4    1    3    3    0  502  0.51798240780E+03 -0.14314840528E+04  0.12164879230E+03  0.15271713754E+04  0.12699999809E+01 0. -1.
</event>
<event>
 5   0  0.4173905E-07  0.3090899E+04  0.7818609E-02  0.8218240E-01
       -1   -1    0    0    0  501  0.00000000000E+00  0.00000000000E+00  0.30459810886E+04  0.30459810886E+04  0.50400001928E-02 0.  1.
        1   -1    0    0  501    0  0.00000000000E+00  0.00000000000E+00 -0.78411998510E+03  0.78411998512E+03  0.50400001928E-02 0. -1.
    10030    2    1    2    0    0  0.00000000000E+00  0.00000000000E+00  0.22618611035E+04  0.38301010737E+04  0.30908993163E+04 0.  0.
        3    1    3    3  502    0  0.53392663311E+03 -0.10461539674E+04  0.23755861378E+04  0.26500802406E+04  0.10100000352E+00 0.  1.
       -3    1    3    3    0  502 -0.53392663311E+03  0.10461539674E+04 -0.11372503433E+03  0.11800208332E+04  0.10100000352E+00 0. -1.
</event>
<event>
 5   0  0.1176002E-06  0.3102073E+04  0.7818609E-02  0.8215169E-01
        2   -1    0    0  501    0  0.00000000000E+00  0.00000000000E+00  0.21478403085E+04  0.21478403085E+04  0.25500000920E-02 0. -1.
       -2   -1    0    0    0  501  0.00000000000E+00  0.00000000000E+00 -0.11200620372E+04  0.11200620372E+04  0.25500000920E-02 0.  1.
    10030    2    1    2    0    0  0.00000000000E+00  0.00000000000E+00  0.10277782713E+04  0.32679023457E+04  0.31020731078E+04 0.  0.
        2    1    3    3  502    0  0.33272099592E+03 -0.15107645017E+04  0.39563060256E+03  0.15967580325E+04  0.25500000920E-02 0.  1.
       -2    1    3    3    0  502 -0.33272099592E+03  0.15107645017E+04  0.63214766870E+03  0.16711443132E+04  0.25500000920E-02 0. -1.
</event>
<event>
 5   0  0.4173905E-07  0.3033203E+04  0.7818609E-02  0.8234313E-01
       -1   -1    0    0    0  501  0.00000000000E+00  0.00000000000E+00  0.16652994664E+04  0.16652994664E+04  0.50400001928E-02 0. -1.
        1   -1    0    0  501    0  0.00000000000E+00  0.00000000000E+00 -0.13811814656E+04  0.13811814656E+04  0.50400001928E-02 0.  1.
    10030    2    1    2    0    0  0.00000000000E+00  0.00000000000E+00  0.28411800084E+03  0.30464809320E+04  0.30332034272E+04 0.  0.
        3    1    3    3  502    0  0.30713580487E+03  0.14772259491E+04 -0.12078868154E+02  0.15088654070E+04  0.10100000352E+00 0.  1.
       -3    1    3    3    0  502 -0.30713580487E+03 -0.14772259491E+04  0.29619686899E+03  0.15376155250E+04  0.10100000352E+00 0. -1.
</event>
<event>
 5   0  0.4330395E-07  0.3126804E+04  0.7818609E-02  0.8208420E-01
        1   -1    0    0  501    0  0.00000000000E+00  0.00000000000E+00  0.31332540272E+04  0.31332540272E+04  0.50400001928E-02 0.  1.
       -1   -1    0    0    0  501  0.00000000000E+00  0.00000000000E+00 -0.78009199690E+03  0.78009199691E+03  0.50400001928E-02 0. -1.
    10030    2    1    2    0    0  0.00000000000E+00  0.00000000000E+00  0.23531620303E+04  0.39133460241E+04  0.31268043693E+04 0.  0.
        1    1    3    3  502    0  0.99280881042E+03  0.32897768438E+03  0.26309266028E+04  0.28311959381E+04  0.50400001928E-02 0.  1.
       -1    1    3    3    0  502 -0.99280881042E+03 -0.32897768438E+03 -0.27776457247E+03  0.10821500860E+04  0.50400001928E-02 0. -1.
</event>
<event>
 5   0  0.4134019E-07  0.3113226E+04  0.7818609E-02  0.8212118E-01
       -1   -1    0    0    0  501  0.00000000000E+00  0.00000000000E+00  0.10953280188E+04  0.10953280188E+04  0.50400001928E-02 0.  1.
        1   -1    0    0  501    0  0.00000000000E+00  0.00000000000E+00 -0.22121624520E+04  0.22121624520E+04  0.50400001928E-02 0. -1.
    10030    2    1    2    0    0  0.00000000000E+00  0.00000000000E+00 -0.11168344331E+04  0.33074904708E+04  0.31132256685E+04 0.  0.
        2    1    3    3  502    0  0.22625214828E+03 -0.37622861291E+03  0.10281927495E+04  0.11179974660E+04  0.25500000920E-02 0.  1.
       -2    1    3    3    0  502 -0.22625214828E+03  0.37622861291E+03 -0.21450271827E+04  0.21894930048E+04  0.25500000920E-02 0. -1.
</event>
<event>
 5   0  0.1237580E-06  0.3041415E+04  0.7818609E-02  0.8232003E-01
       -2   -1    0    0    0  501  0.00000000000E+00  0.00000000000E+00  0.16318148480E+04  0.16318148480E+04  0.25500000920E-02 0. -1.
        2   -1    0    0  501    0  0.00000000000E+00  0.00000000000E+00 -0.14171648343E+04  0.14171648344E+04  0.25500000920E-02 0.  1.
    10030    2    1    2    0    0  0.00000000000E+00  0.00000000000E+00  0.21465001362E+03  0.30489796823E+04  0.30414145516E+04 0.  0.
        4    1    3    3  502    0  0.92325728604E+03 -0.11047391222E+04 -0.38348083394E+03  0.14899368131E+04  0.12699999809E+01 0.  1.
       -4    1    3    3    0  502 -0.92325728604E+03  0.11047391222E+04  0.59813084756E+03  0.15590428692E+04  0.12699999809E+01 0. -1.
</event>
<event>
 5   0  0.4134019E-07  0.3094929E+04  0.7818609E-02  0.8217131E-01
        1   -1    0    0  501    0  0.00000000000E+00  0.00000000000E+00  0.12065861082E+04  0.12065861082E+04  0.50400001928E-02 0. -1.
       -1   -1    0    0    0  501  0.00000000000E+00  0.00000000000E+00 -0.19846458702E+04  0.19846458702E+04  0.50400001928E-02 0.  1.
    10030    2    1    2    0    0  0.00000000000E+00  0.00000000000E+00 -0.77805976203E+03  0.31912319784E+04  0.30949288436E+04 0.  0.
        2    1    3    3  502    0 -0.78217583613E+03  0.42112352060E+03  0.91748133647E+03  0.12770732403E+04  0.25500000920E-02 0. -1.
       -2    1    3    3    0  502  0.78217583613E+03 -0.42112352060E+03 -0.16955410985E+04  0.19141587382E+04  0.25500000920E-02 0.  1.
</event>
<event>
 5   0  0.1237580E-06  0.3088793E+04  0.7818609E-02  0.8218820E-01
        2   -1    0    0  501    0  0.00000000000E+00  0.00000000000E+00  0.13838415885E+04  0.13838415885E+04  0.25500000920E-02 0. -1.
       -2   -1    0    0    0  501  0.00000000000E+00  0.00000000000E+00 -0.17235795428E+04  0.17235795428E+04  0.25500000920E-02 0.  1.
    10030    2    1    2    0    0  0.00000000000E+00  0.00000000000E+00 -0.33973795433E+03  0.31074211313E+04  0.30887933258E+04 0.  0.
        4    1    3    3  502    0  0.11346586429E+04  0.70462206378E+03  0.61018898266E+03  0.14684259247E+04  0.12699999809E+01 0. -1.
       -4    1    3    3    0  502 -0.11346586429E+04 -0.70462206378E+03 -0.94992693698E+03  0.16389952066E+04  0.12699999809E+01 0.  1.
</event>
<event>
 5   0  0.1258262E-06  0.3099753E+04  0.7818609E-02  0.8215806E-01
        2   -1    0    0  501    0  0.00000000000E+00  0.00000000000E+00  0.18707230325E+04  0.18707230325E+04  0.25500000920E-02 0. -1.
       -2   -1    0    0    0  501  0.00000000000E+00  0.00000000000E+00 -0.12840583378E+04  0.12840583378E+04  0.25500000920E-02 0.  1.
    10030    2    1    2    0    0  0.00000000000E+00  0.00000000000E+00  0.58666469472E+03  0.31547813703E+04  0.30997532209E+04 0.  0.
        1    1    3    3  502    0  0.69943129137E+03  0.47300868851E+03  0.16160879781E+04  0.18233709726E+04  0.50400001928E-02 0. -1.
       -1    1    3    3    0  502 -0.69943129137E+03 -0.47300868851E+03 -0.10294232834E+04  0.13314103977E+04  0.50400001928E-02 0.  1.
</event>
<event>
 5   0  0.3902375E-07  0.3098556E+04  0.7818609E-02  0.8216134E-01
       -4   -1    0    0    0  501  0.00000000000E+00  0.00000000000E+00  0.16074189654E+04  0.16074194671E+04  0.12699999809E+01 0.  1.
        4   -1    0    0  501    0  0.00000000000E+00  0.00000000000E+00 -0.14932388155E+04  0.14932393556E+04  0.12699999809E+01 0. -1.
    10030    2    1    2    0    0  0.00000000000E+00  0.00000000000E+00  0.11418014990E+03  0.31006588227E+04  0.30985557972E+04 0.  0.
        1    1    3    3  502    0  0.18015572904E+02  0.13957350529E+04 -0.61557230935E+03  0.15255589686E+04  0.50400001928E-02 0.  1.
       -1    1    3    3    0  502 -0.18015572904E+02 -0.13957350529E+04  0.72975245925E+03  0.15750998541E+04  0.50400001928E-02 0. -1.
</event>
<event>
 5   0  0.1193123E-06  0.3093171E+04  0.7818609E-02  0.8217615E-01
        2   -1    0    0  501    0  0.00000000000E+00  0.00000000000E+00  0.10089156254E+04  0.10089156254E+04  0.25500000920E-02 0. -1.
       -2   -1    0    0    0  501  0.00000000000E+00  0.00000000000E+00 -0.23707893743E+04  0.23707893743E+04  0.25500000920E-02 0.  1.
    10030    2    1    2    0    0  0.00000000000E+00  0.00000000000E+00 -0.13618737489E+04  0.33797049997E+04  0.30931708290E+04 0.  0.
        3    1    3    3  502    0 -0.80425997194E+02 -0.11745911784E+04  0.41485817622E+03  0.12482948746E+04  0.10100000352E+00 0. -1.
       -3    1    3    3    0  502  0.80425997194E+02  0.11745911784E+04 -0.17767319251E+04  0.21314101251E+04  0.10100000352E+00 0.  1.
</event>
<event>
 5   0  0.1237580E-06  0.3103468E+04  0.7818609E-02  0.8214787E-01
        2   -1    0    0  501    0  0.00000000000E+00  0.00000000000E+00  0.23702687618E+04  0.23702687618E+04  0.25500000920E-02 0.  1.
       -2   -1    0    0    0  501  0.00000000000E+00  0.00000000000E+00 -0.10158670410E+04  0.10158670410E+04  0.25500000920E-02 0. -1.
    10030    2    1    2    0    0  0.00000000000E+00  0.00000000000E+00  0.13544017209E+04  0.33861358028E+04  0.31034676821E+04 0.  0.
        4    1    3    3  502    0 -0.23540002541E+03 -0.25946144335E+03 -0.97215293873E+03  0.10333520028E+04  0.12699999809E+01 0. -1.
       -4    1    3    3    0  502  0.23540002541E+03  0.25946144335E+03  0.23265546596E+04  0.23527838000E+04  0.12699999809E+01 0.  1.
</event>
<event>
 5   0  0.4173905E-07  0.3091156E+04  0.7818609E-02  0.8218169E-01
       -1   -1    0    0    0  501  0.00000000000E+00  0.00000000000E+00  0.12714868009E+04  0.12714868009E+04  0.50400001928E-02 0. -1.
        1   -1    0    0  501    0  0.00000000000E+00  0.00000000000E+00 -0.18787542406E+04  0.18787542407E+04  0.50400001928E-02 0.  1.
    10030    2    1    2    0    0  0.00000000000E+00  0.00000000000E+00 -0.60726743973E+03  0.31502410416E+04  0.30911559127E+04 0.  0.
        3    1    3    3  502    0 -0.38154137541E+03  0.11510462335E+04 -0.12802461559E+04  0.17633806970E+04  0.10100000352E+00 0. -1.
       -3    1    3    3    0  502  0.38154137541E+03 -0.11510462335E+04  0.67297871612E+03  0.13868603446E+04  0.10100000352E+00 0.  1.
</event>
<event>
 5   0  0.4134019E-07  0.3096876E+04  0.7818609E-02  0.8216596E-01
       -1   -1    0    0    0  501  0.00000000000E+00  0.00000000000E+00  0.25767216954E+04  0.25767216954E+04  0.50400001928E-02 0.  1.
        1   -1    0    0  501    0  0.00000000000E+00  0.00000000000E+00 -0.93050785634E+03  0.93050785635E+03  0.50400001928E-02 0. -1.
    10030    2    1    2    0    0  0.00000000000E+00  0.00000000000E+00  0.16462138391E+04  0.35072295518E+04  0.30968757038E+04 0.  0.
        2    1    3    3  502    0 -0.27606125459E+03 -0.51636360606E+03  0.24465129697E+04  0.25156046790E+04  0.25500000920E-02 0.  1.
       -2    1    3    3    0  502  0.27606125459E+03  0.51636360606E+03 -0.80029913060E+03  0.99162487282E+03  0.25500000920E-02 0. -1.
</event>
<event>
 5   0  0.3935852E-07  0.3092204E+04  0.7818609E-02  0.8217881E-01
        1   -1    0    0  501    0  0.00000000000E+00  0.00000000000E+00  0.24300911322E+04  0.24300911322E+04  0.50400001928E-02 0.  1.
       -1   -1    0    0    0  501  0.00000000000E+00  0.00000000000E+00 -0.98367971774E+03  0.98367971775E+03  0.50400001928E-02 0. -1.
    10030    2    1    2    0    0  0.00000000000E+00  0.00000000000E+00  0.14464114144E+04  0.34137708499E+04  0.30922039771E+04 0.  0.
        5    1    3    3  502    0  0.55272799277E+03  0.28743088166E+03  0.22853787041E+04  0.23687766160E+04  0.46999998093E+01 0.  1.
       -5    1    3    3    0  502 -0.55272799277E+03 -0.28743088166E+03 -0.83896728964E+03  0.10449942339E+04  0.46999998093E+01 0. -1.
</event>
<event>
 5   0  0.1237580E-06  0.3094598E+04  0.7818609E-02  0.8217222E-01
       -2   -1    0    0    0  501  0.00000000000E+00  0.00000000000E+00  0.10066932079E+04  0.10066932079E+04  0.25500000920E-02 0. -1.
        2   -1    0    0  501    0  0.00000000000E+00  0.00000000000E+00 -0.23782164453E+04  0.23782164453E+04  0.25500000920E-02 0.  1.
    10030    2    1    2    0    0  0.00000000000E+00  0.00000000000E+00 -0.13715232374E+04  0.33849096532E+04  0.30945980950E+04 0.  0.
        4    1    3    3  502    0 -0.23865577799E+02 -0.16714985808E+03  0.99658583230E+03  0.10107885906E+04  0.12699999809E+01 0. -1.
       -4    1    3    3    0  502  0.23865577799E+02  0.16714985808E+03 -0.23681090697E+04  0.23741210626E+04  0.12699999809E+01 0.  1.
</event>
<event>
 5   0  0.4330395E-07  0.3059038E+04  0.7818609E-02  0.8227070E-01
        1   -1    0    0  501    0  0.00000000000E+00  0.00000000000E+00  0.14357730604E+04  0.14357730604E+04  0.50400001928E-02 0.  1.
       -1   -1    0    0    0  501  0.00000000000E+00  0.00000000000E+00 -0.16293861290E+04  0.16293861290E+04  0.50400001928E-02 0. -1.
    10030    2    1    2    0    0  0.00000000000E+00  0.00000000000E+00 -0.19361306851E+03  0.30651591894E+04  0.30590382208E+04 0.  0.
        1    1    3    3  502    0 -0.14747080646E+04 -0.38541297777E+03  0.30418666133E+02  0.15245433199E+04  0.50400001928E-02 0.  1.
       -1    1    3    3    0  502  0.14747080646E+04  0.38541297777E+03 -0.22403173465E+03  0.15406158695E+04  0.50400001928E-02 0. -1.
</event>
<event>
 5   0  0.3935852E-07  0.3073195E+04  0.7818609E-02  0.8223133E-01
        1   -1    0    0  501    0  0.00000000000E+00  0.00000000000E+00  0.16064966200E+04  0.16064966200E+04  0.50400001928E-02 0. -1.
       -1   -1    0    0    0  501  0.00000000000E+00  0.00000000000E+00 -0.14697395924E+04  0.14697395924E+04  0.50400001928E-02 0.  1.
    10030    2    1    2    0    0  0.00000000000E+00  0.00000000000E+00  0.13675702756E+03  0.30762362124E+04  0.30731948766E+04 0.  0.
        5    1    3    3  502    0 -0.94544657785E+03 -0.85443265493E+03  0.92782310883E+03  0.15763255389E+04  0.46999998093E+01 0. -1.
       -5    1    3    3    0  502  0.94544657785E+03  0.85443265493E+03 -0.79106608127E+03  0.14999106734E+04  0.46999998093E+01 0.  1.
</event>
<event>
 5   0  0.4330395E-07  0.3106787E+04  0.7818609E-02  0.8213878E-01
        1   -1    0    0  501    0  0.00000000000E+00  0.00000000000E+00  0.21808166301E+04  0.21808166301E+04  0.50400001928E-02 0.  1.
       -1   -1    0    0    0  501  0.00000000000E+00  0.00000000000E+00 -0.11064806814E+04  0.11064806815E+04  0.50400001928E-02 0. -1.
    10030    2    1    2    0    0  0.00000000000E+00  0.00000000000E+00  0.10743359486E+04  0.32872973115E+04  0.31067870677E+04 0.  0.
        1    1    3    3  502    0  0.32173126511E+03 -0.57746060120E+03 -0.95023117391E+03  0.11575452634E+04  0.50400001928E-02 0. -1.
       -1    1    3    3    0  502 -0.32173126511E+03  0.57746060120E+03  0.20245671225E+04  0.21297520481E+04  0.50400001928E-02 0.  1.
</event>
<event>
 5   0  0.4134019E-07  0.3088499E+04  0.7818609E-02  0.8218901E-01
        1   -1    0    0  501    0  0.00000000000E+00  0.00000000000E+00  0.16738181054E+04  0.16738181054E+04  0.50400001928E-02 0.  1.
       -1   -1    0    0    0  501  0.00000000000E+00  0.00000000000E+00 -0.14247111163E+04  0.14247111163E+04  0.50400001928E-02 0. -1.
    10030    2    1    2    0    0  0.00000000000E+00  0.00000000000E+00  0.24910698908E+03  0.30985292217E+04  0.30884994813E+04 0.  0.
        2    1    3    3  502    0  0.15346659695E+04 -0.99125469409E+02 -0.16193809262E+02  0.15379491981E+04  0.25500000920E-02 0. -1.
       -2    1    3    3    0  502 -0.15346659695E+04  0.99125469409E+02  0.26530079834E+03  0.15605800236E+04  0.25500000920E-02 0.  1.
</event>
<event>
 5   0  0.1200286E-06  0.3085780E+04  0.7818609E-02  0.8219651E-01
       -2   -1    0    0    0  501  0.00000000000E+00  0.00000000000E+00  0.11456146735E+04  0.11456146736E+04  0.25500000920E-02 0.  1.
        2   -1    0    0  501    0  0.00000000000E+00  0.00000000000E+00 -0.20779320680E+04  0.20779320680E+04  0.25500000920E-02 0. -1.
    10030    2    1    2    0    0  0.00000000000E+00  0.00000000000E+00 -0.93231739441E+03  0.32235467415E+04  0.30857799453E+04 0.  0.
        5    1    3    3  502    0  0.10466418828E+04  0.13403050380E+02  0.71795929869E+03  0.12693015864E+04  0.46999998093E+01 0.  1.
       -5    1    3    3    0  502 -0.10466418828E+04 -0.13403050380E+02 -0.16502766931E+04  0.19542451551E+04  0.46999998093E+01 0. -1.
</event>
<event>
 5   0  0.1237580E-06  0.3107090E+04  0.7818609E-02  0.8213795E-01
        2   -1    0    0  501    0  0.00000000000E+00  0.00000000000E+00  0.22508448025E+04  0.22508448025E+04  0.25500000920E-02 0. -1.
       -2   -1    0    0    0  501  0.00000000000E+00  0.00000000000E+00 -0.10722647884E+04  0.10722647884E+04  0.25500000920E-02 0.  1.
    10030    2    1    2    0    0  0.00000000000E+00  0.00000000000E+00  0.11785800141E+04  0.33231095909E+04  0.31070897160E+04 0.  0.
        4    1    3    3  502    0 -0.13431180429E+04 -0.70077798329E+03  0.95737463897E+03  0.17921003519E+04  0.12699999809E+01 0. -1.
       -4    1    3    3    0  502  0.13431180429E+04  0.70077798329E+03  0.22120537513E+03  0.15310092390E+04  0.12699999809E+01 0.  1.
</event>
<event>
 5   0  0.4173905E-07  0.3093794E+04  0.7818609E-02  0.8217443E-01
        1   -1    0    0  501    0  0.00000000000E+00  0.00000000000E+00  0.22322955059E+04  0.22322955059E+04  0.50400001928E-02 0. -1.
       -1   -1    0    0    0  501  0.00000000000E+00  0.00000000000E+00 -0.10719414498E+04  0.10719414498E+04  0.50400001928E-02 0.  1.
    10030    2    1    2    0    0  0.00000000000E+00  0.00000000000E+00  0.11603540561E+04  0.33042369557E+04  0.30937938399E+04 0.  0.
        3    1    3    3  502    0  0.12548934767E+04  0.37588017352E+03 -0.29849118701E+03  0.13435551874E+04  0.10100000352E+00 0.  1.
       -3    1    3    3    0  502 -0.12548934767E+04 -0.37588017352E+03  0.14588452431E+04  0.19606817682E+04  0.10100000352E+00 0. -1.
</event>
<event>
 5   0  0.4134019E-07  0.3106353E+04  0.7818609E-02  0.8213997E-01
       -1   -1    0    0    0  501  0.00000000000E+00  0.00000000000E+00  0.15240274496E+04  0.15240274496E+04  0.50400001928E-02 0.  1.
        1   -1    0    0  501    0  0.00000000000E+00  0.00000000000E+00 -0.15828827311E+04  0.15828827311E+04  0.50400001928E-02 0. -1.
    10030    2    1    2    0    0  0.00000000000E+00  0.00000000000E+00 -0.58855281534E+02  0.31069101808E+04  0.31063526727E+04 0.  0.
        2    1    3    3  502    0 -0.79769114122E+03 -0.98127970990E+03  0.87247457387E+03  0.15363700426E+04  0.25500000920E-02 0.  1.
       -2    1    3    3    0  502  0.79769114122E+03  0.98127970990E+03 -0.93132985541E+03  0.15705401381E+04  0.25500000920E-02 0. -1.
</event>
<event>
 5   0  0.1237580E-06  0.3096943E+04  0.7818609E-02  0.8216577E-01
        2   -1    0    0  501    0  0.00000000000E+00  0.00000000000E+00  0.20987030012E+04  0.20987030012E+04  0.25500000920E-02 0.  1.
       -2   -1    0    0    0  501  0.00000000000E+00  0.00000000000E+00 -0.11424979069E+04  0.11424979069E+04  0.25500000920E-02 0. -1.
    10030    2    1    2    0    0  0.00000000000E+00  0.00000000000E+00  0.95620509433E+03  0.32412009081E+04  0.30969428706E+04 0.  0.
        4    1    3    3  502    0  0.86640988780E+03 -0.11024286427E+04 -0.20957921433E+03  0.14177235506E+04  0.12699999809E+01 0.  1.
       -4    1    3    3    0  502 -0.86640988780E+03  0.11024286427E+04  0.11657843087E+04  0.18234773575E+04  0.12699999809E+01 0. -1.
</event>
<event>
 5   0  0.4330395E-07  0.3111559E+04  0.7818609E-02  0.8212573E-01
       -1   -1    0    0    0  501  0.00000000000E+00  0.00000000000E+00  0.13121766660E+04  0.13121766660E+04  0.50400001928E-02 0.  1.
        1   -1    0    0  501    0  0.00000000000E+00  0.00000000000E+00 -0.18446065048E+04  0.18446065048E+04  0.50400001928E-02 0. -1.
    10030    2    1    2    0    0  0.00000000000E+00  0.00000000000E+00 -0.53242983878E+03  0.31567831709E+04  0.31115588464E+04 0.  0.
        1    1    3    3  502    0  0.53328480441E+03  0.14267385927E+04 -0.58779815863E+03  0.16326305062E+04  0.50400001928E-02 0. -1.
       -1    1    3    3    0  502 -0.53328480441E+03 -0.14267385927E+04  0.55368319847E+02  0.15241526647E+04  0.50400001928E-02 0.  1.
</event>
<event>
 5   0  0.1258262E-06  0.3101073E+04  0.7818609E-02  0.8215443E-01
        2   -1    0    0  501    0  0.00000000000E+00  0.00000000000E+00  0.17649641943E+04  0.17649641943E+04  0.25500000920E-02 0.  1.
       -2   -1    0    0    0  501  0.00000000000E+00  0.00000000000E+00 -0.13621599521E+04  0.13621599521E+04  0.25500000920E-02 0. -1.
    10030    2    1    2    0    0  0.00000000000E+00  0.00000000000E+00  0.40280424214E+03  0.31271241464E+04  0.31010730675E+04 0.  0.
        1    1    3    3  502    0  0.14685376279E+04 -0.31650751368E+03 -0.18572888562E+03  0.15136958049E+04  0.50400001928E-02 0. -1.
       -1    1    3    3    0  502 -0.14685376279E+04  0.31650751368E+03  0.58853312776E+03  0.16134283415E+04  0.50400001928E-02 0.  1.
</event>
<event>
 5   0  0.4330395E-07  0.3113605E+04  0.7818609E-02  0.8212014E-01
        1   -1    0    0  501    0  0.00000000000E+00  0.00000000000E+00  0.11410249015E+04  0.11410249015E+04  0.50400001928E-02 0.  1.
       -1   -1    0    0    0  501  0.00000000000E+00  0.00000000000E+00 -0.21240852503E+04  0.21240852503E+04  0.50400001928E-02 0. -1.
    10030    2    1    2    0    0  0.00000000000E+00  0.00000000000E+00 -0.98306034881E+03  0.32651101517E+04  0.31136050895E+04 0.  0.
        1    1    3    3  502    0 -0.12686816725E+03  0.43533385664E+03 -0.20533011148E+04  0.21027735414E+04  0.50400001928E-02 0. -1.
       -1    1    3    3    0  502  0.12686816725E+03 -0.43533385664E+03  0.10702407659E+04  0.11623366103E+04  0.50400001928E-02 0.  1.
</event>
<event>
 5   0  0.4330395E-07  0.3107921E+04  0.7818609E-02  0.8213567E-01
        1   -1    0    0  501    0  0.00000000000E+00  0.00000000000E+00  0.23738271229E+04  0.23738271229E+04  0.50400001928E-02 0.  1.
       -1   -1    0    0    0  501  0.00000000000E+00  0.00000000000E+00 -0.10172573267E+04  0.10172573267E+04  0.50400001928E-02 0. -1.
    10030    2    1    2    0    0  0.00000000000E+00  0.00000000000E+00  0.13565697962E+04  0.33910844496E+04  0.31079208697E+04 0.  0.
        1    1    3    3  502    0 -0.82653726576E+03 -0.42327082034E+03 -0.68121882075E+03  0.11516862076E+04  0.50400001928E-02 0. -1.
       -1    1    3    3    0  502  0.82653726576E+03  0.42327082034E+03  0.20377886169E+04  0.22393982420E+04  0.50400001928E-02 0.  1.
</event>
<event>
 5   0  0.1200286E-06  0.3106476E+04  0.7818609E-02  0.8213963E-01
        2   -1    0    0  501    0  0.00000000000E+00  0.00000000000E+00  0.25061492886E+04  0.25061492886E+04  0.25500000920E-02 0.  1.
       -2   -1    0    0    0  501  0.00000000000E+00  0.00000000000E+00 -0.96265124795E+03  0.96265124795E+03  0.25500000920E-02 0. -1.
    10030    2    1    2    0    0  0.00000000000E+00  0.00000000000E+00  0.15434980407E+04  0.34688005366E+04  0.31064756495E+04 0.  0.
        5    1    3    3  502    0 -0.10891258806E+04 -0.61427033427E+03  0.18006316586E+04  0.21922179835E+04  0.46999998093E+01 0.  1.
       -5    1    3    3    0  502  0.10891258806E+04  0.61427033427E+03 -0.25713361792E+03  0.12765825531E+04  0.46999998093E+01 0. -1.
</event>
<event>
 5   0  0.3935852E-07  0.3107166E+04  0.7818609E-02  0.8213774E-01
       -1   -1    0    0    0  501  0.00000000000E+00  0.00000000000E+00  0.12100462277E+04  0.12100462277E+04  0.50400001928E-02 0.  1.
        1   -1    0    0  501    0  0.00000000000E+00  0.00000000000E+00 -0.19946508017E+04  0.19946508017E+04  0.50400001928E-02 0. -1.
    10030    2    1    2    0    0  0.00000000000E+00  0.00000000000E+00 -0.78460457402E+03  0.32046970294E+04  0.31071657041E+04 0.  0.
        5    1    3    3  502    0 -0.45352400744E+03 -0.14040323258E+04 -0.89399312029E+03  0.17251772623E+04  0.46999998093E+01 0.  1.
       -5    1    3    3    0  502  0.45352400744E+03  0.14040323258E+04  0.10938854627E+03  0.14795197671E+04  0.46999998093E+01 0. -1.
</event>
<event>
 5   0  0.1193123E-06  0.3097824E+04  0.7818609E-02  0.8216335E-01
       -2   -1    0    0    0  501  0.00000000000E+00  0.00000000000E+00  0.91740157166E+03  0.91740157167E+03  0.25500000920E-02 0.  1.
        2   -1    0    0  501    0  0.00000000000E+00  0.00000000000E+00 -0.26151336558E+04  0.26151336558E+04  0.25500000920E-02 0. -1.
    10030    2    1    2    0    0  0.00000000000E+00  0.00000000000E+00 -0.16977320842E+04  0.35325352275E+04  0.30978235753E+04 0.  0.
        3    1    3    3  502    0  0.32913634538E+02 -0.17293704213E+03  0.90595668251E+03  0.92290197132E+03  0.10100000352E+00 0.  1.
       -3    1    3    3    0  502 -0.32913634538E+02  0.17293704213E+03 -0.26036887667E+04  0.26096332562E+04  0.10100000352E+00 0. -1.
</event>
<event>
 5   0  0.1237580E-06  0.3126129E+04  0.7818609E-02  0.8208603E-01
        2   -1    0    0  501    0  0.00000000000E+00  0.00000000000E+00  0.26330524057E+04  0.26330524057E+04  0.25500000920E-02 0.  1.
       -2   -1    0    0    0  501  0.00000000000E+00  0.00000000000E+00 -0.92788541498E+03  0.92788541498E+03  0.25500000920E-02 0. -1.
    10030    2    1    2    0    0  0.00000000000E+00  0.00000000000E+00  0.17051669907E+04  0.35609378206E+04  0.31261291874E+04 0.  0.
        4    1    3    3  502    0 -0.13173948537E+03  0.15368044914E+04  0.56431088053E+03  0.16424286041E+04  0.12699999809E+01 0. -1.
       -4    1    3    3    0  502  0.13173948537E+03 -0.15368044914E+04  0.11408561102E+04  0.19185092165E+04  0.12699999809E+01 0.  1.
</event>
<event>
 5   0  0.1193123E-06  0.3103648E+04  0.7818609E-02  0.8214737E-01
        2   -1    0    0  501    0  0.00000000000E+00  0.00000000000E+00  0.14376454353E+04  0.14376454353E+04  0.25500000920E-02 0.  1.
       -2   -1    0    0    0  501  0.00000000000E+00  0.00000000000E+00 -0.16750707700E+04  0.16750707700E+04  0.25500000920E-02 0. -1.
    10030    2    1    2    0    0  0.00000000000E+00  0.00000000000E+00 -0.23742533472E+03  0.31127162053E+04  0.31036480769E+04 0.  0.
        3    1    3    3  502    0 -0.50508836973E+03 -0.13564590463E+04 -0.67986727394E+03  0.15991606942E+04  0.10100000352E+00 0. -1.
       -3    1    3    3    0  502  0.50508836973E+03  0.13564590463E+04  0.44244193923E+03  0.15135555111E+04  0.10100000352E+00 0.  1.
</event>
<event>
 5   0  0.1258262E-06  0.3110972E+04  0.7818609E-02  0.8212733E-01
       -2   -1    0    0    0  501  0.00000000000E+00  0.00000000000E+00  0.12766187040E+04  0.12766187040E+04  0.25500000920E-02 0.  1.
        2   -1    0    0  501    0  0.00000000000E+00  0.00000000000E+00 -0.18952691793E+04  0.18952691793E+04  0.25500000920E-02 0. -1.
    10030    2    1    2    0    0  0.00000000000E+00  0.00000000000E+00 -0.61865047524E+03  0.31718878833E+04  0.31109716061E+04 0.  0.
        1    1    3    3  502    0  0.10518956357E+03  0.36341930735E+03 -0.18476422556E+04  0.18859799420E+04  0.50400001928E-02 0. -1.
       -1    1    3    3    0  502 -0.10518956357E+03 -0.36341930735E+03  0.12289917803E+04  0.12859079412E+04  0.50400001928E-02 0.  1.
</event>
<event>
 5   0  0.4134019E-07  0.3141718E+04  0.7818609E-02  0.8204381E-01
       -1   -1    0    0    0  501  0.00000000000E+00  0.00000000000E+00  0.14140625861E+04  0.14140625861E+04  0.50400001928E-02 0.  1.
        1   -1    0    0  501    0  0.00000000000E+00  0.00000000000E+00 -0.17450419801E+04  0.17450419801E+04  0.50400001928E-02 0. -1.
    10030    2    1    2    0    0  0.00000000000E+00  0.00000000000E+00 -0.33097939396E+03  0.31591045662E+04  0.31417183676E+04 0.  0.
        2    1    3    3  502    0 -0.12678095025E+04 -0.70220086429E+03 -0.77478984467E+03  0.16433886612E+04  0.25500000920E-02 0. -1.
       -2    1    3    3    0  502  0.12678095025E+04  0.70220086429E+03  0.44381045071E+03  0.15157159050E+04  0.25500000920E-02 0.  1.
</event>
<event>
 5   0  0.4219337E-07  0.3104839E+04  0.7818609E-02  0.8214411E-01
       -1   -1    0    0    0  501  0.00000000000E+00  0.00000000000E+00  0.90533258549E+03  0.90533258550E+03  0.50400001928E-02 0.  1.
        1   -1    0    0  501    0  0.00000000000E+00  0.00000000000E+00 -0.26620116500E+04  0.26620116500E+04  0.50400001928E-02 0. -1.
    10030    2    1    2    0    0  0.00000000000E+00  0.00000000000E+00 -0.17566790645E+04  0.35673442355E+04  0.31048387331E+04 0.  0.
        4    1    3    3  502    0  0.10306667736E+03  0.10386604301E+04  0.44200124186E+03  0.11334923642E+04  0.12699999809E+01 0.  1.
       -4    1    3    3    0  502 -0.10306667736E+03 -0.10386604301E+04 -0.21986803063E+04  0.24338518713E+04  0.12699999809E+01 0. -1.
</event>
<event>
 5   0  0.1200286E-06  0.3091548E+04  0.7818609E-02  0.8218061E-01
        2   -1    0    0  501    0  0.00000000000E+00  0.00000000000E+00  0.18712212855E+04  0.18712212855E+04  0.25500000920E-02 0.  1.
       -2   -1    0    0    0  501  0.00000000000E+00  0.00000000000E+00 -0.12769291850E+04  0.12769291850E+04  0.25500000920E-02 0. -1.
    10030    2    1    2    0    0  0.00000000000E+00  0.00000000000E+00  0.59429210049E+03  0.31481504705E+04  0.30915478784E+04 0.  0.
        5    1    3    3  502    0 -0.13962327386E+04 -0.66307344926E+03  0.28064060202E+03  0.15709594193E+04  0.46999998093E+01 0.  1.
       -5    1    3    3    0  502  0.13962327386E+04  0.66307344926E+03  0.31365149846E+03  0.15771910512E+04  0.46999998093E+01 0. -1.
</event>
<event>
 5   0  0.4330395E-07  0.3088413E+04  0.7818609E-02  0.8218925E-01
        1   -1    0    0  501    0  0.00000000000E+00  0.00000000000E+00  0.84666532390E+03  0.84666532391E+03  0.50400001928E-02 0. -1.
       -1   -1    0    0    0  501  0.00000000000E+00  0.00000000000E+00 -0.28164304543E+04  0.28164304543E+04  0.50400001928E-02 0.  1.
    10030    2    1    2    0    0  0.00000000000E+00  0.00000000000E+00 -0.19697651304E+04  0.36630957782E+04  0.30884131866E+04 0.  0.
        1    1    3    3  502    0  0.80211403951E+03 -0.54687953117E+03  0.43945211099E+03  0.10656370451E+04  0.50400001928E-02 0. -1.
       -1    1    3    3    0  502 -0.80211403951E+03  0.54687953117E+03 -0.24092172414E+04  0.25974587331E+04  0.50400001928E-02 0.  1.
</event>
<event>
 5   0  0.4219337E-07  0.3090237E+04  0.7818609E-02  0.8218422E-01
        1   -1    0    0  501    0  0.00000000000E+00  0.00000000000E+00  0.16074994970E+04  0.16074994970E+04  0.50400001928E-02 0. -1.
       -1   -1    0    0    0  501  0.00000000000E+00  0.00000000000E+00 -0.14851580791E+04  0.14851580791E+04  0.50400001928E-02 0.  1.
    10030    2    1    2    0    0  0.00000000000E+00  0.00000000000E+00  0.12234141796E+03  0.30926575761E+04  0.30902367968E+04 0.  0.
        4    1    3    3  502    0 -0.78480936926E+03  0.84486329248E+03 -0.96806553796E+03  0.15056135718E+04  0.12699999809E+01 0.  1.
       -4    1    3    3    0  502  0.78480936926E+03 -0.84486329248E+03  0.10904069559E+04  0.15870440043E+04  0.12699999809E+01 0. -1.
</event>
<event>
 5   0  0.3935852E-07  0.3085643E+04  0.7818609E-02  0.8219689E-01
        1   -1    0    0  501    0  0.00000000000E+00  0.00000000000E+00  0.16004828321E+04  0.16004828321E+04  0.50400001928E-02 0. -1.
       -1   -1    0    0    0  501  0.00000000000E+00  0.00000000000E+00 -0.14872374709E+04  0.14872374709E+04  0.50400001928E-02 0.  1.
    10030    2    1    2    0    0  0.00000000000E+00  0.00000000000E+00  0.11324536118E+03  0.30877203031E+04  0.30856429084E+04 0.  0.
        5    1    3    3  502    0  0.12267604363E+04 -0.21444664661E+03 -0.85467557006E+03  0.15104373381E+04  0.46999998093E+01 0.  1.
       -5    1    3    3    0  502 -0.12267604363E+04  0.21444664661E+03  0.96792093124E+03  0.15772829649E+04  0.46999998093E+01 0. -1.
</event>
<event>
 5   0  0.1237580E-06  0.3093572E+04  0.7818609E-02  0.8217504E-01
       -2   -1    0    0    0  501  0.00000000000E+00  0.00000000000E+00  0.94677665240E+03  0.94677665240E+03  0.25500000920E-02 0.  1.
        2   -1    0    0  501    0  0.00000000000E+00  0.00000000000E+00 -0.25270448918E+04  0.25270448918E+04  0.25500000920E-02 0. -1.
    10030    2    1    2    0    0  0.00000000000E+00  0.00000000000E+00 -0.15802682394E+04  0.34738215442E+04  0.30935721120E+04 0.  0.
        4    1    3    3  502    0 -0.11327953035E+04  0.10329876646E+04 -0.10209658128E+04  0.18419178914E+04  0.12699999809E+01 0. -1.
       -4    1    3    3    0  502  0.11327953035E+04 -0.10329876646E+04 -0.55930242654E+03  0.16319036528E+04  0.12699999809E+01 0.  1.
</event>
<event>
 5   0  0.4330395E-07  0.3107101E+04  0.7818609E-02  0.8213792E-01
       -1   -1    0    0    0  501  0.00000000000E+00  0.00000000000E+00  0.13983133000E+04  0.13983133000E+04  0.50400001928E-02 0.  1.
        1   -1    0    0  501    0  0.00000000000E+00  0.00000000000E+00 -0.17260221500E+04  0.17260221501E+04  0.50400001928E-02 0. -1.
    10030    2    1    2    0    0  0.00000000000E+00  0.00000000000E+00 -0.32770885009E+03  0.31243354500E+04  0.31071013685E+04 0.  0.
        1    1    3    3  502    0 -0.59906099118E+03 -0.94176426288E+02  0.12743854409E+04  0.14113119862E+04  0.50400001928E-02 0.  1.
       -1    1    3    3    0  502  0.59906099118E+03  0.94176426288E+02 -0.16020942910E+04  0.17130234638E+04  0.50400001928E-02 0. -1.
</event>
<event>
 5   0  0.1176002E-06  0.3106766E+04  0.7818609E-02  0.8213883E-01
        2   -1    0    0  501    0  0.00000000000E+00  0.00000000000E+00  0.17271260211E+04  0.17271260211E+04  0.25500000920E-02 0.  1.
       -2   -1    0    0    0  501  0.00000000000E+00  0.00000000000E+00 -0.13971182431E+04  0.13971182431E+04  0.25500000920E-02 0. -1.
    10030    2    1    2    0    0  0.00000000000E+00  0.00000000000E+00  0.33000777803E+03  0.31242442642E+04  0.31067663396E+04 0.  0.
        2    1    3    3  502    0 -0.81804207287E+03  0.10182916680E+04  0.10105004662E+04  0.16514302729E+04  0.25500000920E-02 0.  1.
       -2    1    3    3    0  502  0.81804207287E+03 -0.10182916680E+04 -0.68049268820E+03  0.14728139912E+04  0.25500000920E-02 0. -1.
</event>
<event>
 5   0  0.1200286E-06  0.3111352E+04  0.7818609E-02  0.8212629E-01
        2   -1    0    0  501    0  0.00000000000E+00  0.00000000000E+00  0.18069984927E+04  0.18069984927E+04  0.25500000920E-02 0. -1.
       -2   -1    0    0    0  501  0.00000000000E+00  0.00000000000E+00 -0.13393079502E+04  0.13393079502E+04  0.25500000920E-02 0.  1.
    10030    2    1    2    0    0  0.00000000000E+00  0.00000000000E+00  0.46769054246E+03  0.31463064429E+04  0.31113517623E+04 0.  0.
        5    1    3    3  502    0  0.10386059500E+04 -0.11570149607E+04  0.18111136751E+03  0.15653144592E+04  0.46999998093E+01 0.  1.
       -5    1    3    3    0  502 -0.10386059500E+04  0.11570149607E+04  0.28657917495E+03  0.15809919836E+04  0.46999998093E+01 0. -1.
</event>
<event>
 5   0  0.4173905E-07  0.3068967E+04  0.7818609E-02  0.8224307E-01
       -1   -1    0    0    0  501  0.00000000000E+00  0.00000000000E+00  0.18051042967E+04  0.18051042967E+04  0.50400001928E-02 0. -1.
        1   -1    0    0  501    0  0.00000000000E+00  0.00000000000E+00 -0.13044343712E+04  0.13044343712E+04  0.50400001928E-02 0.  1.
    10030    2    1    2    0    0  0.00000000000E+00  0.00000000000E+00  0.50066992553E+03  0.31095386679E+04  0.30689673105E+04 0.  0.
        3    1    3    3  502    0  0.44341368156E+03  0.12714617701E+03  0.17331912415E+04  0.17935255039E+04  0.10100000352E+00 0. -1.
       -3    1    3    3    0  502 -0.44341368156E+03 -0.12714617701E+03 -0.12325213160E+04  0.13160131640E+04  0.10100000352E+00 0.  1.
</event>
<event>
 5   0  0.3935852E-07  0.3136409E+04  0.7818609E-02  0.8205816E-01
       -1   -1    0    0    0  501  0.00000000000E+00  0.00000000000E+00  0.19072808578E+04  0.19072808578E+04  0.50400001928E-02 0.  1.
        1   -1    0    0  501    0  0.00000000000E+00  0.00000000000E+00 -0.12894094826E+04  0.12894094826E+04  0.50400001928E-02 0. -1.
    10030    2    1    2    0    0  0.00000000000E+00  0.00000000000E+00  0.61787137519E+03  0.31966903403E+04  0.31364094273E+04 0.  0.
        5    1    3    3  502    0  0.24805207214E+02  0.12994410328E+04 -0.58547339785E+03  0.14254695667E+04  0.46999998093E+01 0. -1.
       -5    1    3    3    0  502 -0.24805207214E+02 -0.12994410328E+04  0.12033447730E+04  0.17712207736E+04  0.46999998093E+01 0.  1.
</event>
<event>
 5   0  0.1176002E-06  0.3077493E+04  0.7818609E-02  0.8221942E-01
        2   -1    0    0  501    0  0.00000000000E+00  0.00000000000E+00  0.19787171891E+04  0.19787171891E+04  0.25500000920E-02 0. -1.
       -2   -1    0    0    0  501  0.00000000000E+00  0.00000000000E+00 -0.11966042341E+04  0.11966042341E+04  0.25500000920E-02 0.  1.
    10030    2    1    2    0    0  0.00000000000E+00  0.00000000000E+00  0.78211295507E+03  0.31753214232E+04  0.30774933739E+04 0.  0.
        2    1    3    3  502    0  0.46848228271E+03  0.25214279663E+03 -0.10986862710E+04  0.12207223932E+04  0.25500000920E-02 0.  1.
       -2    1    3    3    0  502 -0.46848228271E+03 -0.25214279663E+03  0.18807992261E+04  0.19545990300E+04  0.25500000920E-02 0. -1.
</event>
<event>
 5   0  0.4219337E-07  0.3052357E+04  0.7818609E-02  0.8228936E-01
        1   -1    0    0  501    0  0.00000000000E+00  0.00000000000E+00  0.13137405386E+04  0.13137405386E+04  0.50400001928E-02 0. -1.
       -1   -1    0    0    0  501  0.00000000000E+00  0.00000000000E+00 -0.17729687479E+04  0.17729687479E+04  0.50400001928E-02 0.  1.
    10030    2    1    2    0    0  0.00000000000E+00  0.00000000000E+00 -0.45922820932E+03  0.30867092866E+04  0.30523570682E+04 0.  0.
        4    1    3    3  502    0  0.60875723539E+03 -0.13983757460E+04 -0.28663312610E+03  0.15518377043E+04  0.12699999809E+01 0. -1.
       -4    1    3    3    0  502 -0.60875723539E+03  0.13983757460E+04 -0.17259508322E+03  0.15348715823E+04  0.12699999809E+01 0.  1.
</event>
<event>
 5   0  0.1193123E-06  0.3104937E+04  0.7818609E-02  0.8214384E-01
       -2   -1    0    0    0  501  0.00000000000E+00  0.00000000000E+00  0.11265427932E+04  0.11265427932E+04  0.25500000920E-02 0.  1.
        2   -1    0    0  501    0  0.00000000000E+00  0.00000000000E+00 -0.21394292407E+04  0.21394292407E+04  0.25500000920E-02 0. -1.
    10030    2    1    2    0    0  0.00000000000E+00  0.00000000000E+00 -0.10128864475E+04  0.32659720339E+04  0.31049370961E+04 0.  0.
        3    1    3    3  502    0 -0.68308843756E+03  0.15890400636E+03 -0.19633029068E+04  0.20848066123E+04  0.10100000352E+00 0.  1.
       -3    1    3    3    0  502  0.68308843756E+03 -0.15890400636E+03  0.95041645930E+03  0.11811654215E+04  0.10100000352E+00 0. -1.
</event>
<event>
 5   0  0.1200286E-06  0.3103013E+04  0.7818609E-02  0.8214911E-01
       -2   -1    0    0    0  501  0.00000000000E+00  0.00000000000E+00  0.12301398348E+04  0.12301398348E+04  0.25500000920E-02 0. -1.
        2   -1    0    0  501    0  0.00000000000E+00  0.00000000000E+00 -0.19568288719E+04  0.19568288719E+04  0.25500000920E-02 0.  1.
    10030    2    1    2    0    0  0.00000000000E+00  0.00000000000E+00 -0.72668903712E+03  0.31869687068E+04  0.31030134678E+04 0.  0.
        5    1    3    3  502    0 -0.10847738490E+04  0.11000040749E+04 -0.21662358027E+03  0.15600292093E+04  0.46999998093E+01 0.  1.
       -5    1    3    3    0  502  0.10847738490E+04 -0.11000040749E+04 -0.51006545685E+03  0.16269394975E+04  0.46999998093E+01 0. -1.
</event>
<event>
 5   0  0.1258262E-06  0.3095981E+04  0.7818609E-02  0.8216842E-01
        2   -1    0    0  501    0  0.00000000000E+00  0.00000000000E+00  0.12126575704E+04  0.12126575704E+04  0.25500000920E-02 0. -1.
       -2   -1    0    0    0  501  0.00000000000E+00  0.00000000000E+00 -0.19760521340E+04  0.19760521340E+04  0.25500000920E-02 0.  1.
    10030    2    1    2    0    0  0.00000000000E+00  0.00000000000E+00 -0.76339456357E+03  0.31887097044E+04  0.30959809946E+04 0.  0.
        1    1    3    3  502    0 -0.18459555134E+02  0.66923741726E+03 -0.18192286038E+04  0.19385077221E+04  0.50400001928E-02 0.  1.
       -1    1    3    3    0  502  0.18459555134E+02 -0.66923741726E+03  0.10558340402E+04  0.12502019822E+04  0.50400001928E-02 0. -1.
</event>
<event>
 5   0  0.4330395E-07  0.3127108E+04  0.7818609E-02  0.8208338E-01
       -1   -1    0    0    0  501  0.00000000000E+00  0.00000000000E+00  0.16019804976E+04  0.16019804976E+04  0.50400001928E-02 0. -1.
        1   -1    0    0  501    0  0.00000000000E+00  0.00000000000E+00 -0.15260489700E+04  0.15260489700E+04  0.50400001928E-02 0.  1.
    10030    2    1    2    0    0  0.00000000000E+00  0.00000000000E+00  0.75931527640E+02  0.31280294677E+04  0.31271077298E+04 0.  0.
        1    1    3    3  502    0  0.30190018874E+03  0.14996310458E+03  0.15651993520E+04  0.16010876517E+04  0.50400001928E-02 0. -1.
       -1    1    3    3    0  502 -0.30190018874E+03 -0.14996310458E+03 -0.14892678244E+04  0.15269418160E+04  0.50400001928E-02 0.  1.
</event>
<event>
 5   0  0.1258262E-06  0.3099495E+04  0.7818609E-02  0.8215877E-01
       -2   -1    0    0    0  501  0.00000000000E+00  0.00000000000E+00  0.16291285747E+04  0.16291285747E+04  0.25500000920E-02 0.  1.
        2   -1    0    0  501    0  0.00000000000E+00  0.00000000000E+00 -0.14742341496E+04  0.14742341496E+04  0.25500000920E-02 0. -1.
    10030    2    1    2    0    0  0.00000000000E+00  0.00000000000E+00  0.15489442510E+03  0.31033627243E+04  0.30994947839E+04 0.  0.
        1    1    3    3  502    0 -0.61845986594E+03 -0.79997550281E+03 -0.10984389018E+04  0.14929907675E+04  0.50400001928E-02 0. -1.
       -1    1    3    3    0  502  0.61845986594E+03  0.79997550281E+03  0.12533333269E+04  0.16103719568E+04  0.50400001928E-02 0.  1.
</event>
<event>
 5   0  0.4330395E-07  0.3071271E+04  0.7818609E-02  0.8223667E-01
        1   -1    0    0  501    0  0.00000000000E+00  0.00000000000E+00  0.20770477771E+04  0.20770477771E+04  0.50400001928E-02 0.  1.
       -1   -1    0    0    0  501  0.00000000000E+00  0.00000000000E+00 -0.11353503561E+04  0.11353503562E+04  0.50400001928E-02 0. -1.
    10030    2    1    2    0    0  0.00000000000E+00  0.00000000000E+00  0.94169742097E+03  0.32123981333E+04  0.30712713547E+04 0.  0.
        1    1    3    3  502    0 -0.43636541135E+03 -0.11879818091E+04 -0.43886461599E+03  0.13395214452E+04  0.50400001928E-02 0. -1.
       -1    1    3    3    0  502  0.43636541135E+03  0.11879818091E+04  0.13805620370E+04  0.18728766881E+04  0.50400001928E-02 0.  1.
</event>
<event>
 5   0  0.1237580E-06  0.3105411E+04  0.7818609E-02  0.8214255E-01
        2   -1    0    0  501    0  0.00000000000E+00  0.00000000000E+00  0.12743083981E+04  0.12743083981E+04  0.25500000920E-02 0.  1.
       -2   -1    0    0    0  501  0.00000000000E+00  0.00000000000E+00 -0.18919233389E+04  0.18919233389E+04  0.25500000920E-02 0. -1.
    10030    2    1    2    0    0  0.00000000000E+00  0.00000000000E+00 -0.61761494078E+03  0.31662317369E+04  0.31054106326E+04 0.  0.
        4    1    3    3  502    0 -0.11657840192E+04  0.12848442044E+03  0.72863348469E+03  0.13807494319E+04  0.12699999809E+01 0.  1.
       -4    1    3    3    0  502  0.11657840192E+04 -0.12848442044E+03 -0.13462484255E+04  0.17854823051E+04  0.12699999809E+01 0. -1.
</event>
<event>
 5   0  0.4330395E-07  0.3099245E+04  0.7818609E-02  0.8215945E-01
        1   -1    0    0  501    0  0.00000000000E+00  0.00000000000E+00  0.10681649259E+04  0.10681649260E+04  0.50400001928E-02 0.  1.
       -1   -1    0    0    0  501  0.00000000000E+00  0.00000000000E+00 -0.22480892994E+04  0.22480892994E+04  0.50400001928E-02 0. -1.
    10030    2    1    2    0    0  0.00000000000E+00  0.00000000000E+00 -0.11799243735E+04  0.33162542254E+04  0.30992451598E+04 0.  0.
        1    1    3    3  502    0  0.12417090378E+04  0.44423963546E+02  0.40089902497E+03  0.13055783589E+04  0.50400001928E-02 0.  1.
       -1    1    3    3    0  502 -0.12417090378E+04 -0.44423963546E+02 -0.15808233985E+04  0.20106758665E+04  0.50400001928E-02 0. -1.
</event>
<event>
 5   0  0.1200286E-06  0.3082045E+04  0.7818609E-02  0.8220683E-01
       -2   -1    0    0    0  501  0.00000000000E+00  0.00000000000E+00  0.11661062284E+04  0.11661062284E+04  0.25500000920E-02 0.  1.
        2   -1    0    0  501    0  0.00000000000E+00  0.00000000000E+00 -0.20364786373E+04  0.20364786373E+04  0.25500000920E-02 0. -1.
    10030    2    1    2    0    0  0.00000000000E+00  0.00000000000E+00 -0.87037240894E+03  0.32025848656E+04  0.30820450502E+04 0.  0.
        5    1    3    3  502    0  0.15014846441E+04  0.33889809643E+03 -0.51168813502E+03  0.16220835039E+04  0.46999998093E+01 0.  1.
       -5    1    3    3    0  502 -0.15014846441E+04 -0.33889809643E+03 -0.35868427391E+03  0.15805013617E+04  0.46999998093E+01 0. -1.
</event>
<event>
 5   0  0.1200286E-06  0.3121396E+04  0.7818609E-02  0.8209890E-01
       -2   -1    0    0    0  501  0.00000000000E+00  0.00000000000E+00  0.96619422497E+03  0.96619422497E+03  0.25500000920E-02 0. -1.
        2   -1    0    0  501    0  0.00000000000E+00  0.00000000000E+00 -0.25210034983E+04  0.25210034983E+04  0.25500000920E-02 0.  1.
    10030    2    1    2    0    0  0.00000000000E+00  0.00000000000E+00 -0.15548092733E+04  0.34871977233E+04  0.31213964959E+04 0.  0.
        5    1    3    3  502    0  0.19045471862E+03  0.24119122488E+03 -0.24868576227E+04  0.25057791468E+04  0.46999998093E+01 0.  1.
       -5    1    3    3    0  502 -0.19045471862E+03 -0.24119122488E+03  0.93204834936E+03  0.98141857652E+03  0.46999998093E+01 0. -1.
</event>
<event>
 5   0  0.1176002E-06  0.3095558E+04  0.7818609E-02  0.8216958E-01
        2   -1    0    0  501    0  0.00000000000E+00  0.00000000000E+00  0.20374281931E+04  0.20374281931E+04  0.25500000920E-02 0. -1.
       -2   -1    0    0    0  501  0.00000000000E+00  0.00000000000E+00 -0.11758056463E+04  0.11758056463E+04  0.25500000920E-02 0.  1.
    10030    2    1    2    0    0  0.00000000000E+00  0.00000000000E+00  0.86162254684E+03  0.32132338394E+04  0.30955578323E+04 0.  0.
        2    1    3    3  502    0  0.12958926216E+04 -0.84311888717E+03  0.35430440520E+03  0.15861017484E+04  0.25500000920E-02 0. -1.
       -2    1    3    3    0  502 -0.12958926216E+04  0.84311888717E+03  0.50731814165E+03  0.16271320910E+04  0.25500000920E-02 0.  1.
</event>
<event>
 5   0  0.1176002E-06  0.3093615E+04  0.7818609E-02  0.8217492E-01
        2   -1    0    0  501    0  0.00000000000E+00  0.00000000000E+00  0.24387549655E+04  0.24387549655E+04  0.25500000920E-02 0.  1.
       -2   -1    0    0    0  501  0.00000000000E+00  0.00000000000E+00 -0.98107989139E+03  0.98107989139E+03  0.25500000920E-02 0. -1.
    10030    2    1    2    0    0  0.00000000000E+00  0.00000000000E+00  0.14576750741E+04  0.34198348569E+04  0.30936150095E+04 0.  0.
        2    1    3    3  502    0 -0.12545746599E+04  0.63341661851E+03  0.14611763928E+02  0.14054848607E+04  0.25500000920E-02 0.  1.
       -2    1    3    3    0  502  0.12545746599E+04 -0.63341661851E+03  0.14430633102E+04  0.20143499962E+04  0.25500000920E-02 0. -1.
</event>
<event>
 5   0  0.1258262E-06  0.3090104E+04  0.7818609E-02  0.8218459E-01
        2   -1    0    0  501    0  0.00000000000E+00  0.00000000000E+00  0.22260107175E+04  0.22260107175E+04  0.25500000920E-02 0. -1.
       -2   -1    0    0    0  501  0.00000000000E+00  0.00000000000E+00 -0.10724050945E+04  0.10724050945E+04  0.25500000920E-02 0.  1.
    10030    2    1    2    0    0  0.00000000000E+00  0.00000000000E+00  0.11536056229E+04  0.32984158120E+04  0.30901037095E+04 0.  0.
        1    1    3    3  502    0 -0.14142129133E+04 -0.24104954409E+03 -0.35525776156E+02  0.14350488242E+04  0.50400001928E-02 0.  1.
       -1    1    3    3    0  502  0.14142129133E+04  0.24104954409E+03  0.11891313991E+04  0.18633669878E+04  0.50400001928E-02 0. -1.
</event>
<event>
 5   0  0.3935852E-07  0.3213386E+04  0.7818609E-02  0.8185291E-01
       -1   -1    0    0    0  501  0.00000000000E+00  0.00000000000E+00  0.16227555277E+04  0.16227555277E+04  0.50400001928E-02 0.  1.
        1   -1    0    0  501    0  0.00000000000E+00  0.00000000000E+00 -0.15907896801E+04  0.15907896801E+04  0.50400001928E-02 0. -1.
    10030    2    1    2    0    0  0.00000000000E+00  0.00000000000E+00  0.31965847585E+02  0.32135452078E+04  0.32133862182E+04 0.  0.
        5    1    3    3  502    0 -0.92634491269E+03  0.17783959173E+03  0.13167005121E+04  0.16197111305E+04  0.46999998093E+01 0.  1.
       -5    1    3    3    0  502  0.92634491269E+03 -0.17783959173E+03 -0.12847346645E+04  0.15938340773E+04  0.46999998093E+01 0. -1.
</event>
<event>
 5   0  0.4173905E-07  0.3101035E+04  0.7818609E-02  0.8215454E-01
        1   -1    0    0  501    0  0.00000000000E+00  0.00000000000E+00  0.26470115752E+04  0.26470115752E+04  0.50400001928E-02 0. -1.
       -1   -1    0    0    0  501  0.00000000000E+00  0.00000000000E+00 -0.90823335326E+03  0.90823335327E+03  0.50400001928E-02 0.  1.
    10030    2    1    2    0    0  0.00000000000E+00  0.00000000000E+00  0.17387782219E+04  0.35552449285E+04  0.31010347944E+04 0.  0.
        3    1    3    3  502    0 -0.56864313273E+03 -0.13535891753E+04  0.14409544140E+04  0.20571602517E+04  0.10100000352E+00 0. -1.
       -3    1    3    3    0  502  0.56864313273E+03  0.13535891753E+04  0.29782380788E+03  0.14980846767E+04  0.10100000352E+00 0.  1.
</event>
<event>
 5   0  0.1193123E-06  0.3101777E+04  0.7818609E-02  0.8215250E-01
        2   -1    0    0  501    0  0.00000000000E+00  0.00000000000E+00  0.10488236459E+04  0.10488236459E+04  0.25500000920E-02 0. -1.
       -2   -1    0    0    0  501  0.00000000000E+00  0.00000000000E+00 -0.22932886866E+04  0.22932886866E+04  0.25500000920E-02 0.  1.
    10030    2    1    2    0    0  0.00000000000E+00  0.00000000000E+00 -0.12444650407E+04  0.33421123326E+04  0.31017771690E+04 0.  0.
        3    1    3    3  502    0  0.60504138248E+03  0.73834947776E+03  0.69477637041E+03  0.11806562755E+04  0.10100000352E+00 0. -1.
       -3    1    3    3    0  502 -0.60504138248E+03 -0.73834947776E+03 -0.19392414111E+04  0.21614560571E+04  0.10100000352E+00 0.  1.
</event>
<event>
 5   0  0.4330395E-07  0.3111866E+04  0.7818609E-02  0.8212489E-01
       -1   -1    0    0    0  501  0.00000000000E+00  0.00000000000E+00  0.16524480360E+04  0.16524480361E+04  0.50400001928E-02 0.  1.
        1   -1    0    0  501    0  0.00000000000E+00  0.00000000000E+00 -0.14650551627E+04  0.14650551627E+04  0.50400001928E-02 0. -1.
    10030    2    1    2    0    0  0.00000000000E+00  0.00000000000E+00  0.18739287339E+03  0.31175031987E+04  0.31118660166E+04 0.  0.
        1    1    3    3  502    0 -0.13952639129E+04 -0.53560251891E+03  0.52725759064E+03  0.15848129264E+04  0.50400001928E-02 0. -1.
       -1    1    3    3    0  502  0.13952639129E+04  0.53560251891E+03 -0.33986471725E+03  0.15326902723E+04  0.50400001928E-02 0.  1.
</event>
<event>
 5   0  0.1176002E-06  0.3090734E+04  0.7818609E-02  0.8218286E-01
        2   -1    0    0  501    0  0.00000000000E+00  0.00000000000E+00  0.16689410031E+04  0.16689410031E+04  0.25500000920E-02 0.  1.
       -2   -1    0    0    0  501  0.00000000000E+00  0.00000000000E+00 -0.14309424196E+04  0.14309424196E+04  0.25500000920E-02 0. -1.
    10030    2    1    2    0    0  0.00000000000E+00  0.00000000000E+00  0.23799858345E+03  0.30998834227E+04  0.30907335551E+04 0.  0.
        2    1    3    3  502    0 -0.28916584635E+03  0.37352738873E+03  0.15947555665E+04  0.16632452957E+04  0.25500000920E-02 0.  1.
       -2    1    3    3    0  502  0.28916584635E+03 -0.37352738873E+03 -0.13567569830E+04  0.14366381270E+04  0.25500000920E-02 0. -1.
</event>
<event>
 5   0  0.4219337E-07  0.3107452E+04  0.7818609E-02  0.8213696E-01
        1   -1    0    0  501    0  0.00000000000E+00  0.00000000000E+00  0.17543171836E+04  0.17543171836E+04  0.50400001928E-02 0. -1.
       -1   -1    0    0    0  501  0.00000000000E+00  0.00000000000E+00 -0.13760709312E+04  0.13760709312E+04  0.50400001928E-02 0.  1.
    10030    2    1    2    0    0  0.00000000000E+00  0.00000000000E+00  0.37824625242E+03  0.31303881148E+04  0.31074522558E+04 0.  0.
        4    1    3    3  502    0 -0.57439500551E+03  0.14355591716E+04  0.34290473175E+03  0.15837755603E+04  0.12699999809E+01 0.  1.
       -4    1    3    3    0  502  0.57439500551E+03 -0.14355591716E+04  0.35341520672E+02  0.15466125545E+04  0.12699999809E+01 0. -1.
</event>
<event>
 5   0  0.4330395E-07  0.3105869E+04  0.7818609E-02  0.8214129E-01
       -1   -1    0    0    0  501  0.00000000000E+00  0.00000000000E+00  0.24970422573E+04  0.24970422573E+04  0.50400001928E-02 0. -1.
        1   -1    0    0  501    0  0.00000000000E+00  0.00000000000E+00 -0.96578461719E+03  0.96578461720E+03  0.50400001928E-02 0.  1.
    10030    2    1    2    0    0  0.00000000000E+00  0.00000000000E+00  0.15312576401E+04  0.34628268745E+04  0.31058686389E+04 0.  0.
        1    1    3    3  502    0 -0.24065931223E+03 -0.40216446496E+03  0.24163099997E+04  0.24613425557E+04  0.50400001928E-02 0. -1.
       -1    1    3    3    0  502  0.24065931223E+03  0.40216446496E+03 -0.88505235967E+03  0.10014843188E+04  0.50400001928E-02 0.  1.
</event>
<event>
 5   0  0.4134019E-07  0.3094017E+04  0.7818609E-02  0.8217382E-01
       -1   -1    0    0    0  501  0.00000000000E+00  0.00000000000E+00  0.10310833609E+04  0.10310833610E+04  0.50400001928E-02 0.  1.
        1   -1    0    0  501    0  0.00000000000E+00  0.00000000000E+00 -0.23210880965E+04  0.23210880965E+04  0.50400001928E-02 0. -1.
    10030    2    1    2    0    0  0.00000000000E+00  0.00000000000E+00 -0.12900047356E+04  0.33521714575E+04  0.30940170107E+04 0.  0.
        2    1    3    3  502    0 -0.74245303591E+03  0.82590602816E+03  0.52183328182E+03  0.12270563361E+04  0.25500000920E-02 0.  1.
       -2    1    3    3    0  502  0.74245303591E+03 -0.82590602816E+03 -0.18118380174E+04  0.21251151214E+04  0.25500000920E-02 0. -1.
</event>
<event>
 5   0  0.3935852E-07  0.3101534E+04  0.7818609E-02  0.8215317E-01
        1   -1    0    0  501    0  0.00000000000E+00  0.00000000000E+00  0.14468535240E+04  0.14468535240E+04  0.50400001928E-02 0.  1.
       -1   -1    0    0    0  501  0.00000000000E+00  0.00000000000E+00 -0.16621435933E+04  0.16621435933E+04  0.50400001928E-02 0. -1.
    10030    2    1    2    0    0  0.00000000000E+00  0.00000000000E+00 -0.21529006932E+03  0.31089971173E+04  0.31015340174E+04 0.  0.
        5    1    3    3  502    0 -0.66159561302E+03  0.61599087154E+03 -0.13707177812E+04  0.16419631039E+04  0.46999998093E+01 0. -1.
       -5    1    3    3    0  502  0.66159561302E+03 -0.61599087154E+03  0.11554277119E+04  0.14670340134E+04  0.46999998093E+01 0.  1.
</event>
<event>
 5   0  0.1237580E-06  0.3012902E+04  0.7818609E-02  0.8240056E-01
       -2   -1    0    0    0  501  0.00000000000E+00  0.00000000000E+00  0.73877372897E+03  0.73877372897E+03  0.25500000920E-02 0. -1.
        2   -1    0    0  501    0  0.00000000000E+00  0.00000000000E+00 -0.30718404202E+04  0.30718404203E+04  0.25500000920E-02 0.  1.
    10030    2    1    2    0    0  0.00000000000E+00  0.00000000000E+00 -0.23330666913E+04  0.38106141492E+04  0.30129022567E+04 0.  0.
        4    1    3    3  502    0  0.68955079271E+02  0.62018808661E+03 -0.29006945752E+04  0.29670555602E+04  0.12699999809E+01 0.  1.
       -4    1    3    3    0  502 -0.68955079271E+02 -0.62018808661E+03  0.56762788389E+03  0.84355858907E+03  0.12699999809E+01 0. -1.
</event>
<event>
 5   0  0.1237580E-06  0.3097005E+04  0.7818609E-02  0.8216560E-01
       -2   -1    0    0    0  501  0.00000000000E+00  0.00000000000E+00  0.13711481419E+04  0.13711481419E+04  0.25500000920E-02 0.  1.
        2   -1    0    0  501    0  0.00000000000E+00  0.00000000000E+00 -0.17487969704E+04  0.17487969704E+04  0.25500000920E-02 0. -1.
    10030    2    1    2    0    0  0.00000000000E+00  0.00000000000E+00 -0.37764882853E+03  0.31199451122E+04  0.30970048217E+04 0.  0.
        4    1    3    3  502    0 -0.31695471317E+03  0.39627752344E+03  0.12850099617E+04  0.13815746018E+04  0.12699999809E+01 0.  1.
       -4    1    3    3    0  502  0.31695471317E+03 -0.39627752344E+03 -0.16626587902E+04  0.17383705104E+04  0.12699999809E+01 0. -1.
</event>
<event>
 5   0  0.4134019E-07  0.3114963E+04  0.7818609E-02  0.8211643E-01
        1   -1    0    0  501    0  0.00000000000E+00  0.00000000000E+00  0.20347824202E+04  0.20347824202E+04  0.50400001928E-02 0.  1.
       -1   -1    0    0    0  501  0.00000000000E+00  0.00000000000E+00 -0.11921413594E+04  0.11921413594E+04  0.50400001928E-02 0. -1.
    10030    2    1    2    0    0  0.00000000000E+00  0.00000000000E+00  0.84264106080E+03  0.32269237797E+04  0.31149627803E+04 0.  0.
        2    1    3    3  502    0 -0.19253701655E+03 -0.13280034007E+04 -0.39771981622E+03  0.13995872917E+04  0.25500000920E-02 0.  1.
       -2    1    3    3    0  502  0.19253701655E+03  0.13280034007E+04  0.12403608770E+04  0.18273364880E+04  0.25500000920E-02 0. -1.
</event>
<event>
 5   0  0.1237580E-06  0.3107664E+04  0.7818609E-02  0.8213638E-01
       -2   -1    0    0    0  501  0.00000000000E+00  0.00000000000E+00  0.19336574276E+04  0.19336574276E+04  0.25500000920E-02 0. -1.
        2   -1    0    0  501    0  0.00000000000E+00  0.00000000000E+00 -0.12486149010E+04  0.12486149010E+04  0.25500000920E-02 0.  1.
    10030    2    1    2    0    0  0.00000000000E+00  0.00000000000E+00  0.68504252661E+03  0.31822723285E+04  0.31076637382E+04 0.  0.
        4    1    3    3  502    0  0.10889712943E+04 -0.17222808736E+03 -0.77869535534E+03  0.13497737081E+04  0.12699999809E+01 0.  1.
       -4    1    3    3    0  502 -0.10889712943E+04  0.17222808736E+03  0.14637378819E+04  0.18324986204E+04  0.12699999809E+01 0. -1.
</event>
<event>
 5   0  0.1258262E-06  0.3083227E+04  0.7818609E-02  0.8220356E-01
        2   -1    0    0  501    0  0.00000000000E+00  0.00000000000E+00  0.19806364138E+04  0.19806364138E+04  0.25500000920E-02 0.  1.
       -2   -1    0    0    0  501  0.00000000000E+00  0.00000000000E+00 -0.11999029565E+04  0.11999029565E+04  0.25500000920E-02 0. -1.
    10030    2    1    2    0    0  0.00000000000E+00  0.00000000000E+00  0.78073345728E+03  0.31805393703E+04  0.30832265494E+04 0.  0.
        1    1    3    3  502    0  0.62383303599E+03 -0.87417029478E+03  0.15312715709E+04  0.18703299134E+04  0.50400001928E-02 0.  1.
       -1    1    3    3    0  502 -0.62383303599E+03  0.87417029478E+03 -0.75053811360E+03  0.13102094569E+04  0.50400001928E-02 0. -1.
</event>
<event>
 5   0  0.1237580E-06  0.3268735E+04  0.7818609E-02  0.8170897E-01
        2   -1    0    0  501    0  0.00000000000E+00  0.00000000000E+00  0.14249857047E+04  0.14249857047E+04  0.25500000920E-02 0. -1.
       -2   -1    0    0    0  501  0.00000000000E+00  0.00000000000E+00 -0.18745147735E+04  0.18745147735E+04  0.25500000920E-02 0.  1.
    10030    2    1    2    0    0  0.00000000000E+00  0.00000000000E+00 -0.44952906877E+03  0.32995004782E+04  0.32687347739E+04 0.  0.
        4    1    3    3  502    0 -0.14097263299E+04 -0.59935387572E+03 -0.79986529277E+03  0.17281028595E+04  0.12699999809E+01 0.  1.
       -4    1    3    3    0  502  0.14097263299E+04  0.59935387572E+03  0.35033622400E+03  0.15713976188E+04  0.12699999809E+01 0. -1.
</event>
<event>
 5   0  0.3935852E-07  0.3096917E+04  0.7818609E-02  0.8216585E-01
        1   -1    0    0  501    0  0.00000000000E+00  0.00000000000E+00  0.12947477832E+04  0.12947477833E+04  0.50400001928E-02 0.  1.
       -1   -1    0    0    0  501  0.00000000000E+00  0.00000000000E+00 -0.18518842740E+04  0.18518842740E+04  0.50400001928E-02 0. -1.
    10030    2    1    2    0    0  0.00000000000E+00  0.00000000000E+00 -0.55713649079E+03  0.31466320573E+04  0.30969165689E+04 0.  0.
        5    1    3    3  502    0  0.93871406029E+03  0.12721299967E+03  0.96597615299E+03  0.13529594423E+04  0.46999998093E+01 0.  1.
       -5    1    3    3    0  502 -0.93871406029E+03 -0.12721299967E+03 -0.15231126438E+04  0.17936726150E+04  0.46999998093E+01 0. -1.
</event>
<event>
 5   0  0.1200286E-06  0.3099030E+04  0.7818609E-02  0.8216004E-01
        2   -1    0    0  501    0  0.00000000000E+00  0.00000000000E+00  0.18886395014E+04  0.18886395014E+04  0.25500000920E-02 0. -1.
       -2   -1    0    0    0  501  0.00000000000E+00  0.00000000000E+00 -0.12712834729E+04  0.12712834729E+04  0.25500000920E-02 0.  1.
    10030    2    1    2    0    0  0.00000000000E+00  0.00000000000E+00  0.61735602855E+03  0.31599229743E+04  0.30990296445E+04 0.  0.
        5    1    3    3  502    0 -0.11103190279E+04  0.90449189795E+03  0.91196243128E+03  0.16978255220E+04  0.46999998093E+01 0. -1.
       -5    1    3    3    0  502  0.11103190279E+04 -0.90449189795E+03 -0.29460640273E+03  0.14620974522E+04  0.46999998093E+01 0.  1.
</event>
<event>
 5   0  0.3935852E-07  0.3091373E+04  0.7818609E-02  0.8218110E-01
       -1   -1    0    0    0  501  0.00000000000E+00  0.00000000000E+00  0.12098891531E+04  0.12098891532E+04  0.50400001928E-02 0. -1.
        1   -1    0    0  501    0  0.00000000000E+00  0.00000000000E+00 -0.19746817214E+04  0.19746817215E+04  0.50400001928E-02 0.  1.
    10030    2    1    2    0    0  0.00000000000E+00  0.00000000000E+00 -0.76479256830E+03  0.31845708746E+04  0.30913725079E+04 0.  0.
        5    1    3    3  502    0 -0.10266248103E+04 -0.47117274090E+03  0.70447645748E+03  0.13312668485E+04  0.46999998093E+01 0. -1.
       -5    1    3    3    0  502  0.10266248103E+04  0.47117274090E+03 -0.14692690258E+04  0.18533040261E+04  0.46999998093E+01 0.  1.
</event>
<event>
 5   0  0.4173905E-07  0.3101100E+04  0.7818609E-02  0.8215436E-01
       -1   -1    0    0    0  501  0.00000000000E+00  0.00000000000E+00  0.14357605757E+04  0.14357605757E+04  0.50400001928E-02 0.  1.
        1   -1    0    0  501    0  0.00000000000E+00  0.00000000000E+00 -0.16745167939E+04  0.16745167939E+04  0.50400001928E-02 0. -1.
    10030    2    1    2    0    0  0.00000000000E+00  0.00000000000E+00 -0.23875621826E+03  0.31102773696E+04  0.31010999314E+04 0.  0.
        3    1    3    3  502    0  0.10428232225E+04  0.11474193005E+04 -0.10693731540E+03  0.15541836842E+04  0.10100000352E+00 0. -1.
       -3    1    3    3    0  502 -0.10428232225E+04 -0.11474193005E+04 -0.13181890286E+03  0.15560936855E+04  0.10100000352E+00 0.  1.
</event>
<event>
 5   0  0.1200286E-06  0.3097842E+04  0.7818609E-02  0.8216330E-01
        2   -1    0    0  501    0  0.00000000000E+00  0.00000000000E+00  0.18596055757E+04  0.18596055757E+04  0.25500000920E-02 0.  1.
       -2   -1    0    0    0  501  0.00000000000E+00  0.00000000000E+00 -0.12901424699E+04  0.12901424699E+04  0.25500000920E-02 0. -1.
    10030    2    1    2    0    0  0.00000000000E+00  0.00000000000E+00  0.56946310574E+03  0.31497480456E+04  0.30978419136E+04 0.  0.
        5    1    3    3  502    0 -0.92590864822E+03 -0.84793921561E+03  0.12070282355E+04  0.17416219422E+04  0.46999998093E+01 0.  1.
       -5    1    3    3    0  502  0.92590864822E+03  0.84793921561E+03 -0.63756512981E+03  0.14081261034E+04  0.46999998093E+01 0. -1.
</event>
<event>
 5   0  0.4330395E-07  0.3085940E+04  0.7818609E-02  0.8219607E-01
       -1   -1    0    0    0  501  0.00000000000E+00  0.00000000000E+00  0.13513348695E+04  0.13513348695E+04  0.50400001928E-02 0.  1.
        1   -1    0    0  501    0  0.00000000000E+00  0.00000000000E+00 -0.17617811496E+04  0.17617811496E+04  0.50400001928E-02 0. -1.
    10030    2    1    2    0    0  0.00000000000E+00  0.00000000000E+00 -0.41044628004E+03  0.31131160191E+04  0.30859399216E+04 0.  0.
        1    1    3    3  502    0 -0.75463588701E+03 -0.62397698068E+03 -0.14081729665E+04  0.17151599628E+04  0.50400001928E-02 0. -1.
       -1    1    3    3    0  502  0.75463588701E+03  0.62397698068E+03  0.99772668647E+03  0.13979560563E+04  0.50400001928E-02 0.  1.
</event>
<event>
 5   0  0.4219337E-07  0.3195097E+04  0.7818609E-02  0.8190113E-01
        1   -1    0    0  501    0  0.00000000000E+00  0.00000000000E+00  0.14645418484E+04  0.14645418484E+04  0.50400001928E-02 0.  1.
       -1   -1    0    0    0  501  0.00000000000E+00  0.00000000000E+00 -0.17426348196E+04  0.17426348197E+04  0.50400001928E-02 0. -1.
    10030    2    1    2    0    0  0.00000000000E+00  0.00000000000E+00 -0.27809297129E+03  0.32071766680E+04  0.31950972566E+04 0.  0.
        4    1    3    3  502    0  0.73036061688E+03  0.67072983422E+03  0.11182282421E+04  0.14945705589E+04  0.12699999809E+01 0.  1.
       -4    1    3    3    0  502 -0.73036061688E+03 -0.67072983422E+03 -0.13963212134E+04  0.17126061091E+04  0.12699999809E+01 0. -1.
</event>
<event>
 5   0  0.3935852E-07  0.3099387E+04  0.7818609E-02  0.8215906E-01
        1   -1    0    0  501    0  0.00000000000E+00  0.00000000000E+00  0.23214039275E+04  0.23214039275E+04  0.50400001928E-02 0.  1.
       -1   -1    0    0    0  501  0.00000000000E+00  0.00000000000E+00 -0.10345248816E+04  0.10345248816E+04  0.50400001928E-02 0. -1.
    10030    2    1    2    0    0  0.00000000000E+00  0.00000000000E+00  0.12868790459E+04  0.33559288090E+04  0.30993871156E+04 0.  0.
        5    1    3    3  502    0  0.43375658513E+03  0.84075624453E+03 -0.68555515526E+03  0.11683423294E+04  0.46999998093E+01 0. -1.
       -5    1    3    3    0  502 -0.43375658513E+03 -0.84075624453E+03  0.19724342012E+04  0.21875864796E+04  0.46999998093E+01 0.  1.
</event>
<event>
 5   0  0.4330395E-07  0.3103901E+04  0.7818609E-02  0.8214668E-01
       -1   -1    0    0    0  501  0.00000000000E+00  0.00000000000E+00  0.18051127204E+04  0.18051127204E+04  0.50400001928E-02 0. -1.
        1   -1    0    0  501    0  0.00000000000E+00  0.00000000000E+00 -0.13342939261E+04  0.13342939261E+04  0.50400001928E-02 0.  1.
    10030    2    1    2    0    0  0.00000000000E+00  0.00000000000E+00  0.47081879431E+03  0.31394066465E+04  0.31039013765E+04 0.  0.
        1    1    3    3  502    0 -0.80221798746E+03 -0.12781559652E+04 -0.13110928351E+03  0.15147362856E+04  0.50400001928E-02 0.  1.
       -1    1    3    3    0  502  0.80221798746E+03  0.12781559652E+04  0.60192807783E+03  0.16246703609E+04  0.50400001928E-02 0. -1.
</event>
<event>
 5   0  0.4330395E-07  0.3119676E+04  0.7818609E-02  0.8210359E-01
       -1   -1    0    0    0  501  0.00000000000E+00  0.00000000000E+00  0.16753251474E+04  0.16753251474E+04  0.50400001928E-02 0.  1.
        1   -1    0    0  501    0  0.00000000000E+00  0.00000000000E+00 -0.14523114842E+04  0.14523114843E+04  0.50400001928E-02 0. -1.
    10030    2    1    2    0    0  0.00000000000E+00  0.00000000000E+00  0.22301366317E+03  0.31276366317E+04  0.31196755930E+04 0.  0.
        1    1    3    3  502    0 -0.86885212373E+03  0.11505294293E+04  0.70840164590E+03  0.16063794298E+04  0.50400001928E-02 0. -1.
       -1    1    3    3    0  502  0.86885212373E+03 -0.11505294293E+04 -0.48538798273E+03  0.15212572019E+04  0.50400001928E-02 0.  1.
</event>
<event>
 5   0  0.1237580E-06  0.3105129E+04  0.7818609E-02  0.8214332E-01
       -2   -1    0    0    0  501  0.00000000000E+00  0.00000000000E+00  0.19928568320E+04  0.19928568320E+04  0.25500000920E-02 0. -1.
        2   -1    0    0  501    0  0.00000000000E+00  0.00000000000E+00 -0.12095484931E+04  0.12095484931E+04  0.25500000920E-02 0.  1.
    10030    2    1    2    0    0  0.00000000000E+00  0.00000000000E+00  0.78330833889E+03  0.32024053252E+04  0.31051292909E+04 0.  0.
        4    1    3    3  502    0 -0.11650343259E+04  0.68473569973E+03  0.11799874733E+04  0.17940289878E+04  0.12699999809E+01 0. -1.
       -4    1    3    3    0  502  0.11650343259E+04 -0.68473569973E+03 -0.39667913438E+03  0.14083763374E+04  0.12699999809E+01 0.  1.
</event>
<event>
 5   0  0.4219337E-07  0.3045153E+04  0.7818609E-02  0.8230953E-01
       -1   -1    0    0    0  501  0.00000000000E+00  0.00000000000E+00  0.13458827401E+04  0.13458827401E+04  0.50400001928E-02 0. -1.
        1   -1    0    0  501    0  0.00000000000E+00  0.00000000000E+00 -0.17224673702E+04  0.17224673702E+04  0.50400001928E-02 0.  1.
    10030    2    1    2    0    0  0.00000000000E+00  0.00000000000E+00 -0.37658463010E+03  0.30683501104E+04  0.30451529381E+04 0.  0.
        4    1    3    3  502    0  0.88694409574E+03  0.36280772413E+03 -0.13804953919E+04  0.16804964783E+04  0.12699999809E+01 0.  1.
       -4    1    3    3    0  502 -0.88694409574E+03 -0.36280772413E+03  0.10039107618E+04  0.13878536321E+04  0.12699999809E+01 0. -1.
</event>
<event>
 5   0  0.4330395E-07  0.3118090E+04  0.7818609E-02  0.8210791E-01
       -1   -1    0    0    0  501  0.00000000000E+00  0.00000000000E+00  0.13412636296E+04  0.13412636296E+04  0.50400001928E-02 0. -1.
        1   -1    0    0  501    0  0.00000000000E+00  0.00000000000E+00 -0.18121876393E+04  0.18121876393E+04  0.50400001928E-02 0.  1.
    10030    2    1    2    0    0  0.00000000000E+00  0.00000000000E+00 -0.47092400971E+03  0.31534512689E+04  0.31180900376E+04 0.  0.
        1    1    3    3  502    0  0.11721763991E+04  0.26884199779E+03 -0.12388566265E+04  0.17265686408E+04  0.50400001928E-02 0.  1.
       -1    1    3    3    0  502 -0.11721763991E+04 -0.26884199779E+03  0.76793261684E+03  0.14268826281E+04  0.50400001928E-02 0. -1.
</event>
<event>
 5   0  0.4173905E-07  0.3094736E+04  0.7818609E-02  0.8217184E-01
        1   -1    0    0  501    0  0.00000000000E+00  0.00000000000E+00  0.16353686307E+04  0.16353686307E+04  0.50400001928E-02 0.  1.
       -1   -1    0    0    0  501  0.00000000000E+00  0.00000000000E+00 -0.14641024836E+04  0.14641024836E+04  0.50400001928E-02 0. -1.
    10030    2    1    2    0    0  0.00000000000E+00  0.00000000000E+00  0.17126614710E+03  0.30994711142E+04  0.30947357068E+04 0.  0.
        3    1    3    3  502    0  0.17766186138E+03 -0.39353768168E+03 -0.14025448922E+04  0.14675039450E+04  0.10100000352E+00 0. -1.
       -3    1    3    3    0  502 -0.17766186138E+03  0.39353768168E+03  0.15738110393E+04  0.16319671692E+04  0.10100000352E+00 0.  1.
</event>
<event>
 5   0  0.3935852E-07  0.3066939E+04  0.7818609E-02  0.8224870E-01
        1   -1    0    0  501    0  0.00000000000E+00  0.00000000000E+00  0.15447227422E+04  0.15447227422E+04  0.50400001928E-02 0. -1.
       -1   -1    0    0    0  501  0.00000000000E+00  0.00000000000E+00 -0.15222979844E+04  0.15222979844E+04  0.50400001928E-02 0.  1.
    10030    2    1    2    0    0  0.00000000000E+00  0.00000000000E+00  0.22424757733E+02  0.30670207266E+04  0.30669387453E+04 0.  0.
        5    1    3    3  502    0  0.23934462821E+02  0.50000266360E+03  0.14607098865E+04  0.15441084757E+04  0.46999998093E+01 0. -1.
       -5    1    3    3    0  502 -0.23934462821E+02 -0.50000266360E+03 -0.14382851288E+04  0.15229122509E+04  0.46999998093E+01 0.  1.
</event>
<event>
 5   0  0.1237580E-06  0.3093115E+04  0.7818609E-02  0.8217630E-01
        2   -1    0    0  501    0  0.00000000000E+00  0.00000000000E+00  0.15494499059E+04  0.15494499059E+04  0.25500000920E-02 0.  1.
       -2   -1    0    0    0  501  0.00000000000E+00  0.00000000000E+00 -0.15436702343E+04  0.15436702343E+04  0.25500000920E-02 0. -1.
    10030    2    1    2    0    0  0.00000000000E+00  0.00000000000E+00  0.57796715814E+01  0.30931201402E+04  0.30931147403E+04 0.  0.
        4    1    3    3  502    0 -0.10328378333E+03 -0.93663014702E+03 -0.12234460745E+04  0.15442685914E+04  0.12699999809E+01 0. -1.
       -4    1    3    3    0  502  0.10328378333E+03  0.93663014702E+03  0.12292257461E+04  0.15488515487E+04  0.12699999809E+01 0.  1.
</event>
<event>
 5   0  0.4134019E-07  0.3083051E+04  0.7818609E-02  0.8220405E-01
       -1   -1    0    0    0  501  0.00000000000E+00  0.00000000000E+00  0.15668003413E+04  0.15668003413E+04  0.50400001928E-02 0.  1.
        1   -1    0    0  501    0  0.00000000000E+00  0.00000000000E+00 -0.15166583156E+04  0.15166583156E+04  0.50400001928E-02 0. -1.
    10030    2    1    2    0    0  0.00000000000E+00  0.00000000000E+00  0.50142025675E+02  0.30834586569E+04  0.30830509347E+04 0.  0.
        2    1    3    3  502    0 -0.32853438886E+03 -0.33060136904E+03  0.14946422946E+04  0.15656269347E+04  0.25500000920E-02 0.  1.
       -2    1    3    3    0  502  0.32853438886E+03  0.33060136904E+03 -0.14445002689E+04  0.15178317222E+04  0.25500000920E-02 0. -1.
</event>
<event>
 5   0  0.4219337E-07  0.3161195E+04  0.7818609E-02  0.8199141E-01
       -1   -1    0    0    0  501  0.00000000000E+00  0.00000000000E+00  0.23118297405E+04  0.23118297405E+04  0.50400001928E-02 0. -1.
        1   -1    0    0  501    0  0.00000000000E+00  0.00000000000E+00 -0.10806539227E+04  0.10806539227E+04  0.50400001928E-02 0.  1.
    10030    2    1    2    0    0  0.00000000000E+00  0.00000000000E+00  0.12311758178E+04  0.33924836632E+04  0.31611946334E+04 0.  0.
        4    1    3    3  502    0 -0.68420168669E+03  0.14217149700E+04  0.71672118071E+03  0.17329443926E+04  0.12699999809E+01 0. -1.
       -4    1    3    3    0  502  0.68420168669E+03 -0.14217149700E+04  0.51445463711E+03  0.16595392706E+04  0.12699999809E+01 0.  1.
</event>
<event>
 5   0  0.1237580E-06  0.3105993E+04  0.7818609E-02  0.8214095E-01
       -2   -1    0    0    0  501  0.00000000000E+00  0.00000000000E+00  0.19868584780E+04  0.19868584780E+04  0.25500000920E-02 0.  1.
        2   -1    0    0  501    0  0.00000000000E+00  0.00000000000E+00 -0.12138754900E+04  0.12138754900E+04  0.25500000920E-02 0. -1.
    10030    2    1    2    0    0  0.00000000000E+00  0.00000000000E+00  0.77298298805E+03  0.32007339680E+04  0.31059934375E+04 0.  0.
        4    1    3    3  502    0  0.13774847869E+04 -0.60734231160E+03 -0.65451462465E+01  0.15054479312E+04  0.12699999809E+01 0. -1.
       -4    1    3    3    0  502 -0.13774847869E+04  0.60734231160E+03  0.77952813430E+03  0.16952860368E+04  0.12699999809E+01 0.  1.
</event>
<event>
 5   0  0.1200286E-06  0.3282953E+04  0.7818609E-02  0.8167246E-01
        2   -1    0    0  501    0  0.00000000000E+00  0.00000000000E+00  0.11302307004E+04  0.11302307004E+04  0.25500000920E-02 0.  1.
       -2   -1    0    0    0  501  0.00000000000E+00  0.00000000000E+00 -0.23839784861E+04  0.23839784861E+04  0.25500000920E-02 0. -1.
    10030    2    1    2    0    0  0.00000000000E+00  0.00000000000E+00 -0.12537477857E+04  0.35142091866E+04  0.32829533498E+04 0.  0.
        5    1    3    3  502    0 -0.82951324396E+03 -0.36572044006E+03  0.83794212196E+03  0.12345091138E+04  0.46999998093E+01 0.  1.
       -5    1    3    3    0  502  0.82951324396E+03  0.36572044006E+03 -0.20916899077E+04  0.22797000728E+04  0.46999998093E+01 0. -1.
</event>
<event>
 5   0  0.4219337E-07  0.3096528E+04  0.7818609E-02  0.8216691E-01
       -1   -1    0    0    0  501  0.00000000000E+00  0.00000000000E+00  0.17310101496E+04  0.17310101496E+04  0.50400001928E-02 0.  1.
        1   -1    0    0  501    0  0.00000000000E+00  0.00000000000E+00 -0.13848108624E+04  0.13848108624E+04  0.50400001928E-02 0. -1.
    10030    2    1    2    0    0  0.00000000000E+00  0.00000000000E+00  0.34619928721E+03  0.31158210120E+04  0.30965281578E+04 0.  0.
        4    1    3    3  502    0  0.12926139217E+04 -0.45444786150E+03 -0.55232654173E+03  0.14773083060E+04  0.12699999809E+01 0. -1.
       -4    1    3    3    0  502 -0.12926139217E+04  0.45444786150E+03  0.89852582894E+03  0.16385127060E+04  0.12699999809E+01 0.  1.
</event>
<event>
 5   0  0.1237580E-06  0.3115472E+04  0.7818609E-02  0.8211505E-01
       -2   -1    0    0    0  501  0.00000000000E+00  0.00000000000E+00  0.13329494696E+04  0.13329494696E+04  0.25500000920E-02 0. -1.
        2   -1    0    0  501    0  0.00000000000E+00  0.00000000000E+00 -0.18204299900E+04  0.18204299900E+04  0.25500000920E-02 0.  1.
    10030    2    1    2    0    0  0.00000000000E+00  0.00000000000E+00 -0.48748052042E+03  0.31533794596E+04  0.31154718356E+04 0.  0.
        4    1    3    3  502    0  0.35849484623E+03 -0.71392459577E+03 -0.15972973032E+04  0.17859359370E+04  0.12699999809E+01 0.  1.
       -4    1    3    3    0  502 -0.35849484623E+03  0.71392459577E+03  0.11098167828E+04  0.13674435226E+04  0.12699999809E+01 0. -1.
</event>
<event>
 5   0  0.1193123E-06  0.3091987E+04  0.7818609E-02  0.8217941E-01
        2   -1    0    0  501    0  0.00000000000E+00  0.00000000000E+00  0.11653072539E+04  0.11653072539E+04  0.25500000920E-02 0.  1.
       -2   -1    0    0    0  501  0.00000000000E+00  0.00000000000E+00 -0.20510429493E+04  0.20510429493E+04  0.25500000920E-02 0. -1.
    10030    2    1    2    0    0  0.00000000000E+00  0.00000000000E+00 -0.88573569540E+03  0.32163502032E+04  0.30919865632E+04 0.  0.
        3    1    3    3  502    0  0.44799602500E+03  0.14521172507E+03  0.10888763753E+04  0.11863551974E+04  0.10100000352E+00 0.  1.
       -3    1    3    3    0  502 -0.44799602500E+03 -0.14521172507E+03 -0.19746120707E+04  0.20299950058E+04  0.10100000352E+00 0. -1.
</event>
<event>
 5   0  0.3935852E-07  0.3095631E+04  0.7818609E-02  0.8216938E-01
        1   -1    0    0  501    0  0.00000000000E+00  0.00000000000E+00  0.13021996725E+04  0.13021996725E+04  0.50400001928E-02 0. -1.
       -1   -1    0    0    0  501  0.00000000000E+00  0.00000000000E+00 -0.18397588447E+04  0.18397588447E+04  0.50400001928E-02 0.  1.
    10030    2    1    2    0    0  0.00000000000E+00  0.00000000000E+00 -0.53755917222E+03  0.31419585172E+04  0.30956313508E+04 0.  0.
        5    1    3    3  502    0  0.69440639574E+02 -0.15415759778E+04 -0.14684520905E+03  0.15501174482E+04  0.46999998093E+01 0. -1.
       -5    1    3    3    0  502 -0.69440639574E+02  0.15415759778E+04 -0.39071396316E+03  0.15918410690E+04  0.46999998093E+01 0.  1.
</event>
<event>
 5   0  0.1176002E-06  0.3094046E+04  0.7818609E-02  0.8217374E-01
       -2   -1    0    0    0  501  0.00000000000E+00  0.00000000000E+00  0.15725919793E+04  0.15725919793E+04  0.25500000920E-02 0.  1.
        2   -1    0    0  501    0  0.00000000000E+00  0.00000000000E+00 -0.15218698082E+04  0.15218698082E+04  0.25500000920E-02 0. -1.
    10030    2    1    2    0    0  0.00000000000E+00  0.00000000000E+00  0.50722171110E+02  0.30944617875E+04  0.30940460591E+04 0.  0.
        2    1    3    3  502    0  0.10772480759E+04 -0.89491152547E+03 -0.63195640503E+03  0.15364566226E+04  0.25500000920E-02 0. -1.
       -2    1    3    3    0  502 -0.10772480759E+04  0.89491152547E+03  0.68267857614E+03  0.15580051648E+04  0.25500000920E-02 0.  1.
</event>
<event>
 5   0  0.3902375E-07  0.3108223E+04  0.7818609E-02  0.8213485E-01
        3   -1    0    0  501    0  0.00000000000E+00  0.00000000000E+00  0.11911022532E+04  0.11911022575E+04  0.10100000352E+00 0.  1.
       -3   -1    0    0    0  501  0.00000000000E+00  0.00000000000E+00 -0.20277547837E+04  0.20277547862E+04  0.10100000352E+00 0. -1.
    10030    2    1    2    0    0  0.00000000000E+00  0.00000000000E+00 -0.83665253052E+03  0.32188570437E+04  0.31082234815E+04 0.  0.
        4    1    3    3  502    0  0.32866441116E+03  0.14515517071E+04 -0.88173458380E+03  0.17298786497E+04  0.12699999809E+01 0. -1.
       -4    1    3    3    0  502 -0.32866441116E+03 -0.14515517071E+04  0.45082053278E+02  0.14889783940E+04  0.12699999809E+01 0.  1.
</event>
<event>
 5   0  0.1176002E-06  0.3098915E+04  0.7818609E-02  0.8216036E-01
        2   -1    0    0  501    0  0.00000000000E+00  0.00000000000E+00  0.18512683628E+04  0.18512683628E+04  0.25500000920E-02 0.  1.
       -2   -1    0    0    0  501  0.00000000000E+00  0.00000000000E+00 -0.12968505435E+04  0.12968505435E+04  0.25500000920E-02 0. -1.
    10030    2    1    2    0    0  0.00000000000E+00  0.00000000000E+00  0.55441781925E+03  0.31481189063E+04  0.30989148955E+04 0.  0.
        2    1    3    3  502    0 -0.11665379813E+03  0.44257002474E+02 -0.12917391817E+04  0.12977507097E+04  0.25500000920E-02 0. -1.
       -2    1    3    3    0  502  0.11665379813E+03 -0.44257002474E+02  0.18461570010E+04  0.18503681966E+04  0.25500000920E-02 0.  1.
</event>
<event>
 5   0  0.4173905E-07  0.3100976E+04  0.7818609E-02  0.8215470E-01
        1   -1    0    0  501    0  0.00000000000E+00  0.00000000000E+00  0.13716327180E+04  0.13716327180E+04  0.50400001928E-02 0.  1.
       -1   -1    0    0    0  501  0.00000000000E+00  0.00000000000E+00 -0.17526656910E+04  0.17526656910E+04  0.50400001928E-02 0. -1.
    10030    2    1    2    0    0  0.00000000000E+00  0.00000000000E+00 -0.38103297296E+03  0.31242984090E+04  0.31009763660E+04 0.  0.
        3    1    3    3  502    0 -0.12632145477E+04  0.81628894398E+03  0.18911299494E+03  0.15158503780E+04  0.10100000352E+00 0.  1.
       -3    1    3    3    0  502  0.12632145477E+04 -0.81628894398E+03 -0.57014596791E+03  0.16084480310E+04  0.10100000352E+00 0. -1.
</event>
<event>
 5   0  0.1193123E-06  0.3101186E+04  0.7818609E-02  0.8215413E-01
       -2   -1    0    0    0  501  0.00000000000E+00  0.00000000000E+00  0.14979801139E+04  0.14979801139E+04  0.25500000920E-02 0. -1.
        2   -1    0    0  501    0  0.00000000000E+00  0.00000000000E+00 -0.16050534243E+04  0.16050534243E+04  0.25500000920E-02 0.  1.
    10030    2    1    2    0    0  0.00000000000E+00  0.00000000000E+00 -0.10707331037E+03  0.31030335381E+04  0.31011856515E+04 0.  0.
        3    1    3    3  502    0  0.39691265302E+03  0.14864173249E+04  0.13987100222E+03  0.15448430423E+04  0.10100000352E+00 0.  1.
       -3    1    3    3    0  502 -0.39691265302E+03 -0.14864173249E+04 -0.24694431259E+03  0.15581904959E+04  0.10100000352E+00 0. -1.
</event>
<event>
 5   0  0.4219337E-07  0.3100130E+04  0.7818609E-02  0.8215702E-01
        1   -1    0    0  501    0  0.00000000000E+00  0.00000000000E+00  0.19494150079E+04  0.19494150079E+04  0.50400001928E-02 0. -1.
       -1   -1    0    0    0  501  0.00000000000E+00  0.00000000000E+00 -0.12325243576E+04  0.12325243576E+04  0.50400001928E-02 0.  1.
    10030    2    1    2    0    0  0.00000000000E+00  0.00000000000E+00  0.71689065036E+03  0.31819393655E+04  0.31001299846E+04 0.  0.
        4    1    3    3  502    0  0.53539071013E+02 -0.82480175368E+03  0.17043601271E+04  0.18942041655E+04  0.12699999809E+01 0. -1.
       -4    1    3    3    0  502 -0.53539071013E+02  0.82480175368E+03 -0.98746947671E+03  0.12877352000E+04  0.12699999809E+01 0.  1.
</event>
<event>
 5   0  0.4330395E-07  0.3089070E+04  0.7818609E-02  0.8218744E-01
        1   -1    0    0  501    0  0.00000000000E+00  0.00000000000E+00  0.13953851530E+04  0.13953851530E+04  0.50400001928E-02 0. -1.
       -1   -1    0    0    0  501  0.00000000000E+00  0.00000000000E+00 -0.17096274069E+04  0.17096274069E+04  0.50400001928E-02 0.  1.
    10030    2    1    2    0    0  0.00000000000E+00  0.00000000000E+00 -0.31424225385E+03  0.31050125599E+04  0.30890702166E+04 0.  0.
        1    1    3    3  502    0  0.73023783214E+03 -0.13560252971E+04 -0.27406935146E+03  0.15643420046E+04  0.50400001928E-02 0.  1.
       -1    1    3    3    0  502 -0.73023783214E+03  0.13560252971E+04 -0.40172902392E+02  0.15406705553E+04  0.50400001928E-02 0. -1.
</event>
<event>
 5   0  0.1176002E-06  0.3082303E+04  0.7818609E-02  0.8220612E-01
       -2   -1    0    0    0  501  0.00000000000E+00  0.00000000000E+00  0.11427037868E+04  0.11427037868E+04  0.25500000920E-02 0.  1.
        2   -1    0    0  501    0  0.00000000000E+00  0.00000000000E+00 -0.20785332514E+04  0.20785332514E+04  0.25500000920E-02 0. -1.
    10030    2    1    2    0    0  0.00000000000E+00  0.00000000000E+00 -0.93582946466E+03  0.32212370382E+04  0.30823029166E+04 0.  0.
        2    1    3    3  502    0  0.86879989739E+03  0.16393598983E+03 -0.17871367410E+04  0.19938771280E+04  0.25500000920E-02 0. -1.
       -2    1    3    3    0  502 -0.86879989739E+03 -0.16393598983E+03  0.85130727634E+03  0.12273599102E+04  0.25500000920E-02 0.  1.
</event>
<event>
 5   0  0.3935852E-07  0.3102280E+04  0.7818609E-02  0.8215112E-01
        1   -1    0    0  501    0  0.00000000000E+00  0.00000000000E+00  0.14335776832E+04  0.14335776832E+04  0.50400001928E-02 0. -1.
       -1   -1    0    0    0  501  0.00000000000E+00  0.00000000000E+00 -0.16783434333E+04  0.16783434333E+04  0.50400001928E-02 0.  1.
    10030    2    1    2    0    0  0.00000000000E+00  0.00000000000E+00 -0.24476575013E+03  0.31119211165E+04  0.31022802522E+04 0.  0.
        5    1    3    3  502    0  0.90405123846E+03 -0.77237051790E+03 -0.11215449572E+04  0.16345488795E+04  0.46999998093E+01 0.  1.
       -5    1    3    3    0  502 -0.90405123846E+03  0.77237051790E+03  0.87677920703E+03  0.14773722370E+04  0.46999998093E+01 0. -1.
</event>
<event>
 5   0  0.1237580E-06  0.3071384E+04  0.7818609E-02  0.8223635E-01
        2   -1    0    0  501    0  0.00000000000E+00  0.00000000000E+00  0.16809724834E+04  0.16809724834E+04  0.25500000920E-02 0. -1.
       -2   -1    0    0    0  501  0.00000000000E+00  0.00000000000E+00 -0.14029680462E+04  0.14029680462E+04  0.25500000920E-02 0.  1.
    10030    2    1    2    0    0  0.00000000000E+00  0.00000000000E+00  0.27800443725E+03  0.30839405296E+04  0.30713844961E+04 0.  0.
        4    1    3    3  502    0  0.20182484512E+03  0.68071074775E+03  0.15062769758E+04  0.16652244086E+04  0.12699999809E+01 0. -1.
       -4    1    3    3    0  502 -0.20182484512E+03 -0.68071074775E+03 -0.12282725386E+04  0.14187161210E+04  0.12699999809E+01 0.  1.
</event>
<event>
 5   0  0.1193123E-06  0.3025553E+04  0.7818609E-02  0.8236472E-01
       -2   -1    0    0    0  501  0.00000000000E+00  0.00000000000E+00  0.10469421359E+04  0.10469421359E+04  0.25500000920E-02 0. -1.
        2   -1    0    0  501    0  0.00000000000E+00  0.00000000000E+00 -0.21858825117E+04  0.21858825117E+04  0.25500000920E-02 0.  1.
    10030    2    1    2    0    0  0.00000000000E+00  0.00000000000E+00 -0.11389403758E+04  0.32328246475E+04  0.30255528457E+04 0.  0.
        3    1    3    3  502    0 -0.75733722539E+03 -0.11826672223E+04  0.31398634348E+02  0.14047232169E+04  0.10100000352E+00 0. -1.
       -3    1    3    3    0  502  0.75733722539E+03  0.11826672223E+04 -0.11703390101E+04  0.18281014306E+04  0.10100000352E+00 0.  1.
</event>
<event>
 5   0  0.1200286E-06  0.3099309E+04  0.7818609E-02  0.8215927E-01
        2   -1    0    0  501    0  0.00000000000E+00  0.00000000000E+00  0.25107975228E+04  0.25107975228E+04  0.25500000920E-02 0.  1.
       -2   -1    0    0    0  501  0.00000000000E+00  0.00000000000E+00 -0.95644100271E+03  0.95644100271E+03  0.25500000920E-02 0. -1.
    10030    2    1    2    0    0  0.00000000000E+00  0.00000000000E+00  0.15543565200E+04  0.34672385255E+04  0.30993094071E+04 0.  0.
        5    1    3    3  502    0  0.18786312506E+03  0.15261256620E+04  0.99252844236E+03  0.18301603451E+04  0.46999998093E+01 0.  1.
       -5    1    3    3    0  502 -0.18786312506E+03 -0.15261256620E+04  0.56182807768E+03  0.16370781804E+04  0.46999998093E+01 0. -1.
</event>
<event>
 5   0  0.4219337E-07  0.3123928E+04  0.7818609E-02  0.8209201E-01
       -1   -1    0    0    0  501  0.00000000000E+00  0.00000000000E+00  0.10938091670E+04  0.10938091670E+04  0.50400001928E-02 0. -1.
        1   -1    0    0  501    0  0.00000000000E+00  0.00000000000E+00 -0.22304916404E+04  0.22304916404E+04  0.50400001928E-02 0.  1.
    10030    2    1    2    0    0  0.00000000000E+00  0.00000000000E+00 -0.11366824734E+04  0.33243008074E+04  0.31239284263E+04 0.  0.
        4    1    3    3  502    0 -0.13885235094E+04  0.64219277903E+03 -0.90370864151E+03  0.17768230140E+04  0.12699999809E+01 0.  1.
       -4    1    3    3    0  502  0.13885235094E+04 -0.64219277903E+03 -0.23297383192E+03  0.15474777933E+04  0.12699999809E+01 0. -1.
</event>
<event>
 5   0  0.4173905E-07  0.3091472E+04  0.7818609E-02  0.8218082E-01
       -1   -1    0    0    0  501  0.00000000000E+00  0.00000000000E+00  0.10920369952E+04  0.10920369952E+04  0.50400001928E-02 0. -1.
        1   -1    0    0  501    0  0.00000000000E+00  0.00000000000E+00 -0.21879287087E+04  0.21879287087E+04  0.50400001928E-02 0.  1.
    10030    2    1    2    0    0  0.00000000000E+00  0.00000000000E+00 -0.10958917135E+04  0.32799657039E+04  0.30914715543E+04 0.  0.
        3    1    3    3  502    0  0.14572692017E+04 -0.22142034349E+03 -0.54122126331E+02  0.14749880371E+04  0.10100000352E+00 0. -1.
       -3    1    3    3    0  502 -0.14572692017E+04  0.22142034349E+03 -0.10417695872E+04  0.18049776668E+04  0.10100000352E+00 0.  1.
</event>
<event>
 5   0  0.3935852E-07  0.3107154E+04  0.7818609E-02  0.8213777E-01
        1   -1    0    0  501    0  0.00000000000E+00  0.00000000000E+00  0.17289003750E+04  0.17289003750E+04  0.50400001928E-02 0.  1.
       -1   -1    0    0    0  501  0.00000000000E+00  0.00000000000E+00 -0.13960325215E+04  0.13960325215E+04  0.50400001928E-02 0. -1.
    10030    2    1    2    0    0  0.00000000000E+00  0.00000000000E+00  0.33286785347E+03  0.31249328965E+04  0.31071537780E+04 0.  0.
        5    1    3    3  502    0  0.12130383015E+03  0.29298728012E+02 -0.13909765189E+04  0.13965710869E+04  0.46999998093E+01 0. -1.
       -5    1    3    3    0  502 -0.12130383015E+03 -0.29298728012E+02  0.17238443724E+04  0.17283618096E+04  0.46999998093E+01 0.  1.
</event>
<event>
 5   0  0.1237580E-06  0.3098717E+04  0.7818609E-02  0.8216090E-01
        2   -1    0    0  501    0  0.00000000000E+00  0.00000000000E+00  0.16625788985E+04  0.16625788985E+04  0.25500000920E-02 0. -1.
       -2   -1    0    0    0  501  0.00000000000E+00  0.00000000000E+00 -0.14438484164E+04  0.14438484164E+04  0.25500000920E-02 0.  1.
    10030    2    1    2    0    0  0.00000000000E+00  0.00000000000E+00  0.21873048207E+03  0.31064273149E+04  0.30987170956E+04 0.  0.
        4    1    3    3  502    0 -0.48352413115E+03 -0.13897475232E+04 -0.37693612423E+03  0.15189720927E+04  0.12699999809E+01 0.  1.
       -4    1    3    3    0  502  0.48352413115E+03  0.13897475232E+04  0.59566660630E+03  0.15874552222E+04  0.12699999809E+01 0. -1.
</event>
<event>
 5   0  0.1258262E-06  0.3105894E+04  0.7818609E-02  0.8214122E-01
       -2   -1    0    0    0  501  0.00000000000E+00  0.00000000000E+00  0.10412716022E+04  0.10412716022E+04  0.25500000920E-02 0. -1.
        2   -1    0    0  501    0  0.00000000000E+00  0.00000000000E+00 -0.23160574782E+04  0.23160574782E+04  0.25500000920E-02 0.  1.
    10030    2    1    2    0    0  0.00000000000E+00  0.00000000000E+00 -0.12747858760E+04  0.33573290803E+04  0.31058943195E+04 0.  0.
        1    1    3    3  502    0  0.73366691753E+03  0.65286592567E+03  0.66296551355E+03  0.11849153282E+04  0.50400001928E-02 0. -1.
       -1    1    3    3    0  502 -0.73366691753E+03 -0.65286592567E+03 -0.19377513895E+04  0.21724137521E+04  0.50400001928E-02 0.  1.
</event>
<event>
 5   0  0.1200286E-06  0.3086473E+04  0.7818609E-02  0.8219460E-01
        2   -1    0    0  501    0  0.00000000000E+00  0.00000000000E+00  0.20836902198E+04  0.20836902198E+04  0.25500000920E-02 0.  1.
       -2   -1    0    0    0  501  0.00000000000E+00  0.00000000000E+00 -0.11429617824E+04  0.11429617824E+04  0.25500000920E-02 0. -1.
    10030    2    1    2    0    0  0.00000000000E+00  0.00000000000E+00  0.94072843731E+03  0.32266520022E+04  0.30864726065E+04 0.  0.
        5    1    3    3  502    0 -0.88813634537E+03  0.66452148147E+03  0.15920250436E+04  0.19403455354E+04  0.46999998093E+01 0.  1.
       -5    1    3    3    0  502  0.88813634537E+03 -0.66452148147E+03 -0.65129660625E+03  0.12863064668E+04  0.46999998093E+01 0. -1.
</event>
<event>
 5   0  0.1237580E-06  0.3102349E+04  0.7818609E-02  0.8215094E-01
        2   -1    0    0  501    0  0.00000000000E+00  0.00000000000E+00  0.19211565778E+04  0.19211565778E+04  0.25500000920E-02 0. -1.
       -2   -1    0    0    0  501  0.00000000000E+00  0.00000000000E+00 -0.12524443617E+04  0.12524443617E+04  0.25500000920E-02 0.  1.
    10030    2    1    2    0    0  0.00000000000E+00  0.00000000000E+00  0.66871221604E+03  0.31736009395E+04  0.31023486096E+04 0.  0.
        4    1    3    3  502    0 -0.13818131178E+04 -0.59425484109E+03  0.72199698388E+03  0.16684806161E+04  0.12699999809E+01 0.  1.
       -4    1    3    3    0  502  0.13818131178E+04  0.59425484109E+03 -0.53284767838E+02  0.15051203234E+04  0.12699999809E+01 0. -1.
</event>
<event>
 5   0  0.1176002E-06  0.3139373E+04  0.7818609E-02  0.8205015E-01
        2   -1    0    0  501    0  0.00000000000E+00  0.00000000000E+00  0.17402934152E+04  0.17402934152E+04  0.25500000920E-02 0. -1.
       -2   -1    0    0    0  501  0.00000000000E+00  0.00000000000E+00 -0.14158050752E+04  0.14158050752E+04  0.25500000920E-02 0.  1.
    10030    2    1    2    0    0  0.00000000000E+00  0.00000000000E+00  0.32448834002E+03  0.31560984904E+04  0.31393733449E+04 0.  0.
        2    1    3    3  502    0 -0.10201383228E+04 -0.10298854705E+04  0.76758991789E+03  0.16402867316E+04  0.25500000920E-02 0.  1.
       -2    1    3    3    0  502  0.10201383228E+04  0.10298854705E+04 -0.44310157787E+03  0.15158117588E+04  0.25500000920E-02 0. -1.
</event>
<event>
 5   0  0.1200286E-06  0.3098875E+04  0.7818609E-02  0.8216047E-01
       -2   -1    0    0    0  501  0.00000000000E+00  0.00000000000E+00  0.10307759050E+04  0.10307759050E+04  0.25500000920E-02 0. -1.
        2   -1    0    0  501    0  0.00000000000E+00  0.00000000000E+00 -0.23290767094E+04  0.23290767094E+04  0.25500000920E-02 0.  1.
    10030    2    1    2    0    0  0.00000000000E+00  0.00000000000E+00 -0.12983008045E+04  0.33598526144E+04  0.30988747332E+04 0.  0.
        5    1    3    3  502    0 -0.25380017745E+03  0.14315723493E+04 -0.12299104390E+04  0.19043412770E+04  0.46999998093E+01 0.  1.
       -5    1    3    3    0  502  0.25380017745E+03 -0.14315723493E+04 -0.68390365503E+02  0.14555113374E+04  0.46999998093E+01 0. -1.
</event>
<event>
 5   0  0.1200286E-06  0.3090704E+04  0.7818609E-02  0.8218294E-01
       -2   -1    0    0    0  501  0.00000000000E+00  0.00000000000E+00  0.97645806659E+03  0.97645806660E+03  0.25500000920E-02 0.  1.
        2   -1    0    0  501    0  0.00000000000E+00  0.00000000000E+00 -0.24456898216E+04  0.24456898216E+04  0.25500000920E-02 0. -1.
    10030    2    1    2    0    0  0.00000000000E+00  0.00000000000E+00 -0.14692317550E+04  0.34221478882E+04  0.30907044858E+04 0.  0.
        5    1    3    3  502    0 -0.12576866174E+04  0.33334606436E+03 -0.16578141815E+04  0.21074309423E+04  0.46999998093E+01 0. -1.
       -5    1    3    3    0  502  0.12576866174E+04 -0.33334606436E+03  0.18858242654E+03  0.13147169459E+04  0.46999998093E+01 0.  1.
</event>
<event>
 5   0  0.4134019E-07  0.3085148E+04  0.7818609E-02  0.8219826E-01
        1   -1    0    0  501    0  0.00000000000E+00  0.00000000000E+00  0.17973078263E+04  0.17973078263E+04  0.50400001928E-02 0.  1.
       -1   -1    0    0    0  501  0.00000000000E+00  0.00000000000E+00 -0.13239433858E+04  0.13239433858E+04  0.50400001928E-02 0. -1.
    10030    2    1    2    0    0  0.00000000000E+00  0.00000000000E+00  0.47336444051E+03  0.31212512122E+04  0.30851475226E+04 0.  0.
        2    1    3    3  502    0  0.12920350416E+04 -0.11289571442E+03  0.10815802347E+04  0.16887616159E+04  0.25500000920E-02 0.  1.
       -2    1    3    3    0  502 -0.12920350416E+04  0.11289571442E+03 -0.60821579423E+03  0.14324895963E+04  0.25500000920E-02 0. -1.
</event>
<event>
 5   0  0.4134019E-07  0.3069319E+04  0.7818609E-02  0.8224209E-01
       -1   -1    0    0    0  501  0.00000000000E+00  0.00000000000E+00  0.95554491657E+03  0.95554491658E+03  0.50400001928E-02 0. -1.
        1   -1    0    0  501    0  0.00000000000E+00  0.00000000000E+00 -0.24647499757E+04  0.24647499757E+04  0.50400001928E-02 0.  1.
    10030    2    1    2    0    0  0.00000000000E+00  0.00000000000E+00 -0.15092050591E+04  0.34202948923E+04  0.30693186931E+04 0.  0.
        2    1    3    3  502    0 -0.55637987963E+03 -0.19300189928E+03 -0.23338258150E+04  0.24069796922E+04  0.25500000920E-02 0.  1.
       -2    1    3    3    0  502  0.55637987963E+03  0.19300189928E+03  0.82462075594E+03  0.10133152001E+04  0.25500000920E-02 0. -1.
</event>
<event>
 5   0  0.4134019E-07  0.3153421E+04  0.7818609E-02  0.8201228E-01
       -1   -1    0    0    0  501  0.00000000000E+00  0.00000000000E+00  0.11915160356E+04  0.11915160357E+04  0.50400001928E-02 0.  1.
        1   -1    0    0  501    0  0.00000000000E+00  0.00000000000E+00 -0.20864315005E+04  0.20864315005E+04  0.50400001928E-02 0. -1.
    10030    2    1    2    0    0  0.00000000000E+00  0.00000000000E+00 -0.89491546483E+03  0.32779475361E+04  0.31534213738E+04 0.  0.
        2    1    3    3  502    0  0.65242206204E+03  0.33513855294E+03 -0.18982973092E+04  0.20350688123E+04  0.25500000920E-02 0. -1.
       -2    1    3    3    0  502 -0.65242206204E+03 -0.33513855294E+03  0.10033818443E+04  0.12428787239E+04  0.25500000920E-02 0.  1.
</event>
<event>
 5   0  0.3935852E-07  0.3046857E+04  0.7818609E-02  0.8230476E-01
       -1   -1    0    0    0  501  0.00000000000E+00  0.00000000000E+00  0.27030028964E+04  0.27030028964E+04  0.50400001928E-02 0.  1.
        1   -1    0    0  501    0  0.00000000000E+00  0.00000000000E+00 -0.85861356172E+03  0.85861356174E+03  0.50400001928E-02 0. -1.
    10030    2    1    2    0    0  0.00000000000E+00  0.00000000000E+00  0.18443893346E+04  0.35616164581E+04  0.30468573608E+04 0.  0.
        5    1    3    3  502    0  0.22090063890E+03 -0.81687563914E+03  0.24029933036E+04  0.25476424021E+04  0.46999998093E+01 0.  1.
       -5    1    3    3    0  502 -0.22090063890E+03  0.81687563914E+03 -0.55860396893E+03  0.10139740560E+04  0.46999998093E+01 0. -1.
</event>
<event>
 5   0  0.1193123E-06  0.3101413E+04  0.7818609E-02  0.8215350E-01
        2   -1    0    0  501    0  0.00000000000E+00  0.00000000000E+00  0.13759756086E+04  0.13759756086E+04  0.25500000920E-02 0. -1.
       -2   -1    0    0    0  501  0.00000000000E+00  0.00000000000E+00 -0.17476261500E+04  0.17476261500E+04  0.25500000920E-02 0.  1.
    10030    2    1    2    0    0  0.00000000000E+00  0.00000000000E+00 -0.37165054143E+03  0.31236017586E+04  0.31014131975E+04 0.  0.
        3    1    3    3  502    0  0.69777606555E+03 -0.11741318833E+04 -0.92539059204E+03  0.16497954040E+04  0.10100000352E+00 0.  1.
       -3    1    3    3    0  502 -0.69777606555E+03  0.11741318833E+04  0.55374005061E+03  0.14738063546E+04  0.10100000352E+00 0. -1.
</event>
<event>
 5   0  0.4173905E-07  0.3051972E+04  0.7818609E-02  0.8229044E-01
        1   -1    0    0  501    0  0.00000000000E+00  0.00000000000E+00  0.25063182392E+04  0.25063182392E+04  0.50400001928E-02 0. -1.
       -1   -1    0    0    0  501  0.00000000000E+00  0.00000000000E+00 -0.92910530690E+03  0.92910530691E+03  0.50400001928E-02 0.  1.
    10030    2    1    2    0    0  0.00000000000E+00  0.00000000000E+00  0.15772129323E+04  0.34354235461E+04  0.30519721996E+04 0.  0.
        3    1    3    3  502    0 -0.61778304870E+03 -0.13195994149E+04  0.12990506870E+04  0.19520581980E+04  0.10100000352E+00 0. -1.
       -3    1    3    3    0  502  0.61778304870E+03  0.13195994149E+04  0.27816224530E+03  0.14833653481E+04  0.10100000352E+00 0.  1.
</event>
<event>
 5   0  0.4134019E-07  0.3100147E+04  0.7818609E-02  0.8215698E-01
        1   -1    0    0  501    0  0.00000000000E+00  0.00000000000E+00  0.19889257177E+04  0.19889257177E+04  0.50400001928E-02 0. -1.
       -1   -1    0    0    0  501  0.00000000000E+00  0.00000000000E+00 -0.12080531103E+04  0.12080531103E+04  0.50400001928E-02 0.  1.
    10030    2    1    2    0    0  0.00000000000E+00  0.00000000000E+00  0.78087260743E+03  0.31969788280E+04  0.31001470284E+04 0.  0.
        2    1    3    3  502    0 -0.11354615388E+03 -0.15396251980E+04  0.24684111805E+03  0.15634158170E+04  0.25500000920E-02 0. -1.
       -2    1    3    3    0  502  0.11354615388E+03  0.15396251980E+04  0.53403148938E+03  0.16335630110E+04  0.25500000920E-02 0.  1.
</event>
<event>
 5   0  0.3935852E-07  0.3108227E+04  0.7818609E-02  0.8213484E-01
       -1   -1    0    0    0  501  0.00000000000E+00  0.00000000000E+00  0.94274890680E+03  0.94274890681E+03  0.50400001928E-02 0.  1.
        1   -1    0    0  501    0  0.00000000000E+00  0.00000000000E+00 -0.25619420680E+04  0.25619420680E+04  0.50400001928E-02 0. -1.
    10030    2    1    2    0    0  0.00000000000E+00  0.00000000000E+00 -0.16191931612E+04  0.35046909748E+04  0.31082265580E+04 0.  0.
        5    1    3    3  502    0 -0.13614189263E+04 -0.64560600663E+03 -0.38027057626E+03  0.15539936969E+04  0.46999998093E+01 0.  1.
       -5    1    3    3    0  502  0.13614189263E+04  0.64560600663E+03 -0.12389225850E+04  0.19506972780E+04  0.46999998093E+01 0. -1.
</event>
<event>
 5   0  0.1176002E-06  0.3100949E+04  0.7818609E-02  0.8215478E-01
       -2   -1    0    0    0  501  0.00000000000E+00  0.00000000000E+00  0.22507082880E+04  0.22507082880E+04  0.25500000920E-02 0.  1.
        2   -1    0    0  501    0  0.00000000000E+00  0.00000000000E+00 -0.10680952286E+04  0.10680952287E+04  0.25500000920E-02 0. -1.
    10030    2    1    2    0    0  0.00000000000E+00  0.00000000000E+00  0.11826130593E+04  0.33188035166E+04  0.31009487474E+04 0.  0.
        2    1    3    3  502    0 -0.10346457927E+04  0.76360977956E+03 -0.33579496420E+03  0.13290410339E+04  0.25500000920E-02 0. -1.
       -2    1    3    3    0  502  0.10346457927E+04 -0.76360977956E+03  0.15184080235E+04  0.19897624827E+04  0.25500000920E-02 0.  1.
</event>
<event>
 5   0  0.1237580E-06  0.3106862E+04  0.7818609E-02  0.8213857E-01
       -2   -1    0    0    0  501  0.00000000000E+00  0.00000000000E+00  0.22178050810E+04  0.22178050810E+04  0.25500000920E-02 0.  1.
        2   -1    0    0  501    0  0.00000000000E+00  0.00000000000E+00 -0.10880794544E+04  0.10880794544E+04  0.25500000920E-02 0. -1.
    10030    2    1    2    0    0  0.00000000000E+00  0.00000000000E+00  0.11297256266E+04  0.33058845353E+04  0.31068621742E+04 0.  0.
        4    1    3    3  502    0 -0.71332788341E+03 -0.12943524837E+04  0.55711425451E+02  0.14789490853E+04  0.12699999809E+01 0.  1.
       -4    1    3    3    0  502  0.71332788341E+03  0.12943524837E+04  0.10740142011E+04  0.18269354500E+04  0.12699999809E+01 0. -1.
</event>
<event>
 5   0  0.4173905E-07  0.3099133E+04  0.7818609E-02  0.8215976E-01
        1   -1    0    0  501    0  0.00000000000E+00  0.00000000000E+00  0.19019120045E+04  0.19019120045E+04  0.50400001928E-02 0. -1.
       -1   -1    0    0    0  501  0.00000000000E+00  0.00000000000E+00 -0.12624959756E+04  0.12624959756E+04  0.50400001928E-02 0.  1.
    10030    2    1    2    0    0  0.00000000000E+00  0.00000000000E+00  0.63941602890E+03  0.31644079800E+04  0.30991329442E+04 0.  0.
        3    1    3    3  502    0 -0.55438482669E+03 -0.60294863588E+03 -0.10233933263E+04  0.13108102471E+04  0.10100000352E+00 0.  1.
       -3    1    3    3    0  502  0.55438482669E+03  0.60294863588E+03  0.16628093552E+04  0.18535977329E+04  0.10100000352E+00 0. -1.
</event>
<event>
 5   0  0.1176002E-06  0.3099872E+04  0.7818609E-02  0.8215773E-01
       -2   -1    0    0    0  501  0.00000000000E+00  0.00000000000E+00  0.11383274446E+04  0.11383274446E+04  0.25500000920E-02 0. -1.
        2   -1    0    0  501    0  0.00000000000E+00  0.00000000000E+00 -0.21103789345E+04  0.21103789345E+04  0.25500000920E-02 0.  1.
    10030    2    1    2    0    0  0.00000000000E+00  0.00000000000E+00 -0.97205148989E+03  0.32487063790E+04  0.30998724229E+04 0.  0.
        2    1    3    3  502    0  0.28977996815E+02 -0.49646818276E+03  0.10524422002E+04  0.11640253286E+04  0.25500000920E-02 0. -1.
       -2    1    3    3    0  502 -0.28977996815E+02  0.49646818276E+03 -0.20244936901E+04  0.20846810504E+04  0.25500000920E-02 0.  1.
</event>
<event>
 5   0  0.3935852E-07  0.3104069E+04  0.7818609E-02  0.8214622E-01
       -1   -1    0    0    0  501  0.00000000000E+00  0.00000000000E+00  0.17344026936E+04  0.17344026936E+04  0.50400001928E-02 0. -1.
        1   -1    0    0  501    0  0.00000000000E+00  0.00000000000E+00 -0.13888421996E+04  0.13888421996E+04  0.50400001928E-02 0.  1.
    10030    2    1    2    0    0  0.00000000000E+00  0.00000000000E+00  0.34556049402E+03  0.31232448932E+04  0.31040693626E+04 0.  0.
        5    1    3    3  502    0  0.74706110520E+03 -0.83293332309E+03  0.12550229379E+04  0.16813633993E+04  0.46999998093E+01 0. -1.
       -5    1    3    3    0  502 -0.74706110520E+03  0.83293332309E+03 -0.90946244391E+03  0.14418814939E+04  0.46999998093E+01 0.  1.
</event>
<event>
 5   0  0.4219337E-07  0.3231623E+04  0.7818609E-02  0.8180515E-01
        1   -1    0    0  501    0  0.00000000000E+00  0.00000000000E+00  0.26666161562E+04  0.26666161562E+04  0.50400001928E-02 0. -1.
       -1   -1    0    0    0  501  0.00000000000E+00  0.00000000000E+00 -0.97908610970E+03  0.97908610971E+03  0.50400001928E-02 0.  1.
    10030    2    1    2    0    0  0.00000000000E+00  0.00000000000E+00  0.16875300465E+04  0.36457022659E+04  0.32316230216E+04 0.  0.
        4    1    3    3  502    0 -0.14243852170E+04 -0.85157762629E+02 -0.11476367517E+02  0.14269752663E+04  0.12699999809E+01 0.  1.
       -4    1    3    3    0  502  0.14243852170E+04  0.85157762629E+02  0.16990064140E+04  0.22187269995E+04  0.12699999809E+01 0. -1.
</event>
<event>
 5   0  0.4134019E-07  0.3100252E+04  0.7818609E-02  0.8215669E-01
        1   -1    0    0  501    0  0.00000000000E+00  0.00000000000E+00  0.22881923580E+04  0.22881923581E+04  0.50400001928E-02 0. -1.
       -1   -1    0    0    0  501  0.00000000000E+00  0.00000000000E+00 -0.10501260288E+04  0.10501260288E+04  0.50400001928E-02 0.  1.
    10030    2    1    2    0    0  0.00000000000E+00  0.00000000000E+00  0.12380663292E+04  0.33383183869E+04  0.31002518312E+04 0.  0.
        2    1    3    3  502    0 -0.30138845378E+02 -0.75354603706E+03 -0.83927145368E+03  0.11283246665E+04  0.25500000920E-02 0.  1.
       -2    1    3    3    0  502  0.30138845378E+02  0.75354603706E+03  0.20773377829E+04  0.22099937204E+04  0.25500000920E-02 0. -1.
</event>
<event>
 5   0  0.3935852E-07  0.3102506E+04  0.7818609E-02  0.8215050E-01
        1   -1    0    0  501    0  0.00000000000E+00  0.00000000000E+00  0.23507431122E+04  0.23507431122E+04  0.50400001928E-02 0. -1.
       -1   -1    0    0    0  501  0.00000000000E+00  0.00000000000E+00 -0.10236703415E+04  0.10236703415E+04  0.50400001928E-02 0.  1.
    10030    2    1    2    0    0  0.00000000000E+00  0.00000000000E+00  0.13270727707E+04  0.33744134537E+04  0.31025060866E+04 0.  0.
        5    1    3    3  502    0  0.10426134814E+04 -0.66755096898E+03 -0.35310084738E+03  0.12873886228E+04  0.46999998093E+01 0.  1.
       -5    1    3    3    0  502 -0.10426134814E+04  0.66755096898E+03  0.16801736181E+04  0.20870248309E+04  0.46999998093E+01 0. -1.
</event>
<event>
 5   0  0.4330395E-07  0.3092362E+04  0.7818609E-02  0.8217837E-01
       -1   -1    0    0    0  501  0.00000000000E+00  0.00000000000E+00  0.11198055018E+04  0.11198055018E+04  0.50400001928E-02 0. -1.
        1   -1    0    0  501    0  0.00000000000E+00  0.00000000000E+00 -0.21349028521E+04  0.21349028522E+04  0.50400001928E-02 0.  1.
    10030    2    1    2    0    0  0.00000000000E+00  0.00000000000E+00 -0.10150973504E+04  0.32547083539E+04  0.30923621777E+04 0.  0.
        1    1    3    3  502    0  0.88784725183E+02  0.32525472665E+03 -0.20957424470E+04  0.21226892775E+04  0.50400001928E-02 0.  1.
       -1    1    3    3    0  502 -0.88784725183E+02 -0.32525472665E+03  0.10806450966E+04  0.11320190764E+04  0.50400001928E-02 0. -1.
</event>
<event>
 5   0  0.1193123E-06  0.3084513E+04  0.7818609E-02  0.8220001E-01
        2   -1    0    0  501    0  0.00000000000E+00  0.00000000000E+00  0.94848215805E+03  0.94848215805E+03  0.25500000920E-02 0.  1.
       -2   -1    0    0    0  501  0.00000000000E+00  0.00000000000E+00 -0.25077496107E+04  0.25077496107E+04  0.25500000920E-02 0. -1.
    10030    2    1    2    0    0  0.00000000000E+00  0.00000000000E+00 -0.15592674526E+04  0.34562317687E+04  0.30845134220E+04 0.  0.
        3    1    3    3  502    0 -0.37147967037E+02  0.14588915796E+04 -0.22071185580E+03  0.14759601438E+04  0.10100000352E+00 0.  1.
       -3    1    3    3    0  502  0.37147967037E+02 -0.14588915796E+04 -0.13385555968E+04  0.19802716249E+04  0.10100000352E+00 0. -1.
</event>
<event>
 5   0  0.1193123E-06  0.3100323E+04  0.7818609E-02  0.8215649E-01
       -2   -1    0    0    0  501  0.00000000000E+00  0.00000000000E+00  0.15271020406E+04  0.15271020406E+04  0.25500000920E-02 0. -1.
        2   -1    0    0  501    0  0.00000000000E+00  0.00000000000E+00 -0.15735689970E+04  0.15735689970E+04  0.25500000920E-02 0.  1.
    10030    2    1    2    0    0  0.00000000000E+00  0.00000000000E+00 -0.46466956367E+02  0.31006710376E+04  0.31003228389E+04 0.  0.
        3    1    3    3  502    0  0.73938383623E+03 -0.13619310397E+04  0.14925778716E+02  0.15497636605E+04  0.10100000352E+00 0. -1.
       -3    1    3    3    0  502 -0.73938383623E+03  0.13619310397E+04 -0.61392735084E+02  0.15509073771E+04  0.10100000352E+00 0.  1.
</event>
<event>
 5   0  0.3935852E-07  0.3098724E+04  0.7818609E-02  0.8216088E-01
       -1   -1    0    0    0  501  0.00000000000E+00  0.00000000000E+00  0.27906777624E+04  0.27906777624E+04  0.50400001928E-02 0.  1.
        1   -1    0    0  501    0  0.00000000000E+00  0.00000000000E+00 -0.86019361630E+03  0.86019361631E+03  0.50400001928E-02 0. -1.
    10030    2    1    2    0    0  0.00000000000E+00  0.00000000000E+00  0.19304841461E+04  0.36508713787E+04  0.30987243804E+04 0.  0.
        5    1    3    3  502    0 -0.56840097596E+03 -0.62255856952E+03  0.24968114272E+04  0.26352890230E+04  0.46999998093E+01 0.  1.
       -5    1    3    3    0  502  0.56840097596E+03  0.62255856952E+03 -0.56632728106E+03  0.10155823557E+04  0.46999998093E+01 0. -1.
</event>
<event>
 5   0  0.4173905E-07  0.3102130E+04  0.7818609E-02  0.8215154E-01
        1   -1    0    0  501    0  0.00000000000E+00  0.00000000000E+00  0.20234951005E+04  0.20234951005E+04  0.50400001928E-02 0. -1.
       -1   -1    0    0    0  501  0.00000000000E+00  0.00000000000E+00 -0.11889339970E+04  0.11889339970E+04  0.50400001928E-02 0.  1.
    10030    2    1    2    0    0  0.00000000000E+00  0.00000000000E+00  0.83456110344E+03  0.32124290975E+04  0.31021296671E+04 0.  0.
        3    1    3    3  502    0  0.10587134821E+04  0.17644663457E+03  0.15768233327E+04  0.19074536651E+04  0.10100000352E+00 0. -1.
       -3    1    3    3    0  502 -0.10587134821E+04 -0.17644663457E+03 -0.74226222925E+03  0.13049754324E+04  0.10100000352E+00 0.  1.
</event>
<event>
 5   0  0.4173905E-07  0.3105608E+04  0.7818609E-02  0.8214201E-01
        1   -1    0    0  501    0  0.00000000000E+00  0.00000000000E+00  0.20236540102E+04  0.20236540102E+04  0.50400001928E-02 0.  1.
       -1   -1    0    0    0  501  0.00000000000E+00  0.00000000000E+00 -0.11915080894E+04  0.11915080894E+04  0.50400001928E-02 0. -1.
    10030    2    1    2    0    0  0.00000000000E+00  0.00000000000E+00  0.83214592078E+03  0.32151620996E+04  0.31056079105E+04 0.  0.
        3    1    3    3  502    0 -0.43108697494E+03  0.11293370288E+04  0.14251152497E+04  0.18687406427E+04  0.10100000352E+00 0.  1.
       -3    1    3    3    0  502  0.43108697494E+03 -0.11293370288E+04 -0.59296932893E+03  0.13464214570E+04  0.10100000352E+00 0. -1.
</event>
<event>
 5   0  0.1176002E-06  0.3105805E+04  0.7818609E-02  0.8214147E-01
        2   -1    0    0  501    0  0.00000000000E+00  0.00000000000E+00  0.13686499219E+04  0.13686499219E+04  0.25500000920E-02 0.  1.
       -2   -1    0    0    0  501  0.00000000000E+00  0.00000000000E+00 -0.17619598498E+04  0.17619598498E+04  0.25500000920E-02 0. -1.
    10030    2    1    2    0    0  0.00000000000E+00  0.00000000000E+00 -0.39330992789E+03  0.31306097718E+04  0.31058050234E+04 0.  0.
        2    1    3    3  502    0 -0.78307219389E+03  0.11986797098E+04  0.40937143230E+03  0.14891675786E+04  0.25500000920E-02 0.  1.
       -2    1    3    3    0  502  0.78307219389E+03 -0.11986797098E+04 -0.80268136019E+03  0.16414421932E+04  0.25500000920E-02 0. -1.
</event>
<event>
 5   0  0.1176002E-06  0.3085924E+04  0.7818609E-02  0.8219612E-01
       -2   -1    0    0    0  501  0.00000000000E+00  0.00000000000E+00  0.30198975932E+04  0.30198975933E+04  0.25500000920E-02 0. -1.
        2   -1    0    0  501    0  0.00000000000E+00  0.00000000000E+00 -0.78834844496E+03  0.78834844496E+03  0.25500000920E-02 0.  1.
    10030    2    1    2    0    0  0.00000000000E+00  0.00000000000E+00  0.22315491483E+04  0.38082460382E+04  0.30859238951E+04 0.  0.
        2    1    3    3  502    0  0.27400479750E+03  0.15038138480E+04  0.13752136938E+04  0.20561486868E+04  0.25500000920E-02 0.  1.
       -2    1    3    3    0  502 -0.27400479750E+03 -0.15038138480E+04  0.85633545446E+03  0.17520973514E+04  0.25500000920E-02 0. -1.
</event>
<event>
 5   0  0.4219337E-07  0.3025055E+04  0.7818609E-02  0.8236612E-01
        1   -1    0    0  501    0  0.00000000000E+00  0.00000000000E+00  0.14658097699E+04  0.14658097699E+04  0.50400001928E-02 0. -1.
       -1   -1    0    0    0  501  0.00000000000E+00  0.00000000000E+00 -0.15607336845E+04  0.15607336846E+04  0.50400001928E-02 0.  1.
    10030    2    1    2    0    0  0.00000000000E+00  0.00000000000E+00 -0.94923914608E+02  0.30265434545E+04  0.30250545007E+04 0.  0.
        4    1    3    3  502    0 -0.27241132059E+03  0.13679068058E+04  0.53794151079E+03  0.14949112478E+04  0.12699999809E+01 0. -1.
       -4    1    3    3    0  502  0.27241132059E+03 -0.13679068058E+04 -0.63286542540E+03  0.15316322067E+04  0.12699999809E+01 0.  1.
</event>
<event>
 5   0  0.1258262E-06  0.3102912E+04  0.7818609E-02  0.8214939E-01
        2   -1    0    0  501    0  0.00000000000E+00  0.00000000000E+00  0.15102821058E+04  0.15102821058E+04  0.25500000920E-02 0. -1.
       -2   -1    0    0    0  501  0.00000000000E+00  0.00000000000E+00 -0.15937524411E+04  0.15937524411E+04  0.25500000920E-02 0.  1.
    10030    2    1    2    0    0  0.00000000000E+00  0.00000000000E+00 -0.83470335296E+02  0.31040345469E+04  0.31029120470E+04 0.  0.
        1    1    3    3  502    0 -0.28832186345E+03  0.79016986894E+03  0.12623920199E+04  0.15169480975E+04  0.50400001928E-02 0. -1.
       -1    1    3    3    0  502  0.28832186345E+03 -0.79016986894E+03 -0.13458623552E+04  0.15870864494E+04  0.50400001928E-02 0.  1.
</event>
<event>
 5   0  0.1200286E-06  0.3078240E+04  0.7818609E-02  0.8221735E-01
        2   -1    0    0  501    0  0.00000000000E+00  0.00000000000E+00  0.19416635416E+04  0.19416635416E+04  0.25500000920E-02 0. -1.
       -2   -1    0    0    0  501  0.00000000000E+00  0.00000000000E+00 -0.12200309468E+04  0.12200309468E+04  0.25500000920E-02 0.  1.
    10030    2    1    2    0    0  0.00000000000E+00  0.00000000000E+00  0.72163259477E+03  0.31616944884E+04  0.30782395028E+04 0.  0.
        5    1    3    3  502    0 -0.96900833394E+03 -0.10850453100E+04  0.87700183798E+03  0.16986626475E+04  0.46999998093E+01 0.  1.
       -5    1    3    3    0  502  0.96900833394E+03  0.10850453100E+04 -0.15536924321E+03  0.14630318410E+04  0.46999998093E+01 0. -1.
</event>
<event>
 5   0  0.1200286E-06  0.3066301E+04  0.7818609E-02  0.8225048E-01
       -2   -1    0    0    0  501  0.00000000000E+00  0.00000000000E+00  0.13470423276E+04  0.13470423276E+04  0.25500000920E-02 0.  1.
        2   -1    0    0  501    0  0.00000000000E+00  0.00000000000E+00 -0.17449716393E+04  0.17449716393E+04  0.25500000920E-02 0. -1.
    10030    2    1    2    0    0  0.00000000000E+00  0.00000000000E+00 -0.39792931167E+03  0.30920139670E+04  0.30663011324E+04 0.  0.
        5    1    3    3  502    0 -0.53302126645E+03 -0.32372983743E+02 -0.16481550909E+04  0.17325117530E+04  0.46999998093E+01 0. -1.
       -5    1    3    3    0  502  0.53302126645E+03  0.32372983743E+02  0.12502257793E+04  0.13595022139E+04  0.46999998093E+01 0.  1.
</event>
<event>
 5   0  0.1176002E-06  0.3110173E+04  0.7818609E-02  0.8212952E-01
       -2   -1    0    0    0  501  0.00000000000E+00  0.00000000000E+00  0.91259706230E+03  0.91259706231E+03  0.25500000920E-02 0.  1.
        2   -1    0    0  501    0  0.00000000000E+00  0.00000000000E+00 -0.26499036134E+04  0.26499036134E+04  0.25500000920E-02 0. -1.
    10030    2    1    2    0    0  0.00000000000E+00  0.00000000000E+00 -0.17373065511E+04  0.35625006757E+04  0.31101731482E+04 0.  0.
        2    1    3    3  502    0 -0.61945428118E+03  0.88141199600E+02 -0.24993606150E+04  0.25764890765E+04  0.25500000920E-02 0. -1.
       -2    1    3    3    0  502  0.61945428118E+03 -0.88141199600E+02  0.76205406388E+03  0.98601159923E+03  0.25500000920E-02 0.  1.
</event>
<event>
 5   0  0.3935852E-07  0.3100985E+04  0.7818609E-02  0.8215468E-01
        1   -1    0    0  501    0  0.00000000000E+00  0.00000000000E+00  0.23013865116E+04  0.23013865116E+04  0.50400001928E-02 0.  1.
       -1   -1    0    0    0  501  0.00000000000E+00  0.00000000000E+00 -0.10445991071E+04  0.10445991072E+04  0.50400001928E-02 0. -1.
    10030    2    1    2    0    0  0.00000000000E+00  0.00000000000E+00  0.12567874044E+04  0.33459856187E+04  0.31009845503E+04 0.  0.
        5    1    3    3  502    0  0.92743486851E+03 -0.11894231750E+04  0.10161483498E+04  0.18186375349E+04  0.46999998093E+01 0.  1.
       -5    1    3    3    0  502 -0.92743486851E+03  0.11894231750E+04  0.24063905460E+03  0.15273480838E+04  0.46999998093E+01 0. -1.
</event>
<event>
 5   0  0.1193123E-06  0.3112675E+04  0.7818609E-02  0.8212268E-01
        2   -1    0    0  501    0  0.00000000000E+00  0.00000000000E+00  0.14592347469E+04  0.14592347469E+04  0.25500000920E-02 0.  1.
       -2   -1    0    0    0  501  0.00000000000E+00  0.00000000000E+00 -0.16599017354E+04  0.16599017354E+04  0.25500000920E-02 0. -1.
    10030    2    1    2    0    0  0.00000000000E+00  0.00000000000E+00 -0.20066698853E+03  0.31191364823E+04  0.31126749196E+04 0.  0.
        3    1    3    3  502    0  0.61335600300E+01  0.55860227847E+03 -0.15559714836E+04  0.16532154712E+04  0.10100000352E+00 0. -1.
       -3    1    3    3    0  502 -0.61335600300E+01 -0.55860227847E+03  0.13553044951E+04  0.14659210111E+04  0.10100000352E+00 0.  1.
</event>
<event>
 5   0  0.4173905E-07  0.3087370E+04  0.7818609E-02  0.8219213E-01
       -1   -1    0    0    0  501  0.00000000000E+00  0.00000000000E+00  0.14408171789E+04  0.14408171789E+04  0.50400001928E-02 0.  1.
        1   -1    0    0  501    0  0.00000000000E+00  0.00000000000E+00 -0.16538968301E+04  0.16538968301E+04  0.50400001928E-02 0. -1.
    10030    2    1    2    0    0  0.00000000000E+00  0.00000000000E+00 -0.21307965122E+03  0.30947140090E+04  0.30873697316E+04 0.  0.
        3    1    3    3  502    0  0.65296093349E+03  0.13953241706E+04 -0.79420574301E+01  0.15405682744E+04  0.10100000352E+00 0.  1.
       -3    1    3    3    0  502 -0.65296093349E+03 -0.13953241706E+04 -0.20513759379E+03  0.15541457346E+04  0.10100000352E+00 0. -1.
</event>
<event>
 5   0  0.1237580E-06  0.3062782E+04  0.7818609E-02  0.8226027E-01
        2   -1    0    0  501    0  0.00000000000E+00  0.00000000000E+00  0.21470961725E+04  0.21470961725E+04  0.25500000920E-02 0. -1.
       -2   -1    0    0    0  501  0.00000000000E+00  0.00000000000E+00 -0.10922465279E+04  0.10922465279E+04  0.25500000920E-02 0.  1.
    10030    2    1    2    0    0  0.00000000000E+00  0.00000000000E+00  0.10548496446E+04  0.32393427005E+04  0.30627819639E+04 0.  0.
        4    1    3    3  502    0 -0.31127308870E+03 -0.12696709756E+04  0.13710278441E+04  0.18943796568E+04  0.12699999809E+01 0. -1.
       -4    1    3    3    0  502  0.31127308870E+03  0.12696709756E+04 -0.31617819945E+03  0.13449630436E+04  0.12699999809E+01 0.  1.
</event>
<event>
 5   0  0.4134019E-07  0.3092132E+04  0.7818609E-02  0.8217900E-01
        1   -1    0    0  501    0  0.00000000000E+00  0.00000000000E+00  0.11897222480E+04  0.11897222480E+04  0.50400001928E-02 0. -1.
       -1   -1    0    0    0  501  0.00000000000E+00  0.00000000000E+00 -0.20091415850E+04  0.20091415850E+04  0.50400001928E-02 0.  1.
    10030    2    1    2    0    0  0.00000000000E+00  0.00000000000E+00 -0.81941933697E+03  0.31988638331E+04  0.30921322372E+04 0.  0.
        2    1    3    3  502    0 -0.57891005715E+03  0.39117822410E+03  0.10170853398E+04  0.12339448309E+04  0.25500000920E-02 0. -1.
       -2    1    3    3    0  502  0.57891005715E+03 -0.39117822410E+03 -0.18365046768E+04  0.19649190022E+04  0.25500000920E-02 0.  1.
</event>
<event>
 5   0  0.4330395E-07  0.3094242E+04  0.7818609E-02  0.8217320E-01
       -1   -1    0    0    0  501  0.00000000000E+00  0.00000000000E+00  0.12511650613E+04  0.12511650614E+04  0.50400001928E-02 0.  1.
        1   -1    0    0  501    0  0.00000000000E+00  0.00000000000E+00 -0.19130838022E+04  0.19130838022E+04  0.50400001928E-02 0. -1.
    10030    2    1    2    0    0  0.00000000000E+00  0.00000000000E+00 -0.66191874085E+03  0.31642488636E+04  0.30942421449E+04 0.  0.
        1    1    3    3  502    0 -0.13789600788E+04 -0.47809253928E+03  0.19395729216E+03  0.14723188535E+04  0.50400001928E-02 0. -1.
       -1    1    3    3    0  502  0.13789600788E+04  0.47809253928E+03 -0.85587603301E+03  0.16919300101E+04  0.50400001928E-02 0.  1.
</event>
<event>
 5   0  0.1200286E-06  0.3107402E+04  0.7818609E-02  0.8213709E-01
        2   -1    0    0  501    0  0.00000000000E+00  0.00000000000E+00  0.14549299216E+04  0.14549299216E+04  0.25500000920E-02 0. -1.
       -2   -1    0    0    0  501  0.00000000000E+00  0.00000000000E+00 -0.16591773294E+04  0.16591773294E+04  0.25500000920E-02 0.  1.
    10030    2    1    2    0    0  0.00000000000E+00  0.00000000000E+00 -0.20424740776E+03  0.31141072510E+04  0.31074019642E+04 0.  0.
        5    1    3    3  502    0  0.12553313536E+04  0.83117137619E+03  0.28245165979E+03  0.15318301779E+04  0.46999998093E+01 0. -1.
       -5    1    3    3    0  502 -0.12553313536E+04 -0.83117137619E+03 -0.48669906755E+03  0.15822770731E+04  0.46999998093E+01 0.  1.
</event>
<event>
 5   0  0.3935852E-07  0.3096572E+04  0.7818609E-02  0.8216679E-01
        1   -1    0    0  501    0  0.00000000000E+00  0.00000000000E+00  0.19242636038E+04  0.19242636038E+04  0.50400001928E-02 0. -1.
       -1   -1    0    0    0  501  0.00000000000E+00  0.00000000000E+00 -0.12457696808E+04  0.12457696808E+04  0.50400001928E-02 0.  1.
    10030    2    1    2    0    0  0.00000000000E+00  0.00000000000E+00  0.67849392292E+03  0.31700332846E+04  0.30965718177E+04 0.  0.
        5    1    3    3  502    0  0.37203154451E+03 -0.68231771172E+03  0.17101202086E+04  0.18784297026E+04  0.46999998093E+01 0. -1.
       -5    1    3    3    0  502 -0.37203154451E+03  0.68231771172E+03 -0.10316262856E+04  0.12916035820E+04  0.46999998093E+01 0.  1.
</event>
<event>
 5   0  0.1193123E-06  0.3105206E+04  0.7818609E-02  0.8214311E-01
        2   -1    0    0  501    0  0.00000000000E+00  0.00000000000E+00  0.18697459769E+04  0.18697459769E+04  0.25500000920E-02 0. -1.
       -2   -1    0    0    0  501  0.00000000000E+00  0.00000000000E+00 -0.12892534527E+04  0.12892534527E+04  0.25500000920E-02 0.  1.
    10030    2    1    2    0    0  0.00000000000E+00  0.00000000000E+00  0.58049252416E+03  0.31589994296E+04  0.31052062452E+04 0.  0.
        3    1    3    3  502    0 -0.22477390747E+03  0.79926654396E+02  0.18509893090E+04  0.18662992825E+04  0.10100000352E+00 0. -1.
       -3    1    3    3    0  502  0.22477390747E+03 -0.79926654396E+02 -0.12704967849E+04  0.12927001470E+04  0.10100000352E+00 0.  1.
</event>
<event>
 5   0  0.1258262E-06  0.3090858E+04  0.7818609E-02  0.8218251E-01
       -2   -1    0    0    0  501  0.00000000000E+00  0.00000000000E+00  0.13300613834E+04  0.13300613834E+04  0.25500000920E-02 0. -1.
        2   -1    0    0  501    0  0.00000000000E+00  0.00000000000E+00 -0.17956692168E+04  0.17956692168E+04  0.25500000920E-02 0.  1.
    10030    2    1    2    0    0  0.00000000000E+00  0.00000000000E+00 -0.46560783335E+03  0.31257306002E+04  0.30908576691E+04 0.  0.
        1    1    3    3  502    0  0.11106224595E+04  0.10746467996E+04 -0.23127318173E+03  0.15626372823E+04  0.50400001928E-02 0. -1.
       -1    1    3    3    0  502 -0.11106224595E+04 -0.10746467996E+04 -0.23433465162E+03  0.15630933179E+04  0.50400001928E-02 0.  1.
</event>
<event>
 5   0  0.4134019E-07  0.3100659E+04  0.7818609E-02  0.8215557E-01
       -1   -1    0    0    0  501  0.00000000000E+00  0.00000000000E+00  0.13616763022E+04  0.13616763022E+04  0.50400001928E-02 0. -1.
        1   -1    0    0  501    0  0.00000000000E+00  0.00000000000E+00 -0.17651193596E+04  0.17651193597E+04  0.50400001928E-02 0.  1.
    10030    2    1    2    0    0  0.00000000000E+00  0.00000000000E+00 -0.40344305743E+03  0.31267956619E+04  0.31006587704E+04 0.  0.
        2    1    3    3  502    0  0.60464834143E+02 -0.64520891507E+03 -0.16219864623E+04  0.17466512601E+04  0.25500000920E-02 0.  1.
       -2    1    3    3    0  502 -0.60464834143E+02  0.64520891507E+03  0.12185434049E+04  0.13801444018E+04  0.25500000920E-02 0. -1.
</event>
<event>
 5   0  0.4134019E-07  0.3135233E+04  0.7818609E-02  0.8206135E-01
        1   -1    0    0  501    0  0.00000000000E+00  0.00000000000E+00  0.16751176291E+04  0.16751176292E+04  0.50400001928E-02 0.  1.
       -1   -1    0    0    0  501  0.00000000000E+00  0.00000000000E+00 -0.14670138484E+04  0.14670138484E+04  0.50400001928E-02 0. -1.
    10030    2    1    2    0    0  0.00000000000E+00  0.00000000000E+00  0.20810378074E+03  0.31421314776E+04  0.31352325334E+04 0.  0.
        2    1    3    3  502    0 -0.46641826106E+02  0.15515267102E+04  0.32364626288E+03  0.15856095029E+04  0.25500000920E-02 0. -1.
       -2    1    3    3    0  502  0.46641826106E+02 -0.15515267102E+04 -0.11554248213E+03  0.15565219746E+04  0.25500000920E-02 0.  1.
</event>
<event>
 5   0  0.1193123E-06  0.3077645E+04  0.7818609E-02  0.8221900E-01
       -2   -1    0    0    0  501  0.00000000000E+00  0.00000000000E+00  0.15341492183E+04  0.15341492183E+04  0.25500000920E-02 0.  1.
        2   -1    0    0  501    0  0.00000000000E+00  0.00000000000E+00 -0.15435098926E+04  0.15435098926E+04  0.25500000920E-02 0. -1.
    10030    2    1    2    0    0  0.00000000000E+00  0.00000000000E+00 -0.93606743416E+01  0.30776591110E+04  0.30776448757E+04 0.  0.
        3    1    3    3  502    0  0.74025783261E+03 -0.12825833114E+04  0.41361918978E+03  0.15375573010E+04  0.10100000352E+00 0.  1.
       -3    1    3    3    0  502 -0.74025783261E+03  0.12825833114E+04 -0.42297986413E+03  0.15401018100E+04  0.10100000352E+00 0. -1.
</event>
<event>
 5   0  0.1200286E-06  0.3097988E+04  0.7818609E-02  0.8216290E-01
       -2   -1    0    0    0  501  0.00000000000E+00  0.00000000000E+00  0.17622645921E+04  0.17622645921E+04  0.25500000920E-02 0.  1.
        2   -1    0    0  501    0  0.00000000000E+00  0.00000000000E+00 -0.13615338842E+04  0.13615338842E+04  0.25500000920E-02 0. -1.
    10030    2    1    2    0    0  0.00000000000E+00  0.00000000000E+00  0.40073070790E+03  0.31237984762E+04  0.30979883505E+04 0.  0.
        5    1    3    3  502    0 -0.73026641323E+03 -0.16039220479E+03 -0.11675303620E+04  0.13864212671E+04  0.46999998093E+01 0. -1.
       -5    1    3    3    0  502  0.73026641323E+03  0.16039220479E+03  0.15682610699E+04  0.17373772092E+04  0.46999998093E+01 0.  1.
</event>
<event>
 5   0  0.4219337E-07  0.3102977E+04  0.7818609E-02  0.8214921E-01
        1   -1    0    0  501    0  0.00000000000E+00  0.00000000000E+00  0.14351850130E+04  0.14351850130E+04  0.50400001928E-02 0.  1.
       -1   -1    0    0    0  501  0.00000000000E+00  0.00000000000E+00 -0.16772169578E+04  0.16772169578E+04  0.50400001928E-02 0. -1.
    10030    2    1    2    0    0  0.00000000000E+00  0.00000000000E+00 -0.24203194474E+03  0.31124019708E+04  0.31029770488E+04 0.  0.
        4    1    3    3  502    0  0.11261342043E+02  0.11604636694E+04 -0.11538582683E+04  0.16365186410E+04  0.12699999809E+01 0. -1.
       -4    1    3    3    0  502 -0.11261342043E+02 -0.11604636694E+04  0.91182632359E+03  0.14758833298E+04  0.12699999809E+01 0.  1.
</event>
<event>
 5   0  0.4219337E-07  0.3078503E+04  0.7818609E-02  0.8221662E-01
        1   -1    0    0  501    0  0.00000000000E+00  0.00000000000E+00  0.19165782671E+04  0.19165782671E+04  0.50400001928E-02 0. -1.
       -1   -1    0    0    0  501  0.00000000000E+00  0.00000000000E+00 -0.12362109463E+04  0.12362109463E+04  0.50400001928E-02 0.  1.
    10030    2    1    2    0    0  0.00000000000E+00  0.00000000000E+00  0.68036732088E+03  0.31527892134E+04  0.30785029045E+04 0.  0.
        4    1    3    3  502    0 -0.14125614608E+04  0.46082049546E+03  0.75188929502E+03  0.16652400831E+04  0.12699999809E+01 0. -1.
       -4    1    3    3    0  502  0.14125614608E+04 -0.46082049546E+03 -0.71521974139E+02  0.14875491303E+04  0.12699999809E+01 0.  1.
</event>
<event>
 5   0  0.4330395E-07  0.3099753E+04  0.7818609E-02  0.8215806E-01
        1   -1    0    0  501    0  0.00000000000E+00  0.00000000000E+00  0.17891486030E+04  0.17891486030E+04  0.50400001928E-02 0.  1.
       -1   -1    0    0    0  501  0.00000000000E+00  0.00000000000E+00 -0.13426031871E+04  0.13426031871E+04  0.50400001928E-02 0. -1.
    10030    2    1    2    0    0  0.00000000000E+00  0.00000000000E+00  0.44654541593E+03  0.31317517902E+04  0.30997526460E+04 0.  0.
        1    1    3    3  502    0 -0.84229268100E+03 -0.13003349232E+04  0.18054256564E+03  0.15597831552E+04  0.50400001928E-02 0.  1.
       -1    1    3    3    0  502  0.84229268100E+03  0.13003349232E+04  0.26600285029E+03  0.15719686350E+04  0.50400001928E-02 0. -1.
</event>
<event>
 5   0  0.4330395E-07  0.3080948E+04  0.7818609E-02  0.8220986E-01
       -1   -1    0    0    0  501  0.00000000000E+00  0.00000000000E+00  0.24136962951E+04  0.24136962951E+04  0.50400001928E-02 0. -1.
        1   -1    0    0  501    0  0.00000000000E+00  0.00000000000E+00 -0.98316431003E+03  0.98316431004E+03  0.50400001928E-02 0.  1.
    10030    2    1    2    0    0  0.00000000000E+00  0.00000000000E+00  0.14305319850E+04  0.33968606051E+04  0.30809479402E+04 0.  0.
        1    1    3    3  502    0 -0.11989757453E+04  0.50245237605E+03 -0.19595227705E+03  0.13146857126E+04  0.50400001928E-02 0.  1.
       -1    1    3    3    0  502  0.11989757453E+04 -0.50245237605E+03  0.16264842621E+04  0.20821748925E+04  0.50400001928E-02 0. -1.
</event>
<event>
 5   0  0.4134019E-07  0.3082100E+04  0.7818609E-02  0.8220668E-01
       -1   -1    0    0    0  501  0.00000000000E+00  0.00000000000E+00  0.12596843824E+04  0.12596843824E+04  0.50400001928E-02 0.  1.
        1   -1    0    0  501    0  0.00000000000E+00  0.00000000000E+00 -0.18852625548E+04  0.18852625548E+04  0.50400001928E-02 0. -1.
    10030    2    1    2    0    0  0.00000000000E+00  0.00000000000E+00 -0.62557817245E+03  0.31449469372E+04  0.30821004507E+04 0.  0.
        2    1    3    3  502    0 -0.10431037061E+04  0.99306050366E+03  0.24666178464E+03  0.14611901114E+04  0.25500000920E-02 0.  1.
       -2    1    3    3    0  502  0.10431037061E+04 -0.99306050366E+03 -0.87223995709E+03  0.16837568258E+04  0.25500000920E-02 0. -1.
</event>
<event>
 5   0  0.3935852E-07  0.3098960E+04  0.7818609E-02  0.8216023E-01
        1   -1    0    0  501    0  0.00000000000E+00  0.00000000000E+00  0.22883194027E+04  0.22883194027E+04  0.50400001928E-02 0.  1.
       -1   -1    0    0    0  501  0.00000000000E+00  0.00000000000E+00 -0.10491930750E+04  0.10491930750E+04  0.50400001928E-02 0. -1.
    10030    2    1    2    0    0  0.00000000000E+00  0.00000000000E+00  0.12391263277E+04  0.33375124776E+04  0.30989603874E+04 0.  0.
        5    1    3    3  502    0 -0.68685926273E+03 -0.13577022634E+04  0.30421688092E+03  0.15516768619E+04  0.46999998093E+01 0.  1.
       -5    1    3    3    0  502  0.68685926273E+03  0.13577022634E+04  0.93490944678E+03  0.17858356158E+04  0.46999998093E+01 0. -1.
</event>
<event>
 5   0  0.4134019E-07  0.3099790E+04  0.7818609E-02  0.8215795E-01
        1   -1    0    0  501    0  0.00000000000E+00  0.00000000000E+00  0.15490060992E+04  0.15490060992E+04  0.50400001928E-02 0.  1.
       -1   -1    0    0    0  501  0.00000000000E+00  0.00000000000E+00 -0.15507847440E+04  0.15507847440E+04  0.50400001928E-02 0. -1.
    10030    2    1    2    0    0  0.00000000000E+00  0.00000000000E+00 -0.17786447321E+01  0.30997908432E+04  0.30997903329E+04 0.  0.
        2    1    3    3  502    0  0.11895296388E+04 -0.70378275042E+03  0.70045529157E+03  0.15494929935E+04  0.25500000920E-02 0.  1.
       -2    1    3    3    0  502 -0.11895296388E+04  0.70378275042E+03 -0.70223393630E+03  0.15502978497E+04  0.25500000920E-02 0. -1.
</event>
<event>
 5   0  0.1258262E-06  0.3085419E+04  0.7818609E-02  0.8219751E-01
       -2   -1    0    0    0  501  0.00000000000E+00  0.00000000000E+00  0.17104484395E+04  0.17104484395E+04  0.25500000920E-02 0.  1.
        2   -1    0    0  501    0  0.00000000000E+00  0.00000000000E+00 -0.13914203446E+04  0.13914203446E+04  0.25500000920E-02 0. -1.
    10030    2    1    2    0    0  0.00000000000E+00  0.00000000000E+00  0.31902809488E+03  0.31018687841E+04  0.30854191009E+04 0.  0.
        1    1    3    3  502    0 -0.35436376060E+03  0.82357343672E+03  0.14216378366E+04  0.16807441861E+04  0.50400001928E-02 0.  1.
       -1    1    3    3    0  502  0.35436376060E+03 -0.82357343672E+03 -0.11026097417E+04  0.14211245980E+04  0.50400001928E-02 0. -1.
</event>
<event>
 5   0  0.1258262E-06  0.3108263E+04  0.7818609E-02  0.8213474E-01
       -2   -1    0    0    0  501  0.00000000000E+00  0.00000000000E+00  0.89817001996E+03  0.89817001997E+03  0.25500000920E-02 0. -1.
        2   -1    0    0  501    0  0.00000000000E+00  0.00000000000E+00 -0.26891626432E+04  0.26891626432E+04  0.25500000920E-02 0.  1.
    10030    2    1    2    0    0  0.00000000000E+00  0.00000000000E+00 -0.17909926233E+04  0.35873326632E+04  0.31082633511E+04 0.  0.
        1    1    3    3  502    0  0.91827111708E+03  0.12529692721E+04 -0.84171565175E+03  0.17668160854E+04  0.50400001928E-02 0. -1.
       -1    1    3    3    0  502 -0.91827111708E+03 -0.12529692721E+04 -0.94927697153E+03  0.18205165778E+04  0.50400001928E-02 0.  1.
</event>
<event>
 5   0  0.1176002E-06  0.3095341E+04  0.7818609E-02  0.8217018E-01
        2   -1    0    0  501    0  0.00000000000E+00  0.00000000000E+00  0.12494409454E+04  0.12494409454E+04  0.25500000920E-02 0. -1.
       -2   -1    0    0    0  501  0.00000000000E+00  0.00000000000E+00 -0.19170846803E+04  0.19170846803E+04  0.25500000920E-02 0.  1.
    10030    2    1    2    0    0  0.00000000000E+00  0.00000000000E+00 -0.66764373492E+03  0.31665256257E+04  0.30953410768E+04 0.  0.
        2    1    3    3  502    0  0.25092285404E+02  0.10863088929E+03  0.12453274417E+04  0.12503082540E+04  0.25500000920E-02 0. -1.
       -2    1    3    3    0  502 -0.25092285404E+02 -0.10863088929E+03 -0.19129711767E+04  0.19162173717E+04  0.25500000920E-02 0.  1.
</event>
<event>
 5   0  0.4219337E-07  0.2992463E+04  0.7818609E-02  0.8245886E-01
       -1   -1    0    0    0  501  0.00000000000E+00  0.00000000000E+00  0.10553717866E+04  0.10553717866E+04  0.50400001928E-02 0. -1.
        1   -1    0    0  501    0  0.00000000000E+00  0.00000000000E+00 -0.21212510527E+04  0.21212510527E+04  0.50400001928E-02 0.  1.
    10030    2    1    2    0    0  0.00000000000E+00  0.00000000000E+00 -0.10658792661E+04  0.31766228393E+04  0.29924628742E+04 0.  0.
        4    1    3    3  502    0  0.12304817957E+03  0.14447842838E+04 -0.92465327971E+03  0.17197464295E+04  0.12699999809E+01 0. -1.
       -4    1    3    3    0  502 -0.12304817957E+03 -0.14447842838E+04 -0.14122598636E+03  0.14568764098E+04  0.12699999809E+01 0.  1.
</event>
<event>
 5   0  0.4219337E-07  0.3103733E+04  0.7818609E-02  0.8214714E-01
        1   -1    0    0  501    0  0.00000000000E+00  0.00000000000E+00  0.15288563897E+04  0.15288563897E+04  0.50400001928E-02 0. -1.
       -1   -1    0    0    0  501  0.00000000000E+00  0.00000000000E+00 -0.15752232508E+04  0.15752232508E+04  0.50400001928E-02 0.  1.
    10030    2    1    2    0    0  0.00000000000E+00  0.00000000000E+00 -0.46366861101E+02  0.31040796405E+04  0.31037333211E+04 0.  0.
        4    1    3    3  502    0  0.13850516073E+04  0.37903833590E+03  0.56531277069E+03  0.15432492205E+04  0.12699999809E+01 0. -1.
       -4    1    3    3    0  502 -0.13850516073E+04 -0.37903833590E+03 -0.61167963179E+03  0.15608304200E+04  0.12699999809E+01 0.  1.
</event>
<event>
 5   0  0.4330395E-07  0.3101124E+04  0.7818609E-02  0.8215429E-01
       -1   -1    0    0    0  501  0.00000000000E+00  0.00000000000E+00  0.10647539980E+04  0.10647539980E+04  0.50400001928E-02 0.  1.
        1   -1    0    0  501    0  0.00000000000E+00  0.00000000000E+00 -0.22580266035E+04  0.22580266035E+04  0.50400001928E-02 0. -1.
    10030    2    1    2    0    0  0.00000000000E+00  0.00000000000E+00 -0.11932726056E+04  0.33227806015E+04  0.31011242179E+04 0.  0.
        1    1    3    3  502    0  0.13613327972E+04  0.52967422869E+03 -0.11538668201E+04  0.18615021923E+04  0.50400001928E-02 0. -1.
       -1    1    3    3    0  502 -0.13613327972E+04 -0.52967422869E+03 -0.39405785478E+02  0.14612784092E+04  0.50400001928E-02 0.  1.
</event>
<event>
 5   0  0.4134019E-07  0.3110438E+04  0.7818609E-02  0.8212879E-01
        1   -1    0    0  501    0  0.00000000000E+00  0.00000000000E+00  0.16058429451E+04  0.16058429451E+04  0.50400001928E-02 0.  1.
       -1   -1    0    0    0  501  0.00000000000E+00  0.00000000000E+00 -0.15061906460E+04  0.15061906461E+04  0.50400001928E-02 0. -1.
    10030    2    1    2    0    0  0.00000000000E+00  0.00000000000E+00  0.99652299017E+02  0.31120335911E+04  0.31104376688E+04 0.  0.
        2    1    3    3  502    0 -0.10143437331E+04 -0.15036346641E+03  0.12197007530E+04  0.15934780537E+04  0.25500000920E-02 0. -1.
       -2    1    3    3    0  502  0.10143437331E+04  0.15036346641E+03 -0.11200484540E+04  0.15185555374E+04  0.25500000920E-02 0.  1.
</event>
<event>
 5   0  0.4134019E-07  0.3098489E+04  0.7818609E-02  0.8216153E-01
        1   -1    0    0  501    0  0.00000000000E+00  0.00000000000E+00  0.13623272519E+04  0.13623272519E+04  0.50400001928E-02 0. -1.
       -1   -1    0    0    0  501  0.00000000000E+00  0.00000000000E+00 -0.17618076287E+04  0.17618076287E+04  0.50400001928E-02 0.  1.
    10030    2    1    2    0    0  0.00000000000E+00  0.00000000000E+00 -0.39948037688E+03  0.31241348806E+04  0.30984890158E+04 0.  0.
        2    1    3    3  502    0  0.87310393655E+03  0.25976238602E+03  0.10637766271E+04  0.14005026574E+04  0.25500000920E-02 0. -1.
       -2    1    3    3    0  502 -0.87310393655E+03 -0.25976238602E+03 -0.14632570039E+04  0.17236322232E+04  0.25500000920E-02 0.  1.
</event>
<event>
 5   0  0.1193123E-06  0.3093782E+04  0.7818609E-02  0.8217446E-01
        2   -1    0    0  501    0  0.00000000000E+00  0.00000000000E+00  0.23597398317E+04  0.23597398317E+04  0.25500000920E-02 0.  1.
       -2   -1    0    0    0  501  0.00000000000E+00  0.00000000000E+00 -0.10140405938E+04  0.10140405938E+04  0.25500000920E-02 0. -1.
    10030    2    1    2    0    0  0.00000000000E+00  0.00000000000E+00  0.13456992379E+04  0.33737804254E+04  0.30937821384E+04 0.  0.
        3    1    3    3  502    0 -0.10399672245E+04 -0.76418611592E+03  0.16028897964E+04  0.20578551838E+04  0.10100000352E+00 0.  1.
       -3    1    3    3    0  502  0.10399672245E+04  0.76418611592E+03 -0.25719055852E+03  0.13159252416E+04  0.10100000352E+00 0. -1.
</event>
<event>
 5   0  0.1258262E-06  0.3117840E+04  0.7818609E-02  0.8210859E-01
        2   -1    0    0  501    0  0.00000000000E+00  0.00000000000E+00  0.14130419380E+04  0.14130419380E+04  0.25500000920E-02 0. -1.
       -2   -1    0    0    0  501  0.00000000000E+00  0.00000000000E+00 -0.17198580925E+04  0.17198580925E+04  0.25500000920E-02 0.  1.
    10030    2    1    2    0    0  0.00000000000E+00  0.00000000000E+00 -0.30681615453E+03  0.31329000305E+04  0.31178400293E+04 0.  0.
        1    1    3    3  502    0  0.96675820969E+03 -0.92099133392E+03  0.65508084044E+03  0.14872717911E+04  0.50400001928E-02 0.  1.
       -1    1    3    3    0  502 -0.96675820969E+03  0.92099133392E+03 -0.96189699497E+03  0.16456282393E+04  0.50400001928E-02 0. -1.
</event>
<event>
 5   0  0.1193123E-06  0.3088830E+04  0.7818609E-02  0.8218810E-01
        2   -1    0    0  501    0  0.00000000000E+00  0.00000000000E+00  0.28767298744E+04  0.28767298744E+04  0.25500000920E-02 0.  1.
       -2   -1    0    0    0  501  0.00000000000E+00  0.00000000000E+00 -0.82914214782E+03  0.82914214782E+03  0.25500000920E-02 0. -1.
    10030    2    1    2    0    0  0.00000000000E+00  0.00000000000E+00  0.20475877266E+04  0.37058720223E+04  0.30888301907E+04 0.  0.
        3    1    3    3  502    0  0.31182431049E+03  0.15038732913E+04  0.82904453136E+03  0.17453320951E+04  0.10100000352E+00 0.  1.
       -3    1    3    3    0  502 -0.31182431049E+03 -0.15038732913E+04  0.12185431952E+04  0.19605399271E+04  0.10100000352E+00 0. -1.
</event>
<event>
 5   0  0.4330395E-07  0.3100397E+04  0.7818609E-02  0.8215629E-01
       -1   -1    0    0    0  501  0.00000000000E+00  0.00000000000E+00  0.17348548423E+04  0.17348548423E+04  0.50400001928E-02 0. -1.
        1   -1    0    0  501    0  0.00000000000E+00  0.00000000000E+00 -0.13851969366E+04  0.13851969366E+04  0.50400001928E-02 0.  1.
    10030    2    1    2    0    0  0.00000000000E+00  0.00000000000E+00  0.34965790566E+03  0.31200517789E+04  0.31003971442E+04 0.  0.
        1    1    3    3  502    0 -0.87254533896E+03 -0.12347724282E+04 -0.16956458178E+03  0.15214304011E+04  0.50400001928E-02 0.  1.
       -1    1    3    3    0  502  0.87254533896E+03  0.12347724282E+04  0.51922248744E+03  0.15986213778E+04  0.50400001928E-02 0. -1.
</event>
<event>
 5   0  0.1176002E-06  0.3056003E+04  0.7818609E-02  0.8227917E-01
       -2   -1    0    0    0  501  0.00000000000E+00  0.00000000000E+00  0.22017887230E+04  0.22017887230E+04  0.25500000920E-02 0.  1.
        2   -1    0    0  501    0  0.00000000000E+00  0.00000000000E+00 -0.10604054881E+04  0.10604054881E+04  0.25500000920E-02 0. -1.
    10030    2    1    2    0    0  0.00000000000E+00  0.00000000000E+00  0.11413832349E+04  0.32621942111E+04  0.30560031711E+04 0.  0.
        2    1    3    3  502    0 -0.78849465582E+03  0.93841019734E+03  0.15446388694E+04  0.19718637776E+04  0.25500000920E-02 0.  1.
       -2    1    3    3    0  502  0.78849465582E+03 -0.93841019734E+03 -0.40325563451E+03  0.12903304335E+04  0.25500000920E-02 0. -1.
</event>
<event>
 5   0  0.1176002E-06  0.3105612E+04  0.7818609E-02  0.8214199E-01
        2   -1    0    0  501    0  0.00000000000E+00  0.00000000000E+00  0.19767294110E+04  0.19767294110E+04  0.25500000920E-02 0. -1.
       -2   -1    0    0    0  501  0.00000000000E+00  0.00000000000E+00 -0.12197960177E+04  0.12197960177E+04  0.25500000920E-02 0.  1.
    10030    2    1    2    0    0  0.00000000000E+00  0.00000000000E+00  0.75693339330E+03  0.31965254287E+04  0.31056121223E+04 0.  0.
        2    1    3    3  502    0  0.12527214886E+03 -0.11874838791E+04  0.14001969602E+04  0.18402072171E+04  0.25500000920E-02 0. -1.
       -2    1    3    3    0  502 -0.12527214886E+03  0.11874838791E+04 -0.64326356694E+03  0.13563182116E+04  0.25500000920E-02 0.  1.
</event>
<event>
 5   0  0.4330395E-07  0.3133244E+04  0.7818609E-02  0.8206673E-01
       -1   -1    0    0    0  501  0.00000000000E+00  0.00000000000E+00  0.12278655469E+04  0.12278655469E+04  0.50400001928E-02 0. -1.
        1   -1    0    0  501    0  0.00000000000E+00  0.00000000000E+00 -0.19988377446E+04  0.19988377446E+04  0.50400001928E-02 0.  1.
    10030    2    1    2    0    0  0.00000000000E+00  0.00000000000E+00 -0.77097219777E+03  0.32267032915E+04  0.31332436869E+04 0.  0.
        1    1    3    3  502    0  0.35519269044E+03  0.10910301781E+04  0.71300597391E+03  0.13508834945E+04  0.50400001928E-02 0. -1.
       -1    1    3    3    0  502 -0.35519269044E+03 -0.10910301781E+04 -0.14839781717E+04  0.18758197970E+04  0.50400001928E-02 0.  1.
</event>
<event>
 5   0  0.4219337E-07  0.2997329E+04  0.7818609E-02  0.8244494E-01
        1   -1    0    0  501    0  0.00000000000E+00  0.00000000000E+00  0.22823574030E+04  0.22823574030E+04  0.50400001928E-02 0. -1.
       -1   -1    0    0    0  501  0.00000000000E+00  0.00000000000E+00 -0.98406797935E+03  0.98406797936E+03  0.50400001928E-02 0.  1.
    10030    2    1    2    0    0  0.00000000000E+00  0.00000000000E+00  0.12982894236E+04  0.32664253823E+04  0.29973287025E+04 0.  0.
        4    1    3    3  502    0 -0.35490052281E+03 -0.35118151230E+03  0.21890567284E+04  0.22452736601E+04  0.12699999809E+01 0. -1.
       -4    1    3    3    0  502  0.35490052281E+03  0.35118151230E+03 -0.89076730478E+03  0.10211517222E+04  0.12699999809E+01 0.  1.
</event>
<event>
 5   0  0.3935852E-07  0.3106510E+04  0.7818609E-02  0.8213954E-01
        1   -1    0    0  501    0  0.00000000000E+00  0.00000000000E+00  0.17998639660E+04  0.17998639660E+04  0.50400001928E-02 0. -1.
       -1   -1    0    0    0  501  0.00000000000E+00  0.00000000000E+00 -0.13404353335E+04  0.13404353335E+04  0.50400001928E-02 0.  1.
    10030    2    1    2    0    0  0.00000000000E+00  0.00000000000E+00  0.45942863249E+03  0.31402992996E+04  0.31065101034E+04 0.  0.
        5    1    3    3  502    0  0.10273933061E+04 -0.93007677163E+03  0.93877032290E+03  0.16738851859E+04  0.46999998093E+01 0. -1.
       -5    1    3    3    0  502 -0.10273933061E+04  0.93007677163E+03 -0.47934169041E+03  0.14664141136E+04  0.46999998093E+01 0.  1.
</event>
<event>
 5   0  0.1237580E-06  0.3104591E+04  0.7818609E-02  0.8214479E-01
        2   -1    0    0  501    0  0.00000000000E+00  0.00000000000E+00  0.20644457111E+04  0.20644457111E+04  0.25500000920E-02 0. -1.
       -2   -1    0    0    0  501  0.00000000000E+00  0.00000000000E+00 -0.11671997729E+04  0.11671997729E+04  0.25500000920E-02 0.  1.
    10030    2    1    2    0    0  0.00000000000E+00  0.00000000000E+00  0.89724593819E+03  0.32316454840E+04  0.31045905142E+04 0.  0.
        4    1    3    3  502    0 -0.69660185066E+03  0.63408580778E+03 -0.83568598323E+03  0.12592424808E+04  0.12699999809E+01 0.  1.
       -4    1    3    3    0  502  0.69660185066E+03 -0.63408580778E+03  0.17329319214E+04  0.19724030032E+04  0.12699999809E+01 0. -1.
</event>
<event>
 5   0  0.3935852E-07  0.3101264E+04  0.7818609E-02  0.8215391E-01
       -1   -1    0    0    0  501  0.00000000000E+00  0.00000000000E+00  0.15460605437E+04  0.15460605437E+04  0.50400001928E-02 0.  1.
        1   -1    0    0  501    0  0.00000000000E+00  0.00000000000E+00 -0.15552174100E+04  0.15552174100E+04  0.50400001928E-02 0. -1.
    10030    2    1    2    0    0  0.00000000000E+00  0.00000000000E+00 -0.91568663284E+01  0.31012779537E+04  0.31012644354E+04 0.  0.
        5    1    3    3  502    0  0.13315040501E+04  0.76372065432E+03 -0.22427443254E+03  0.15512876536E+04  0.46999998093E+01 0. -1.
       -5    1    3    3    0  502 -0.13315040501E+04 -0.76372065432E+03  0.21511756621E+03  0.15499903001E+04  0.46999998093E+01 0.  1.
</event>
<event>
 5   0  0.1193123E-06  0.3105647E+04  0.7818609E-02  0.8214190E-01
       -2   -1    0    0    0  501  0.00000000000E+00  0.00000000000E+00  0.11485407409E+04  0.11485407409E+04  0.25500000920E-02 0. -1.
        2   -1    0    0  501    0  0.00000000000E+00  0.00000000000E+00 -0.20994128705E+04  0.20994128705E+04  0.25500000920E-02 0.  1.
    10030    2    1    2    0    0  0.00000000000E+00  0.00000000000E+00 -0.95087212965E+03  0.32479536114E+04  0.31056472522E+04 0.  0.
        3    1    3    3  502    0 -0.92075165105E+02 -0.15015806526E+04 -0.87782463228E+03  0.17417802352E+04  0.10100000352E+00 0.  1.
       -3    1    3    3    0  502  0.92075165105E+02  0.15015806526E+04 -0.73047497368E+02  0.15061733763E+04  0.10100000352E+00 0. -1.
</event>
<event>
 5   0  0.3935852E-07  0.3097556E+04  0.7818609E-02  0.8216409E-01
        1   -1    0    0  501    0  0.00000000000E+00  0.00000000000E+00  0.11946163184E+04  0.11946163184E+04  0.50400001928E-02 0.  1.
       -1   -1    0    0    0  501  0.00000000000E+00  0.00000000000E+00 -0.20079359896E+04  0.20079359896E+04  0.50400001928E-02 0. -1.
    10030    2    1    2    0    0  0.00000000000E+00  0.00000000000E+00 -0.81331967127E+03  0.32025523080E+04  0.30975558749E+04 0.  0.
        5    1    3    3  502    0  0.18104641764E+03 -0.15077883563E+04 -0.92233764921E+02  0.15214245594E+04  0.46999998093E+01 0.  1.
       -5    1    3    3    0  502 -0.18104641764E+03  0.15077883563E+04 -0.72108590635E+03  0.16811277486E+04  0.46999998093E+01 0. -1.
</event>
<event>
 5   0  0.4173905E-07  0.3100599E+04  0.7818609E-02  0.8215573E-01
        1   -1    0    0  501    0  0.00000000000E+00  0.00000000000E+00  0.18737994931E+04  0.18737994931E+04  0.50400001928E-02 0.  1.
       -1   -1    0    0    0  501  0.00000000000E+00  0.00000000000E+00 -0.12826499384E+04  0.12826499385E+04  0.50400001928E-02 0. -1.
    10030    2    1    2    0    0  0.00000000000E+00  0.00000000000E+00  0.59114955464E+03  0.31564494315E+04  0.31005991708E+04 0.  0.
        3    1    3    3  502    0 -0.13592941899E+04 -0.33890524553E+03  0.97153165428E+03  0.17048199980E+04  0.10100000352E+00 0.  1.
       -3    1    3    3    0  502  0.13592941899E+04  0.33890524553E+03 -0.38038209965E+03  0.14516294335E+04  0.10100000352E+00 0. -1.
</event>
<event>
 5   0  0.4173905E-07  0.3102674E+04  0.7818609E-02  0.8215004E-01
       -1   -1    0    0    0  501  0.00000000000E+00  0.00000000000E+00  0.17510390165E+04  0.17510390165E+04  0.50400001928E-02 0.  1.
        1   -1    0    0  501    0  0.00000000000E+00  0.00000000000E+00 -0.13744104614E+04  0.13744104614E+04  0.50400001928E-02 0. -1.
    10030    2    1    2    0    0  0.00000000000E+00  0.00000000000E+00  0.37662855514E+03  0.31254494779E+04  0.31026739065E+04 0.  0.
        3    1    3    3  502    0 -0.60417595030E+03  0.11812371380E+04 -0.62151276988E+03  0.14651374981E+04  0.10100000352E+00 0. -1.
       -3    1    3    3    0  502  0.60417595030E+03 -0.11812371380E+04  0.99814132502E+03  0.16603119797E+04  0.10100000352E+00 0.  1.
</event>
<event>
 5   0  0.3935852E-07  0.3102417E+04  0.7818609E-02  0.8215075E-01
        1   -1    0    0  501    0  0.00000000000E+00  0.00000000000E+00  0.83515758554E+03  0.83515758555E+03  0.50400001928E-02 0. -1.
       -1   -1    0    0    0  501  0.00000000000E+00  0.00000000000E+00 -0.28811894659E+04  0.28811894659E+04  0.50400001928E-02 0.  1.
    10030    2    1    2    0    0  0.00000000000E+00  0.00000000000E+00 -0.20460318804E+04  0.37163470515E+04  0.31024166309E+04 0.  0.
        5    1    3    3  502    0 -0.86720560609E+03 -0.89504200585E+03 -0.21294126345E+04  0.24672993360E+04  0.46999998093E+01 0.  1.
       -5    1    3    3    0  502  0.86720560609E+03  0.89504200585E+03  0.83380754079E+02  0.12490477155E+04  0.46999998093E+01 0. -1.
</event>
<event>
 5   0  0.1237580E-06  0.3034649E+04  0.7818609E-02  0.8233905E-01
       -2   -1    0    0    0  501  0.00000000000E+00  0.00000000000E+00  0.11411325797E+04  0.11411325797E+04  0.25500000920E-02 0. -1.
        2   -1    0    0  501    0  0.00000000000E+00  0.00000000000E+00 -0.20175336526E+04  0.20175336526E+04  0.25500000920E-02 0.  1.
    10030    2    1    2    0    0  0.00000000000E+00  0.00000000000E+00 -0.87640107299E+03  0.31586662323E+04  0.30346488308E+04 0.  0.
        4    1    3    3  502    0  0.41361513806E+03 -0.13167882967E+04  0.21784544933E+03  0.13973071078E+04  0.12699999809E+01 0.  1.
       -4    1    3    3    0  502 -0.41361513806E+03  0.13167882967E+04 -0.10942465223E+04  0.17613591245E+04  0.12699999809E+01 0. -1.
</event>
<event>
 5   0  0.1193123E-06  0.3104803E+04  0.7818609E-02  0.8214421E-01
       -2   -1    0    0    0  501  0.00000000000E+00  0.00000000000E+00  0.22049814693E+04  0.22049814693E+04  0.25500000920E-02 0. -1.
        2   -1    0    0  501    0  0.00000000000E+00  0.00000000000E+00 -0.10929574932E+04  0.10929574932E+04  0.25500000920E-02 0.  1.
    10030    2    1    2    0    0  0.00000000000E+00  0.00000000000E+00  0.11120239762E+04  0.32979389625E+04  0.31048033878E+04 0.  0.
        3    1    3    3  502    0 -0.68403833064E+03 -0.78362007665E+03 -0.66805342894E+03  0.12362298558E+04  0.10100000352E+00 0.  1.
       -3    1    3    3    0  502  0.68403833064E+03  0.78362007665E+03  0.17800774051E+04  0.20617091067E+04  0.10100000352E+00 0. -1.
</event>
<event>
 5   0  0.1176002E-06  0.2912828E+04  0.7818609E-02  0.8269071E-01
        2   -1    0    0  501    0  0.00000000000E+00  0.00000000000E+00  0.21827149373E+04  0.21827149373E+04  0.25500000920E-02 0. -1.
       -2   -1    0    0    0  501  0.00000000000E+00  0.00000000000E+00 -0.97179083025E+03  0.97179083026E+03  0.25500000920E-02 0.  1.
    10030    2    1    2    0    0  0.00000000000E+00  0.00000000000E+00  0.12109241070E+04  0.31545057675E+04  0.29128284269E+04 0.  0.
        2    1    3    3  502    0  0.13040103398E+04  0.14269638302E+03  0.12906809972E+04  0.18402887438E+04  0.25500000920E-02 0. -1.
       -2    1    3    3    0  502 -0.13040103398E+04 -0.14269638302E+03 -0.79756890173E+02  0.13142170237E+04  0.25500000920E-02 0.  1.
</event>
<event>
 5   0  0.1258262E-06  0.3101721E+04  0.7818609E-02  0.8215266E-01
       -2   -1    0    0    0  501  0.00000000000E+00  0.00000000000E+00  0.22558598013E+04  0.22558598013E+04  0.25500000920E-02 0. -1.
        2   -1    0    0  501    0  0.00000000000E+00  0.00000000000E+00 -0.10661866965E+04  0.10661866965E+04  0.25500000920E-02 0.  1.
    10030    2    1    2    0    0  0.00000000000E+00  0.00000000000E+00  0.11896731048E+04  0.33220464977E+04  0.31017206252E+04 0.  0.
        1    1    3    3  502    0  0.45571810388E+03  0.14484502652E+04  0.93264625067E+03  0.17819978086E+04  0.50400001928E-02 0. -1.
       -1    1    3    3    0  502 -0.45571810388E+03 -0.14484502652E+04  0.25702685412E+03  0.15400486891E+04  0.50400001928E-02 0.  1.
</event>
<event>
 5   0  0.1200286E-06  0.3097646E+04  0.7818609E-02  0.8216384E-01
       -2   -1    0    0    0  501  0.00000000000E+00  0.00000000000E+00  0.11838084297E+04  0.11838084297E+04  0.25500000920E-02 0.  1.
        2   -1    0    0  501    0  0.00000000000E+00  0.00000000000E+00 -0.20263860382E+04  0.20263860382E+04  0.25500000920E-02 0. -1.
    10030    2    1    2    0    0  0.00000000000E+00  0.00000000000E+00 -0.84257760854E+03  0.32101944679E+04  0.30976461217E+04 0.  0.
        5    1    3    3  502    0  0.33500688661E+03  0.14403374775E+04 -0.89848535515E+03  0.17303466955E+04  0.46999998093E+01 0. -1.
       -5    1    3    3    0  502 -0.33500688661E+03 -0.14403374775E+04  0.55907746606E+02  0.14798477724E+04  0.46999998093E+01 0.  1.
</event>
<event>
 5   0  0.1193123E-06  0.3108345E+04  0.7818609E-02  0.8213451E-01
        2   -1    0    0  501    0  0.00000000000E+00  0.00000000000E+00  0.15234974773E+04  0.15234974773E+04  0.25500000920E-02 0.  1.
       -2   -1    0    0    0  501  0.00000000000E+00  0.00000000000E+00 -0.15854656223E+04  0.15854656223E+04  0.25500000920E-02 0. -1.
    10030    2    1    2    0    0  0.00000000000E+00  0.00000000000E+00 -0.61968144997E+02  0.31089630995E+04  0.31083454607E+04 0.  0.
        3    1    3    3  502    0 -0.67633337105E+03 -0.69399928262E+03 -0.12462938349E+04  0.15787052183E+04  0.10100000352E+00 0. -1.
       -3    1    3    3    0  502  0.67633337105E+03  0.69399928262E+03  0.11843256899E+04  0.15302578812E+04  0.10100000352E+00 0.  1.
</event>
<event>
 5   0  0.4173905E-07  0.3107422E+04  0.7818609E-02  0.8213704E-01
        1   -1    0    0  501    0  0.00000000000E+00  0.00000000000E+00  0.14516807622E+04  0.14516807622E+04  0.50400001928E-02 0.  1.
       -1   -1    0    0    0  501  0.00000000000E+00  0.00000000000E+00 -0.16629126313E+04  0.16629126313E+04  0.50400001928E-02 0. -1.
    10030    2    1    2    0    0  0.00000000000E+00  0.00000000000E+00 -0.21123186911E+03  0.31145933935E+04  0.31074222604E+04 0.  0.
        3    1    3    3  502    0  0.11633006552E+03 -0.10025947813E+04  0.10783336659E+04  0.14770011797E+04  0.10100000352E+00 0.  1.
       -3    1    3    3    0  502 -0.11633006552E+03  0.10025947813E+04 -0.12895655350E+04  0.16375922138E+04  0.10100000352E+00 0. -1.
</event>
<event>
 5   0  0.4173905E-07  0.3111956E+04  0.7818609E-02  0.8212464E-01
       -1   -1    0    0    0  501  0.00000000000E+00  0.00000000000E+00  0.22851613444E+04  0.22851613444E+04  0.50400001928E-02 0. -1.
        1   -1    0    0  501    0  0.00000000000E+00  0.00000000000E+00 -0.10594735219E+04  0.10594735220E+04  0.50400001928E-02 0.  1.
    10030    2    1    2    0    0  0.00000000000E+00  0.00000000000E+00  0.12256878225E+04  0.33446348664E+04  0.31119562579E+04 0.  0.
        3    1    3    3  502    0  0.57606496741E+03 -0.12142010653E+04  0.14556527417E+04  0.19811764153E+04  0.10100000352E+00 0. -1.
       -3    1    3    3    0  502 -0.57606496741E+03  0.12142010653E+04 -0.22996491927E+03  0.13634584511E+04  0.10100000352E+00 0.  1.
</event>
<event>
 5   0  0.3935852E-07  0.3110848E+04  0.7818609E-02  0.8212767E-01
       -1   -1    0    0    0  501  0.00000000000E+00  0.00000000000E+00  0.15757039719E+04  0.15757039719E+04  0.50400001928E-02 0. -1.
        1   -1    0    0  501    0  0.00000000000E+00  0.00000000000E+00 -0.15354048186E+04  0.15354048186E+04  0.50400001928E-02 0.  1.
    10030    2    1    2    0    0  0.00000000000E+00  0.00000000000E+00  0.40299153303E+02  0.31111087904E+04  0.31108477758E+04 0.  0.
        5    1    3    3  502    0  0.23493542791E+03 -0.30980796962E+03  0.15263123765E+04  0.15750641873E+04  0.46999998093E+01 0. -1.
       -5    1    3    3    0  502 -0.23493542791E+03  0.30980796962E+03 -0.14860132232E+04  0.15360446032E+04  0.46999998093E+01 0.  1.
</event>
<event>
 5   0  0.4173905E-07  0.3104631E+04  0.7818609E-02  0.8214468E-01
       -1   -1    0    0    0  501  0.00000000000E+00  0.00000000000E+00  0.15734362530E+04  0.15734362530E+04  0.50400001928E-02 0. -1.
        1   -1    0    0  501    0  0.00000000000E+00  0.00000000000E+00 -0.15314781143E+04  0.15314781143E+04  0.50400001928E-02 0.  1.
    10030    2    1    2    0    0  0.00000000000E+00  0.00000000000E+00  0.41958138685E+02  0.31049143673E+04  0.31046308546E+04 0.  0.
        3    1    3    3  502    0  0.13612983944E+04  0.54942648941E+03 -0.48372570205E+03  0.15456368755E+04  0.10100000352E+00 0.  1.
       -3    1    3    3    0  502 -0.13612983944E+04 -0.54942648941E+03  0.52568384073E+03  0.15592774918E+04  0.10100000352E+00 0. -1.
</event>
<event>
 5   0  0.1176002E-06  0.3118293E+04  0.7818609E-02  0.8210736E-01
       -2   -1    0    0    0  501  0.00000000000E+00  0.00000000000E+00  0.16412042258E+04  0.16412042258E+04  0.25500000920E-02 0.  1.
        2   -1    0    0  501    0  0.00000000000E+00  0.00000000000E+00 -0.14811911757E+04  0.14811911757E+04  0.25500000920E-02 0. -1.
    10030    2    1    2    0    0  0.00000000000E+00  0.00000000000E+00  0.16001305005E+03  0.31223954015E+04  0.31182926205E+04 0.  0.
        2    1    3    3  502    0 -0.40667856892E+03  0.14922319064E+04  0.27722682316E+03  0.15713046275E+04  0.25500000920E-02 0.  1.
       -2    1    3    3    0  502  0.40667856892E+03 -0.14922319064E+04 -0.11721377311E+03  0.15510907741E+04  0.25500000920E-02 0. -1.
</event>
<event>
 5   0  0.1193123E-06  0.3085285E+04  0.7818609E-02  0.8219788E-01
       -2   -1    0    0    0  501  0.00000000000E+00  0.00000000000E+00  0.10790538685E+04  0.10790538685E+04  0.25500000920E-02 0.  1.
        2   -1    0    0  501    0  0.00000000000E+00  0.00000000000E+00 -0.22054004071E+04  0.22054004071E+04  0.25500000920E-02 0. -1.
    10030    2    1    2    0    0  0.00000000000E+00  0.00000000000E+00 -0.11263465386E+04  0.32844542757E+04  0.30852849729E+04 0.  0.
        3    1    3    3  502    0  0.78202644273E+02 -0.44514993748E+02  0.10762575926E+04  0.10800128028E+04  0.10100000352E+00 0.  1.
       -3    1    3    3    0  502 -0.78202644273E+02  0.44514993748E+02 -0.22026041313E+04  0.22044414729E+04  0.10100000352E+00 0. -1.
</event>
<event>
 5   0  0.4173905E-07  0.3130763E+04  0.7818609E-02  0.8207346E-01
       -1   -1    0    0    0  501  0.00000000000E+00  0.00000000000E+00  0.15501677905E+04  0.15501677905E+04  0.50400001928E-02 0.  1.
        1   -1    0    0  501    0  0.00000000000E+00  0.00000000000E+00 -0.15807447551E+04  0.15807447551E+04  0.50400001928E-02 0. -1.
    10030    2    1    2    0    0  0.00000000000E+00  0.00000000000E+00 -0.30576964582E+02  0.31309125456E+04  0.31307632324E+04 0.  0.
        3    1    3    3  502    0  0.88858310958E+03 -0.13946073960E+03 -0.12965171585E+04  0.15779689455E+04  0.10100000352E+00 0. -1.
       -3    1    3    3    0  502 -0.88858310958E+03  0.13946073960E+03  0.12659401939E+04  0.15529436001E+04  0.10100000352E+00 0.  1.
</event>
<event>
 5   0  0.4134019E-07  0.3098723E+04  0.7818609E-02  0.8216088E-01
       -1   -1    0    0    0  501  0.00000000000E+00  0.00000000000E+00  0.12856094037E+04  0.12856094037E+04  0.50400001928E-02 0.  1.
        1   -1    0    0  501    0  0.00000000000E+00  0.00000000000E+00 -0.18672246678E+04  0.18672246678E+04  0.50400001928E-02 0. -1.
    10030    2    1    2    0    0  0.00000000000E+00  0.00000000000E+00 -0.58161526402E+03  0.31528340715E+04  0.30987233447E+04 0.  0.
        2    1    3    3  502    0  0.11270463506E+04  0.10277050883E+04 -0.56779361555E+03  0.16275136911E+04  0.25500000920E-02 0. -1.
       -2    1    3    3    0  502 -0.11270463506E+04 -0.10277050883E+04 -0.13821648471E+02  0.15253203804E+04  0.25500000920E-02 0.  1.
</event>
<event>
 5   0  0.1176002E-06  0.3077810E+04  0.7818609E-02  0.8221854E-01
       -2   -1    0    0    0  501  0.00000000000E+00  0.00000000000E+00  0.15454002107E+04  0.15454002107E+04  0.25500000920E-02 0. -1.
        2   -1    0    0  501    0  0.00000000000E+00  0.00000000000E+00 -0.15324371132E+04  0.15324371132E+04  0.25500000920E-02 0.  1.
    10030    2    1    2    0    0  0.00000000000E+00  0.00000000000E+00  0.12963097489E+02  0.30778373240E+04  0.30778100252E+04 0.  0.
        2    1    3    3  502    0  0.47579971185E+01  0.58522199540E+03 -0.14168094089E+04  0.15329241088E+04  0.25500000920E-02 0.  1.
       -2    1    3    3    0  502 -0.47579971185E+01 -0.58522199540E+03  0.14297725063E+04  0.15449132151E+04  0.25500000920E-02 0. -1.
</event>
<event>
 5   0  0.4219337E-07  0.3099244E+04  0.7818609E-02  0.8215946E-01
        1   -1    0    0  501    0  0.00000000000E+00  0.00000000000E+00  0.23590727612E+04  0.23590727612E+04  0.50400001928E-02 0. -1.
       -1   -1    0    0    0  501  0.00000000000E+00  0.00000000000E+00 -0.10179116714E+04  0.10179116714E+04  0.50400001928E-02 0.  1.
    10030    2    1    2    0    0  0.00000000000E+00  0.00000000000E+00  0.13411610898E+04  0.33769844326E+04  0.30992435834E+04 0.  0.
        4    1    3    3  502    0 -0.74839859620E+02  0.80445675439E+03  0.21114193849E+04  0.22607178299E+04  0.12699999809E+01 0. -1.
       -4    1    3    3    0  502  0.74839859620E+02 -0.80445675439E+03 -0.77025829515E+03  0.11162666028E+04  0.12699999809E+01 0.  1.
</event>
<event>
 5   0  0.1258262E-06  0.3114537E+04  0.7818609E-02  0.8211760E-01
        2   -1    0    0  501    0  0.00000000000E+00  0.00000000000E+00  0.19472602225E+04  0.19472602225E+04  0.25500000920E-02 0. -1.
       -2   -1    0    0    0  501  0.00000000000E+00  0.00000000000E+00 -0.12453830968E+04  0.12453830968E+04  0.25500000920E-02 0.  1.
    10030    2    1    2    0    0  0.00000000000E+00  0.00000000000E+00  0.70187712572E+03  0.31926433193E+04  0.31145368619E+04 0.  0.
        1    1    3    3  502    0 -0.58828007252E+03 -0.13239133816E+04  0.93645904380E+03  0.17250436593E+04  0.50400001928E-02 0. -1.
       -1    1    3    3    0  502  0.58828007252E+03  0.13239133816E+04 -0.23458191808E+03  0.14675996600E+04  0.50400001928E-02 0.  1.
</event>
<event>
 5   0  0.4219337E-07  0.3108366E+04  0.7818609E-02  0.8213446E-01
        1   -1    0    0  501    0  0.00000000000E+00  0.00000000000E+00  0.14925831622E+04  0.14925831622E+04  0.50400001928E-02 0. -1.
       -1   -1    0    0    0  501  0.00000000000E+00  0.00000000000E+00 -0.16183252661E+04  0.16183252662E+04  0.50400001928E-02 0.  1.
    10030    2    1    2    0    0  0.00000000000E+00  0.00000000000E+00 -0.12574210396E+03  0.31109084284E+04  0.31083661581E+04 0.  0.
        4    1    3    3  502    0  0.15505834708E+04 -0.82356727872E+02 -0.12919515278E+03  0.15581350170E+04  0.12699999809E+01 0.  1.
       -4    1    3    3    0  502 -0.15505834708E+04  0.82356727872E+02  0.34530488283E+01  0.15527734114E+04  0.12699999809E+01 0. -1.
</event>
<event>
 5   0  0.4173905E-07  0.3094945E+04  0.7818609E-02  0.8217127E-01
       -1   -1    0    0    0  501  0.00000000000E+00  0.00000000000E+00  0.13435449508E+04  0.13435449508E+04  0.50400001928E-02 0. -1.
        1   -1    0    0  501    0  0.00000000000E+00  0.00000000000E+00 -0.17823527016E+04  0.17823527016E+04  0.50400001928E-02 0.  1.
    10030    2    1    2    0    0  0.00000000000E+00  0.00000000000E+00 -0.43880775079E+03  0.31258976524E+04  0.30949448931E+04 0.  0.
        3    1    3    3  502    0 -0.31998517008E+02 -0.95260818116E+03 -0.14506878534E+04  0.17357942015E+04  0.10100000352E+00 0.  1.
       -3    1    3    3    0  502  0.31998517008E+02  0.95260818116E+03  0.10118801026E+04  0.13901034509E+04  0.10100000352E+00 0. -1.
</event>
<event>
 5   0  0.4134019E-07  0.3087492E+04  0.7818609E-02  0.8219179E-01
        1   -1    0    0  501    0  0.00000000000E+00  0.00000000000E+00  0.19069624459E+04  0.19069624459E+04  0.50400001928E-02 0.  1.
       -1   -1    0    0    0  501  0.00000000000E+00  0.00000000000E+00 -0.12497110800E+04  0.12497110800E+04  0.50400001928E-02 0. -1.
    10030    2    1    2    0    0  0.00000000000E+00  0.00000000000E+00  0.65725136596E+03  0.31566735259E+04  0.30874922496E+04 0.  0.
        2    1    3    3  502    0  0.37132685870E+02  0.51078683635E+03  0.18175781152E+04  0.18883517239E+04  0.25500000920E-02 0.  1.
       -2    1    3    3    0  502 -0.37132685870E+02 -0.51078683635E+03 -0.11603267492E+04  0.12683218020E+04  0.25500000920E-02 0. -1.
</event>
<event>
 5   0  0.1258262E-06  0.3108435E+04  0.7818609E-02  0.8213427E-01
        2   -1    0    0  501    0  0.00000000000E+00  0.00000000000E+00  0.13931487236E+04  0.13931487236E+04  0.25500000920E-02 0.  1.
       -2   -1    0    0    0  501  0.00000000000E+00  0.00000000000E+00 -0.17339084009E+04  0.17339084009E+04  0.25500000920E-02 0. -1.
    10030    2    1    2    0    0  0.00000000000E+00  0.00000000000E+00 -0.34075967725E+03  0.31270571245E+04  0.31084351533E+04 0.  0.
        1    1    3    3  502    0  0.15107310192E+04 -0.23964897409E+03  0.10668330642E+03  0.15333366137E+04  0.50400001928E-02 0.  1.
       -1    1    3    3    0  502 -0.15107310192E+04  0.23964897409E+03 -0.44744298367E+03  0.15937205108E+04  0.50400001928E-02 0. -1.
</event>
<event>
 5   0  0.1200286E-06  0.3075092E+04  0.7818609E-02  0.8222607E-01
        2   -1    0    0  501    0  0.00000000000E+00  0.00000000000E+00  0.17154897299E+04  0.17154897299E+04  0.25500000920E-02 0.  1.
       -2   -1    0    0    0  501  0.00000000000E+00  0.00000000000E+00 -0.13780596057E+04  0.13780596057E+04  0.25500000920E-02 0. -1.
    10030    2    1    2    0    0  0.00000000000E+00  0.00000000000E+00  0.33743012422E+03  0.30935493356E+04  0.30750916089E+04 0.  0.
        5    1    3    3  502    0 -0.65782074741E+03 -0.44688039186E+03  0.14925142903E+04  0.16911685951E+04  0.46999998093E+01 0.  1.
       -5    1    3    3    0  502  0.65782074741E+03  0.44688039186E+03 -0.11550841661E+04  0.14023807404E+04  0.46999998093E+01 0. -1.
</event>
<event>
 5   0  0.3935852E-07  0.3103922E+04  0.7818609E-02  0.8214662E-01
       -1   -1    0    0    0  501  0.00000000000E+00  0.00000000000E+00  0.10302407142E+04  0.10302407143E+04  0.50400001928E-02 0.  1.
        1   -1    0    0  501    0  0.00000000000E+00  0.00000000000E+00 -0.23378839768E+04  0.23378839768E+04  0.50400001928E-02 0. -1.
    10030    2    1    2    0    0  0.00000000000E+00  0.00000000000E+00 -0.13076432626E+04  0.33681246911E+04  0.31039222014E+04 0.  0.
        5    1    3    3  502    0 -0.33500715481E+03  0.15032727584E+04 -0.44650317122E+03  0.16035728707E+04  0.46999998093E+01 0.  1.
       -5    1    3    3    0  502  0.33500715481E+03 -0.15032727584E+04 -0.86114009136E+03  0.17645518204E+04  0.46999998093E+01 0. -1.
</event>
<event>
 5   0  0.1237580E-06  0.3114382E+04  0.7818609E-02  0.8211802E-01
       -2   -1    0    0    0  501  0.00000000000E+00  0.00000000000E+00  0.93179317817E+03  0.93179317818E+03  0.25500000920E-02 0.  1.
        2   -1    0    0  501    0  0.00000000000E+00  0.00000000000E+00 -0.26023404120E+04  0.26023404120E+04  0.25500000920E-02 0. -1.
    10030    2    1    2    0    0  0.00000000000E+00  0.00000000000E+00 -0.16705472338E+04  0.35341335902E+04  0.31143815073E+04 0.  0.
        4    1    3    3  502    0 -0.83502283036E+03  0.30029122019E+03  0.61680123885E+03  0.10806865065E+04  0.12699999809E+01 0.  1.
       -4    1    3    3    0  502  0.83502283036E+03 -0.30029122019E+03 -0.22873484727E+04  0.24534470837E+04  0.12699999809E+01 0. -1.
</event>
<event>
 5   0  0.4330395E-07  0.3102984E+04  0.7818609E-02  0.8214920E-01
        1   -1    0    0  501    0  0.00000000000E+00  0.00000000000E+00  0.10278375661E+04  0.10278375661E+04  0.50400001928E-02 0.  1.
       -1   -1    0    0    0  501  0.00000000000E+00  0.00000000000E+00 -0.23419329445E+04  0.23419329445E+04  0.50400001928E-02 0. -1.
    10030    2    1    2    0    0  0.00000000000E+00  0.00000000000E+00 -0.13140953784E+04  0.33697705106E+04  0.31029835047E+04 0.  0.
        1    1    3    3  502    0 -0.53938486873E+03 -0.89314315041E+03  0.58992978680E+03  0.11986066399E+04  0.50400001928E-02 0.  1.
       -1    1    3    3    0  502  0.53938486873E+03  0.89314315041E+03 -0.19040251652E+04  0.21711638707E+04  0.50400001928E-02 0. -1.
</event>
<event>
 5   0  0.3935852E-07  0.3111944E+04  0.7818609E-02  0.8212468E-01
        1   -1    0    0  501    0  0.00000000000E+00  0.00000000000E+00  0.20554935440E+04  0.20554935440E+04  0.50400001928E-02 0.  1.
       -1   -1    0    0    0  501  0.00000000000E+00  0.00000000000E+00 -0.11778430310E+04  0.11778430310E+04  0.50400001928E-02 0. -1.
    10030    2    1    2    0    0  0.00000000000E+00  0.00000000000E+00  0.87765051301E+03  0.32333365750E+04  0.31119439237E+04 0.  0.
        5    1    3    3  502    0 -0.27798588554E+03 -0.14972077219E+04  0.10679812011E+03  0.15265434954E+04  0.46999998093E+01 0.  1.
       -5    1    3    3    0  502  0.27798588554E+03  0.14972077219E+04  0.77085239291E+03  0.17067930796E+04  0.46999998093E+01 0. -1.
</event>
<event>
 5   0  0.4134019E-07  0.3105045E+04  0.7818609E-02  0.8214355E-01
       -1   -1    0    0    0  501  0.00000000000E+00  0.00000000000E+00  0.16941975515E+04  0.16941975515E+04  0.50400001928E-02 0.  1.
        1   -1    0    0  501    0  0.00000000000E+00  0.00000000000E+00 -0.14226944496E+04  0.14226944496E+04  0.50400001928E-02 0. -1.
    10030    2    1    2    0    0  0.00000000000E+00  0.00000000000E+00  0.27150310196E+03  0.31168920011E+04  0.31050445749E+04 0.  0.
        2    1    3    3  502    0 -0.65038147231E+03 -0.72371486803E+03 -0.10786438069E+04  0.14526636678E+04  0.25500000920E-02 0. -1.
       -2    1    3    3    0  502  0.65038147231E+03  0.72371486803E+03  0.13501469088E+04  0.16642283333E+04  0.25500000920E-02 0.  1.
</event>
<event>
 5   0  0.4134019E-07  0.3102003E+04  0.7818609E-02  0.8215188E-01
        1   -1    0    0  501    0  0.00000000000E+00  0.00000000000E+00  0.20131880908E+04  0.20131880908E+04  0.50400001928E-02 0. -1.
       -1   -1    0    0    0  501  0.00000000000E+00  0.00000000000E+00 -0.11949233819E+04  0.11949233819E+04  0.50400001928E-02 0.  1.
    10030    2    1    2    0    0  0.00000000000E+00  0.00000000000E+00  0.81826470886E+03  0.32081114727E+04  0.31020029154E+04 0.  0.
        2    1    3    3  502    0  0.87747432716E+03 -0.11052378785E+04  0.10746452671E+04  0.17738022474E+04  0.25500000920E-02 0. -1.
       -2    1    3    3    0  502 -0.87747432716E+03  0.11052378785E+04 -0.25638055821E+03  0.14343092252E+04  0.25500000920E-02 0.  1.
</event>
<event>
 5   0  0.3935852E-07  0.3150431E+04  0.7818609E-02  0.8202032E-01
        1   -1    0    0  501    0  0.00000000000E+00  0.00000000000E+00  0.19335019624E+04  0.19335019624E+04  0.50400001928E-02 0.  1.
       -1   -1    0    0    0  501  0.00000000000E+00  0.00000000000E+00 -0.12833210766E+04  0.12833210766E+04  0.50400001928E-02 0. -1.
    10030    2    1    2    0    0  0.00000000000E+00  0.00000000000E+00  0.65018088580E+03  0.32168230390E+04  0.31504309673E+04 0.  0.
        5    1    3    3  502    0  0.86831340610E+03  0.17943853471E+03  0.16544939918E+04  0.18771091651E+04  0.46999998093E+01 0.  1.
       -5    1    3    3    0  502 -0.86831340610E+03 -0.17943853471E+03 -0.10043131060E+04  0.13397138739E+04  0.46999998093E+01 0. -1.
</event>
<event>
 5   0  0.3935852E-07  0.3095161E+04  0.7818609E-02  0.8217067E-01
        1   -1    0    0  501    0  0.00000000000E+00  0.00000000000E+00  0.18393645061E+04  0.18393645061E+04  0.50400001928E-02 0. -1.
       -1   -1    0    0    0  501  0.00000000000E+00  0.00000000000E+00 -0.13020826884E+04  0.13020826884E+04  0.50400001928E-02 0.  1.
    10030    2    1    2    0    0  0.00000000000E+00  0.00000000000E+00  0.53728181772E+03  0.31414471945E+04  0.30951605329E+04 0.  0.
        5    1    3    3  502    0  0.15722558851E+02 -0.67032769155E+03 -0.11469918831E+04  0.13286078740E+04  0.46999998093E+01 0.  1.
       -5    1    3    3    0  502 -0.15722558851E+02  0.67032769155E+03  0.16842737008E+04  0.18128393206E+04  0.46999998093E+01 0. -1.
</event>
<event>
 5   0  0.4134019E-07  0.3093940E+04  0.7818609E-02  0.8217403E-01
       -1   -1    0    0    0  501  0.00000000000E+00  0.00000000000E+00  0.11330323349E+04  0.11330323350E+04  0.50400001928E-02 0.  1.
        1   -1    0    0  501    0  0.00000000000E+00  0.00000000000E+00 -0.21121335645E+04  0.21121335645E+04  0.50400001928E-02 0. -1.
    10030    2    1    2    0    0  0.00000000000E+00  0.00000000000E+00 -0.97910122957E+03  0.32451658995E+04  0.30939396402E+04 0.  0.
        2    1    3    3  502    0  0.13801057516E+04  0.44083451560E+03 -0.10583566721E+04  0.17941978155E+04  0.25500000920E-02 0. -1.
       -2    1    3    3    0  502 -0.13801057516E+04 -0.44083451560E+03  0.79255442540E+02  0.14509680840E+04  0.25500000920E-02 0.  1.
</event>
<event>
 5   0  0.4134019E-07  0.3098010E+04  0.7818609E-02  0.8216284E-01
       -1   -1    0    0    0  501  0.00000000000E+00  0.00000000000E+00  0.11793330415E+04  0.11793330415E+04  0.50400001928E-02 0.  1.
        1   -1    0    0  501    0  0.00000000000E+00  0.00000000000E+00 -0.20345531375E+04  0.20345531375E+04  0.50400001928E-02 0. -1.
    10030    2    1    2    0    0  0.00000000000E+00  0.00000000000E+00 -0.85522009599E+03  0.32138861791E+04  0.30980095157E+04 0.  0.
        2    1    3    3  502    0  0.11181562526E+04  0.52957385437E+02 -0.15383286893E+04  0.19025070424E+04  0.25500000920E-02 0. -1.
       -2    1    3    3    0  502 -0.11181562526E+04 -0.52957385437E+02  0.68310859328E+03  0.13113791367E+04  0.25500000920E-02 0.  1.
</event>
<event>
 5   0  0.4134019E-07  0.3103403E+04  0.7818609E-02  0.8214804E-01
        1   -1    0    0  501    0  0.00000000000E+00  0.00000000000E+00  0.10941895181E+04  0.10941895181E+04  0.50400001928E-02 0. -1.
       -1   -1    0    0    0  501  0.00000000000E+00  0.00000000000E+00 -0.22005129732E+04  0.22005129732E+04  0.50400001928E-02 0.  1.
    10030    2    1    2    0    0  0.00000000000E+00  0.00000000000E+00 -0.11063234551E+04  0.32947024912E+04  0.31034034411E+04 0.  0.
        2    1    3    3  502    0  0.13183658459E+04 -0.81441884474E+03 -0.63817047071E+03  0.16758962104E+04  0.25500000920E-02 0. -1.
       -2    1    3    3    0  502 -0.13183658459E+04  0.81441884474E+03 -0.46815298440E+03  0.16188062809E+04  0.25500000920E-02 0.  1.
</event>
<event>
 5   0  0.1258262E-06  0.3100858E+04  0.7818609E-02  0.8215503E-01
       -2   -1    0    0    0  501  0.00000000000E+00  0.00000000000E+00  0.10259390609E+04  0.10259390609E+04  0.25500000920E-02 0.  1.
        2   -1    0    0  501    0  0.00000000000E+00  0.00000000000E+00 -0.23430529435E+04  0.23430529435E+04  0.25500000920E-02 0. -1.
    10030    2    1    2    0    0  0.00000000000E+00  0.00000000000E+00 -0.13171138825E+04  0.33689920044E+04  0.31008576469E+04 0.  0.
        1    1    3    3  502    0 -0.18325033240E+03 -0.13649915825E+04 -0.14322027692E+04  0.19869543217E+04  0.50400001928E-02 0. -1.
       -1    1    3    3    0  502  0.18325033240E+03  0.13649915825E+04  0.11508888669E+03  0.13820376827E+04  0.50400001928E-02 0.  1.
</event>
<event>
 5   0  0.3935852E-07  0.3088169E+04  0.7818609E-02  0.8218992E-01
        1   -1    0    0  501    0  0.00000000000E+00  0.00000000000E+00  0.16280420519E+04  0.16280420519E+04  0.50400001928E-02 0.  1.
       -1   -1    0    0    0  501  0.00000000000E+00  0.00000000000E+00 -0.14644569914E+04  0.14644569914E+04  0.50400001928E-02 0. -1.
    10030    2    1    2    0    0  0.00000000000E+00  0.00000000000E+00  0.16358506047E+03  0.30924990434E+04  0.30881694029E+04 0.  0.
        5    1    3    3  502    0  0.11951673476E+04  0.16373832345E+03 -0.88337421111E+03  0.14951947412E+04  0.46999998093E+01 0. -1.
       -5    1    3    3    0  502 -0.11951673476E+04 -0.16373832345E+03  0.10469592716E+04  0.15973043022E+04  0.46999998093E+01 0.  1.
</event>
<event>
 5   0  0.4134019E-07  0.3107087E+04  0.7818609E-02  0.8213796E-01
        1   -1    0    0  501    0  0.00000000000E+00  0.00000000000E+00  0.13271442496E+04  0.13271442496E+04  0.50400001928E-02 0.  1.
       -1   -1    0    0    0  501  0.00000000000E+00  0.00000000000E+00 -0.18185649645E+04  0.18185649645E+04  0.50400001928E-02 0. -1.
    10030    2    1    2    0    0  0.00000000000E+00  0.00000000000E+00 -0.49142071493E+03  0.31457092141E+04  0.31070874048E+04 0.  0.
        2    1    3    3  502    0  0.12309734706E+04  0.60618750529E+03  0.49186369283E+03  0.14576312528E+04  0.25500000920E-02 0.  1.
       -2    1    3    3    0  502 -0.12309734706E+04 -0.60618750529E+03 -0.98328440776E+03  0.16880779613E+04  0.25500000920E-02 0. -1.
</event>
<event>
 5   0  0.4330395E-07  0.3105267E+04  0.7818609E-02  0.8214294E-01
        1   -1    0    0  501    0  0.00000000000E+00  0.00000000000E+00  0.13215158471E+04  0.13215158471E+04  0.50400001928E-02 0.  1.
       -1   -1    0    0    0  501  0.00000000000E+00  0.00000000000E+00 -0.18241713240E+04  0.18241713240E+04  0.50400001928E-02 0. -1.
    10030    2    1    2    0    0  0.00000000000E+00  0.00000000000E+00 -0.50265547696E+03  0.31456871711E+04  0.31052673395E+04 0.  0.
        1    1    3    3  502    0  0.14680141185E+04  0.27098759202E+03 -0.68369903441E+03  0.16419330366E+04  0.50400001928E-02 0. -1.
       -1    1    3    3    0  502 -0.14680141185E+04 -0.27098759202E+03  0.18104355744E+03  0.15037541344E+04  0.50400001928E-02 0.  1.
</event>
<event>
 5   0  0.1200286E-06  0.3101213E+04  0.7818609E-02  0.8215405E-01
        2   -1    0    0  501    0  0.00000000000E+00  0.00000000000E+00  0.25087008071E+04  0.25087008071E+04  0.25500000920E-02 0. -1.
       -2   -1    0    0    0  501  0.00000000000E+00  0.00000000000E+00 -0.95841688009E+03  0.95841688010E+03  0.25500000920E-02 0.  1.
    10030    2    1    2    0    0  0.00000000000E+00  0.00000000000E+00  0.15502839270E+04  0.34671176872E+04  0.31012134403E+04 0.  0.
        5    1    3    3  502    0 -0.79725689173E+03  0.11712002082E+04  0.14795899518E+04  0.20485450922E+04  0.46999998093E+01 0.  1.
       -5    1    3    3    0  502  0.79725689173E+03 -0.11712002082E+04  0.70693975193E+02  0.14185725950E+04  0.46999998093E+01 0. -1.
</event>
<event>
 5   0  0.1200286E-06  0.3092125E+04  0.7818609E-02  0.8217902E-01
       -2   -1    0    0    0  501  0.00000000000E+00  0.00000000000E+00  0.25958380008E+04  0.25958380008E+04  0.25500000920E-02 0.  1.
        2   -1    0    0  501    0  0.00000000000E+00  0.00000000000E+00 -0.92082391357E+03  0.92082391357E+03  0.25500000920E-02 0. -1.
    10030    2    1    2    0    0  0.00000000000E+00  0.00000000000E+00  0.16750140872E+04  0.35166619144E+04  0.30921252930E+04 0.  0.
        5    1    3    3  502    0  0.12097035074E+04  0.95122366187E+03  0.10064963272E+04  0.18388218993E+04  0.46999998093E+01 0.  1.
       -5    1    3    3    0  502 -0.12097035074E+04 -0.95122366187E+03  0.66851776009E+03  0.16778400151E+04  0.46999998093E+01 0. -1.
</event>
<event>
 5   0  0.1237580E-06  0.3142321E+04  0.7818609E-02  0.8204218E-01
       -2   -1    0    0    0  501  0.00000000000E+00  0.00000000000E+00  0.18971374525E+04  0.18971374525E+04  0.25500000920E-02 0.  1.
        2   -1    0    0  501    0  0.00000000000E+00  0.00000000000E+00 -0.13011946938E+04  0.13011946938E+04  0.25500000920E-02 0. -1.
    10030    2    1    2    0    0  0.00000000000E+00  0.00000000000E+00  0.59594275870E+03  0.31983321464E+04  0.31423209172E+04 0.  0.
        4    1    3    3  502    0  0.13242626280E+04 -0.54689864295E+02 -0.56079840121E+03  0.14391521632E+04  0.12699999809E+01 0. -1.
       -4    1    3    3    0  502 -0.13242626280E+04  0.54689864295E+02  0.11567411599E+04  0.17591799832E+04  0.12699999809E+01 0.  1.
</event>
<event>
 5   0  0.3935852E-07  0.3092847E+04  0.7818609E-02  0.8217704E-01
        1   -1    0    0  501    0  0.00000000000E+00  0.00000000000E+00  0.14714445674E+04  0.14714445674E+04  0.50400001928E-02 0. -1.
       -1   -1    0    0    0  501  0.00000000000E+00  0.00000000000E+00 -0.16252233426E+04  0.16252233426E+04  0.50400001928E-02 0.  1.
    10030    2    1    2    0    0  0.00000000000E+00  0.00000000000E+00 -0.15377877514E+03  0.30966679100E+04  0.30928472696E+04 0.  0.
        5    1    3    3  502    0 -0.39203898921E+03  0.14775339903E+04  0.15707149190E+03  0.15367155902E+04  0.46999998093E+01 0. -1.
       -5    1    3    3    0  502  0.39203898921E+03 -0.14775339903E+04 -0.31085026704E+03  0.15599523198E+04  0.46999998093E+01 0.  1.
</event>
<event>
 5   0  0.1176002E-06  0.2951764E+04  0.7818609E-02  0.8257641E-01
        2   -1    0    0  501    0  0.00000000000E+00  0.00000000000E+00  0.16348122602E+04  0.16348122602E+04  0.25500000920E-02 0. -1.
       -2   -1    0    0    0  501  0.00000000000E+00  0.00000000000E+00 -0.13324026953E+04  0.13324026953E+04  0.25500000920E-02 0.  1.
    10030    2    1    2    0    0  0.00000000000E+00  0.00000000000E+00  0.30240956485E+03  0.29672149555E+04  0.29517643956E+04 0.  0.
        2    1    3    3  502    0  0.34592296512E+03  0.10491288404E+03  0.15896241297E+04  0.16302068227E+04  0.25500000920E-02 0. -1.
       -2    1    3    3    0  502 -0.34592296512E+03 -0.10491288404E+03 -0.12872145649E+04  0.13370081328E+04  0.25500000920E-02 0.  1.
</event>
<event>
 5   0  0.4134019E-07  0.3104740E+04  0.7818609E-02  0.8214438E-01
       -1   -1    0    0    0  501  0.00000000000E+00  0.00000000000E+00  0.12284162573E+04  0.12284162573E+04  0.50400001928E-02 0. -1.
        1   -1    0    0  501    0  0.00000000000E+00  0.00000000000E+00 -0.19617557848E+04  0.19617557848E+04  0.50400001928E-02 0.  1.
    10030    2    1    2    0    0  0.00000000000E+00  0.00000000000E+00 -0.73333952751E+03  0.31901720421E+04  0.31047400528E+04 0.  0.
        2    1    3    3  502    0  0.13443859998E+04  0.78385346085E+02 -0.11601459699E+04  0.17774860479E+04  0.25500000920E-02 0.  1.
       -2    1    3    3    0  502 -0.13443859998E+04 -0.78385346085E+02  0.42680644241E+03  0.14126859942E+04  0.25500000920E-02 0. -1.
</event>
<event>
 5   0  0.1176002E-06  0.3105557E+04  0.7818609E-02  0.8214214E-01
        2   -1    0    0  501    0  0.00000000000E+00  0.00000000000E+00  0.30070426859E+04  0.30070426859E+04  0.25500000920E-02 0.  1.
       -2   -1    0    0    0  501  0.00000000000E+00  0.00000000000E+00 -0.80182476690E+03  0.80182476690E+03  0.25500000920E-02 0. -1.
    10030    2    1    2    0    0  0.00000000000E+00  0.00000000000E+00  0.22052179190E+04  0.38088674528E+04  0.31055571485E+04 0.  0.
        2    1    3    3  502    0 -0.10146429760E+04 -0.90482297233E+03  0.20228005379E+04  0.24371965444E+04  0.25500000920E-02 0.  1.
       -2    1    3    3    0  502  0.10146429760E+04  0.90482297233E+03  0.18241738109E+03  0.13716709084E+04  0.25500000920E-02 0. -1.
</event>
<event>
 5   0  0.3935852E-07  0.3095037E+04  0.7818609E-02  0.8217101E-01
       -1   -1    0    0    0  501  0.00000000000E+00  0.00000000000E+00  0.26401398913E+04  0.26401398913E+04  0.50400001928E-02 0.  1.
        1   -1    0    0  501    0  0.00000000000E+00  0.00000000000E+00 -0.90707816285E+03  0.90707816287E+03  0.50400001928E-02 0. -1.
    10030    2    1    2    0    0  0.00000000000E+00  0.00000000000E+00  0.17330617285E+04  0.35472180542E+04  0.30950368284E+04 0.  0.
        5    1    3    3  502    0 -0.35820636888E+03 -0.14675159889E+04  0.12515862491E+04  0.19617352546E+04  0.46999998093E+01 0.  1.
       -5    1    3    3    0  502  0.35820636888E+03  0.14675159889E+04  0.48147547936E+03  0.15854827995E+04  0.46999998093E+01 0. -1.
</event>
<event>
 5   0  0.1237580E-06  0.3091428E+04  0.7818609E-02  0.8218094E-01
        2   -1    0    0  501    0  0.00000000000E+00  0.00000000000E+00  0.16569776579E+04  0.16569776579E+04  0.25500000920E-02 0.  1.
       -2   -1    0    0    0  501  0.00000000000E+00  0.00000000000E+00 -0.14419212400E+04  0.14419212400E+04  0.25500000920E-02 0. -1.
    10030    2    1    2    0    0  0.00000000000E+00  0.00000000000E+00  0.21505641786E+03  0.30988988980E+04  0.30914276826E+04 0.  0.
        4    1    3    3  502    0  0.13023959679E+04  0.44420956763E+03  0.81326966196E+03  0.15984262739E+04  0.12699999809E+01 0.  1.
       -4    1    3    3    0  502 -0.13023959679E+04 -0.44420956763E+03 -0.59821324411E+03  0.15004726240E+04  0.12699999809E+01 0. -1.
</event>
<event>
 5   0  0.4330395E-07  0.3108643E+04  0.7818609E-02  0.8213370E-01
        1   -1    0    0  501    0  0.00000000000E+00  0.00000000000E+00  0.16021364523E+04  0.16021364523E+04  0.50400001928E-02 0. -1.
       -1   -1    0    0    0  501  0.00000000000E+00  0.00000000000E+00 -0.15079339448E+04  0.15079339448E+04  0.50400001928E-02 0.  1.
    10030    2    1    2    0    0  0.00000000000E+00  0.00000000000E+00  0.94202507444E+02  0.31100703971E+04  0.31086433959E+04 0.  0.
        1    1    3    3  502    0 -0.14902210864E+04 -0.19761547363E+03 -0.34818159410E+03  0.15430622749E+04  0.50400001928E-02 0.  1.
       -1    1    3    3    0  502  0.14902210864E+04  0.19761547363E+03  0.44238410154E+03  0.15670081222E+04  0.50400001928E-02 0. -1.
</event>
<event>
 5   0  0.3935852E-07  0.3104173E+04  0.7818609E-02  0.8214594E-01
       -1   -1    0    0    0  501  0.00000000000E+00  0.00000000000E+00  0.14883533877E+04  0.14883533878E+04  0.50400001928E-02 0. -1.
        1   -1    0    0  501    0  0.00000000000E+00  0.00000000000E+00 -0.16185488877E+04  0.16185488877E+04  0.50400001928E-02 0.  1.
    10030    2    1    2    0    0  0.00000000000E+00  0.00000000000E+00 -0.13019549997E+03  0.31069022755E+04  0.31041731397E+04 0.  0.
        5    1    3    3  502    0  0.11231444177E+04  0.10581228074E+04 -0.23219773414E+03  0.15604535035E+04  0.46999998093E+01 0.  1.
       -5    1    3    3    0  502 -0.11231444177E+04 -0.10581228074E+04  0.10200223417E+03  0.15464487720E+04  0.46999998093E+01 0. -1.
</event>
<event>
 5   0  0.4330395E-07  0.3096800E+04  0.7818609E-02  0.8216617E-01
        1   -1    0    0  501    0  0.00000000000E+00  0.00000000000E+00  0.11664768187E+04  0.11664768187E+04  0.50400001928E-02 0.  1.
       -1   -1    0    0    0  501  0.00000000000E+00  0.00000000000E+00 -0.20553708521E+04  0.20553708521E+04  0.50400001928E-02 0. -1.
    10030    2    1    2    0    0  0.00000000000E+00  0.00000000000E+00 -0.88889403335E+03  0.32218476708E+04  0.30967999308E+04 0.  0.
        1    1    3    3  502    0  0.13674945403E+04  0.53537684238E+03 -0.95505277639E+03  0.17517977871E+04  0.50400001928E-02 0. -1.
       -1    1    3    3    0  502 -0.13674945403E+04 -0.53537684238E+03  0.66158743041E+02  0.14700498837E+04  0.50400001928E-02 0.  1.
</event>
<event>
 5   0  0.1176002E-06  0.3107076E+04  0.7818609E-02  0.8213799E-01
        2   -1    0    0  501    0  0.00000000000E+00  0.00000000000E+00  0.12701305286E+04  0.12701305286E+04  0.25500000920E-02 0. -1.
       -2   -1    0    0    0  501  0.00000000000E+00  0.00000000000E+00 -0.19001826896E+04  0.19001826896E+04  0.25500000920E-02 0.  1.
    10030    2    1    2    0    0  0.00000000000E+00  0.00000000000E+00 -0.63005216099E+03  0.31703132182E+04  0.31070758240E+04 0.  0.
        2    1    3    3  502    0  0.51484054603E+03 -0.11950154810E+04  0.55098667204E+03  0.14130495747E+04  0.25500000920E-02 0. -1.
       -2    1    3    3    0  502 -0.51484054603E+03  0.11950154810E+04 -0.11810388330E+04  0.17572636435E+04  0.25500000920E-02 0.  1.
</event>
<event>
 5   0  0.1193123E-06  0.3113348E+04  0.7818609E-02  0.8212084E-01
        2   -1    0    0  501    0  0.00000000000E+00  0.00000000000E+00  0.10945576717E+04  0.10945576717E+04  0.25500000920E-02 0. -1.
       -2   -1    0    0    0  501  0.00000000000E+00  0.00000000000E+00 -0.22138927204E+04  0.22138927204E+04  0.25500000920E-02 0.  1.
    10030    2    1    2    0    0  0.00000000000E+00  0.00000000000E+00 -0.11193350487E+04  0.33084503921E+04  0.31133475627E+04 0.  0.
        3    1    3    3  502    0  0.65734815910E+03 -0.42375876810E+02  0.93915613057E+03  0.11471340658E+04  0.10100000352E+00 0. -1.
       -3    1    3    3    0  502 -0.65734815910E+03  0.42375876810E+02 -0.20584911792E+04  0.21613163263E+04  0.10100000352E+00 0.  1.
</event>
<event>
 5   0  0.3935852E-07  0.3123751E+04  0.7818609E-02  0.8209250E-01
       -1   -1    0    0    0  501  0.00000000000E+00  0.00000000000E+00  0.16502414767E+04  0.16502414767E+04  0.50400001928E-02 0. -1.
        1   -1    0    0  501    0  0.00000000000E+00  0.00000000000E+00 -0.14782410934E+04  0.14782410934E+04  0.50400001928E-02 0.  1.
    10030    2    1    2    0    0  0.00000000000E+00  0.00000000000E+00  0.17200038329E+03  0.31284825702E+04  0.31237507999E+04 0.  0.
        5    1    3    3  502    0 -0.17241958325E+03  0.34585689738E+03  0.16015958974E+04  0.16475669986E+04  0.46999998093E+01 0. -1.
       -5    1    3    3    0  502  0.17241958325E+03 -0.34585689738E+03 -0.14295955141E+04  0.14809155716E+04  0.46999998093E+01 0.  1.
</event>
<event>
 5   0  0.1200286E-06  0.3084692E+04  0.7818609E-02  0.8219952E-01
       -2   -1    0    0    0  501  0.00000000000E+00  0.00000000000E+00  0.27640304318E+04  0.27640304318E+04  0.25500000920E-02 0.  1.
        2   -1    0    0  501    0  0.00000000000E+00  0.00000000000E+00 -0.86063864021E+03  0.86063864022E+03  0.25500000920E-02 0. -1.
    10030    2    1    2    0    0  0.00000000000E+00  0.00000000000E+00  0.19033917916E+04  0.36246690720E+04  0.30846921353E+04 0.  0.
        5    1    3    3  502    0 -0.11059709229E+04  0.18922267974E+03 -0.29176762744E+03  0.11593650604E+04  0.46999998093E+01 0. -1.
       -5    1    3    3    0  502  0.11059709229E+04 -0.18922267974E+03  0.21951594190E+04  0.24653040116E+04  0.46999998093E+01 0.  1.
</event>
<event>
 5   0  0.1200286E-06  0.3096390E+04  0.7818609E-02  0.8216729E-01
        2   -1    0    0  501    0  0.00000000000E+00  0.00000000000E+00  0.18274536418E+04  0.18274536418E+04  0.25500000920E-02 0.  1.
       -2   -1    0    0    0  501  0.00000000000E+00  0.00000000000E+00 -0.13116108759E+04  0.13116108759E+04  0.25500000920E-02 0. -1.
    10030    2    1    2    0    0  0.00000000000E+00  0.00000000000E+00  0.51584276585E+03  0.31390645177E+04  0.30963902027E+04 0.  0.
        5    1    3    3  502    0 -0.35945175284E+03 -0.97252783958E+03  0.14234929207E+04  0.17610707387E+04  0.46999998093E+01 0.  1.
       -5    1    3    3    0  502  0.35945175284E+03  0.97252783958E+03 -0.90765015489E+03  0.13779937790E+04  0.46999998093E+01 0. -1.
</event>
<event>
 5   0  0.1200286E-06  0.3065160E+04  0.7818609E-02  0.8225365E-01
        2   -1    0    0  501    0  0.00000000000E+00  0.00000000000E+00  0.17889291768E+04  0.17889291768E+04  0.25500000920E-02 0. -1.
       -2   -1    0    0    0  501  0.00000000000E+00  0.00000000000E+00 -0.13129653317E+04  0.13129653317E+04  0.25500000920E-02 0.  1.
    10030    2    1    2    0    0  0.00000000000E+00  0.00000000000E+00  0.47596384516E+03  0.31018945085E+04  0.30651603481E+04 0.  0.
        5    1    3    3  502    0  0.61677929709E+03  0.88085088702E+03  0.13430693294E+04  0.17205151264E+04  0.46999998093E+01 0. -1.
       -5    1    3    3    0  502 -0.61677929709E+03 -0.88085088702E+03 -0.86710548425E+03  0.13813793821E+04  0.46999998093E+01 0.  1.
</event>
<event>
 5   0  0.4330395E-07  0.3088676E+04  0.7818609E-02  0.8218853E-01
       -1   -1    0    0    0  501  0.00000000000E+00  0.00000000000E+00  0.13885260547E+04  0.13885260547E+04  0.50400001928E-02 0.  1.
        1   -1    0    0  501    0  0.00000000000E+00  0.00000000000E+00 -0.17176342533E+04  0.17176342533E+04  0.50400001928E-02 0. -1.
    10030    2    1    2    0    0  0.00000000000E+00  0.00000000000E+00 -0.32910819864E+03  0.31061603080E+04  0.30886760356E+04 0.  0.
        1    1    3    3  502    0  0.71564413250E+03  0.72186601676E+03 -0.13337803213E+04  0.16769636299E+04  0.50400001928E-02 0. -1.
       -1    1    3    3    0  502 -0.71564413250E+03 -0.72186601676E+03  0.10046721227E+04  0.14291966781E+04  0.50400001928E-02 0.  1.
</event>
<event>
 5   0  0.1237580E-06  0.3082456E+04  0.7818609E-02  0.8220569E-01
       -2   -1    0    0    0  501  0.00000000000E+00  0.00000000000E+00  0.16642263651E+04  0.16642263651E+04  0.25500000920E-02 0. -1.
        2   -1    0    0  501    0  0.00000000000E+00  0.00000000000E+00 -0.14273200919E+04  0.14273200919E+04  0.25500000920E-02 0.  1.
    10030    2    1    2    0    0  0.00000000000E+00  0.00000000000E+00  0.23690627320E+03  0.30915464570E+04  0.30824559873E+04 0.  0.
        4    1    3    3  502    0 -0.56912960819E+03  0.52878577273E+03 -0.12165844658E+04  0.14434688357E+04  0.12699999809E+01 0.  1.
       -4    1    3    3    0  502  0.56912960819E+03 -0.52878577273E+03  0.14534907390E+04  0.16480776213E+04  0.12699999809E+01 0. -1.
</event>
<event>
 5   0  0.4330395E-07  0.3103648E+04  0.7818609E-02  0.8214738E-01
       -1   -1    0    0    0  501  0.00000000000E+00  0.00000000000E+00  0.10764638143E+04  0.10764638143E+04  0.50400001928E-02 0. -1.
        1   -1    0    0  501    0  0.00000000000E+00  0.00000000000E+00 -0.22371000136E+04  0.22371000136E+04  0.50400001928E-02 0.  1.
    10030    2    1    2    0    0  0.00000000000E+00  0.00000000000E+00 -0.11606361993E+04  0.33135638279E+04  0.31036476692E+04 0.  0.
        1    1    3    3  502    0  0.49816485977E+03  0.13733246033E+04 -0.21496403832E+02  0.14610444172E+04  0.50400001928E-02 0.  1.
       -1    1    3    3    0  502 -0.49816485977E+03 -0.13733246033E+04 -0.11391397955E+04  0.18525194107E+04  0.50400001928E-02 0. -1.
</event>
<event>
 5   0  0.4173905E-07  0.3102807E+04  0.7818609E-02  0.8214968E-01
        1   -1    0    0  501    0  0.00000000000E+00  0.00000000000E+00  0.15489700823E+04  0.15489700823E+04  0.50400001928E-02 0. -1.
       -1   -1    0    0    0  501  0.00000000000E+00  0.00000000000E+00 -0.15538412057E+04  0.15538412057E+04  0.50400001928E-02 0.  1.
    10030    2    1    2    0    0  0.00000000000E+00  0.00000000000E+00 -0.48711233549E+01  0.31028112880E+04  0.31028074644E+04 0.  0.
        3    1    3    3  502    0  0.27873675283E+03  0.10659875802E+03 -0.15248684075E+04  0.15537957211E+04  0.10100000352E+00 0.  1.
       -3    1    3    3    0  502 -0.27873675283E+03 -0.10659875802E+03  0.15199972841E+04  0.15490155669E+04  0.10100000352E+00 0. -1.
</event>
<event>
 5   0  0.4219337E-07  0.3099179E+04  0.7818609E-02  0.8215963E-01
       -1   -1    0    0    0  501  0.00000000000E+00  0.00000000000E+00  0.15808354623E+04  0.15808354623E+04  0.50400001928E-02 0.  1.
        1   -1    0    0  501    0  0.00000000000E+00  0.00000000000E+00 -0.15189607256E+04  0.15189607256E+04  0.50400001928E-02 0. -1.
    10030    2    1    2    0    0  0.00000000000E+00  0.00000000000E+00  0.61874736702E+02  0.30997961879E+04  0.30991785885E+04 0.  0.
        4    1    3    3  502    0  0.74904484492E+03 -0.35334085824E+03 -0.12790210820E+04  0.15237501380E+04  0.12699999809E+01 0. -1.
       -4    1    3    3    0  502 -0.74904484492E+03  0.35334085824E+03  0.13408958187E+04  0.15760460499E+04  0.12699999809E+01 0.  1.
</event>
<event>
 5   0  0.1237580E-06  0.3104680E+04  0.7818609E-02  0.8214455E-01
       -2   -1    0    0    0  501  0.00000000000E+00  0.00000000000E+00  0.10618979117E+04  0.10618979117E+04  0.25500000920E-02 0.  1.
        2   -1    0    0  501    0  0.00000000000E+00  0.00000000000E+00 -0.22692942622E+04  0.22692942622E+04  0.25500000920E-02 0. -1.
    10030    2    1    2    0    0  0.00000000000E+00  0.00000000000E+00 -0.12073963505E+04  0.33311921739E+04  0.31046795893E+04 0.  0.
        4    1    3    3  502    0 -0.97617962064E+03 -0.38020335365E+02 -0.18981081541E+04  0.21347572170E+04  0.12699999809E+01 0. -1.
       -4    1    3    3    0  502  0.97617962064E+03  0.38020335365E+02  0.69071180362E+03  0.11964349570E+04  0.12699999809E+01 0.  1.
</event>
<event>
 5   0  0.4219337E-07  0.3101963E+04  0.7818609E-02  0.8215199E-01
       -1   -1    0    0    0  501  0.00000000000E+00  0.00000000000E+00  0.11802365900E+04  0.11802365900E+04  0.50400001928E-02 0.  1.
        1   -1    0    0  501    0  0.00000000000E+00  0.00000000000E+00 -0.20381871700E+04  0.20381871700E+04  0.50400001928E-02 0. -1.
    10030    2    1    2    0    0  0.00000000000E+00  0.00000000000E+00 -0.85795057995E+03  0.32184237600E+04  0.31019626531E+04 0.  0.
        4    1    3    3  502    0 -0.12748949344E+04 -0.50522262082E+02  0.48596696787E+03  0.13653113562E+04  0.12699999809E+01 0.  1.
       -4    1    3    3    0  502  0.12748949344E+04  0.50522262082E+02 -0.13439175478E+04  0.18531124038E+04  0.12699999809E+01 0. -1.
</event>
<event>
 5   0  0.4173905E-07  0.3109195E+04  0.7818609E-02  0.8213219E-01
       -1   -1    0    0    0  501  0.00000000000E+00  0.00000000000E+00  0.19640300244E+04  0.19640300244E+04  0.50400001928E-02 0. -1.
        1   -1    0    0  501    0  0.00000000000E+00  0.00000000000E+00 -0.12305173454E+04  0.12305173454E+04  0.50400001928E-02 0.  1.
    10030    2    1    2    0    0  0.00000000000E+00  0.00000000000E+00  0.73351267905E+03  0.31945473698E+04  0.31091947587E+04 0.  0.
        3    1    3    3  502    0 -0.53540102530E+03 -0.12801430431E+04 -0.35345176643E+03  0.14319038481E+04  0.10100000352E+00 0.  1.
       -3    1    3    3    0  502  0.53540102530E+03  0.12801430431E+04  0.10869644455E+04  0.17626435217E+04  0.10100000352E+00 0. -1.
</event>
<event>
 5   0  0.1258262E-06  0.3111842E+04  0.7818609E-02  0.8212496E-01
       -2   -1    0    0    0  501  0.00000000000E+00  0.00000000000E+00  0.12999458453E+04  0.12999458453E+04  0.25500000920E-02 0.  1.
        2   -1    0    0  501    0  0.00000000000E+00  0.00000000000E+00 -0.18623004998E+04  0.18623004998E+04  0.25500000920E-02 0. -1.
    10030    2    1    2    0    0  0.00000000000E+00  0.00000000000E+00 -0.56235465458E+03  0.31622463451E+04  0.31118417681E+04 0.  0.
        1    1    3    3  502    0  0.10546962416E+03 -0.59324252490E+03 -0.17389266988E+04  0.18403604535E+04  0.50400001928E-02 0. -1.
       -1    1    3    3    0  502 -0.10546962416E+03  0.59324252490E+03  0.11765720443E+04  0.13218858916E+04  0.50400001928E-02 0.  1.
</event>
<event>
 5   0  0.1200286E-06  0.3094508E+04  0.7818609E-02  0.8217247E-01
        2   -1    0    0  501    0  0.00000000000E+00  0.00000000000E+00  0.20991721307E+04  0.20991721307E+04  0.25500000920E-02 0.  1.
       -2   -1    0    0    0  501  0.00000000000E+00  0.00000000000E+00 -0.11404471891E+04  0.11404471891E+04  0.25500000920E-02 0. -1.
    10030    2    1    2    0    0  0.00000000000E+00  0.00000000000E+00  0.95872494162E+03  0.32396193199E+04  0.30945080100E+04 0.  0.
        5    1    3    3  502    0  0.29893336420E+03  0.13410338239E+04 -0.26550772051E+03  0.13993746149E+04  0.46999998093E+01 0. -1.
       -5    1    3    3    0  502 -0.29893336420E+03 -0.13410338239E+04  0.12242326621E+04  0.18402447050E+04  0.46999998093E+01 0.  1.
</event>
<event>
 5   0  0.4219337E-07  0.3091598E+04  0.7818609E-02  0.8218048E-01
       -1   -1    0    0    0  501  0.00000000000E+00  0.00000000000E+00  0.99765919770E+03  0.99765919771E+03  0.50400001928E-02 0. -1.
        1   -1    0    0  501    0  0.00000000000E+00  0.00000000000E+00 -0.23951009892E+04  0.23951009892E+04  0.50400001928E-02 0.  1.
    10030    2    1    2    0    0  0.00000000000E+00  0.00000000000E+00 -0.13974417915E+04  0.33927601869E+04  0.30915979890E+04 0.  0.
        4    1    3    3  502    0  0.13278310719E+04  0.64270356875E+03 -0.19189934408E+03  0.14876256935E+04  0.12699999809E+01 0. -1.
       -4    1    3    3    0  502 -0.13278310719E+04 -0.64270356875E+03 -0.12055424474E+04  0.19051344935E+04  0.12699999809E+01 0.  1.
</event>
<event>
 5   0  0.1237580E-06  0.3071755E+04  0.7818609E-02  0.8223532E-01
        2   -1    0    0  501    0  0.00000000000E+00  0.00000000000E+00  0.19883301796E+04  0.19883301796E+04  0.25500000920E-02 0.  1.
       -2   -1    0    0    0  501  0.00000000000E+00  0.00000000000E+00 -0.11863826077E+04  0.11863826077E+04  0.25500000920E-02 0. -1.
    10030    2    1    2    0    0  0.00000000000E+00  0.00000000000E+00  0.80194757184E+03  0.31747127873E+04  0.30717554222E+04 0.  0.
        4    1    3    3  502    0 -0.86065121190E+03  0.12169214616E+04  0.78393401529E+03  0.16840939717E+04  0.12699999809E+01 0. -1.
       -4    1    3    3    0  502  0.86065121190E+03 -0.12169214616E+04  0.18013556554E+02  0.14906188156E+04  0.12699999809E+01 0.  1.
</event>
<event>
 5   0  0.1176002E-06  0.3094440E+04  0.7818609E-02  0.8217265E-01
       -2   -1    0    0    0  501  0.00000000000E+00  0.00000000000E+00  0.15725566312E+04  0.15725566312E+04  0.25500000920E-02 0.  1.
        2   -1    0    0  501    0  0.00000000000E+00  0.00000000000E+00 -0.15222919071E+04  0.15222919071E+04  0.25500000920E-02 0. -1.
    10030    2    1    2    0    0  0.00000000000E+00  0.00000000000E+00  0.50264724120E+02  0.30948485383E+04  0.30944403262E+04 0.  0.
        2    1    3    3  502    0  0.37726795245E+03 -0.11112508289E+04 -0.98330651802E+03  0.15310457933E+04  0.25500000920E-02 0. -1.
       -2    1    3    3    0  502 -0.37726795245E+03  0.11112508289E+04  0.10335712421E+04  0.15638027450E+04  0.25500000920E-02 0.  1.
</event>
<event>
 5   0  0.4330395E-07  0.3080353E+04  0.7818609E-02  0.8221151E-01
       -1   -1    0    0    0  501  0.00000000000E+00  0.00000000000E+00  0.11597186419E+04  0.11597186419E+04  0.50400001928E-02 0. -1.
        1   -1    0    0  501    0  0.00000000000E+00  0.00000000000E+00 -0.20454469314E+04  0.20454469314E+04  0.50400001928E-02 0.  1.
    10030    2    1    2    0    0  0.00000000000E+00  0.00000000000E+00 -0.88572828943E+03  0.32051655733E+04  0.30803525366E+04 0.  0.
        1    1    3    3  502    0 -0.96554220132E+03  0.67498047763E+03  0.58944014725E+03  0.13173116848E+04  0.50400001928E-02 0. -1.
       -1    1    3    3    0  502  0.96554220132E+03 -0.67498047763E+03 -0.14751684367E+04  0.18878538885E+04  0.50400001928E-02 0.  1.
</event>
<event>
 5   0  0.1176002E-06  0.3106586E+04  0.7818609E-02  0.8213933E-01
        2   -1    0    0  501    0  0.00000000000E+00  0.00000000000E+00  0.13236515849E+04  0.13236515849E+04  0.25500000920E-02 0. -1.
       -2   -1    0    0    0  501  0.00000000000E+00  0.00000000000E+00 -0.18227756404E+04  0.18227756404E+04  0.25500000920E-02 0.  1.
    10030    2    1    2    0    0  0.00000000000E+00  0.00000000000E+00 -0.49912405550E+03  0.31464272253E+04  0.31065864645E+04 0.  0.
        2    1    3    3  502    0  0.92732808893E+03  0.12460270145E+04 -0.26385542362E+03  0.15754810027E+04  0.25500000920E-02 0.  1.
       -2    1    3    3    0  502 -0.92732808893E+03 -0.12460270145E+04 -0.23526863188E+03  0.15709462226E+04  0.25500000920E-02 0. -1.
</event>
<event>
 5   0  0.4134019E-07  0.3007162E+04  0.7818609E-02  0.8241689E-01
        1   -1    0    0  501    0  0.00000000000E+00  0.00000000000E+00  0.12485754892E+04  0.12485754892E+04  0.50400001928E-02 0.  1.
       -1   -1    0    0    0  501  0.00000000000E+00  0.00000000000E+00 -0.18106685179E+04  0.18106685179E+04  0.50400001928E-02 0. -1.
    10030    2    1    2    0    0  0.00000000000E+00  0.00000000000E+00 -0.56209302870E+03  0.30592440071E+04  0.30071623371E+04 0.  0.
        2    1    3    3  502    0  0.57428337597E+03 -0.13394288736E+04 -0.65743431177E+03  0.15987779638E+04  0.25500000920E-02 0. -1.
       -2    1    3    3    0  502 -0.57428337597E+03  0.13394288736E+04  0.95341283070E+02  0.14604660433E+04  0.25500000920E-02 0.  1.
</event>
<event>
 5   0  0.4330395E-07  0.3098628E+04  0.7818609E-02  0.8216115E-01
       -1   -1    0    0    0  501  0.00000000000E+00  0.00000000000E+00  0.95273806253E+03  0.95273806254E+03  0.50400001928E-02 0. -1.
        1   -1    0    0  501    0  0.00000000000E+00  0.00000000000E+00 -0.25194480023E+04  0.25194480023E+04  0.50400001928E-02 0.  1.
    10030    2    1    2    0    0  0.00000000000E+00  0.00000000000E+00 -0.15667099397E+04  0.34721860648E+04  0.30986280889E+04 0.  0.
        1    1    3    3  502    0  0.77454316575E+03  0.59997253500E+03  0.56154083096E+03  0.11292529669E+04  0.50400001928E-02 0. -1.
       -1    1    3    3    0  502 -0.77454316575E+03 -0.59997253500E+03 -0.21282507707E+04  0.23429330979E+04  0.50400001928E-02 0.  1.
</event>
<event>
 5   0  0.1258262E-06  0.3130035E+04  0.7818609E-02  0.8207543E-01
       -2   -1    0    0    0  501  0.00000000000E+00  0.00000000000E+00  0.12942798897E+04  0.12942798897E+04  0.25500000920E-02 0. -1.
        2   -1    0    0  501    0  0.00000000000E+00  0.00000000000E+00 -0.18923884140E+04  0.18923884140E+04  0.25500000920E-02 0.  1.
    10030    2    1    2    0    0  0.00000000000E+00  0.00000000000E+00 -0.59810852439E+03  0.31866683037E+04  0.31300353146E+04 0.  0.
        1    1    3    3  502    0 -0.12963195557E+04  0.49415653845E+03  0.43837517845E+03  0.14549253836E+04  0.50400001928E-02 0. -1.
       -1    1    3    3    0  502  0.12963195557E+04 -0.49415653845E+03 -0.10364837028E+04  0.17317429201E+04  0.50400001928E-02 0.  1.
</event>
<event>
 5   0  0.1176002E-06  0.3091330E+04  0.7818609E-02  0.8218121E-01
       -2   -1    0    0    0  501  0.00000000000E+00  0.00000000000E+00  0.14940740067E+04  0.14940740067E+04  0.25500000920E-02 0.  1.
        2   -1    0    0  501    0  0.00000000000E+00  0.00000000000E+00 -0.15990370585E+04  0.15990370585E+04  0.25500000920E-02 0. -1.
    10030    2    1    2    0    0  0.00000000000E+00  0.00000000000E+00 -0.10496305177E+03  0.30931110652E+04  0.30913296200E+04 0.  0.
        2    1    3    3  502    0 -0.58318290495E+03 -0.33742079148E+03  0.13394076833E+04  0.14993225248E+04  0.25500000920E-02 0.  1.
       -2    1    3    3    0  502  0.58318290495E+03  0.33742079148E+03 -0.14443707351E+04  0.15937885404E+04  0.25500000920E-02 0. -1.
</event>
<event>
 5   0  0.4330395E-07  0.3099922E+04  0.7818609E-02  0.8215759E-01
        1   -1    0    0  501    0  0.00000000000E+00  0.00000000000E+00  0.23215398037E+04  0.23215398038E+04  0.50400001928E-02 0. -1.
       -1   -1    0    0    0  501  0.00000000000E+00  0.00000000000E+00 -0.10348215366E+04  0.10348215366E+04  0.50400001928E-02 0.  1.
    10030    2    1    2    0    0  0.00000000000E+00  0.00000000000E+00  0.12867182672E+04  0.33563613403E+04  0.30999221842E+04 0.  0.
        1    1    3    3  502    0 -0.10350078543E+04  0.52402008210E+03 -0.46955360210E+03  0.12515266239E+04  0.50400001928E-02 0.  1.
       -1    1    3    3    0  502  0.10350078543E+04 -0.52402008210E+03  0.17562718693E+04  0.21048347165E+04  0.50400001928E-02 0. -1.
</event>
<event>
 5   0  0.4134019E-07  0.3094774E+04  0.7818609E-02  0.8217174E-01
       -1   -1    0    0    0  501  0.00000000000E+00  0.00000000000E+00  0.11118989774E+04  0.11118989775E+04  0.50400001928E-02 0. -1.
        1   -1    0    0  501    0  0.00000000000E+00  0.00000000000E+00 -0.21534391668E+04  0.21534391668E+04  0.50400001928E-02 0.  1.
    10030    2    1    2    0    0  0.00000000000E+00  0.00000000000E+00 -0.10415401893E+04  0.32653381442E+04  0.30947741808E+04 0.  0.
        2    1    3    3  502    0  0.65009326923E+03  0.35470631137E+03  0.91277512286E+03  0.11754132256E+04  0.25500000920E-02 0. -1.
       -2    1    3    3    0  502 -0.65009326923E+03 -0.35470631137E+03 -0.19543153122E+04  0.20899249186E+04  0.25500000920E-02 0.  1.
</event>
<event>
 5   0  0.1258262E-06  0.3094944E+04  0.7818609E-02  0.8217127E-01
       -2   -1    0    0    0  501  0.00000000000E+00  0.00000000000E+00  0.99885811263E+03  0.99885811263E+03  0.25500000920E-02 0. -1.
        2   -1    0    0  501    0  0.00000000000E+00  0.00000000000E+00 -0.23974064994E+04  0.23974064994E+04  0.25500000920E-02 0.  1.
    10030    2    1    2    0    0  0.00000000000E+00  0.00000000000E+00 -0.13985483868E+04  0.33962646120E+04  0.30949435738E+04 0.  0.
        1    1    3    3  502    0  0.37529015161E+03  0.17888466097E+03  0.93642657139E+03  0.10245668077E+04  0.50400001928E-02 0. -1.
       -1    1    3    3    0  502 -0.37529015161E+03 -0.17888466097E+03 -0.23349749582E+04  0.23716978043E+04  0.50400001928E-02 0.  1.
</event>
<event>
 5   0  0.4134019E-07  0.3104911E+04  0.7818609E-02  0.8214391E-01
        1   -1    0    0  501    0  0.00000000000E+00  0.00000000000E+00  0.92861868672E+03  0.92861868674E+03  0.50400001928E-02 0.  1.
       -1   -1    0    0    0  501  0.00000000000E+00  0.00000000000E+00 -0.25953796981E+04  0.25953796981E+04  0.50400001928E-02 0. -1.
    10030    2    1    2    0    0  0.00000000000E+00  0.00000000000E+00 -0.16667610114E+04  0.35239983849E+04  0.31049110048E+04 0.  0.
        2    1    3    3  502    0  0.81188208289E+03 -0.13225892397E+04 -0.88049598545E+03  0.17842836081E+04  0.25500000920E-02 0.  1.
       -2    1    3    3    0  502 -0.81188208289E+03  0.13225892397E+04 -0.78626502597E+03  0.17397147768E+04  0.25500000920E-02 0. -1.
</event>
<event>
 5   0  0.4173905E-07  0.3117577E+04  0.7818609E-02  0.8210931E-01
       -1   -1    0    0    0  501  0.00000000000E+00  0.00000000000E+00  0.11607456410E+04  0.11607456410E+04  0.50400001928E-02 0. -1.
        1   -1    0    0  501    0  0.00000000000E+00  0.00000000000E+00 -0.20933281389E+04  0.20933281389E+04  0.50400001928E-02 0.  1.
    10030    2    1    2    0    0  0.00000000000E+00  0.00000000000E+00 -0.93258249797E+03  0.32540737799E+04  0.31175769516E+04 0.  0.
        3    1    3    3  502    0  0.11231093810E+04 -0.76288994695E+03 -0.12656176082E+04  0.18561152155E+04  0.10100000352E+00 0. -1.
       -3    1    3    3    0  502 -0.11231093810E+04  0.76288994695E+03  0.33303511021E+03  0.13979585644E+04  0.10100000352E+00 0.  1.
</event>
<event>
 5   0  0.1237580E-06  0.3098900E+04  0.7818609E-02  0.8216040E-01
        2   -1    0    0  501    0  0.00000000000E+00  0.00000000000E+00  0.15504865348E+04  0.15504865348E+04  0.25500000920E-02 0. -1.
       -2   -1    0    0    0  501  0.00000000000E+00  0.00000000000E+00 -0.15484146524E+04  0.15484146524E+04  0.25500000920E-02 0.  1.
    10030    2    1    2    0    0  0.00000000000E+00  0.00000000000E+00  0.20718824333E+01  0.30989011872E+04  0.30989004946E+04 0.  0.
        4    1    3    3  502    0  0.37305133725E+03 -0.14218643051E+04 -0.48878970230E+03  0.15491231030E+04  0.12699999809E+01 0.  1.
       -4    1    3    3    0  502 -0.37305133725E+03  0.14218643051E+04  0.49086158473E+03  0.15497780843E+04  0.12699999809E+01 0. -1.
</event>
<event>
 5   0  0.1237580E-06  0.3100697E+04  0.7818609E-02  0.8215547E-01
        2   -1    0    0  501    0  0.00000000000E+00  0.00000000000E+00  0.14367840463E+04  0.14367840463E+04  0.25500000920E-02 0.  1.
       -2   -1    0    0    0  501  0.00000000000E+00  0.00000000000E+00 -0.16728889713E+04  0.16728889713E+04  0.25500000920E-02 0. -1.
    10030    2    1    2    0    0  0.00000000000E+00  0.00000000000E+00 -0.23610492505E+03  0.31096730176E+04  0.31006968154E+04 0.  0.
        4    1    3    3  502    0  0.44327141876E+03 -0.73794676217E+03  0.11750690338E+04  0.14566550112E+04  0.12699999809E+01 0.  1.
       -4    1    3    3    0  502 -0.44327141876E+03  0.73794676217E+03 -0.14111739589E+04  0.16530180064E+04  0.12699999809E+01 0. -1.
</event>
<event>
 5   0  0.1237580E-06  0.3086118E+04  0.7818609E-02  0.8219558E-01
       -2   -1    0    0    0  501  0.00000000000E+00  0.00000000000E+00  0.16536005903E+04  0.16536005903E+04  0.25500000920E-02 0. -1.
        2   -1    0    0  501    0  0.00000000000E+00  0.00000000000E+00 -0.14399065790E+04  0.14399065790E+04  0.25500000920E-02 0.  1.
    10030    2    1    2    0    0  0.00000000000E+00  0.00000000000E+00  0.21369401125E+03  0.30935071693E+04  0.30861175408E+04 0.  0.
        4    1    3    3  502    0  0.15350533084E+04 -0.52853306216E+02 -0.41312949157E+02  0.15365189567E+04  0.12699999809E+01 0. -1.
       -4    1    3    3    0  502 -0.15350533084E+04  0.52853306216E+02  0.25500696040E+03  0.15569882126E+04  0.12699999809E+01 0.  1.
</event>
<event>
 5   0  0.1193123E-06  0.3052868E+04  0.7818609E-02  0.8228793E-01
       -2   -1    0    0    0  501  0.00000000000E+00  0.00000000000E+00  0.12641121297E+04  0.12641121297E+04  0.25500000920E-02 0. -1.
        2   -1    0    0  501    0  0.00000000000E+00  0.00000000000E+00 -0.18431910394E+04  0.18431910394E+04  0.25500000920E-02 0.  1.
    10030    2    1    2    0    0  0.00000000000E+00  0.00000000000E+00 -0.57907890970E+03  0.31073031692E+04  0.30528676030E+04 0.  0.
        3    1    3    3  502    0 -0.48252756250E+03  0.13141597562E+04 -0.90878853713E+03  0.16690552204E+04  0.10100000352E+00 0. -1.
       -3    1    3    3    0  502  0.48252756250E+03 -0.13141597562E+04  0.32970962743E+03  0.14382479487E+04  0.10100000352E+00 0.  1.
</event>
<event>
 5   0  0.4330395E-07  0.3070238E+04  0.7818609E-02  0.8223954E-01
       -1   -1    0    0    0  501  0.00000000000E+00  0.00000000000E+00  0.12849912364E+04  0.12849912365E+04  0.50400001928E-02 0. -1.
        1   -1    0    0  501    0  0.00000000000E+00  0.00000000000E+00 -0.18339344631E+04  0.18339344631E+04  0.50400001928E-02 0.  1.
    10030    2    1    2    0    0  0.00000000000E+00  0.00000000000E+00 -0.54894322663E+03  0.31189256995E+04  0.30702375890E+04 0.  0.
        1    1    3    3  502    0 -0.34159049190E+03 -0.79832183153E+03 -0.15604805141E+04  0.17858054893E+04  0.50400001928E-02 0.  1.
       -1    1    3    3    0  502  0.34159049190E+03  0.79832183153E+03  0.10115372875E+04  0.13331202102E+04  0.50400001928E-02 0. -1.
</event>
<event>
 5   0  0.1176002E-06  0.3097195E+04  0.7818609E-02  0.8216508E-01
       -2   -1    0    0    0  501  0.00000000000E+00  0.00000000000E+00  0.13784378109E+04  0.13784378110E+04  0.25500000920E-02 0. -1.
        2   -1    0    0  501    0  0.00000000000E+00  0.00000000000E+00 -0.17397620323E+04  0.17397620323E+04  0.25500000920E-02 0.  1.
    10030    2    1    2    0    0  0.00000000000E+00  0.00000000000E+00 -0.36132422139E+03  0.31181998433E+04  0.30971947097E+04 0.  0.
        2    1    3    3  502    0 -0.25827833613E+03 -0.14853572961E+04  0.17551648505E+03  0.15178274054E+04  0.25500000920E-02 0. -1.
       -2    1    3    3    0  502  0.25827833613E+03  0.14853572961E+04 -0.53684070644E+03  0.16003724379E+04  0.25500000920E-02 0.  1.
</event>
<event>
 5   0  0.1258262E-06  0.3093709E+04  0.7818609E-02  0.8217467E-01
        2   -1    0    0  501    0  0.00000000000E+00  0.00000000000E+00  0.16245700185E+04  0.16245700185E+04  0.25500000920E-02 0. -1.
       -2   -1    0    0    0  501  0.00000000000E+00  0.00000000000E+00 -0.14728566184E+04  0.14728566184E+04  0.25500000920E-02 0.  1.
    10030    2    1    2    0    0  0.00000000000E+00  0.00000000000E+00  0.15171340011E+03  0.30974266369E+04  0.30937089093E+04 0.  0.
        1    1    3    3  502    0  0.14538130864E+04  0.48399132786E+03  0.28809872931E+03  0.15591090320E+04  0.50400001928E-02 0. -1.
       -1    1    3    3    0  502 -0.14538130864E+04 -0.48399132786E+03 -0.13638532919E+03  0.15383176050E+04  0.50400001928E-02 0.  1.
</event>
<event>
 5   0  0.4134019E-07  0.3081820E+04  0.7818609E-02  0.8220745E-01
       -1   -1    0    0    0  501  0.00000000000E+00  0.00000000000E+00  0.16056917859E+04  0.16056917859E+04  0.50400001928E-02 0.  1.
        1   -1    0    0  501    0  0.00000000000E+00  0.00000000000E+00 -0.14787414569E+04  0.14787414569E+04  0.50400001928E-02 0. -1.
    10030    2    1    2    0    0  0.00000000000E+00  0.00000000000E+00  0.12695032898E+03  0.30844332428E+04  0.30818195994E+04 0.  0.
        2    1    3    3  502    0 -0.27357067435E+03 -0.11826317626E+04 -0.88651063149E+03  0.15031167285E+04  0.25500000920E-02 0. -1.
       -2    1    3    3    0  502  0.27357067435E+03  0.11826317626E+04  0.10134609605E+04  0.15813165143E+04  0.25500000920E-02 0.  1.
</event>
<event>
 5   0  0.4134019E-07  0.3102784E+04  0.7818609E-02  0.8214974E-01
       -1   -1    0    0    0  501  0.00000000000E+00  0.00000000000E+00  0.83605971617E+03  0.83605971618E+03  0.50400001928E-02 0. -1.
        1   -1    0    0  501    0  0.00000000000E+00  0.00000000000E+00 -0.28787626821E+04  0.28787626821E+04  0.50400001928E-02 0.  1.
    10030    2    1    2    0    0  0.00000000000E+00  0.00000000000E+00 -0.20427029660E+04  0.37148223983E+04  0.31027842406E+04 0.  0.
        2    1    3    3  502    0 -0.38663722647E+03  0.30603477755E+03 -0.27824440295E+04  0.28257990741E+04  0.25500000920E-02 0.  1.
       -2    1    3    3    0  502  0.38663722647E+03 -0.30603477755E+03  0.73974106351E+03  0.88902332422E+03  0.25500000920E-02 0. -1.
</event>
<event>
 5   0  0.1258262E-06  0.3112800E+04  0.7818609E-02  0.8212234E-01
        2   -1    0    0  501    0  0.00000000000E+00  0.00000000000E+00  0.16286374823E+04  0.16286374823E+04  0.25500000920E-02 0. -1.
       -2   -1    0    0    0  501  0.00000000000E+00  0.00000000000E+00 -0.14873663460E+04  0.14873663460E+04  0.25500000920E-02 0.  1.
    10030    2    1    2    0    0  0.00000000000E+00  0.00000000000E+00  0.14127113629E+03  0.31160038284E+04  0.31127997566E+04 0.  0.
        1    1    3    3  502    0 -0.83356334993E+03  0.41494269952E+03 -0.11777950023E+04  0.15014014686E+04  0.50400001928E-02 0.  1.
       -1    1    3    3    0  502  0.83356334993E+03 -0.41494269952E+03  0.13190661386E+04  0.16146023598E+04  0.50400001928E-02 0. -1.
</event>
<event>
 5   0  0.1237580E-06  0.3101735E+04  0.7818609E-02  0.8215262E-01
        2   -1    0    0  501    0  0.00000000000E+00  0.00000000000E+00  0.15659362268E+04  0.15659362268E+04  0.25500000920E-02 0.  1.
       -2   -1    0    0    0  501  0.00000000000E+00  0.00000000000E+00 -0.15359436673E+04  0.15359436673E+04  0.25500000920E-02 0. -1.
    10030    2    1    2    0    0  0.00000000000E+00  0.00000000000E+00  0.29992559438E+02  0.31018798941E+04  0.31017348894E+04 0.  0.
        4    1    3    3  502    0 -0.83511345450E+03  0.50800181924E+03 -0.11890981673E+04  0.15392973705E+04  0.12699999809E+01 0. -1.
       -4    1    3    3    0  502  0.83511345450E+03 -0.50800181924E+03  0.12190907268E+04  0.15625825237E+04  0.12699999809E+01 0.  1.
</event>
<event>
 5   0  0.1237580E-06  0.3088688E+04  0.7818609E-02  0.8218849E-01
       -2   -1    0    0    0  501  0.00000000000E+00  0.00000000000E+00  0.14951511584E+04  0.14951511584E+04  0.25500000920E-02 0.  1.
        2   -1    0    0  501    0  0.00000000000E+00  0.00000000000E+00 -0.15951549368E+04  0.15951549368E+04  0.25500000920E-02 0. -1.
    10030    2    1    2    0    0  0.00000000000E+00  0.00000000000E+00 -0.10000377833E+03  0.30903060952E+04  0.30886875864E+04 0.  0.
        4    1    3    3  502    0 -0.23980752361E+03 -0.12109581956E+02 -0.15763640994E+04  0.15945468563E+04  0.12699999809E+01 0. -1.
       -4    1    3    3    0  502  0.23980752361E+03  0.12109581956E+02  0.14763603210E+04  0.14957592389E+04  0.12699999809E+01 0.  1.
</event>
<event>
 5   0  0.4173905E-07  0.3113048E+04  0.7818609E-02  0.8212166E-01
       -1   -1    0    0    0  501  0.00000000000E+00  0.00000000000E+00  0.14148387526E+04  0.14148387526E+04  0.50400001928E-02 0.  1.
        1   -1    0    0  501    0  0.00000000000E+00  0.00000000000E+00 -0.17123984556E+04  0.17123984556E+04  0.50400001928E-02 0. -1.
    10030    2    1    2    0    0  0.00000000000E+00  0.00000000000E+00 -0.29755970301E+03  0.31272372082E+04  0.31130484705E+04 0.  0.
        3    1    3    3  502    0  0.13782449415E+04  0.30062411341E+03  0.51211973436E+03  0.15007333570E+04  0.10100000352E+00 0.  1.
       -3    1    3    3    0  502 -0.13782449415E+04 -0.30062411341E+03 -0.80967943737E+03  0.16265038512E+04  0.10100000352E+00 0. -1.
</event>
<event>
 5   0  0.3935852E-07  0.3089629E+04  0.7818609E-02  0.8218590E-01
       -1   -1    0    0    0  501  0.00000000000E+00  0.00000000000E+00  0.11076724597E+04  0.11076724598E+04  0.50400001928E-02 0.  1.
        1   -1    0    0  501    0  0.00000000000E+00  0.00000000000E+00 -0.21544740124E+04  0.21544740125E+04  0.50400001928E-02 0. -1.
    10030    2    1    2    0    0  0.00000000000E+00  0.00000000000E+00 -0.10468015527E+04  0.32621464722E+04  0.30896287990E+04 0.  0.
        5    1    3    3  502    0  0.32286526026E+03 -0.25877423888E+03  0.10480685683E+04  0.11267989603E+04  0.46999998093E+01 0.  1.
       -5    1    3    3    0  502 -0.32286526026E+03  0.25877423888E+03 -0.20948701210E+04  0.21353475120E+04  0.46999998093E+01 0. -1.
</event>
<event>
 5   0  0.1176002E-06  0.3078485E+04  0.7818609E-02  0.8221668E-01
        2   -1    0    0  501    0  0.00000000000E+00  0.00000000000E+00  0.12857258092E+04  0.12857258092E+04  0.25500000920E-02 0. -1.
       -2   -1    0    0    0  501  0.00000000000E+00  0.00000000000E+00 -0.18427465359E+04  0.18427465359E+04  0.25500000920E-02 0.  1.
    10030    2    1    2    0    0  0.00000000000E+00  0.00000000000E+00 -0.55702072679E+03  0.31284723451E+04  0.30784845499E+04 0.  0.
        2    1    3    3  502    0  0.10759855359E+04  0.63118882445E+03 -0.11948856142E+04  0.17273956804E+04  0.25500000920E-02 0.  1.
       -2    1    3    3    0  502 -0.10759855359E+04 -0.63118882445E+03  0.63786488743E+03  0.14010766647E+04  0.25500000920E-02 0. -1.
</event>
<event>
 5   0  0.4134019E-07  0.3107352E+04  0.7818609E-02  0.8213723E-01
       -1   -1    0    0    0  501  0.00000000000E+00  0.00000000000E+00  0.21037899090E+04  0.21037899090E+04  0.50400001928E-02 0. -1.
        1   -1    0    0  501    0  0.00000000000E+00  0.00000000000E+00 -0.11474100611E+04  0.11474100611E+04  0.50400001928E-02 0.  1.
    10030    2    1    2    0    0  0.00000000000E+00  0.00000000000E+00  0.95637984787E+03  0.32511999702E+04  0.31073523831E+04 0.  0.
        2    1    3    3  502    0  0.71577378793E+03  0.11070944233E+04  0.13383923710E+04  0.18786389531E+04  0.25500000920E-02 0. -1.
       -2    1    3    3    0  502 -0.71577378793E+03 -0.11070944233E+04 -0.38201252308E+03  0.13725610170E+04  0.25500000920E-02 0.  1.
</event>
<event>
 5   0  0.4134019E-07  0.3087203E+04  0.7818609E-02  0.8219259E-01
        1   -1    0    0  501    0  0.00000000000E+00  0.00000000000E+00  0.11268514009E+04  0.11268514009E+04  0.50400001928E-02 0. -1.
       -1   -1    0    0    0  501  0.00000000000E+00  0.00000000000E+00 -0.21144802943E+04  0.21144802943E+04  0.50400001928E-02 0.  1.
    10030    2    1    2    0    0  0.00000000000E+00  0.00000000000E+00 -0.98762889348E+03  0.32413316952E+04  0.30872026703E+04 0.  0.
        2    1    3    3  502    0  0.53819661111E+03 -0.11675324772E+04 -0.13908201293E+04  0.18939821303E+04  0.25500000920E-02 0.  1.
       -2    1    3    3    0  502 -0.53819661111E+03  0.11675324772E+04  0.40319123585E+03  0.13473495650E+04  0.25500000920E-02 0. -1.
</event>
<event>
 5   0  0.4330395E-07  0.3093553E+04  0.7818609E-02  0.8217510E-01
        1   -1    0    0  501    0  0.00000000000E+00  0.00000000000E+00  0.20442654611E+04  0.20442654611E+04  0.50400001928E-02 0.  1.
       -1   -1    0    0    0  501  0.00000000000E+00  0.00000000000E+00 -0.11703553275E+04  0.11703553275E+04  0.50400001928E-02 0. -1.
    10030    2    1    2    0    0  0.00000000000E+00  0.00000000000E+00  0.87391013360E+03  0.32146207885E+04  0.30935526329E+04 0.  0.
        1    1    3    3  502    0  0.12505736974E+04  0.69099984987E+03 -0.17877257219E+03  0.14399218721E+04  0.50400001928E-02 0. -1.
       -1    1    3    3    0  502 -0.12505736974E+04 -0.69099984987E+03  0.10526827058E+04  0.17746989165E+04  0.50400001928E-02 0.  1.
</event>
<event>
 5   0  0.1176002E-06  0.3101744E+04  0.7818609E-02  0.8215259E-01
        2   -1    0    0  501    0  0.00000000000E+00  0.00000000000E+00  0.18848718164E+04  0.18848718164E+04  0.25500000920E-02 0.  1.
       -2   -1    0    0    0  501  0.00000000000E+00  0.00000000000E+00 -0.12760569962E+04  0.12760569962E+04  0.25500000920E-02 0. -1.
    10030    2    1    2    0    0  0.00000000000E+00  0.00000000000E+00  0.60881482025E+03  0.31609288126E+04  0.31017439406E+04 0.  0.
        2    1    3    3  502    0 -0.12292083000E+04 -0.84711787709E+03 -0.12390032131E+03  0.14979696366E+04  0.25500000920E-02 0.  1.
       -2    1    3    3    0  502  0.12292083000E+04  0.84711787709E+03  0.73271514156E+03  0.16629591760E+04  0.25500000920E-02 0. -1.
</event>
<event>
 5   0  0.1237580E-06  0.3092103E+04  0.7818609E-02  0.8217909E-01
        2   -1    0    0  501    0  0.00000000000E+00  0.00000000000E+00  0.15439217828E+04  0.15439217828E+04  0.25500000920E-02 0.  1.
       -2   -1    0    0    0  501  0.00000000000E+00  0.00000000000E+00 -0.15481836821E+04  0.15481836821E+04  0.25500000920E-02 0. -1.
    10030    2    1    2    0    0  0.00000000000E+00  0.00000000000E+00 -0.42618993328E+01  0.30921054650E+04  0.30921025278E+04 0.  0.
        4    1    3    3  502    0 -0.55714011250E+03 -0.27377726591E+03  0.14138201831E+04  0.15441011040E+04  0.12699999809E+01 0.  1.
       -4    1    3    3    0  502  0.55714011250E+03  0.27377726591E+03 -0.14180820824E+04  0.15480043610E+04  0.12699999809E+01 0. -1.
</event>
<event>
 5   0  0.4173905E-07  0.3102559E+04  0.7818609E-02  0.8215036E-01
       -1   -1    0    0    0  501  0.00000000000E+00  0.00000000000E+00  0.11166032617E+04  0.11166032617E+04  0.50400001928E-02 0.  1.
        1   -1    0    0  501    0  0.00000000000E+00  0.00000000000E+00 -0.21551681745E+04  0.21551681745E+04  0.50400001928E-02 0. -1.
    10030    2    1    2    0    0  0.00000000000E+00  0.00000000000E+00 -0.10385649128E+04  0.32717714362E+04  0.31025588234E+04 0.  0.
        3    1    3    3  502    0 -0.32750833037E+03  0.87624205054E+03  0.78571029519E+03  0.12216392740E+04  0.10100000352E+00 0.  1.
       -3    1    3    3    0  502  0.32750833037E+03 -0.87624205054E+03 -0.18242752080E+04  0.20501321622E+04  0.10100000352E+00 0. -1.
</event>
<event>
 5   0  0.1258262E-06  0.3109547E+04  0.7818609E-02  0.8213123E-01
       -2   -1    0    0    0  501  0.00000000000E+00  0.00000000000E+00  0.14301065860E+04  0.14301065860E+04  0.25500000920E-02 0. -1.
        2   -1    0    0  501    0  0.00000000000E+00  0.00000000000E+00 -0.16903078251E+04  0.16903078251E+04  0.25500000920E-02 0.  1.
    10030    2    1    2    0    0  0.00000000000E+00  0.00000000000E+00 -0.26020123915E+03  0.31204144112E+04  0.31095468179E+04 0.  0.
        1    1    3    3  502    0 -0.57275793793E+03 -0.66687868762E+03 -0.14169792686E+04  0.16675158431E+04  0.50400001928E-02 0.  1.
       -1    1    3    3    0  502  0.57275793793E+03  0.66687868762E+03  0.11567780295E+04  0.14528985680E+04  0.50400001928E-02 0. -1.
</event>
<event>
 5   0  0.4134019E-07  0.3094638E+04  0.7818609E-02  0.8217211E-01
       -1   -1    0    0    0  501  0.00000000000E+00  0.00000000000E+00  0.90721826637E+03  0.90721826638E+03  0.50400001928E-02 0.  1.
        1   -1    0    0  501    0  0.00000000000E+00  0.00000000000E+00 -0.26390525729E+04  0.26390525729E+04  0.50400001928E-02 0. -1.
    10030    2    1    2    0    0  0.00000000000E+00  0.00000000000E+00 -0.17318343065E+04  0.35462708393E+04  0.30946383957E+04 0.  0.
        2    1    3    3  502    0  0.71048833660E+03 -0.12822645271E+04 -0.14333609460E+04  0.20502486667E+04  0.25500000920E-02 0.  1.
       -2    1    3    3    0  502 -0.71048833660E+03  0.12822645271E+04 -0.29847336057E+03  0.14960221726E+04  0.25500000920E-02 0. -1.
</event>
<event>
 5   0  0.4330395E-07  0.3190456E+04  0.7818609E-02  0.8191342E-01
        1   -1    0    0  501    0  0.00000000000E+00  0.00000000000E+00  0.31183524499E+04  0.31183524499E+04  0.50400001928E-02 0. -1.
       -1   -1    0    0    0  501  0.00000000000E+00  0.00000000000E+00 -0.81605648552E+03  0.81605648553E+03  0.50400001928E-02 0.  1.
    10030    2    1    2    0    0  0.00000000000E+00  0.00000000000E+00  0.23022959644E+04  0.39344089354E+04  0.31904556044E+04 0.  0.
        1    1    3    3  502    0  0.66443826524E+03 -0.13361347371E+03  0.29319828911E+04  0.30092946752E+04  0.50400001928E-02 0. -1.
       -1    1    3    3    0  502 -0.66443826524E+03  0.13361347371E+03 -0.62968692674E+03  0.92511426019E+03  0.50400001928E-02 0.  1.
</event>
<event>
 5   0  0.4173905E-07  0.3107295E+04  0.7818609E-02  0.8213739E-01
       -1   -1    0    0    0  501  0.00000000000E+00  0.00000000000E+00  0.14024449296E+04  0.14024449297E+04  0.50400001928E-02 0.  1.
        1   -1    0    0  501    0  0.00000000000E+00  0.00000000000E+00 -0.17211514475E+04  0.17211514475E+04  0.50400001928E-02 0. -1.
    10030    2    1    2    0    0  0.00000000000E+00  0.00000000000E+00 -0.31870651783E+03  0.31235963771E+04  0.31072947209E+04 0.  0.
        3    1    3    3  502    0  0.12629698599E+04  0.88579823845E+02 -0.10645666865E+04  0.16541588474E+04  0.10100000352E+00 0. -1.
       -3    1    3    3    0  502 -0.12629698599E+04 -0.88579823845E+02  0.74586016869E+03  0.14694375297E+04  0.10100000352E+00 0.  1.
</event>
<event>
 5   0  0.4330395E-07  0.3102567E+04  0.7818609E-02  0.8215034E-01
       -1   -1    0    0    0  501  0.00000000000E+00  0.00000000000E+00  0.77746606233E+03  0.77746606235E+03  0.50400001928E-02 0.  1.
        1   -1    0    0  501    0  0.00000000000E+00  0.00000000000E+00 -0.30952874164E+04  0.30952874164E+04  0.50400001928E-02 0. -1.
    10030    2    1    2    0    0  0.00000000000E+00  0.00000000000E+00 -0.23178213541E+04  0.38727534787E+04  0.31025672721E+04 0.  0.
        1    1    3    3  502    0  0.14107631863E+04 -0.86193154297E+02 -0.19570036752E+04  0.24140309469E+04  0.50400001928E-02 0. -1.
       -1    1    3    3    0  502 -0.14107631863E+04  0.86193154297E+02 -0.36081767887E+03  0.14587225319E+04  0.50400001928E-02 0.  1.
</event>
<event>
 5   0  0.4330395E-07  0.3078961E+04  0.7818609E-02  0.8221536E-01
        1   -1    0    0  501    0  0.00000000000E+00  0.00000000000E+00  0.21915116512E+04  0.21915116512E+04  0.50400001928E-02 0.  1.
       -1   -1    0    0    0  501  0.00000000000E+00  0.00000000000E+00 -0.10814457071E+04  0.10814457071E+04  0.50400001928E-02 0. -1.
    10030    2    1    2    0    0  0.00000000000E+00  0.00000000000E+00  0.11100659441E+04  0.32729573582E+04  0.30789614270E+04 0.  0.
        1    1    3    3  502    0 -0.18150949669E+03  0.14291559087E+04  0.11319711700E+04  0.18321547529E+04  0.50400001928E-02 0.  1.
       -1    1    3    3    0  502  0.18150949669E+03 -0.14291559087E+04 -0.21905225957E+02  0.14408026054E+04  0.50400001928E-02 0. -1.
</event>
<event>
 5   0  0.4134019E-07  0.3107437E+04  0.7818609E-02  0.8213700E-01
        1   -1    0    0  501    0  0.00000000000E+00  0.00000000000E+00  0.11498552977E+04  0.11498552977E+04  0.50400001928E-02 0.  1.
       -1   -1    0    0    0  501  0.00000000000E+00  0.00000000000E+00 -0.20994309759E+04  0.20994309759E+04  0.50400001928E-02 0. -1.
    10030    2    1    2    0    0  0.00000000000E+00  0.00000000000E+00 -0.94957567814E+03  0.32492862736E+04  0.31074374200E+04 0.  0.
        2    1    3    3  502    0  0.11954206676E+03  0.14946048898E+04 -0.48876778954E+02  0.15001743305E+04  0.25500000920E-02 0.  1.
       -2    1    3    3    0  502 -0.11954206676E+03 -0.14946048898E+04 -0.90069889919E+03  0.17491119431E+04  0.25500000920E-02 0. -1.
</event>
<event>
 5   0  0.4330395E-07  0.3066767E+04  0.7818609E-02  0.8224918E-01
       -1   -1    0    0    0  501  0.00000000000E+00  0.00000000000E+00  0.21304596559E+04  0.21304596560E+04  0.50400001928E-02 0. -1.
        1   -1    0    0  501    0  0.00000000000E+00  0.00000000000E+00 -0.11036422603E+04  0.11036422603E+04  0.50400001928E-02 0.  1.
    10030    2    1    2    0    0  0.00000000000E+00  0.00000000000E+00  0.10268173957E+04  0.32341019162E+04  0.30667672296E+04 0.  0.
        1    1    3    3  502    0  0.45481757096E+02  0.13364321422E+04 -0.27796813343E+03  0.13657912520E+04  0.50400001928E-02 0.  1.
       -1    1    3    3    0  502 -0.45481757096E+02 -0.13364321422E+04  0.13047855291E+04  0.18683106642E+04  0.50400001928E-02 0. -1.
</event>
<event>
 5   0  0.1176002E-06  0.3104902E+04  0.7818609E-02  0.8214394E-01
        2   -1    0    0  501    0  0.00000000000E+00  0.00000000000E+00  0.15472647406E+04  0.15472647406E+04  0.25500000920E-02 0. -1.
       -2   -1    0    0    0  501  0.00000000000E+00  0.00000000000E+00 -0.15576541423E+04  0.15576541423E+04  0.25500000920E-02 0.  1.
    10030    2    1    2    0    0  0.00000000000E+00  0.00000000000E+00 -0.10389401639E+02  0.31049188829E+04  0.31049015008E+04 0.  0.
        2    1    3    3  502    0  0.11240692552E+04 -0.40181882399E+03 -0.99772898465E+03  0.15557805708E+04  0.25500000920E-02 0.  1.
       -2    1    3    3    0  502 -0.11240692552E+04  0.40181882399E+03  0.98733958301E+03  0.15491383121E+04  0.25500000920E-02 0. -1.
</event>
<event>
 5   0  0.4134019E-07  0.3100534E+04  0.7818609E-02  0.8215591E-01
        1   -1    0    0  501    0  0.00000000000E+00  0.00000000000E+00  0.23723436585E+04  0.23723436585E+04  0.50400001928E-02 0. -1.
       -1   -1    0    0    0  501  0.00000000000E+00  0.00000000000E+00 -0.10130607241E+04  0.10130607241E+04  0.50400001928E-02 0.  1.
    10030    2    1    2    0    0  0.00000000000E+00  0.00000000000E+00  0.13592829344E+04  0.33854043827E+04  0.31005342666E+04 0.  0.
        2    1    3    3  502    0 -0.11849747556E+03  0.76041473372E+03  0.21490411854E+04  0.22826848744E+04  0.25500000920E-02 0. -1.
       -2    1    3    3    0  502  0.11849747556E+03 -0.76041473372E+03 -0.78975825101E+03  0.11027195083E+04  0.25500000920E-02 0.  1.
</event>
<event>
 5   0  0.3935852E-07  0.3080762E+04  0.7818609E-02  0.8221038E-01
        1   -1    0    0  501    0  0.00000000000E+00  0.00000000000E+00  0.21778083612E+04  0.21778083612E+04  0.50400001928E-02 0. -1.
       -1   -1    0    0    0  501  0.00000000000E+00  0.00000000000E+00 -0.10895235909E+04  0.10895235909E+04  0.50400001928E-02 0.  1.
    10030    2    1    2    0    0  0.00000000000E+00  0.00000000000E+00  0.10882847702E+04  0.32673319521E+04  0.30807619746E+04 0.  0.
        5    1    3    3  502    0  0.12892231904E+03  0.80007309863E+03  0.19334405863E+04  0.20964142048E+04  0.46999998093E+01 0. -1.
       -5    1    3    3    0  502 -0.12892231904E+03 -0.80007309863E+03 -0.84515581604E+03  0.11709177473E+04  0.46999998093E+01 0.  1.
</event>
<event>
 5   0  0.1258262E-06  0.3110384E+04  0.7818609E-02  0.8212894E-01
       -2   -1    0    0    0  501  0.00000000000E+00  0.00000000000E+00  0.17604108070E+04  0.17604108070E+04  0.25500000920E-02 0.  1.
        2   -1    0    0  501    0  0.00000000000E+00  0.00000000000E+00 -0.13738961642E+04  0.13738961642E+04  0.25500000920E-02 0. -1.
    10030    2    1    2    0    0  0.00000000000E+00  0.00000000000E+00  0.38651464276E+03  0.31343069712E+04  0.31103836774E+04 0.  0.
        1    1    3    3  502    0  0.50020320268E+03 -0.98154696775E+02 -0.12873236602E+04  0.13845720619E+04  0.50400001928E-02 0. -1.
       -1    1    3    3    0  502 -0.50020320268E+03  0.98154696775E+02  0.16738383029E+04  0.17497349093E+04  0.50400001928E-02 0.  1.
</event>
<event>
 5   0  0.1258262E-06  0.3103714E+04  0.7818609E-02  0.8214719E-01
        2   -1    0    0  501    0  0.00000000000E+00  0.00000000000E+00  0.17762746126E+04  0.17762746126E+04  0.25500000920E-02 0.  1.
       -2   -1    0    0    0  501  0.00000000000E+00  0.00000000000E+00 -0.13557929045E+04  0.13557929045E+04  0.25500000920E-02 0. -1.
    10030    2    1    2    0    0  0.00000000000E+00  0.00000000000E+00  0.42048170805E+03  0.31320675172E+04  0.31037142370E+04 0.  0.
        1    1    3    3  502    0  0.13716395541E+04  0.21493799630E+02  0.94240550523E+03  0.16643272473E+04  0.50400001928E-02 0.  1.
       -1    1    3    3    0  502 -0.13716395541E+04 -0.21493799630E+02 -0.52192379718E+03  0.14677402699E+04  0.50400001928E-02 0. -1.
</event>
<event>
 5   0  0.1176002E-06  0.3090156E+04  0.7818609E-02  0.8218445E-01
        2   -1    0    0  501    0  0.00000000000E+00  0.00000000000E+00  0.14624735050E+04  0.14624735050E+04  0.25500000920E-02 0.  1.
       -2   -1    0    0    0  501  0.00000000000E+00  0.00000000000E+00 -0.16323484782E+04  0.16323484782E+04  0.25500000920E-02 0. -1.
    10030    2    1    2    0    0  0.00000000000E+00  0.00000000000E+00 -0.16987497327E+03  0.30948219832E+04  0.30901562422E+04 0.  0.
        2    1    3    3  502    0  0.12754238595E+04 -0.53818973752E+03  0.60232905057E+03  0.15096868881E+04  0.25500000920E-02 0.  1.
       -2    1    3    3    0  502 -0.12754238595E+04  0.53818973752E+03 -0.77220402384E+03  0.15851350950E+04  0.25500000920E-02 0. -1.
</event>
<event>
 5   0  0.1200286E-06  0.3076218E+04  0.7818609E-02  0.8222295E-01
        2   -1    0    0  501    0  0.00000000000E+00  0.00000000000E+00  0.18759401752E+04  0.18759401752E+04  0.25500000920E-02 0. -1.
       -2   -1    0    0    0  501  0.00000000000E+00  0.00000000000E+00 -0.12611168921E+04  0.12611168921E+04  0.25500000920E-02 0.  1.
    10030    2    1    2    0    0  0.00000000000E+00  0.00000000000E+00  0.61482328307E+03  0.31370570673E+04  0.30762183560E+04 0.  0.
        5    1    3    3  502    0  0.24207666600E+03 -0.91693011584E+03 -0.92748572501E+03  0.13265043572E+04  0.46999998093E+01 0.  1.
       -5    1    3    3    0  502 -0.24207666600E+03  0.91693011584E+03  0.15423090081E+04  0.18105527101E+04  0.46999998093E+01 0. -1.
</event>
<event>
 5   0  0.4219337E-07  0.3082823E+04  0.7818609E-02  0.8220468E-01
       -1   -1    0    0    0  501  0.00000000000E+00  0.00000000000E+00  0.14370315015E+04  0.14370315015E+04  0.50400001928E-02 0. -1.
        1   -1    0    0  501    0  0.00000000000E+00  0.00000000000E+00 -0.16533737344E+04  0.16533737344E+04  0.50400001928E-02 0.  1.
    10030    2    1    2    0    0  0.00000000000E+00  0.00000000000E+00 -0.21634223289E+03  0.30904052359E+04  0.30828234721E+04 0.  0.
        4    1    3    3  502    0 -0.13768664695E+03  0.26089605590E+02 -0.16469740653E+04  0.16529257289E+04  0.12699999809E+01 0.  1.
       -4    1    3    3    0  502  0.13768664695E+03 -0.26089605590E+02  0.14306318325E+04  0.14374795071E+04  0.12699999809E+01 0. -1.
</event>
<event>
 5   0  0.1258262E-06  0.3093446E+04  0.7818609E-02  0.8217539E-01
       -2   -1    0    0    0  501  0.00000000000E+00  0.00000000000E+00  0.99307553761E+03  0.99307553762E+03  0.25500000920E-02 0. -1.
        2   -1    0    0  501    0  0.00000000000E+00  0.00000000000E+00 -0.24090331539E+04  0.24090331539E+04  0.25500000920E-02 0.  1.
    10030    2    1    2    0    0  0.00000000000E+00  0.00000000000E+00 -0.14159576163E+04  0.34021086915E+04  0.30934459067E+04 0.  0.
        1    1    3    3  502    0  0.28572776347E+03  0.15173613412E+04 -0.80833090751E+03  0.17428208889E+04  0.50400001928E-02 0.  1.
       -1    1    3    3    0  502 -0.28572776347E+03 -0.15173613412E+04 -0.60762670877E+03  0.16592878026E+04  0.50400001928E-02 0. -1.
</event>
<event>
 5   0  0.4330395E-07  0.3103468E+04  0.7818609E-02  0.8214787E-01
        1   -1    0    0  501    0  0.00000000000E+00  0.00000000000E+00  0.21128151065E+04  0.21128151065E+04  0.50400001928E-02 0.  1.
       -1   -1    0    0    0  501  0.00000000000E+00  0.00000000000E+00 -0.11396541567E+04  0.11396541567E+04  0.50400001928E-02 0. -1.
    10030    2    1    2    0    0  0.00000000000E+00  0.00000000000E+00  0.97316094986E+03  0.32524692632E+04  0.31034680720E+04 0.  0.
        1    1    3    3  502    0  0.75462058835E+03 -0.11746999954E+04  0.11962211965E+04  0.18385639675E+04  0.50400001928E-02 0.  1.
       -1    1    3    3    0  502 -0.75462058835E+03  0.11746999954E+04 -0.22306024666E+03  0.14139052957E+04  0.50400001928E-02 0. -1.
</event>
<event>
 5   0  0.4134019E-07  0.3063948E+04  0.7818609E-02  0.8225702E-01
       -1   -1    0    0    0  501  0.00000000000E+00  0.00000000000E+00  0.10048689585E+04  0.10048689585E+04  0.50400001928E-02 0.  1.
        1   -1    0    0  501    0  0.00000000000E+00  0.00000000000E+00 -0.23355727752E+04  0.23355727752E+04  0.50400001928E-02 0. -1.
    10030    2    1    2    0    0  0.00000000000E+00  0.00000000000E+00 -0.13307038167E+04  0.33404417337E+04  0.30639481602E+04 0.  0.
        2    1    3    3  502    0  0.45906434596E+02  0.51030341753E+02  0.10031916302E+04  0.10055371417E+04  0.25500000920E-02 0.  1.
       -2    1    3    3    0  502 -0.45906434596E+02 -0.51030341753E+02 -0.23338954469E+04  0.23349045920E+04  0.25500000920E-02 0. -1.
</event>
<event>
 5   0  0.4173905E-07  0.3094680E+04  0.7818609E-02  0.8217199E-01
        1   -1    0    0  501    0  0.00000000000E+00  0.00000000000E+00  0.19382443263E+04  0.19382443263E+04  0.50400001928E-02 0.  1.
       -1   -1    0    0    0  501  0.00000000000E+00  0.00000000000E+00 -0.12352734359E+04  0.12352734359E+04  0.50400001928E-02 0. -1.
    10030    2    1    2    0    0  0.00000000000E+00  0.00000000000E+00  0.70297089036E+03  0.31735177622E+04  0.30946804220E+04 0.  0.
        3    1    3    3  502    0  0.89654381941E+03 -0.10480715395E+04 -0.36782299561E+03  0.14274237417E+04  0.10100000352E+00 0. -1.
       -3    1    3    3    0  502 -0.89654381941E+03  0.10480715395E+04  0.10707938860E+04  0.17460940205E+04  0.10100000352E+00 0.  1.
</event>
<event>
 5   0  0.3935852E-07  0.3129272E+04  0.7818609E-02  0.8207750E-01
       -1   -1    0    0    0  501  0.00000000000E+00  0.00000000000E+00  0.12132856657E+04  0.12132856657E+04  0.50400001928E-02 0.  1.
        1   -1    0    0  501    0  0.00000000000E+00  0.00000000000E+00 -0.20177319939E+04  0.20177319939E+04  0.50400001928E-02 0. -1.
    10030    2    1    2    0    0  0.00000000000E+00  0.00000000000E+00 -0.80444632816E+03  0.32310176597E+04  0.31292716760E+04 0.  0.
        5    1    3    3  502    0 -0.66584505440E+03 -0.69161073365E+03  0.87341809802E+03  0.12979045833E+04  0.46999998093E+01 0.  1.
       -5    1    3    3    0  502  0.66584505440E+03  0.69161073365E+03 -0.16778644262E+04  0.19331130764E+04  0.46999998093E+01 0. -1.
</event>
<event>
 5   0  0.4134019E-07  0.3102270E+04  0.7818609E-02  0.8215115E-01
        1   -1    0    0  501    0  0.00000000000E+00  0.00000000000E+00  0.22986622681E+04  0.22986622681E+04  0.50400001928E-02 0.  1.
       -1   -1    0    0    0  501  0.00000000000E+00  0.00000000000E+00 -0.10467040981E+04  0.10467040981E+04  0.50400001928E-02 0. -1.
    10030    2    1    2    0    0  0.00000000000E+00  0.00000000000E+00  0.12519581700E+04  0.33453663663E+04  0.31022696313E+04 0.  0.
        2    1    3    3  502    0  0.30216461329E+03 -0.13592855857E+04  0.13629490115E+04  0.19484842224E+04  0.25500000920E-02 0.  1.
       -2    1    3    3    0  502 -0.30216461329E+03  0.13592855857E+04 -0.11099084149E+03  0.13968821439E+04  0.25500000920E-02 0. -1.
</event>
<event>
 5   0  0.1258262E-06  0.3084622E+04  0.7818609E-02  0.8219971E-01
       -2   -1    0    0    0  501  0.00000000000E+00  0.00000000000E+00  0.20955476371E+04  0.20955476371E+04  0.25500000920E-02 0. -1.
        2   -1    0    0  501    0  0.00000000000E+00  0.00000000000E+00 -0.11351318597E+04  0.11351318597E+04  0.25500000920E-02 0.  1.
    10030    2    1    2    0    0  0.00000000000E+00  0.00000000000E+00  0.96041577744E+03  0.32306794967E+04  0.30846217832E+04 0.  0.
        1    1    3    3  502    0  0.83412873972E+03 -0.30965641262E+03  0.17996468879E+04  0.20075823195E+04  0.50400001928E-02 0. -1.
       -1    1    3    3    0  502 -0.83412873972E+03  0.30965641262E+03 -0.83923111045E+03  0.12230971773E+04  0.50400001928E-02 0.  1.
</event>
<event>
 5   0  0.1193123E-06  0.3087159E+04  0.7818609E-02  0.8219271E-01
       -2   -1    0    0    0  501  0.00000000000E+00  0.00000000000E+00  0.22297727624E+04  0.22297727624E+04  0.25500000920E-02 0.  1.
        2   -1    0    0  501    0  0.00000000000E+00  0.00000000000E+00 -0.10685563534E+04  0.10685563534E+04  0.25500000920E-02 0. -1.
    10030    2    1    2    0    0  0.00000000000E+00  0.00000000000E+00  0.11612164090E+04  0.32983291157E+04  0.30871591159E+04 0.  0.
        3    1    3    3  502    0  0.56501896978E+03 -0.14364056678E+04  0.56841891393E+03  0.16448731716E+04  0.10100000352E+00 0.  1.
       -3    1    3    3    0  502 -0.56501896978E+03  0.14364056678E+04  0.59279749508E+03  0.16534559441E+04  0.10100000352E+00 0. -1.
</event>
<event>
 5   0  0.4330395E-07  0.3099205E+04  0.7818609E-02  0.8215956E-01
       -1   -1    0    0    0  501  0.00000000000E+00  0.00000000000E+00  0.12340136305E+04  0.12340136305E+04  0.50400001928E-02 0.  1.
        1   -1    0    0  501    0  0.00000000000E+00  0.00000000000E+00 -0.19459008063E+04  0.19459008063E+04  0.50400001928E-02 0. -1.
    10030    2    1    2    0    0  0.00000000000E+00  0.00000000000E+00 -0.71188717587E+03  0.31799144368E+04  0.30992051359E+04 0.  0.
        1    1    3    3  502    0 -0.82477037217E+03 -0.12700903183E+04 -0.18919602259E+02  0.15145076873E+04  0.50400001928E-02 0.  1.
       -1    1    3    3    0  502  0.82477037217E+03  0.12700903183E+04 -0.69296757361E+03  0.16654067496E+04  0.50400001928E-02 0. -1.
</event>
<event>
 5   0  0.4134019E-07  0.3090303E+04  0.7818609E-02  0.8218404E-01
        1   -1    0    0  501    0  0.00000000000E+00  0.00000000000E+00  0.14683965663E+04  0.14683965664E+04  0.50400001928E-02 0. -1.
       -1   -1    0    0    0  501  0.00000000000E+00  0.00000000000E+00 -0.16259184509E+04  0.16259184509E+04  0.50400001928E-02 0.  1.
    10030    2    1    2    0    0  0.00000000000E+00  0.00000000000E+00 -0.15752188457E+03  0.30943150173E+04  0.30903029434E+04 0.  0.
        2    1    3    3  502    0 -0.81686009016E+03 -0.46708737756E+03 -0.13059385035E+04  0.16096292741E+04  0.25500000920E-02 0.  1.
       -2    1    3    3    0  502  0.81686009016E+03  0.46708737756E+03  0.11484166190E+04  0.14846857431E+04  0.25500000920E-02 0. -1.
</event>
<event>
 5   0  0.4330395E-07  0.3095925E+04  0.7818609E-02  0.8216857E-01
        1   -1    0    0  501    0  0.00000000000E+00  0.00000000000E+00  0.15556786412E+04  0.15556786412E+04  0.50400001928E-02 0.  1.
       -1   -1    0    0    0  501  0.00000000000E+00  0.00000000000E+00 -0.15402849121E+04  0.15402849121E+04  0.50400001928E-02 0. -1.
    10030    2    1    2    0    0  0.00000000000E+00  0.00000000000E+00  0.15393729114E+02  0.30959635533E+04  0.30959252828E+04 0.  0.
        1    1    3    3  502    0  0.58587219754E+03  0.13861307129E+04 -0.35505236982E+03  0.15461781173E+04  0.50400001928E-02 0.  1.
       -1    1    3    3    0  502 -0.58587219754E+03 -0.13861307129E+04  0.37044609893E+03  0.15497854359E+04  0.50400001928E-02 0. -1.
</event>
<event>
 5   0  0.4219337E-07  0.3100070E+04  0.7818609E-02  0.8215719E-01
        1   -1    0    0  501    0  0.00000000000E+00  0.00000000000E+00  0.14246079299E+04  0.14246079299E+04  0.50400001928E-02 0. -1.
       -1   -1    0    0    0  501  0.00000000000E+00  0.00000000000E+00 -0.16865052362E+04  0.16865052362E+04  0.50400001928E-02 0.  1.
    10030    2    1    2    0    0  0.00000000000E+00  0.00000000000E+00 -0.26189730629E+03  0.31111131662E+04  0.31000701498E+04 0.  0.
        4    1    3    3  502    0 -0.81509764772E+02 -0.39479677363E+03  0.13710788079E+04  0.14291140768E+04  0.12699999809E+01 0. -1.
       -4    1    3    3    0  502  0.81509764772E+02  0.39479677363E+03 -0.16329761142E+04  0.16819990893E+04  0.12699999809E+01 0.  1.
</event>
<event>
 5   0  0.4173905E-07  0.3094918E+04  0.7818609E-02  0.8217134E-01
        1   -1    0    0  501    0  0.00000000000E+00  0.00000000000E+00  0.10072062337E+04  0.10072062337E+04  0.50400001928E-02 0. -1.
       -1   -1    0    0    0  501  0.00000000000E+00  0.00000000000E+00 -0.23774961401E+04  0.23774961401E+04  0.50400001928E-02 0.  1.
    10030    2    1    2    0    0  0.00000000000E+00  0.00000000000E+00 -0.13702899064E+04  0.33847023738E+04  0.30949177261E+04 0.  0.
        3    1    3    3  502    0  0.14193566406E+04 -0.20819142869E+02 -0.13589700551E+04  0.19651479158E+04  0.10100000352E+00 0.  1.
       -3    1    3    3    0  502 -0.14193566406E+04  0.20819142869E+02 -0.11319851323E+02  0.14195544580E+04  0.10100000352E+00 0. -1.
</event>
<event>
 5   0  0.1258262E-06  0.3100764E+04  0.7818609E-02  0.8215528E-01
        2   -1    0    0  501    0  0.00000000000E+00  0.00000000000E+00  0.16446917996E+04  0.16446917996E+04  0.25500000920E-02 0. -1.
       -2   -1    0    0    0  501  0.00000000000E+00  0.00000000000E+00 -0.14614796409E+04  0.14614796409E+04  0.25500000920E-02 0.  1.
    10030    2    1    2    0    0  0.00000000000E+00  0.00000000000E+00  0.18321215872E+03  0.31061714405E+04  0.31007635064E+04 0.  0.
        1    1    3    3  502    0  0.14634357147E+04 -0.14012178327E+03 -0.40159940948E+03  0.15239948461E+04  0.50400001928E-02 0.  1.
       -1    1    3    3    0  502 -0.14634357147E+04  0.14012178327E+03  0.58481156820E+03  0.15821765943E+04  0.50400001928E-02 0. -1.
</event>
<event>
 5   0  0.3935852E-07  0.3106427E+04  0.7818609E-02  0.8213976E-01
       -1   -1    0    0    0  501  0.00000000000E+00  0.00000000000E+00  0.17056575513E+04  0.17056575513E+04  0.50400001928E-02 0.  1.
        1   -1    0    0  501    0  0.00000000000E+00  0.00000000000E+00 -0.14143945574E+04  0.14143945574E+04  0.50400001928E-02 0. -1.
    10030    2    1    2    0    0  0.00000000000E+00  0.00000000000E+00  0.29126299388E+03  0.31200521088E+04  0.31064273740E+04 0.  0.
        5    1    3    3  502    0  0.36704271384E+03 -0.55797107818E+03  0.15540652351E+04  0.16915061108E+04  0.46999998093E+01 0.  1.
       -5    1    3    3    0  502 -0.36704271384E+03  0.55797107818E+03 -0.12628022412E+04  0.14285459980E+04  0.46999998093E+01 0. -1.
</event>
<event>
 5   0  0.1176002E-06  0.3066605E+04  0.7818609E-02  0.8224963E-01
        2   -1    0    0  501    0  0.00000000000E+00  0.00000000000E+00  0.13252246285E+04  0.13252246285E+04  0.25500000920E-02 0. -1.
       -2   -1    0    0    0  501  0.00000000000E+00  0.00000000000E+00 -0.17740514224E+04  0.17740514224E+04  0.25500000920E-02 0.  1.
    10030    2    1    2    0    0  0.00000000000E+00  0.00000000000E+00 -0.44882679385E+03  0.30992760509E+04  0.30666050526E+04 0.  0.
        2    1    3    3  502    0  0.41714638362E+03 -0.10297101006E+04  0.84358643654E+03  0.13949738609E+04  0.25500000920E-02 0. -1.
       -2    1    3    3    0  502 -0.41714638362E+03  0.10297101006E+04 -0.12924132304E+04  0.17043021900E+04  0.25500000920E-02 0.  1.
</event>
<event>
 5   0  0.4219337E-07  0.3098166E+04  0.7818609E-02  0.8216241E-01
        1   -1    0    0  501    0  0.00000000000E+00  0.00000000000E+00  0.24927615264E+04  0.24927615264E+04  0.50400001928E-02 0. -1.
       -1   -1    0    0    0  501  0.00000000000E+00  0.00000000000E+00 -0.96265047195E+03  0.96265047196E+03  0.50400001928E-02 0.  1.
    10030    2    1    2    0    0  0.00000000000E+00  0.00000000000E+00  0.15301110545E+04  0.34554119984E+04  0.30981659477E+04 0.  0.
        4    1    3    3  502    0 -0.94270056729E+03 -0.11479260013E+04  0.12553324015E+04  0.19448083492E+04  0.12699999809E+01 0. -1.
       -4    1    3    3    0  502  0.94270056729E+03  0.11479260013E+04  0.27477865299E+03  0.15106036492E+04  0.12699999809E+01 0.  1.
</event>
<event>
 5   0  0.1193123E-06  0.3110201E+04  0.7818609E-02  0.8212944E-01
        2   -1    0    0  501    0  0.00000000000E+00  0.00000000000E+00  0.30822123825E+04  0.30822123825E+04  0.25500000920E-02 0.  1.
       -2   -1    0    0    0  501  0.00000000000E+00  0.00000000000E+00 -0.78461112514E+03  0.78461112515E+03  0.25500000920E-02 0. -1.
    10030    2    1    2    0    0  0.00000000000E+00  0.00000000000E+00  0.22976012573E+04  0.38668235076E+04  0.31102013603E+04 0.  0.
        3    1    3    3  502    0  0.96654710069E+03  0.11957665334E+04  0.85917658722E+03  0.17613220372E+04  0.10100000352E+00 0. -1.
       -3    1    3    3    0  502 -0.96654710069E+03 -0.11957665334E+04  0.14384246701E+04  0.21055014705E+04  0.10100000352E+00 0.  1.
</event>
<event>
 5   0  0.4330395E-07  0.3098220E+04  0.7818609E-02  0.8216226E-01
        1   -1    0    0  501    0  0.00000000000E+00  0.00000000000E+00  0.14517081247E+04  0.14517081247E+04  0.50400001928E-02 0. -1.
       -1   -1    0    0    0  501  0.00000000000E+00  0.00000000000E+00 -0.16530473763E+04  0.16530473763E+04  0.50400001928E-02 0.  1.
    10030    2    1    2    0    0  0.00000000000E+00  0.00000000000E+00 -0.20133925164E+03  0.31047555010E+04  0.30982203322E+04 0.  0.
        1    1    3    3  502    0 -0.33441580512E+03 -0.12802224043E+04  0.70659706583E+03  0.15000275827E+04  0.50400001928E-02 0. -1.
       -1    1    3    3    0  502  0.33441580512E+03  0.12802224043E+04 -0.90793631747E+03  0.16047279183E+04  0.50400001928E-02 0.  1.
</event>
<event>
 5   0  0.1193123E-06  0.3112459E+04  0.7818609E-02  0.8212327E-01
       -2   -1    0    0    0  501  0.00000000000E+00  0.00000000000E+00  0.93550450856E+03  0.93550450857E+03  0.25500000920E-02 0.  1.
        2   -1    0    0  501    0  0.00000000000E+00  0.00000000000E+00 -0.25888178595E+04  0.25888178595E+04  0.25500000920E-02 0. -1.
    10030    2    1    2    0    0  0.00000000000E+00  0.00000000000E+00 -0.16533133509E+04  0.35243223681E+04  0.31124593359E+04 0.  0.
        3    1    3    3  502    0 -0.92691471652E+03  0.12500085214E+04 -0.84091563216E+03  0.17688502780E+04  0.10100000352E+00 0. -1.
       -3    1    3    3    0  502  0.92691471652E+03 -0.12500085214E+04 -0.81239771877E+03  0.17554720901E+04  0.10100000352E+00 0.  1.
</event>
<event>
 5   0  0.3935852E-07  0.3087696E+04  0.7818609E-02  0.8219123E-01
        1   -1    0    0  501    0  0.00000000000E+00  0.00000000000E+00  0.17084385458E+04  0.17084385458E+04  0.50400001928E-02 0. -1.
       -1   -1    0    0    0  501  0.00000000000E+00  0.00000000000E+00 -0.13951137950E+04  0.13951137950E+04  0.50400001928E-02 0.  1.
    10030    2    1    2    0    0  0.00000000000E+00  0.00000000000E+00  0.31332475081E+03  0.31035523409E+04  0.30876956996E+04 0.  0.
        5    1    3    3  502    0  0.20755409198E+03  0.10164397044E+04  0.13058692413E+04  0.16677964322E+04  0.46999998093E+01 0. -1.
       -5    1    3    3    0  502 -0.20755409198E+03 -0.10164397044E+04 -0.99254449050E+03  0.14357559087E+04  0.46999998093E+01 0.  1.
</event>
<event>
 5   0  0.3935852E-07  0.3085157E+04  0.7818609E-02  0.8219823E-01
       -1   -1    0    0    0  501  0.00000000000E+00  0.00000000000E+00  0.12218775161E+04  0.12218775161E+04  0.50400001928E-02 0.  1.
        1   -1    0    0  501    0  0.00000000000E+00  0.00000000000E+00 -0.19474521199E+04  0.19474521199E+04  0.50400001928E-02 0. -1.
    10030    2    1    2    0    0  0.00000000000E+00  0.00000000000E+00 -0.72557460380E+03  0.31693296361E+04  0.30851566956E+04 0.  0.
        5    1    3    3  502    0  0.13339167063E+04  0.24762457705E+02 -0.11582381682E+04  0.17667723971E+04  0.46999998093E+01 0. -1.
       -5    1    3    3    0  502 -0.13339167063E+04 -0.24762457705E+02  0.43266356443E+03  0.14025572390E+04  0.46999998093E+01 0.  1.
</event>
<event>
 5   0  0.4173905E-07  0.3055580E+04  0.7818609E-02  0.8228035E-01
        1   -1    0    0  501    0  0.00000000000E+00  0.00000000000E+00  0.28927293378E+04  0.28927293378E+04  0.50400001928E-02 0. -1.
       -1   -1    0    0    0  501  0.00000000000E+00  0.00000000000E+00 -0.80689956427E+03  0.80689956428E+03  0.50400001928E-02 0.  1.
    10030    2    1    2    0    0  0.00000000000E+00  0.00000000000E+00  0.20858297735E+04  0.36996289021E+04  0.30555798417E+04 0.  0.
        3    1    3    3  502    0  0.61022632685E+03 -0.99401393292E+03  0.22376664151E+04  0.25234085806E+04  0.10100000352E+00 0. -1.
       -3    1    3    3    0  502 -0.61022632685E+03  0.99401393292E+03 -0.15183664160E+03  0.11762203215E+04  0.10100000352E+00 0.  1.
</event>
<event>
 5   0  0.1200286E-06  0.3089052E+04  0.7818609E-02  0.8218749E-01
        2   -1    0    0  501    0  0.00000000000E+00  0.00000000000E+00  0.23093734170E+04  0.23093734170E+04  0.25500000920E-02 0. -1.
       -2   -1    0    0    0  501  0.00000000000E+00  0.00000000000E+00 -0.10329901686E+04  0.10329901686E+04  0.25500000920E-02 0.  1.
    10030    2    1    2    0    0  0.00000000000E+00  0.00000000000E+00  0.12763832485E+04  0.33423635856E+04  0.30890516573E+04 0.  0.
        5    1    3    3  502    0 -0.10329698082E+04  0.63987571471E+03 -0.39344624648E+03  0.12772194775E+04  0.46999998093E+01 0.  1.
       -5    1    3    3    0  502  0.10329698082E+04 -0.63987571471E+03  0.16698294950E+04  0.20651441081E+04  0.46999998093E+01 0. -1.
</event>
<event>
 5   0  0.1258262E-06  0.2994638E+04  0.7818609E-02  0.8245264E-01
       -2   -1    0    0    0  501  0.00000000000E+00  0.00000000000E+00  0.14582687841E+04  0.14582687841E+04  0.25500000920E-02 0.  1.
        2   -1    0    0  501    0  0.00000000000E+00  0.00000000000E+00 -0.15374153134E+04  0.15374153134E+04  0.25500000920E-02 0. -1.
    10030    2    1    2    0    0  0.00000000000E+00  0.00000000000E+00 -0.79146529268E+02  0.29956840976E+04  0.29946383821E+04 0.  0.
        1    1    3    3  502    0 -0.87921527935E+03  0.25086413306E+03  0.11465947497E+04  0.14665032699E+04  0.50400001928E-02 0.  1.
       -1    1    3    3    0  502  0.87921527935E+03 -0.25086413306E+03 -0.12257412789E+04  0.15291808276E+04  0.50400001928E-02 0. -1.
</event>
<event>
 5   0  0.1258262E-06  0.3107868E+04  0.7818609E-02  0.8213582E-01
        2   -1    0    0  501    0  0.00000000000E+00  0.00000000000E+00  0.19537832697E+04  0.19537832697E+04  0.25500000920E-02 0. -1.
       -2   -1    0    0    0  501  0.00000000000E+00  0.00000000000E+00 -0.12359152689E+04  0.12359152689E+04  0.25500000920E-02 0.  1.
    10030    2    1    2    0    0  0.00000000000E+00  0.00000000000E+00  0.71786800082E+03  0.31896985386E+04  0.31078678062E+04 0.  0.
        1    1    3    3  502    0  0.21958728006E+03  0.13531424014E+04  0.11099788695E+04  0.17638781202E+04  0.50400001928E-02 0. -1.
       -1    1    3    3    0  502 -0.21958728006E+03 -0.13531424014E+04 -0.39211086872E+03  0.14258204184E+04  0.50400001928E-02 0.  1.
</event>
<event>
 5   0  0.4134019E-07  0.3119167E+04  0.7818609E-02  0.8210497E-01
        1   -1    0    0  501    0  0.00000000000E+00  0.00000000000E+00  0.11100460865E+04  0.11100460865E+04  0.50400001928E-02 0. -1.
       -1   -1    0    0    0  501  0.00000000000E+00  0.00000000000E+00 -0.21911714593E+04  0.21911714593E+04  0.50400001928E-02 0.  1.
    10030    2    1    2    0    0  0.00000000000E+00  0.00000000000E+00 -0.10811253728E+04  0.33012175458E+04  0.31191673910E+04 0.  0.
        2    1    3    3  502    0  0.10986348830E+04 -0.32912625210E+03 -0.16591190953E+04  0.20169280772E+04  0.25500000920E-02 0.  1.
       -2    1    3    3    0  502 -0.10986348830E+04  0.32912625210E+03  0.57799372248E+03  0.12842894686E+04  0.25500000920E-02 0. -1.
</event>
<event>
 5   0  0.4134019E-07  0.3085876E+04  0.7818609E-02  0.8219625E-01
        1   -1    0    0  501    0  0.00000000000E+00  0.00000000000E+00  0.19501715651E+04  0.19501715651E+04  0.50400001928E-02 0. -1.
       -1   -1    0    0    0  501  0.00000000000E+00  0.00000000000E+00 -0.12207429741E+04  0.12207429741E+04  0.50400001928E-02 0.  1.
    10030    2    1    2    0    0  0.00000000000E+00  0.00000000000E+00  0.72942859102E+03  0.31709145392E+04  0.30858763659E+04 0.  0.
        2    1    3    3  502    0 -0.14954659788E+04  0.33373545912E+03  0.55098405129E+03  0.16283062596E+04  0.25500000920E-02 0. -1.
       -2    1    3    3    0  502  0.14954659788E+04 -0.33373545912E+03  0.17844453973E+03  0.15426082796E+04  0.25500000920E-02 0.  1.
</event>
<event>
 5   0  0.1176002E-06  0.3088715E+04  0.7818609E-02  0.8218842E-01
       -2   -1    0    0    0  501  0.00000000000E+00  0.00000000000E+00  0.16912127869E+04  0.16912127869E+04  0.25500000920E-02 0. -1.
        2   -1    0    0  501    0  0.00000000000E+00  0.00000000000E+00 -0.14102541537E+04  0.14102541537E+04  0.25500000920E-02 0.  1.
    10030    2    1    2    0    0  0.00000000000E+00  0.00000000000E+00  0.28095863317E+03  0.31014669406E+04  0.30887148509E+04 0.  0.
        2    1    3    3  502    0 -0.84087078284E+03  0.70456924600E+03  0.12319621987E+04  0.16496097584E+04  0.25500000920E-02 0. -1.
       -2    1    3    3    0  502  0.84087078284E+03 -0.70456924600E+03 -0.95100356555E+03  0.14518571822E+04  0.25500000920E-02 0.  1.
</event>
<event>
 5   0  0.3935852E-07  0.3085353E+04  0.7818609E-02  0.8219769E-01
       -1   -1    0    0    0  501  0.00000000000E+00  0.00000000000E+00  0.98777284988E+03  0.98777284989E+03  0.50400001928E-02 0.  1.
        1   -1    0    0  501    0  0.00000000000E+00  0.00000000000E+00 -0.24093105424E+04  0.24093105424E+04  0.50400001928E-02 0. -1.
    10030    2    1    2    0    0  0.00000000000E+00  0.00000000000E+00 -0.14215376925E+04  0.33970833923E+04  0.30853534907E+04 0.  0.
        5    1    3    3  502    0 -0.47008432828E+03  0.14506722430E+04 -0.96757273787E+03  0.18060034124E+04  0.46999998093E+01 0. -1.
       -5    1    3    3    0  502  0.47008432828E+03 -0.14506722430E+04 -0.45396495462E+03  0.15910799799E+04  0.46999998093E+01 0.  1.
</event>
<event>
 5   0  0.4219337E-07  0.3107784E+04  0.7818609E-02  0.8213605E-01
        1   -1    0    0  501    0  0.00000000000E+00  0.00000000000E+00  0.99938171098E+03  0.99938171099E+03  0.50400001928E-02 0.  1.
       -1   -1    0    0    0  501  0.00000000000E+00  0.00000000000E+00 -0.24160748343E+04  0.24160748343E+04  0.50400001928E-02 0. -1.
    10030    2    1    2    0    0  0.00000000000E+00  0.00000000000E+00 -0.14166931233E+04  0.34154565453E+04  0.31077844210E+04 0.  0.
        4    1    3    3  502    0  0.10081371779E+04 -0.53609994784E+03  0.44995805271E+03  0.12272764911E+04  0.12699999809E+01 0.  1.
       -4    1    3    3    0  502 -0.10081371779E+04  0.53609994784E+03 -0.18666511761E+04  0.21881800542E+04  0.12699999809E+01 0. -1.
</event>
<event>
 5   0  0.4173905E-07  0.3111124E+04  0.7818609E-02  0.8212692E-01
        1   -1    0    0  501    0  0.00000000000E+00  0.00000000000E+00  0.14375766013E+04  0.14375766013E+04  0.50400001928E-02 0.  1.
       -1   -1    0    0    0  501  0.00000000000E+00  0.00000000000E+00 -0.16832304812E+04  0.16832304812E+04  0.50400001928E-02 0. -1.
    10030    2    1    2    0    0  0.00000000000E+00  0.00000000000E+00 -0.24565387994E+03  0.31208070826E+04  0.31111237548E+04 0.  0.
        3    1    3    3  502    0  0.65605712946E+03  0.32027851713E+03  0.12550507431E+04  0.14519440979E+04  0.10100000352E+00 0.  1.
       -3    1    3    3    0  502 -0.65605712946E+03 -0.32027851713E+03 -0.15007046230E+04  0.16688629846E+04  0.10100000352E+00 0. -1.
</event>
<event>
 5   0  0.3935852E-07  0.3103767E+04  0.7818609E-02  0.8214705E-01
       -1   -1    0    0    0  501  0.00000000000E+00  0.00000000000E+00  0.11239908006E+04  0.11239908007E+04  0.50400001928E-02 0.  1.
        1   -1    0    0  501    0  0.00000000000E+00  0.00000000000E+00 -0.21426707882E+04  0.21426707882E+04  0.50400001928E-02 0. -1.
    10030    2    1    2    0    0  0.00000000000E+00  0.00000000000E+00 -0.10186799876E+04  0.32666615889E+04  0.31037669080E+04 0.  0.
        5    1    3    3  502    0  0.80144206535E+03 -0.44648267129E+03  0.80801547945E+03  0.12225249547E+04  0.46999998093E+01 0.  1.
       -5    1    3    3    0  502 -0.80144206535E+03  0.44648267129E+03 -0.18266954670E+04  0.20441366342E+04  0.46999998093E+01 0. -1.
</event>
<event>
 5   0  0.1176002E-06  0.3085811E+04  0.7818609E-02  0.8219643E-01
       -2   -1    0    0    0  501  0.00000000000E+00  0.00000000000E+00  0.13322772806E+04  0.13322772806E+04  0.25500000920E-02 0. -1.
        2   -1    0    0  501    0  0.00000000000E+00  0.00000000000E+00 -0.17868328147E+04  0.17868328147E+04  0.25500000920E-02 0.  1.
    10030    2    1    2    0    0  0.00000000000E+00  0.00000000000E+00 -0.45455553409E+03  0.31191100953E+04  0.30858105990E+04 0.  0.
        2    1    3    3  502    0  0.49266353169E+03 -0.16315111671E+03 -0.16959615481E+04  0.17735899230E+04  0.25500000920E-02 0.  1.
       -2    1    3    3    0  502 -0.49266353169E+03  0.16315111671E+03  0.12414060140E+04  0.13455201723E+04  0.25500000920E-02 0. -1.
</event>
<event>
 5   0  0.1176002E-06  0.3091177E+04  0.7818609E-02  0.8218164E-01
        2   -1    0    0  501    0  0.00000000000E+00  0.00000000000E+00  0.23085201127E+04  0.23085201127E+04  0.25500000920E-02 0.  1.
       -2   -1    0    0    0  501  0.00000000000E+00  0.00000000000E+00 -0.10347942655E+04  0.10347942655E+04  0.25500000920E-02 0. -1.
    10030    2    1    2    0    0  0.00000000000E+00  0.00000000000E+00  0.12737258473E+04  0.33433143782E+04  0.30911767173E+04 0.  0.
        2    1    3    3  502    0  0.12976047791E+04 -0.20844307764E+03  0.15166075245E+04  0.20068196388E+04  0.25500000920E-02 0. -1.
       -2    1    3    3    0  502 -0.12976047791E+04  0.20844307764E+03 -0.24288167723E+03  0.13364947394E+04  0.25500000920E-02 0.  1.
</event>
<event>
 5   0  0.4219337E-07  0.3101064E+04  0.7818609E-02  0.8215446E-01
        1   -1    0    0  501    0  0.00000000000E+00  0.00000000000E+00  0.22840043608E+04  0.22840043608E+04  0.50400001928E-02 0. -1.
       -1   -1    0    0    0  501  0.00000000000E+00  0.00000000000E+00 -0.10526026962E+04  0.10526026962E+04  0.50400001928E-02 0.  1.
    10030    2    1    2    0    0  0.00000000000E+00  0.00000000000E+00  0.12314016646E+04  0.33366070570E+04  0.31010637841E+04 0.  0.
        4    1    3    3  502    0 -0.14464038767E+04  0.35216262290E+03  0.10822797209E+04  0.18404982192E+04  0.12699999809E+01 0. -1.
       -4    1    3    3    0  502  0.14464038767E+04 -0.35216262290E+03  0.14912194371E+03  0.14961088378E+04  0.12699999809E+01 0.  1.
</event>
<event>
 5   0  0.4330395E-07  0.3095749E+04  0.7818609E-02  0.8216906E-01
        1   -1    0    0  501    0  0.00000000000E+00  0.00000000000E+00  0.14020578466E+04  0.14020578466E+04  0.50400001928E-02 0.  1.
       -1   -1    0    0    0  501  0.00000000000E+00  0.00000000000E+00 -0.17088558962E+04  0.17088558962E+04  0.50400001928E-02 0. -1.
    10030    2    1    2    0    0  0.00000000000E+00  0.00000000000E+00 -0.30679804964E+03  0.31109137428E+04  0.30957485802E+04 0.  0.
        1    1    3    3  502    0  0.10255235382E+04 -0.37767301065E+03 -0.12549345853E+04  0.16640902150E+04  0.50400001928E-02 0. -1.
       -1    1    3    3    0  502 -0.10255235382E+04  0.37767301065E+03  0.94813653566E+03  0.14468235278E+04  0.50400001928E-02 0.  1.
</event>
<event>
 5   0  0.4330395E-07  0.3107422E+04  0.7818609E-02  0.8213704E-01
       -1   -1    0    0    0  501  0.00000000000E+00  0.00000000000E+00  0.80558945988E+03  0.80558945990E+03  0.50400001928E-02 0. -1.
        1   -1    0    0  501    0  0.00000000000E+00  0.00000000000E+00 -0.29965854285E+04  0.29965854285E+04  0.50400001928E-02 0.  1.
    10030    2    1    2    0    0  0.00000000000E+00  0.00000000000E+00 -0.21909959686E+04  0.38021748884E+04  0.31074218490E+04 0.  0.
        1    1    3    3  502    0 -0.15638366687E+03  0.33925172662E+03 -0.29408192454E+04  0.29644502727E+04  0.50400001928E-02 0.  1.
       -1    1    3    3    0  502  0.15638366687E+03 -0.33925172662E+03  0.74982327679E+03  0.83772461568E+03  0.50400001928E-02 0. -1.
</event>
<event>
 5   0  0.3935852E-07  0.3089048E+04  0.7818609E-02  0.8218750E-01
        1   -1    0    0  501    0  0.00000000000E+00  0.00000000000E+00  0.21109616969E+04  0.21109616969E+04  0.50400001928E-02 0.  1.
       -1   -1    0    0    0  501  0.00000000000E+00  0.00000000000E+00 -0.11300792428E+04  0.11300792428E+04  0.50400001928E-02 0. -1.
    10030    2    1    2    0    0  0.00000000000E+00  0.00000000000E+00  0.98088245412E+03  0.32410409396E+04  0.30890477471E+04 0.  0.
        5    1    3    3  502    0  0.73706309796E+03 -0.67886905712E+03 -0.74272230946E+03  0.12473105973E+04  0.46999998093E+01 0. -1.
       -5    1    3    3    0  502 -0.73706309796E+03  0.67886905712E+03  0.17236047636E+04  0.19937303424E+04  0.46999998093E+01 0.  1.
</event>
<event>
 5   0  0.1258262E-06  0.3102633E+04  0.7818609E-02  0.8215016E-01
       -2   -1    0    0    0  501  0.00000000000E+00  0.00000000000E+00  0.10341437827E+04  0.10341437827E+04  0.25500000920E-02 0.  1.
        2   -1    0    0  501    0  0.00000000000E+00  0.00000000000E+00 -0.23271265792E+04  0.23271265792E+04  0.25500000920E-02 0. -1.
    10030    2    1    2    0    0  0.00000000000E+00  0.00000000000E+00 -0.12929827965E+04  0.33612703619E+04  0.31026333870E+04 0.  0.
        1    1    3    3  502    0  0.42890750971E+03  0.14844435554E+04 -0.49696739148E+03  0.16231176511E+04  0.50400001928E-02 0.  1.
       -1    1    3    3    0  502 -0.42890750971E+03 -0.14844435554E+04 -0.79601540497E+03  0.17381527108E+04  0.50400001928E-02 0. -1.
</event>
<event>
 5   0  0.1193123E-06  0.3164774E+04  0.7818609E-02  0.8198183E-01
       -2   -1    0    0    0  501  0.00000000000E+00  0.00000000000E+00  0.13609620835E+04  0.13609620835E+04  0.25500000920E-02 0.  1.
        2   -1    0    0  501    0  0.00000000000E+00  0.00000000000E+00 -0.18398371504E+04  0.18398371504E+04  0.25500000920E-02 0. -1.
    10030    2    1    2    0    0  0.00000000000E+00  0.00000000000E+00 -0.47887506687E+03  0.32007992339E+04  0.31647739897E+04 0.  0.
        3    1    3    3  502    0  0.13180065929E+04  0.16408845567E+02  0.64605023742E+03  0.14679208251E+04  0.10100000352E+00 0.  1.
       -3    1    3    3    0  502 -0.13180065929E+04 -0.16408845567E+02 -0.11249253043E+04  0.17328784088E+04  0.10100000352E+00 0. -1.
</event>
<event>
 5   0  0.1258262E-06  0.3095521E+04  0.7818609E-02  0.8216968E-01
        2   -1    0    0  501    0  0.00000000000E+00  0.00000000000E+00  0.20456434122E+04  0.20456434122E+04  0.25500000920E-02 0. -1.
       -2   -1    0    0    0  501  0.00000000000E+00  0.00000000000E+00 -0.11710561562E+04  0.11710561562E+04  0.25500000920E-02 0.  1.
    10030    2    1    2    0    0  0.00000000000E+00  0.00000000000E+00  0.87458725595E+03  0.32166995684E+04  0.30955214819E+04 0.  0.
        1    1    3    3  502    0  0.13436192103E+04 -0.76791281616E+03  0.41268898609E+03  0.16016600372E+04  0.50400001928E-02 0.  1.
       -1    1    3    3    0  502 -0.13436192103E+04  0.76791281616E+03  0.46189826987E+03  0.16150395312E+04  0.50400001928E-02 0. -1.
</event>
<event>
 5   0  0.1193123E-06  0.3093843E+04  0.7818609E-02  0.8217430E-01
        2   -1    0    0  501    0  0.00000000000E+00  0.00000000000E+00  0.15468802510E+04  0.15468802510E+04  0.25500000920E-02 0. -1.
       -2   -1    0    0    0  501  0.00000000000E+00  0.00000000000E+00 -0.15469628675E+04  0.15469628675E+04  0.25500000920E-02 0.  1.
    10030    2    1    2    0    0  0.00000000000E+00  0.00000000000E+00 -0.82616454131E-01  0.30938431185E+04  0.30938431174E+04 0.  0.
        3    1    3    3  502    0  0.14606210341E+04  0.46930173298E+03 -0.19830471073E+03  0.15469268536E+04  0.10100000352E+00 0.  1.
       -3    1    3    3    0  502 -0.14606210341E+04 -0.46930173298E+03  0.19822209428E+03  0.15469162649E+04  0.10100000352E+00 0. -1.
</event>
<event>
 5   0  0.1200286E-06  0.3096436E+04  0.7818609E-02  0.8216717E-01
        2   -1    0    0  501    0  0.00000000000E+00  0.00000000000E+00  0.14889075350E+04  0.14889075350E+04  0.25500000920E-02 0. -1.
       -2   -1    0    0    0  501  0.00000000000E+00  0.00000000000E+00 -0.16098910916E+04  0.16098910916E+04  0.25500000920E-02 0.  1.
    10030    2    1    2    0    0  0.00000000000E+00  0.00000000000E+00 -0.12098355659E+03  0.30987986266E+04  0.30964360008E+04 0.  0.
        5    1    3    3  502    0  0.14788845503E+04  0.85991300043E+02  0.38981028932E+03  0.15318185821E+04  0.46999998093E+01 0.  1.
       -5    1    3    3    0  502 -0.14788845503E+04 -0.85991300043E+02 -0.51079384591E+03  0.15669800445E+04  0.46999998093E+01 0. -1.
</event>
<event>
 5   0  0.4134019E-07  0.3104639E+04  0.7818609E-02  0.8214466E-01
        1   -1    0    0  501    0  0.00000000000E+00  0.00000000000E+00  0.20340525538E+04  0.20340525538E+04  0.50400001928E-02 0.  1.
       -1   -1    0    0    0  501  0.00000000000E+00  0.00000000000E+00 -0.11846776519E+04  0.11846776519E+04  0.50400001928E-02 0. -1.
    10030    2    1    2    0    0  0.00000000000E+00  0.00000000000E+00  0.84937490193E+03  0.32187302057E+04  0.31046394981E+04 0.  0.
        2    1    3    3  502    0 -0.10986043107E+04 -0.59959058128E+03 -0.52734816588E+03  0.13581371008E+04  0.25500000920E-02 0. -1.
       -2    1    3    3    0  502  0.10986043107E+04  0.59959058128E+03  0.13767230678E+04  0.18605931049E+04  0.25500000920E-02 0.  1.
</event>
<event>
 5   0  0.4173905E-07  0.3119485E+04  0.7818609E-02  0.8210411E-01
       -1   -1    0    0    0  501  0.00000000000E+00  0.00000000000E+00  0.15022234763E+04  0.15022234763E+04  0.50400001928E-02 0.  1.
        1   -1    0    0  501    0  0.00000000000E+00  0.00000000000E+00 -0.16194636328E+04  0.16194636328E+04  0.50400001928E-02 0. -1.
    10030    2    1    2    0    0  0.00000000000E+00  0.00000000000E+00 -0.11724015649E+03  0.31216871092E+04  0.31194847576E+04 0.  0.
        3    1    3    3  502    0 -0.12935459097E+04  0.35115122148E+02 -0.93004034657E+03  0.15935711935E+04  0.10100000352E+00 0. -1.
       -3    1    3    3    0  502  0.12935459097E+04 -0.35115122148E+02  0.81280019008E+03  0.15281159156E+04  0.10100000352E+00 0.  1.
</event>
<event>
 5   0  0.1258262E-06  0.3085663E+04  0.7818609E-02  0.8219684E-01
        2   -1    0    0  501    0  0.00000000000E+00  0.00000000000E+00  0.22664010923E+04  0.22664010924E+04  0.25500000920E-02 0. -1.
       -2   -1    0    0    0  501  0.00000000000E+00  0.00000000000E+00 -0.10502681593E+04  0.10502681593E+04  0.25500000920E-02 0.  1.
    10030    2    1    2    0    0  0.00000000000E+00  0.00000000000E+00  0.12161329330E+04  0.33166692517E+04  0.30856629133E+04 0.  0.
        1    1    3    3  502    0  0.10361849104E+04  0.10522599220E+04  0.10880374075E+04  0.18343269916E+04  0.50400001928E-02 0. -1.
       -1    1    3    3    0  502 -0.10361849104E+04 -0.10522599220E+04  0.12809552554E+03  0.14823422600E+04  0.50400001928E-02 0.  1.
</event>
<event>
 5   0  0.4173905E-07  0.3101120E+04  0.7818609E-02  0.8215431E-01
        1   -1    0    0  501    0  0.00000000000E+00  0.00000000000E+00  0.15299159902E+04  0.15299159902E+04  0.50400001928E-02 0. -1.
       -1   -1    0    0    0  501  0.00000000000E+00  0.00000000000E+00 -0.15714828005E+04  0.15714828005E+04  0.50400001928E-02 0.  1.
    10030    2    1    2    0    0  0.00000000000E+00  0.00000000000E+00 -0.41566810375E+02  0.31013987907E+04  0.31011202265E+04 0.  0.
        3    1    3    3  502    0  0.13221483774E+03 -0.10970047454E+04  0.10671270141E+04  0.15361185661E+04  0.10100000352E+00 0. -1.
       -3    1    3    3    0  502 -0.13221483774E+03  0.10970047454E+04 -0.11086938245E+04  0.15652802246E+04  0.10100000352E+00 0.  1.
</event>
<event>
 5   0  0.4134019E-07  0.3080866E+04  0.7818609E-02  0.8221009E-01
        1   -1    0    0  501    0  0.00000000000E+00  0.00000000000E+00  0.17730774434E+04  0.17730774434E+04  0.50400001928E-02 0. -1.
       -1   -1    0    0    0  501  0.00000000000E+00  0.00000000000E+00 -0.13383134039E+04  0.13383134039E+04  0.50400001928E-02 0.  1.
    10030    2    1    2    0    0  0.00000000000E+00  0.00000000000E+00  0.43476403949E+03  0.31113908473E+04  0.30808656632E+04 0.  0.
        2    1    3    3  502    0  0.25302993632E+03 -0.29269274834E+03  0.17232087180E+04  0.17661091358E+04  0.25500000920E-02 0. -1.
       -2    1    3    3    0  502 -0.25302993632E+03  0.29269274834E+03 -0.12884446786E+04  0.13452817115E+04  0.25500000920E-02 0.  1.
</event>
<event>
 5   0  0.4219337E-07  0.3089048E+04  0.7818609E-02  0.8218750E-01
       -1   -1    0    0    0  501  0.00000000000E+00  0.00000000000E+00  0.14723791659E+04  0.14723791659E+04  0.50400001928E-02 0. -1.
        1   -1    0    0  501    0  0.00000000000E+00  0.00000000000E+00 -0.16202037248E+04  0.16202037249E+04  0.50400001928E-02 0.  1.
    10030    2    1    2    0    0  0.00000000000E+00  0.00000000000E+00 -0.14782455899E+03  0.30925828907E+04  0.30890478850E+04 0.  0.
        4    1    3    3  502    0  0.27801879073E+03  0.82967195585E+03 -0.13481227184E+04  0.16071983322E+04  0.12699999809E+01 0.  1.
       -4    1    3    3    0  502 -0.27801879073E+03 -0.82967195585E+03  0.12002981594E+04  0.14853845585E+04  0.12699999809E+01 0. -1.
</event>
<event>
 5   0  0.1237580E-06  0.3100346E+04  0.7818609E-02  0.8215643E-01
       -2   -1    0    0    0  501  0.00000000000E+00  0.00000000000E+00  0.67955585303E+03  0.67955585303E+03  0.25500000920E-02 0.  1.
        2   -1    0    0  501    0  0.00000000000E+00  0.00000000000E+00 -0.35361873248E+04  0.35361873248E+04  0.25500000920E-02 0. -1.
    10030    2    1    2    0    0  0.00000000000E+00  0.00000000000E+00 -0.28566314718E+04  0.42157431778E+04  0.31003462994E+04 0.  0.
        4    1    3    3  502    0 -0.39312092434E+03 -0.56679255568E+02 -0.34658224885E+04  0.34885073791E+04  0.12699999809E+01 0. -1.
       -4    1    3    3    0  502  0.39312092434E+03  0.56679255568E+02  0.60919101675E+03  0.72723579873E+03  0.12699999809E+01 0.  1.
</event>
<event>
 5   0  0.3935852E-07  0.3104667E+04  0.7818609E-02  0.8214458E-01
        1   -1    0    0  501    0  0.00000000000E+00  0.00000000000E+00  0.10154062962E+04  0.10154062963E+04  0.50400001928E-02 0.  1.
       -1   -1    0    0    0  501  0.00000000000E+00  0.00000000000E+00 -0.23731777043E+04  0.23731777043E+04  0.50400001928E-02 0. -1.
    10030    2    1    2    0    0  0.00000000000E+00  0.00000000000E+00 -0.13577714081E+04  0.33885840006E+04  0.31046671854E+04 0.  0.
        5    1    3    3  502    0 -0.90565031626E+03 -0.83587145682E+03  0.35126692101E+03  0.12815202408E+04  0.46999998093E+01 0.  1.
       -5    1    3    3    0  502  0.90565031626E+03  0.83587145682E+03 -0.17090383291E+04  0.21070637598E+04  0.46999998093E+01 0. -1.
</event>
<event>
 5   0  0.3935852E-07  0.3098460E+04  0.7818609E-02  0.8216161E-01
       -1   -1    0    0    0  501  0.00000000000E+00  0.00000000000E+00  0.14544991175E+04  0.14544991175E+04  0.50400001928E-02 0.  1.
        1   -1    0    0  501    0  0.00000000000E+00  0.00000000000E+00 -0.16501304645E+04  0.16501304645E+04  0.50400001928E-02 0. -1.
    10030    2    1    2    0    0  0.00000000000E+00  0.00000000000E+00 -0.19563134694E+03  0.31046295820E+04  0.30984598137E+04 0.  0.
        5    1    3    3  502    0  0.12698417436E+04  0.49490765863E+03 -0.83593683520E+03  0.15988258588E+04  0.46999998093E+01 0. -1.
       -5    1    3    3    0  502 -0.12698417436E+04 -0.49490765863E+03  0.64030548826E+03  0.15058037232E+04  0.46999998093E+01 0.  1.
</event>
<event>
 5   0  0.3935852E-07  0.3095967E+04  0.7818609E-02  0.8216846E-01
        1   -1    0    0  501    0  0.00000000000E+00  0.00000000000E+00  0.20267951904E+04  0.20267951904E+04  0.50400001928E-02 0.  1.
       -1   -1    0    0    0  501  0.00000000000E+00  0.00000000000E+00 -0.11822862794E+04  0.11822862795E+04  0.50400001928E-02 0. -1.
    10030    2    1    2    0    0  0.00000000000E+00  0.00000000000E+00  0.84450891098E+03  0.32090814699E+04  0.30959665017E+04 0.  0.
        5    1    3    3  502    0  0.93725087427E+03  0.11357069248E+04 -0.72642085631E+02  0.14743026768E+04  0.46999998093E+01 0. -1.
       -5    1    3    3    0  502 -0.93725087427E+03 -0.11357069248E+04  0.91715099661E+03  0.17347787931E+04  0.46999998093E+01 0.  1.
</event>
<event>
 5   0  0.1200286E-06  0.3103581E+04  0.7818609E-02  0.8214756E-01
       -2   -1    0    0    0  501  0.00000000000E+00  0.00000000000E+00  0.11315519637E+04  0.11315519637E+04  0.25500000920E-02 0. -1.
        2   -1    0    0  501    0  0.00000000000E+00  0.00000000000E+00 -0.21280987090E+04  0.21280987090E+04  0.25500000920E-02 0.  1.
    10030    2    1    2    0    0  0.00000000000E+00  0.00000000000E+00 -0.99654674529E+03  0.32596506726E+04  0.31035813332E+04 0.  0.
        5    1    3    3  502    0 -0.21630338839E+03 -0.78965296693E+03 -0.18827782262E+04  0.20530988537E+04  0.46999998093E+01 0.  1.
       -5    1    3    3    0  502  0.21630338839E+03  0.78965296693E+03  0.88623148090E+03  0.12065518189E+04  0.46999998093E+01 0. -1.
</event>
<event>
 5   0  0.1258262E-06  0.3103497E+04  0.7818609E-02  0.8214779E-01
        2   -1    0    0  501    0  0.00000000000E+00  0.00000000000E+00  0.17881918253E+04  0.17881918253E+04  0.25500000920E-02 0. -1.
       -2   -1    0    0    0  501  0.00000000000E+00  0.00000000000E+00 -0.13465686523E+04  0.13465686523E+04  0.25500000920E-02 0.  1.
    10030    2    1    2    0    0  0.00000000000E+00  0.00000000000E+00  0.44162317296E+03  0.31347604776E+04  0.31034967738E+04 0.  0.
        1    1    3    3  502    0 -0.14227736508E+04 -0.31954195356E+03 -0.31512854660E+03  0.14918773148E+04  0.50400001928E-02 0.  1.
       -1    1    3    3    0  502  0.14227736508E+04  0.31954195356E+03  0.75675171957E+03  0.16428831628E+04  0.50400001928E-02 0. -1.
</event>
<event>
 5   0  0.4134019E-07  0.3106070E+04  0.7818609E-02  0.8214074E-01
       -1   -1    0    0    0  501  0.00000000000E+00  0.00000000000E+00  0.15320369760E+04  0.15320369760E+04  0.50400001928E-02 0. -1.
        1   -1    0    0  501    0  0.00000000000E+00  0.00000000000E+00 -0.15743204029E+04  0.15743204029E+04  0.50400001928E-02 0.  1.
    10030    2    1    2    0    0  0.00000000000E+00  0.00000000000E+00 -0.42283426853E+02  0.31063573789E+04  0.31060695867E+04 0.  0.
        2    1    3    3  502    0  0.67613171993E+03  0.30655861456E+03 -0.13853739589E+04  0.15717484827E+04  0.25500000920E-02 0.  1.
       -2    1    3    3    0  502 -0.67613171993E+03 -0.30655861456E+03  0.13430905321E+04  0.15346088962E+04  0.25500000920E-02 0. -1.
</event>
<event>
 5   0  0.4134019E-07  0.3064642E+04  0.7818609E-02  0.8225509E-01
        1   -1    0    0  501    0  0.00000000000E+00  0.00000000000E+00  0.12768931425E+04  0.12768931425E+04  0.50400001928E-02 0.  1.
       -1   -1    0    0    0  501  0.00000000000E+00  0.00000000000E+00 -0.18388443006E+04  0.18388443006E+04  0.50400001928E-02 0. -1.
    10030    2    1    2    0    0  0.00000000000E+00  0.00000000000E+00 -0.56195115802E+03  0.31157374431E+04  0.30646420199E+04 0.  0.
        2    1    3    3  502    0 -0.30150071797E+02 -0.11304640279E+04  0.77026076514E+03  0.13682688301E+04  0.25500000920E-02 0.  1.
       -2    1    3    3    0  502  0.30150071797E+02  0.11304640279E+04 -0.13322119232E+04  0.17474686130E+04  0.25500000920E-02 0. -1.
</event>
<event>
 5   0  0.1258262E-06  0.3104010E+04  0.7818609E-02  0.8214638E-01
       -2   -1    0    0    0  501  0.00000000000E+00  0.00000000000E+00  0.87457857308E+03  0.87457857309E+03  0.25500000920E-02 0.  1.
        2   -1    0    0  501    0  0.00000000000E+00  0.00000000000E+00 -0.27541494879E+04  0.27541494879E+04  0.25500000920E-02 0. -1.
    10030    2    1    2    0    0  0.00000000000E+00  0.00000000000E+00 -0.18795709149E+04  0.36287280610E+04  0.31040103925E+04 0.  0.
        1    1    3    3  502    0  0.13227903712E+04  0.48043332185E+03 -0.17486041877E+03  0.14181560947E+04  0.50400001928E-02 0. -1.
       -1    1    3    3    0  502 -0.13227903712E+04 -0.48043332185E+03 -0.17047104961E+04  0.22105719663E+04  0.50400001928E-02 0.  1.
</event>
<event>
 5   0  0.1258262E-06  0.3088312E+04  0.7818609E-02  0.8218953E-01
       -2   -1    0    0    0  501  0.00000000000E+00  0.00000000000E+00  0.11605231956E+04  0.11605231956E+04  0.25500000920E-02 0. -1.
        2   -1    0    0  501    0  0.00000000000E+00  0.00000000000E+00 -0.20546058792E+04  0.20546058792E+04  0.25500000920E-02 0.  1.
    10030    2    1    2    0    0  0.00000000000E+00  0.00000000000E+00 -0.89408268362E+03  0.32151290748E+04  0.30883120183E+04 0.  0.
        1    1    3    3  502    0 -0.98143195730E+03  0.60132332624E+02  0.79247726763E+03  0.12628716498E+04  0.50400001928E-02 0.  1.
       -1    1    3    3    0  502  0.98143195730E+03 -0.60132332624E+02 -0.16865599513E+04  0.19522574250E+04  0.50400001928E-02 0. -1.
</event>
<event>
 5   0  0.1193123E-06  0.3164188E+04  0.7818609E-02  0.8198340E-01
       -2   -1    0    0    0  501  0.00000000000E+00  0.00000000000E+00  0.14941292839E+04  0.14941292839E+04  0.25500000920E-02 0.  1.
        2   -1    0    0  501    0  0.00000000000E+00  0.00000000000E+00 -0.16752373277E+04  0.16752373277E+04  0.25500000920E-02 0. -1.
    10030    2    1    2    0    0  0.00000000000E+00  0.00000000000E+00 -0.18110804385E+03  0.31693666116E+04  0.31641878255E+04 0.  0.
        3    1    3    3  502    0 -0.12488887948E+04 -0.92658974619E+03  0.20100546938E+03  0.15680226364E+04  0.10100000352E+00 0.  1.
       -3    1    3    3    0  502  0.12488887948E+04  0.92658974619E+03 -0.38211351323E+03  0.16013439751E+04  0.10100000352E+00 0. -1.
</event>
<event>
 5   0  0.4219337E-07  0.3117442E+04  0.7818609E-02  0.8210967E-01
       -1   -1    0    0    0  501  0.00000000000E+00  0.00000000000E+00  0.13141044143E+04  0.13141044143E+04  0.50400001928E-02 0.  1.
        1   -1    0    0  501    0  0.00000000000E+00  0.00000000000E+00 -0.18488721611E+04  0.18488721612E+04  0.50400001928E-02 0. -1.
    10030    2    1    2    0    0  0.00000000000E+00  0.00000000000E+00 -0.53476774686E+03  0.31629765754E+04  0.31174419439E+04 0.  0.
        4    1    3    3  502    0  0.11458220457E+04 -0.55743097132E+03  0.64348860531E+03  0.14274861282E+04  0.12699999809E+01 0. -1.
       -4    1    3    3    0  502 -0.11458220457E+04  0.55743097132E+03 -0.11782563522E+04  0.17354904472E+04  0.12699999809E+01 0.  1.
</event>
<event>
 5   0  0.4219337E-07  0.3077512E+04  0.7818609E-02  0.8221937E-01
       -1   -1    0    0    0  501  0.00000000000E+00  0.00000000000E+00  0.12659613934E+04  0.12659613934E+04  0.50400001928E-02 0.  1.
        1   -1    0    0  501    0  0.00000000000E+00  0.00000000000E+00 -0.18703334014E+04  0.18703334014E+04  0.50400001928E-02 0. -1.
    10030    2    1    2    0    0  0.00000000000E+00  0.00000000000E+00 -0.60437200800E+03  0.31362947947E+04  0.30775119034E+04 0.  0.
        4    1    3    3  502    0  0.29965313210E+03  0.45047957266E+03  0.11658301513E+04  0.12852569391E+04  0.12699999809E+01 0.  1.
       -4    1    3    3    0  502 -0.29965313210E+03 -0.45047957266E+03 -0.17702021593E+04  0.18510378556E+04  0.12699999809E+01 0. -1.
</event>
<event>
 5   0  0.4330395E-07  0.3092479E+04  0.7818609E-02  0.8217805E-01
        1   -1    0    0  501    0  0.00000000000E+00  0.00000000000E+00  0.19013437653E+04  0.19013437653E+04  0.50400001928E-02 0. -1.
       -1   -1    0    0    0  501  0.00000000000E+00  0.00000000000E+00 -0.12574560117E+04  0.12574560117E+04  0.50400001928E-02 0.  1.
    10030    2    1    2    0    0  0.00000000000E+00  0.00000000000E+00  0.64388775353E+03  0.31587997770E+04  0.30924787133E+04 0.  0.
        1    1    3    3  502    0  0.96684138684E+03  0.73948644683E+03  0.12959308223E+04  0.17779367730E+04  0.50400001928E-02 0. -1.
       -1    1    3    3    0  502 -0.96684138684E+03 -0.73948644683E+03 -0.65204306881E+03  0.13808630040E+04  0.50400001928E-02 0.  1.
</event>
<event>
 5   0  0.1200286E-06  0.3075217E+04  0.7818609E-02  0.8222573E-01
        2   -1    0    0  501    0  0.00000000000E+00  0.00000000000E+00  0.14758999051E+04  0.14758999051E+04  0.25500000920E-02 0. -1.
       -2   -1    0    0    0  501  0.00000000000E+00  0.00000000000E+00 -0.16018969783E+04  0.16018969783E+04  0.25500000920E-02 0.  1.
    10030    2    1    2    0    0  0.00000000000E+00  0.00000000000E+00 -0.12599707314E+03  0.30777968834E+04  0.30752168042E+04 0.  0.
        5    1    3    3  502    0 -0.40176291849E+03  0.50870633801E+03 -0.14584501944E+04  0.15960246366E+04  0.46999998093E+01 0.  1.
       -5    1    3    3    0  502  0.40176291849E+03 -0.50870633801E+03  0.13324531213E+04  0.14817722468E+04  0.46999998093E+01 0. -1.
</event>
<event>
 5   0  0.4173905E-07  0.3070934E+04  0.7818609E-02  0.8223760E-01
       -1   -1    0    0    0  501  0.00000000000E+00  0.00000000000E+00  0.12817573338E+04  0.12817573338E+04  0.50400001928E-02 0.  1.
        1   -1    0    0  501    0  0.00000000000E+00  0.00000000000E+00 -0.18393956747E+04  0.18393956747E+04  0.50400001928E-02 0. -1.
    10030    2    1    2    0    0  0.00000000000E+00  0.00000000000E+00 -0.55763834094E+03  0.31211530085E+04  0.30709339920E+04 0.  0.
        3    1    3    3  502    0  0.59077769462E+03  0.72780269940E+03  0.95718637204E+03  0.13397465487E+04  0.10100000352E+00 0.  1.
       -3    1    3    3    0  502 -0.59077769462E+03 -0.72780269940E+03 -0.15148247130E+04  0.17814064598E+04  0.10100000352E+00 0. -1.
</event>
<event>
 5   0  0.1200286E-06  0.3122979E+04  0.7818609E-02  0.8209460E-01
        2   -1    0    0  501    0  0.00000000000E+00  0.00000000000E+00  0.12957420329E+04  0.12957420329E+04  0.25500000920E-02 0. -1.
       -2   -1    0    0    0  501  0.00000000000E+00  0.00000000000E+00 -0.18817394477E+04  0.18817394477E+04  0.25500000920E-02 0.  1.
    10030    2    1    2    0    0  0.00000000000E+00  0.00000000000E+00 -0.58599741473E+03  0.31774814806E+04  0.31229786406E+04 0.  0.
        5    1    3    3  502    0 -0.14582838980E+04  0.18245211140E+03 -0.82979139391E+03  0.16877371085E+04  0.46999998093E+01 0.  1.
       -5    1    3    3    0  502  0.14582838980E+04 -0.18245211140E+03  0.24379397918E+03  0.14897443721E+04  0.46999998093E+01 0. -1.
</event>
<event>
 5   0  0.1258262E-06  0.3088159E+04  0.7818609E-02  0.8218995E-01
        2   -1    0    0  501    0  0.00000000000E+00  0.00000000000E+00  0.12333966574E+04  0.12333966574E+04  0.25500000920E-02 0.  1.
       -2   -1    0    0    0  501  0.00000000000E+00  0.00000000000E+00 -0.19330211861E+04  0.19330211861E+04  0.25500000920E-02 0. -1.
    10030    2    1    2    0    0  0.00000000000E+00  0.00000000000E+00 -0.69962452876E+03  0.31664178435E+04  0.30881592379E+04 0.  0.
        1    1    3    3  502    0 -0.22233323278E+03 -0.78292436294E+03 -0.16952303837E+04  0.18804809699E+04  0.50400001928E-02 0. -1.
       -1    1    3    3    0  502  0.22233323278E+03  0.78292436294E+03  0.99560585491E+03  0.12859368736E+04  0.50400001928E-02 0.  1.
</event>
<event>
 5   0  0.1237580E-06  0.3096911E+04  0.7818609E-02  0.8216586E-01
       -2   -1    0    0    0  501  0.00000000000E+00  0.00000000000E+00  0.10535161542E+04  0.10535161542E+04  0.25500000920E-02 0.  1.
        2   -1    0    0  501    0  0.00000000000E+00  0.00000000000E+00 -0.22759155450E+04  0.22759155450E+04  0.25500000920E-02 0. -1.
    10030    2    1    2    0    0  0.00000000000E+00  0.00000000000E+00 -0.12223993908E+04  0.33294316992E+04  0.30969105847E+04 0.  0.
        4    1    3    3  502    0  0.12393773862E+04  0.55824755521E+03  0.18611344960E+03  0.13719826775E+04  0.12699999809E+01 0.  1.
       -4    1    3    3    0  502 -0.12393773862E+04 -0.55824755521E+03 -0.14085128404E+04  0.19574490217E+04  0.12699999809E+01 0. -1.
</event>
<event>
 5   0  0.1200286E-06  0.3085930E+04  0.7818609E-02  0.8219610E-01
       -2   -1    0    0    0  501  0.00000000000E+00  0.00000000000E+00  0.11970020528E+04  0.11970020528E+04  0.25500000920E-02 0.  1.
        2   -1    0    0  501    0  0.00000000000E+00  0.00000000000E+00 -0.19889196429E+04  0.19889196429E+04  0.25500000920E-02 0. -1.
    10030    2    1    2    0    0  0.00000000000E+00  0.00000000000E+00 -0.79191759006E+03  0.31859216957E+04  0.30859299379E+04 0.  0.
        5    1    3    3  502    0  0.73430381296E+03 -0.11752609898E+04  0.30446242669E+03  0.14188586762E+04  0.46999998093E+01 0.  1.
       -5    1    3    3    0  502 -0.73430381296E+03  0.11752609898E+04 -0.10963800168E+04  0.17670630195E+04  0.46999998093E+01 0. -1.
</event>
<event>
 5   0  0.4219337E-07  0.3094526E+04  0.7818609E-02  0.8217242E-01
       -1   -1    0    0    0  501  0.00000000000E+00  0.00000000000E+00  0.18217123402E+04  0.18217123402E+04  0.50400001928E-02 0. -1.
        1   -1    0    0  501    0  0.00000000000E+00  0.00000000000E+00 -0.13141610912E+04  0.13141610912E+04  0.50400001928E-02 0.  1.
    10030    2    1    2    0    0  0.00000000000E+00  0.00000000000E+00  0.50755124906E+03  0.31358734314E+04  0.30945264432E+04 0.  0.
        4    1    3    3  502    0  0.11133112433E+04 -0.71747041202E+03  0.10643355678E+04  0.16991284620E+04  0.12699999809E+01 0. -1.
       -4    1    3    3    0  502 -0.11133112433E+04  0.71747041202E+03 -0.55678431873E+03  0.14367449694E+04  0.12699999809E+01 0.  1.
</event>
<event>
 5   0  0.1258262E-06  0.3080484E+04  0.7818609E-02  0.8221114E-01
        2   -1    0    0  501    0  0.00000000000E+00  0.00000000000E+00  0.24309495626E+04  0.24309495626E+04  0.25500000920E-02 0.  1.
       -2   -1    0    0    0  501  0.00000000000E+00  0.00000000000E+00 -0.97589276650E+03  0.97589276651E+03  0.25500000920E-02 0. -1.
    10030    2    1    2    0    0  0.00000000000E+00  0.00000000000E+00  0.14550567961E+04  0.34068423291E+04  0.30804844385E+04 0.  0.
        1    1    3    3  502    0 -0.12196384096E+04 -0.34625001954E+03  0.16947956064E+04  0.21165394099E+04  0.50400001928E-02 0.  1.
       -1    1    3    3    0  502  0.12196384096E+04  0.34625001954E+03 -0.23973881030E+03  0.12903029192E+04  0.50400001928E-02 0. -1.
</event>
<event>
 5   0  0.4330395E-07  0.3105083E+04  0.7818609E-02  0.8214344E-01
        1   -1    0    0  501    0  0.00000000000E+00  0.00000000000E+00  0.90467366493E+03  0.90467366494E+03  0.50400001928E-02 0.  1.
       -1   -1    0    0    0  501  0.00000000000E+00  0.00000000000E+00 -0.26643689737E+04  0.26643689737E+04  0.50400001928E-02 0. -1.
    10030    2    1    2    0    0  0.00000000000E+00  0.00000000000E+00 -0.17596953088E+04  0.35690426387E+04  0.31050825717E+04 0.  0.
        1    1    3    3  502    0 -0.47113661053E+03 -0.98262677875E+03 -0.21509099538E+04  0.24112110487E+04  0.50400001928E-02 0. -1.
       -1    1    3    3    0  502  0.47113661053E+03  0.98262677875E+03  0.39121464503E+03  0.11578315899E+04  0.50400001928E-02 0.  1.
</event>
<event>
 5   0  0.4134019E-07  0.3101412E+04  0.7818609E-02  0.8215351E-01
        1   -1    0    0  501    0  0.00000000000E+00  0.00000000000E+00  0.20800611642E+04  0.20800611642E+04  0.50400001928E-02 0. -1.
       -1   -1    0    0    0  501  0.00000000000E+00  0.00000000000E+00 -0.11560664322E+04  0.11560664323E+04  0.50400001928E-02 0.  1.
    10030    2    1    2    0    0  0.00000000000E+00  0.00000000000E+00  0.92399473197E+03  0.32361275965E+04  0.31014118649E+04 0.  0.
        2    1    3    3  502    0  0.43367729203E+03  0.75523628275E+03 -0.87678994565E+03  0.12358067993E+04  0.25500000920E-02 0.  1.
       -2    1    3    3    0  502 -0.43367729203E+03 -0.75523628275E+03  0.18007846776E+04  0.20003207972E+04  0.25500000920E-02 0. -1.
</event>
<event>
 5   0  0.4134019E-07  0.3101436E+04  0.7818609E-02  0.8215344E-01
        1   -1    0    0  501    0  0.00000000000E+00  0.00000000000E+00  0.13782952800E+04  0.13782952800E+04  0.50400001928E-02 0. -1.
       -1   -1    0    0    0  501  0.00000000000E+00  0.00000000000E+00 -0.17447101744E+04  0.17447101744E+04  0.50400001928E-02 0.  1.
    10030    2    1    2    0    0  0.00000000000E+00  0.00000000000E+00 -0.36641489435E+03  0.31230054544E+04  0.31014356665E+04 0.  0.
        2    1    3    3  502    0 -0.14411920512E+04  0.37121322982E+03 -0.62200410325E+03  0.16129857082E+04  0.25500000920E-02 0.  1.
       -2    1    3    3    0  502  0.14411920512E+04 -0.37121322982E+03  0.25558920890E+03  0.15100197462E+04  0.25500000920E-02 0. -1.
</event>
<event>
 5   0  0.4330395E-07  0.3093939E+04  0.7818609E-02  0.8217403E-01
       -1   -1    0    0    0  501  0.00000000000E+00  0.00000000000E+00  0.98679772843E+03  0.98679772844E+03  0.50400001928E-02 0. -1.
        1   -1    0    0  501    0  0.00000000000E+00  0.00000000000E+00 -0.24251319809E+04  0.24251319809E+04  0.50400001928E-02 0.  1.
    10030    2    1    2    0    0  0.00000000000E+00  0.00000000000E+00 -0.14383342525E+04  0.34119297093E+04  0.30939390621E+04 0.  0.
        1    1    3    3  502    0 -0.49857258633E+03 -0.12723371395E+04  0.80403093194E+02  0.13688977601E+04  0.50400001928E-02 0. -1.
       -1    1    3    3    0  502  0.49857258633E+03  0.12723371395E+04 -0.15187373457E+04  0.20430319492E+04  0.50400001928E-02 0.  1.
</event>
<event>
 5   0  0.4219337E-07  0.3129418E+04  0.7818609E-02  0.8207710E-01
        1   -1    0    0  501    0  0.00000000000E+00  0.00000000000E+00  0.15972817807E+04  0.15972817807E+04  0.50400001928E-02 0.  1.
       -1   -1    0    0    0  501  0.00000000000E+00  0.00000000000E+00 -0.15328004018E+04  0.15328004018E+04  0.50400001928E-02 0. -1.
    10030    2    1    2    0    0  0.00000000000E+00  0.00000000000E+00  0.64481378868E+02  0.31300821825E+04  0.31294179364E+04 0.  0.
        4    1    3    3  502    0  0.13408402057E+04 -0.79972893770E+03 -0.72154408658E+02  0.15628904960E+04  0.12699999809E+01 0.  1.
       -4    1    3    3    0  502 -0.13408402057E+04  0.79972893770E+03  0.13663578753E+03  0.15671916865E+04  0.12699999809E+01 0. -1.
</event>
<event>
 5   0  0.1237580E-06  0.3116786E+04  0.7818609E-02  0.8211146E-01
       -2   -1    0    0    0  501  0.00000000000E+00  0.00000000000E+00  0.13774042722E+04  0.13774042722E+04  0.25500000920E-02 0.  1.
        2   -1    0    0  501    0  0.00000000000E+00  0.00000000000E+00 -0.17631630071E+04  0.17631630071E+04  0.25500000920E-02 0. -1.
    10030    2    1    2    0    0  0.00000000000E+00  0.00000000000E+00 -0.38575873490E+03  0.31405672793E+04  0.31167856895E+04 0.  0.
        4    1    3    3  502    0  0.58513169497E+03  0.14439637951E+04 -0.15832332699E+03  0.15660390898E+04  0.12699999809E+01 0. -1.
       -4    1    3    3    0  502 -0.58513169497E+03 -0.14439637951E+04 -0.22743540790E+03  0.15745281895E+04  0.12699999809E+01 0.  1.
</event>
<event>
 5   0  0.1237580E-06  0.3118696E+04  0.7818609E-02  0.8210626E-01
       -2   -1    0    0    0  501  0.00000000000E+00  0.00000000000E+00  0.86171226508E+03  0.86171226508E+03  0.25500000920E-02 0. -1.
        2   -1    0    0  501    0  0.00000000000E+00  0.00000000000E+00 -0.28217850406E+04  0.28217850406E+04  0.25500000920E-02 0.  1.
    10030    2    1    2    0    0  0.00000000000E+00  0.00000000000E+00 -0.19600727755E+04  0.36834973057E+04  0.31186963808E+04 0.  0.
        4    1    3    3  502    0 -0.60008764549E+03 -0.13391803298E+04 -0.16028432909E+04  0.21731583849E+04  0.12699999809E+01 0.  1.
       -4    1    3    3    0  502  0.60008764549E+03  0.13391803298E+04 -0.35722948464E+03  0.15103389208E+04  0.12699999809E+01 0. -1.
</event>
<event>
 5   0  0.3935852E-07  0.3104063E+04  0.7818609E-02  0.8214624E-01
        1   -1    0    0  501    0  0.00000000000E+00  0.00000000000E+00  0.16320487423E+04  0.16320487424E+04  0.50400001928E-02 0.  1.
       -1   -1    0    0    0  501  0.00000000000E+00  0.00000000000E+00 -0.14759371629E+04  0.14759371629E+04  0.50400001928E-02 0. -1.
    10030    2    1    2    0    0  0.00000000000E+00  0.00000000000E+00  0.15611157944E+03  0.31079859053E+04  0.31040627510E+04 0.  0.
        5    1    3    3  502    0 -0.10557127478E+04 -0.32730671136E+03 -0.10128717313E+04  0.14991965592E+04  0.46999998093E+01 0. -1.
       -5    1    3    3    0  502  0.10557127478E+04  0.32730671136E+03  0.11689833107E+04  0.16087893460E+04  0.46999998093E+01 0.  1.
</event>
<event>
 5   0  0.1176002E-06  0.3109939E+04  0.7818609E-02  0.8213016E-01
        2   -1    0    0  501    0  0.00000000000E+00  0.00000000000E+00  0.24157263494E+04  0.24157263494E+04  0.25500000920E-02 0.  1.
       -2   -1    0    0    0  501  0.00000000000E+00  0.00000000000E+00 -0.10009120592E+04  0.10009120592E+04  0.25500000920E-02 0. -1.
    10030    2    1    2    0    0  0.00000000000E+00  0.00000000000E+00  0.14148142902E+04  0.34166384085E+04  0.31099386712E+04 0.  0.
        2    1    3    3  502    0 -0.44003803323E+03  0.48985073783E+03  0.22549956747E+04  0.23491685144E+04  0.25500000920E-02 0.  1.
       -2    1    3    3    0  502  0.44003803323E+03 -0.48985073783E+03 -0.84018138450E+03  0.10674698941E+04  0.25500000920E-02 0. -1.
</event>
<event>
 5   0  0.3935852E-07  0.3103293E+04  0.7818609E-02  0.8214835E-01
       -1   -1    0    0    0  501  0.00000000000E+00  0.00000000000E+00  0.14265790030E+04  0.14265790030E+04  0.50400001928E-02 0.  1.
        1   -1    0    0  501    0  0.00000000000E+00  0.00000000000E+00 -0.16876783356E+04  0.16876783356E+04  0.50400001928E-02 0. -1.
    10030    2    1    2    0    0  0.00000000000E+00  0.00000000000E+00 -0.26109933258E+03  0.31142573387E+04  0.31032927528E+04 0.  0.
        5    1    3    3  502    0  0.55250837213E+03 -0.14102207122E+04 -0.46878119551E+03  0.15854860004E+04  0.46999998093E+01 0. -1.
       -5    1    3    3    0  502 -0.55250837213E+03  0.14102207122E+04  0.20768186293E+03  0.15287713382E+04  0.46999998093E+01 0.  1.
</event>
<event>
 5   0  0.1258262E-06  0.3095334E+04  0.7818609E-02  0.8217020E-01
        2   -1    0    0  501    0  0.00000000000E+00  0.00000000000E+00  0.13991931331E+04  0.13991931331E+04  0.25500000920E-02 0.  1.
       -2   -1    0    0    0  501  0.00000000000E+00  0.00000000000E+00 -0.17118959504E+04  0.17118959504E+04  0.25500000920E-02 0. -1.
    10030    2    1    2    0    0  0.00000000000E+00  0.00000000000E+00 -0.31270281733E+03  0.31110890835E+04  0.30953339454E+04 0.  0.
        1    1    3    3  502    0 -0.83289833700E+02 -0.38832101503E+03 -0.16598069762E+04  0.17066603662E+04  0.50400001928E-02 0. -1.
       -1    1    3    3    0  502  0.83289833700E+02  0.38832101503E+03  0.13471041589E+04  0.14044287173E+04  0.50400001928E-02 0.  1.
</event>
<event>
 5   0  0.1237580E-06  0.3130623E+04  0.7818609E-02  0.8207384E-01
        2   -1    0    0  501    0  0.00000000000E+00  0.00000000000E+00  0.11458845117E+04  0.11458845117E+04  0.25500000920E-02 0.  1.
       -2   -1    0    0    0  501  0.00000000000E+00  0.00000000000E+00 -0.21382604414E+04  0.21382604414E+04  0.25500000920E-02 0. -1.
    10030    2    1    2    0    0  0.00000000000E+00  0.00000000000E+00 -0.99237592975E+03  0.32841449531E+04  0.31306226357E+04 0.  0.
        4    1    3    3  502    0  0.58358177633E+03  0.14410202661E+04 -0.68701737527E+03  0.16997357394E+04  0.12699999809E+01 0.  1.
       -4    1    3    3    0  502 -0.58358177633E+03 -0.14410202661E+04 -0.30535855448E+03  0.15844092137E+04  0.12699999809E+01 0. -1.
</event>
<event>
 5   0  0.3935852E-07  0.3094037E+04  0.7818609E-02  0.8217376E-01
       -1   -1    0    0    0  501  0.00000000000E+00  0.00000000000E+00  0.15857246158E+04  0.15857246158E+04  0.50400001928E-02 0.  1.
        1   -1    0    0  501    0  0.00000000000E+00  0.00000000000E+00 -0.15092574139E+04  0.15092574139E+04  0.50400001928E-02 0. -1.
    10030    2    1    2    0    0  0.00000000000E+00  0.00000000000E+00  0.76467201846E+02  0.30949820297E+04  0.30940372544E+04 0.  0.
        5    1    3    3  502    0 -0.10430012587E+04 -0.10606693883E+04  0.46306714243E+03  0.15579873059E+04  0.46999998093E+01 0.  1.
       -5    1    3    3    0  502  0.10430012587E+04  0.10606693883E+04 -0.38659994059E+03  0.15369947238E+04  0.46999998093E+01 0. -1.
</event>
<event>
 5   0  0.1237580E-06  0.3105016E+04  0.7818609E-02  0.8214363E-01
        2   -1    0    0  501    0  0.00000000000E+00  0.00000000000E+00  0.22530873407E+04  0.22530873407E+04  0.25500000920E-02 0. -1.
       -2   -1    0    0    0  501  0.00000000000E+00  0.00000000000E+00 -0.10697682794E+04  0.10697682794E+04  0.25500000920E-02 0.  1.
    10030    2    1    2    0    0  0.00000000000E+00  0.00000000000E+00  0.11833190613E+04  0.33228556201E+04  0.31050161789E+04 0.  0.
        4    1    3    3  502    0 -0.10802543289E+04  0.10589941753E+04  0.21808162914E+03  0.15283910783E+04  0.12699999809E+01 0. -1.
       -4    1    3    3    0  502  0.10802543289E+04 -0.10589941753E+04  0.96523743214E+03  0.17944645418E+04  0.12699999809E+01 0.  1.
</event>
<event>
 5   0  0.1200286E-06  0.3075838E+04  0.7818609E-02  0.8222400E-01
        2   -1    0    0  501    0  0.00000000000E+00  0.00000000000E+00  0.18690363154E+04  0.18690363154E+04  0.25500000920E-02 0. -1.
       -2   -1    0    0    0  501  0.00000000000E+00  0.00000000000E+00 -0.12654624579E+04  0.12654624579E+04  0.25500000920E-02 0.  1.
    10030    2    1    2    0    0  0.00000000000E+00  0.00000000000E+00  0.60357385757E+03  0.31344987733E+04  0.30758382855E+04 0.  0.
        5    1    3    3  502    0  0.95845670538E+03  0.83326552848E+03  0.11856235510E+04  0.17374394930E+04  0.46999998093E+01 0. -1.
       -5    1    3    3    0  502 -0.95845670538E+03 -0.83326552848E+03 -0.58204969345E+03  0.13970592803E+04  0.46999998093E+01 0.  1.
</event>
<event>
 5   0  0.1258262E-06  0.3081789E+04  0.7818609E-02  0.8220753E-01
       -2   -1    0    0    0  501  0.00000000000E+00  0.00000000000E+00  0.15699420027E+04  0.15699420027E+04  0.25500000920E-02 0.  1.
        2   -1    0    0  501    0  0.00000000000E+00  0.00000000000E+00 -0.15123848187E+04  0.15123848187E+04  0.25500000920E-02 0. -1.
    10030    2    1    2    0    0  0.00000000000E+00  0.00000000000E+00  0.57557184015E+02  0.30823268215E+04  0.30817893836E+04 0.  0.
        1    1    3    3  502    0 -0.15562415232E+03  0.52144100495E+03  0.14706391156E+04  0.15680876911E+04  0.50400001928E-02 0.  1.
       -1    1    3    3    0  502  0.15562415232E+03 -0.52144100495E+03 -0.14130819316E+04  0.15142391304E+04  0.50400001928E-02 0. -1.
</event>
<event>
 5   0  0.4219337E-07  0.3111484E+04  0.7818609E-02  0.8212593E-01
        1   -1    0    0  501    0  0.00000000000E+00  0.00000000000E+00  0.24403557942E+04  0.24403557942E+04  0.50400001928E-02 0.  1.
       -1   -1    0    0    0  501  0.00000000000E+00  0.00000000000E+00 -0.99179532985E+03  0.99179532986E+03  0.50400001928E-02 0. -1.
    10030    2    1    2    0    0  0.00000000000E+00  0.00000000000E+00  0.14485604643E+04  0.34321511241E+04  0.31114841988E+04 0.  0.
        4    1    3    3  502    0 -0.64706426567E+03  0.51383719004E+03 -0.72975552551E+03  0.11023908389E+04  0.12699999809E+01 0. -1.
       -4    1    3    3    0  502  0.64706426567E+03 -0.51383719004E+03  0.21783159899E+04  0.23297602852E+04  0.12699999809E+01 0.  1.
</event>
<event>
 5   0  0.1258262E-06  0.3101811E+04  0.7818609E-02  0.8215241E-01
        2   -1    0    0  501    0  0.00000000000E+00  0.00000000000E+00  0.19897697235E+04  0.19897697235E+04  0.25500000920E-02 0. -1.
       -2   -1    0    0    0  501  0.00000000000E+00  0.00000000000E+00 -0.12088373450E+04  0.12088373450E+04  0.25500000920E-02 0.  1.
    10030    2    1    2    0    0  0.00000000000E+00  0.00000000000E+00  0.78093237844E+03  0.31986070685E+04  0.31018110515E+04 0.  0.
        1    1    3    3  502    0  0.10566877291E+04 -0.18190119458E+03  0.15459837751E+04  0.18814204299E+04  0.50400001928E-02 0. -1.
       -1    1    3    3    0  502 -0.10566877291E+04  0.18190119458E+03 -0.76505139661E+03  0.13171866386E+04  0.50400001928E-02 0.  1.
</event>
<event>
 5   0  0.4134019E-07  0.3100379E+04  0.7818609E-02  0.8215634E-01
        1   -1    0    0  501    0  0.00000000000E+00  0.00000000000E+00  0.15694276382E+04  0.15694276382E+04  0.50400001928E-02 0.  1.
       -1   -1    0    0    0  501  0.00000000000E+00  0.00000000000E+00 -0.15311867905E+04  0.15311867905E+04  0.50400001928E-02 0. -1.
    10030    2    1    2    0    0  0.00000000000E+00  0.00000000000E+00  0.38240847782E+02  0.31006144287E+04  0.31003786016E+04 0.  0.
        2    1    3    3  502    0 -0.10101701994E+04 -0.13275120804E+02 -0.11567524976E+04  0.15358048057E+04  0.25500000920E-02 0. -1.
       -2    1    3    3    0  502  0.10101701994E+04  0.13275120804E+02  0.11949933454E+04  0.15648096230E+04  0.25500000920E-02 0.  1.
</event>
<event>
 5   0  0.1193123E-06  0.3101984E+04  0.7818609E-02  0.8215194E-01
        2   -1    0    0  501    0  0.00000000000E+00  0.00000000000E+00  0.96710256173E+03  0.96710256174E+03  0.25500000920E-02 0. -1.
       -2   -1    0    0    0  501  0.00000000000E+00  0.00000000000E+00 -0.24874050388E+04  0.24874050388E+04  0.25500000920E-02 0.  1.
    10030    2    1    2    0    0  0.00000000000E+00  0.00000000000E+00 -0.15203024771E+04  0.34545076005E+04  0.31019837428E+04 0.  0.
        3    1    3    3  502    0 -0.19829331711E+02 -0.85919955697E+03  0.67768377241E+03  0.10944735660E+04  0.10100000352E+00 0. -1.
       -3    1    3    3    0  502  0.19829331711E+02  0.85919955697E+03 -0.21979862495E+04  0.23600340345E+04  0.10100000352E+00 0.  1.
</event>
<event>
 5   0  0.4219337E-07  0.3089502E+04  0.7818609E-02  0.8218625E-01
       -1   -1    0    0    0  501  0.00000000000E+00  0.00000000000E+00  0.11173919817E+04  0.11173919817E+04  0.50400001928E-02 0.  1.
        1   -1    0    0  501    0  0.00000000000E+00  0.00000000000E+00 -0.21355578100E+04  0.21355578100E+04  0.50400001928E-02 0. -1.
    10030    2    1    2    0    0  0.00000000000E+00  0.00000000000E+00 -0.10181658284E+04  0.32529497917E+04  0.30895016901E+04 0.  0.
        4    1    3    3  502    0  0.50956637244E+03  0.13095288271E+04  0.16652563855E+03  0.14150109675E+04  0.12699999809E+01 0.  1.
       -4    1    3    3    0  502 -0.50956637244E+03 -0.13095288271E+04 -0.11846914669E+04  0.18379388242E+04  0.12699999809E+01 0. -1.
</event>
<event>
 5   0  0.4330395E-07  0.3096525E+04  0.7818609E-02  0.8216692E-01
        1   -1    0    0  501    0  0.00000000000E+00  0.00000000000E+00  0.22721551416E+04  0.22721551416E+04  0.50400001928E-02 0. -1.
       -1   -1    0    0    0  501  0.00000000000E+00  0.00000000000E+00 -0.10549968755E+04  0.10549968755E+04  0.50400001928E-02 0.  1.
    10030    2    1    2    0    0  0.00000000000E+00  0.00000000000E+00  0.12171582661E+04  0.33271520172E+04  0.30965248749E+04 0.  0.
        1    1    3    3  502    0 -0.89233040166E+02  0.12642440965E+04 -0.34694714035E+03  0.13140197827E+04  0.50400001928E-02 0. -1.
       -1    1    3    3    0  502  0.89233040166E+02 -0.12642440965E+04  0.15641054064E+04  0.20131322345E+04  0.50400001928E-02 0.  1.
</event>
<event>
 5   0  0.1193123E-06  0.3113504E+04  0.7818609E-02  0.8212042E-01
        2   -1    0    0  501    0  0.00000000000E+00  0.00000000000E+00  0.15745072465E+04  0.15745072466E+04  0.25500000920E-02 0.  1.
       -2   -1    0    0    0  501  0.00000000000E+00  0.00000000000E+00 -0.15391970662E+04  0.15391970662E+04  0.25500000920E-02 0. -1.
    10030    2    1    2    0    0  0.00000000000E+00  0.00000000000E+00  0.35310180317E+02  0.31137043128E+04  0.31135040932E+04 0.  0.
        3    1    3    3  502    0 -0.17242996919E+03 -0.14963807233E+04  0.41085916433E+03  0.15613111883E+04  0.10100000352E+00 0. -1.
       -3    1    3    3    0  502  0.17242996919E+03  0.14963807233E+04 -0.37554898401E+03  0.15523931245E+04  0.10100000352E+00 0.  1.
</event>
<event>
 5   0  0.1237580E-06  0.3081179E+04  0.7818609E-02  0.8220922E-01
        2   -1    0    0  501    0  0.00000000000E+00  0.00000000000E+00  0.27291892636E+04  0.27291892636E+04  0.25500000920E-02 0.  1.
       -2   -1    0    0    0  501  0.00000000000E+00  0.00000000000E+00 -0.86964126935E+03  0.86964126935E+03  0.25500000920E-02 0. -1.
    10030    2    1    2    0    0  0.00000000000E+00  0.00000000000E+00  0.18595479943E+04  0.35988305330E+04  0.30811787456E+04 0.  0.
        4    1    3    3  502    0  0.11473508725E+04 -0.70572091114E+03  0.18030149220E+04  0.22506266796E+04  0.12699999809E+01 0.  1.
       -4    1    3    3    0  502 -0.11473508725E+04  0.70572091114E+03  0.56533072296E+02  0.13482038534E+04  0.12699999809E+01 0. -1.
</event>
<event>
 5   0  0.3935852E-07  0.3094611E+04  0.7818609E-02  0.8217219E-01
       -1   -1    0    0    0  501  0.00000000000E+00  0.00000000000E+00  0.17850147096E+04  0.17850147096E+04  0.50400001928E-02 0. -1.
        1   -1    0    0  501    0  0.00000000000E+00  0.00000000000E+00 -0.13412516053E+04  0.13412516053E+04  0.50400001928E-02 0.  1.
    10030    2    1    2    0    0  0.00000000000E+00  0.00000000000E+00  0.44376310431E+03  0.31262663149E+04  0.30946106990E+04 0.  0.
        5    1    3    3  502    0 -0.12478380947E+04  0.61621140300E+03 -0.46128695564E+03  0.14661596602E+04  0.46999998093E+01 0.  1.
       -5    1    3    3    0  502  0.12478380947E+04 -0.61621140300E+03  0.90505005995E+03  0.16601066546E+04  0.46999998093E+01 0. -1.
</event>
<event>
 5   0  0.1258262E-06  0.3102096E+04  0.7818609E-02  0.8215163E-01
       -2   -1    0    0    0  501  0.00000000000E+00  0.00000000000E+00  0.10198719790E+04  0.10198719790E+04  0.25500000920E-02 0. -1.
        2   -1    0    0  501    0  0.00000000000E+00  0.00000000000E+00 -0.23588739142E+04  0.23588739142E+04  0.25500000920E-02 0.  1.
    10030    2    1    2    0    0  0.00000000000E+00  0.00000000000E+00 -0.13390019352E+04  0.33787458933E+04  0.31020956834E+04 0.  0.
        1    1    3    3  502    0  0.10719900468E+04  0.91962845001E+03 -0.13676573221E+04  0.19660533302E+04  0.50400001928E-02 0.  1.
       -1    1    3    3    0  502 -0.10719900468E+04 -0.91962845001E+03  0.28655386908E+02  0.14126925631E+04  0.50400001928E-02 0. -1.
</event>
<event>
 5   0  0.1193123E-06  0.3101006E+04  0.7818609E-02  0.8215462E-01
        2   -1    0    0  501    0  0.00000000000E+00  0.00000000000E+00  0.13715265862E+04  0.13715265862E+04  0.25500000920E-02 0.  1.
       -2   -1    0    0    0  501  0.00000000000E+00  0.00000000000E+00 -0.17528351330E+04  0.17528351330E+04  0.25500000920E-02 0. -1.
    10030    2    1    2    0    0  0.00000000000E+00  0.00000000000E+00 -0.38130854688E+03  0.31243617192E+04  0.31010062793E+04 0.  0.
        3    1    3    3  502    0 -0.37077946652E+03 -0.16814480909E+03  0.13167119129E+04  0.13782163696E+04  0.10100000352E+00 0.  1.
       -3    1    3    3    0  502  0.37077946652E+03  0.16814480909E+03 -0.16980204598E+04  0.17461453496E+04  0.10100000352E+00 0. -1.
</event>
<event>
 5   0  0.4330395E-07  0.3093002E+04  0.7818609E-02  0.8217661E-01
       -1   -1    0    0    0  501  0.00000000000E+00  0.00000000000E+00  0.89604472801E+03  0.89604472802E+03  0.50400001928E-02 0.  1.
        1   -1    0    0  501    0  0.00000000000E+00  0.00000000000E+00 -0.26691365098E+04  0.26691365099E+04  0.50400001928E-02 0. -1.
    10030    2    1    2    0    0  0.00000000000E+00  0.00000000000E+00 -0.17730917818E+04  0.35651812379E+04  0.30930022296E+04 0.  0.
        1    1    3    3  502    0  0.89408572621E+03  0.10395449365E+04 -0.17110186249E+04  0.21926303144E+04  0.50400001928E-02 0. -1.
       -1    1    3    3    0  502 -0.89408572621E+03 -0.10395449365E+04 -0.62073156941E+02  0.13725509235E+04  0.50400001928E-02 0.  1.
</event>
<event>
 5   0  0.4330395E-07  0.3104496E+04  0.7818609E-02  0.8214505E-01
       -1   -1    0    0    0  501  0.00000000000E+00  0.00000000000E+00  0.11745252187E+04  0.11745252187E+04  0.50400001928E-02 0.  1.
        1   -1    0    0  501    0  0.00000000000E+00  0.00000000000E+00 -0.20514443758E+04  0.20514443758E+04  0.50400001928E-02 0. -1.
    10030    2    1    2    0    0  0.00000000000E+00  0.00000000000E+00 -0.87691915712E+03  0.32259695944E+04  0.31044955494E+04 0.  0.
        1    1    3    3  502    0 -0.64686696592E+03 -0.10333145243E+04  0.56002193584E+03  0.13415663779E+04  0.50400001928E-02 0.  1.
       -1    1    3    3    0  502  0.64686696592E+03  0.10333145243E+04 -0.14369410930E+04  0.18844032165E+04  0.50400001928E-02 0. -1.
</event>
<event>
 5   0  0.4173905E-07  0.3110945E+04  0.7818609E-02  0.8212741E-01
        1   -1    0    0  501    0  0.00000000000E+00  0.00000000000E+00  0.15775447362E+04  0.15775447362E+04  0.50400001928E-02 0. -1.
       -1   -1    0    0    0  501  0.00000000000E+00  0.00000000000E+00 -0.15337086698E+04  0.15337086698E+04  0.50400001928E-02 0.  1.
    10030    2    1    2    0    0  0.00000000000E+00  0.00000000000E+00  0.43836066369E+02  0.31112534060E+04  0.31109445761E+04 0.  0.
        3    1    3    3  502    0 -0.89546549781E+03  0.43457826744E+03 -0.11735153568E+04  0.15387836206E+04  0.10100000352E+00 0. -1.
       -3    1    3    3    0  502  0.89546549781E+03 -0.43457826744E+03  0.12173514231E+04  0.15724697854E+04  0.10100000352E+00 0.  1.
</event>
<event>
 5   0  0.3935852E-07  0.3101137E+04  0.7818609E-02  0.8215426E-01
        1   -1    0    0  501    0  0.00000000000E+00  0.00000000000E+00  0.16241504045E+04  0.16241504045E+04  0.50400001928E-02 0.  1.
       -1   -1    0    0    0  501  0.00000000000E+00  0.00000000000E+00 -0.14803199958E+04  0.14803199959E+04  0.50400001928E-02 0. -1.
    10030    2    1    2    0    0  0.00000000000E+00  0.00000000000E+00  0.14383040868E+03  0.31044704004E+04  0.31011367723E+04 0.  0.
        5    1    3    3  502    0  0.71343831441E+02  0.19065929701E+03  0.16107075640E+04  0.16235275965E+04  0.46999998093E+01 0.  1.
       -5    1    3    3    0  502 -0.71343831441E+02 -0.19065929701E+03 -0.14668771553E+04  0.14809428039E+04  0.46999998093E+01 0. -1.
</event>
<event>
 5   0  0.3935852E-07  0.3100707E+04  0.7818609E-02  0.8215544E-01
        1   -1    0    0  501    0  0.00000000000E+00  0.00000000000E+00  0.11744821172E+04  0.11744821172E+04  0.50400001928E-02 0.  1.
       -1   -1    0    0    0  501  0.00000000000E+00  0.00000000000E+00 -0.20465159700E+04  0.20465159700E+04  0.50400001928E-02 0. -1.
    10030    2    1    2    0    0  0.00000000000E+00  0.00000000000E+00 -0.87203385278E+03  0.32209980872E+04  0.31007072802E+04 0.  0.
        5    1    3    3  502    0  0.57347186240E+03 -0.31688512215E+03 -0.18956206703E+04  0.20056634746E+04  0.46999998093E+01 0. -1.
       -5    1    3    3    0  502 -0.57347186240E+03  0.31688512215E+03  0.10235868176E+04  0.12153346126E+04  0.46999998093E+01 0.  1.
</event>
<event>
 5   0  0.1237580E-06  0.3084653E+04  0.7818609E-02  0.8219962E-01
       -2   -1    0    0    0  501  0.00000000000E+00  0.00000000000E+00  0.13122247287E+04  0.13122247287E+04  0.25500000920E-02 0. -1.
        2   -1    0    0  501    0  0.00000000000E+00  0.00000000000E+00 -0.18127772683E+04  0.18127772683E+04  0.25500000920E-02 0.  1.
    10030    2    1    2    0    0  0.00000000000E+00  0.00000000000E+00 -0.50055253961E+03  0.31250019971E+04  0.30846530821E+04 0.  0.
        4    1    3    3  502    0  0.51943194648E+03 -0.13001757184E+04  0.40510392217E+03  0.14575243554E+04  0.12699999809E+01 0. -1.
       -4    1    3    3    0  502 -0.51943194648E+03  0.13001757184E+04 -0.90565646178E+03  0.16674776417E+04  0.12699999809E+01 0.  1.
</event>
<event>
 5   0  0.1258262E-06  0.3112123E+04  0.7818609E-02  0.8212419E-01
        2   -1    0    0  501    0  0.00000000000E+00  0.00000000000E+00  0.20878885085E+04  0.20878885085E+04  0.25500000920E-02 0.  1.
       -2   -1    0    0    0  501  0.00000000000E+00  0.00000000000E+00 -0.11597017798E+04  0.11597017798E+04  0.25500000920E-02 0. -1.
    10030    2    1    2    0    0  0.00000000000E+00  0.00000000000E+00  0.92818672871E+03  0.32475902883E+04  0.31121234033E+04 0.  0.
        1    1    3    3  502    0 -0.70905441668E+03 -0.13829985561E+04  0.38404139467E+03  0.16009156645E+04  0.50400001928E-02 0.  1.
       -1    1    3    3    0  502  0.70905441668E+03  0.13829985561E+04  0.54414533404E+03  0.16466746238E+04  0.50400001928E-02 0. -1.
</event>
<event>
 5   0  0.4134019E-07  0.3090332E+04  0.7818609E-02  0.8218396E-01
       -1   -1    0    0    0  501  0.00000000000E+00  0.00000000000E+00  0.11019027375E+04  0.11019027375E+04  0.50400001928E-02 0.  1.
        1   -1    0    0  501    0  0.00000000000E+00  0.00000000000E+00 -0.21667415514E+04  0.21667415514E+04  0.50400001928E-02 0. -1.
    10030    2    1    2    0    0  0.00000000000E+00  0.00000000000E+00 -0.10648388139E+04  0.32686442889E+04  0.30903323102E+04 0.  0.
        2    1    3    3  502    0  0.12567896598E+04  0.84472194251E+03 -0.20733702583E+03  0.15284188076E+04  0.25500000920E-02 0.  1.
       -2    1    3    3    0  502 -0.12567896598E+04 -0.84472194251E+03 -0.85750178804E+03  0.17402254813E+04  0.25500000920E-02 0. -1.
</event>
<event>
 5   0  0.1200286E-06  0.3100105E+04  0.7818609E-02  0.8215709E-01
        2   -1    0    0  501    0  0.00000000000E+00  0.00000000000E+00  0.21390505304E+04  0.21390505304E+04  0.25500000920E-02 0.  1.
       -2   -1    0    0    0  501  0.00000000000E+00  0.00000000000E+00 -0.11232376699E+04  0.11232376699E+04  0.25500000920E-02 0. -1.
    10030    2    1    2    0    0  0.00000000000E+00  0.00000000000E+00  0.10158128605E+04  0.32622882003E+04  0.31001046006E+04 0.  0.
        5    1    3    3  502    0  0.11101352825E+04 -0.10734698916E+04  0.64870487060E+03  0.16749859859E+04  0.46999998093E+01 0.  1.
       -5    1    3    3    0  502 -0.11101352825E+04  0.10734698916E+04  0.36710798987E+03  0.15873022145E+04  0.46999998093E+01 0. -1.
</event>
<event>
 5   0  0.4134019E-07  0.3043978E+04  0.7818609E-02  0.8231283E-01
        1   -1    0    0  501    0  0.00000000000E+00  0.00000000000E+00  0.16355926274E+04  0.16355926274E+04  0.50400001928E-02 0. -1.
       -1   -1    0    0    0  501  0.00000000000E+00  0.00000000000E+00 -0.14162759297E+04  0.14162759297E+04  0.50400001928E-02 0.  1.
    10030    2    1    2    0    0  0.00000000000E+00  0.00000000000E+00  0.21931669772E+03  0.30518685571E+04  0.30439779690E+04 0.  0.
        2    1    3    3  502    0  0.10818334237E+04  0.72060802027E+03  0.90342458620E+03  0.15829767713E+04  0.25500000920E-02 0. -1.
       -2    1    3    3    0  502 -0.10818334237E+04 -0.72060802027E+03 -0.68410788849E+03  0.14688917858E+04  0.25500000920E-02 0.  1.
</event>
<event>
 5   0  0.1176002E-06  0.3096002E+04  0.7818609E-02  0.8216836E-01
        2   -1    0    0  501    0  0.00000000000E+00  0.00000000000E+00  0.90179633504E+03  0.90179633505E+03  0.25500000920E-02 0. -1.
       -2   -1    0    0    0  501  0.00000000000E+00  0.00000000000E+00 -0.26572601369E+04  0.26572601369E+04  0.25500000920E-02 0.  1.
    10030    2    1    2    0    0  0.00000000000E+00  0.00000000000E+00 -0.17554638019E+04  0.35590564720E+04  0.30960022305E+04 0.  0.
        2    1    3    3  502    0 -0.46942889992E+03  0.31798712506E+03  0.77813215845E+03  0.96279227240E+03  0.25500000920E-02 0. -1.
       -2    1    3    3    0  502  0.46942889992E+03 -0.31798712506E+03 -0.25335959603E+04  0.25962641996E+04  0.25500000920E-02 0.  1.
</event>
<event>
 5   0  0.1193123E-06  0.3095065E+04  0.7818609E-02  0.8217094E-01
        2   -1    0    0  501    0  0.00000000000E+00  0.00000000000E+00  0.20284663026E+04  0.20284663026E+04  0.25500000920E-02 0. -1.
       -2   -1    0    0    0  501  0.00000000000E+00  0.00000000000E+00 -0.11806245640E+04  0.11806245640E+04  0.25500000920E-02 0.  1.
    10030    2    1    2    0    0  0.00000000000E+00  0.00000000000E+00  0.84784173862E+03  0.32090908666E+04  0.30950651975E+04 0.  0.
        3    1    3    3  502    0 -0.10175830468E+04 -0.11625757154E+04  0.51548974844E+03  0.16287379292E+04  0.10100000352E+00 0.  1.
       -3    1    3    3    0  502  0.10175830468E+04  0.11625757154E+04  0.33235199018E+03  0.15803529374E+04  0.10100000352E+00 0. -1.
</event>
<event>
 5   0  0.1258262E-06  0.3115792E+04  0.7818609E-02  0.8211417E-01
        2   -1    0    0  501    0  0.00000000000E+00  0.00000000000E+00  0.26507448904E+04  0.26507448904E+04  0.25500000920E-02 0.  1.
       -2   -1    0    0    0  501  0.00000000000E+00  0.00000000000E+00 -0.91560687597E+03  0.91560687597E+03  0.25500000920E-02 0. -1.
    10030    2    1    2    0    0  0.00000000000E+00  0.00000000000E+00  0.17351380144E+04  0.35663517663E+04  0.31157921934E+04 0.  0.
        1    1    3    3  502    0 -0.37224727825E+03  0.11691644970E+03  0.25939139046E+04  0.26230948967E+04  0.50400001928E-02 0.  1.
       -1    1    3    3    0  502  0.37224727825E+03 -0.11691644970E+03 -0.85877589026E+03  0.94325686963E+03  0.50400001928E-02 0. -1.
</event>
<event>
 5   0  0.1237580E-06  0.3101171E+04  0.7818609E-02  0.8215417E-01
       -2   -1    0    0    0  501  0.00000000000E+00  0.00000000000E+00  0.15436252123E+04  0.15436252123E+04  0.25500000920E-02 0. -1.
        2   -1    0    0  501    0  0.00000000000E+00  0.00000000000E+00 -0.15575767203E+04  0.15575767203E+04  0.25500000920E-02 0.  1.
    10030    2    1    2    0    0  0.00000000000E+00  0.00000000000E+00 -0.13951507991E+02  0.31012019325E+04  0.31011705502E+04 0.  0.
        4    1    3    3  502    0 -0.15721114152E+03 -0.12405542360E+04  0.90988843470E+03  0.15464762306E+04  0.12699999809E+01 0. -1.
       -4    1    3    3    0  502  0.15721114152E+03  0.12405542360E+04 -0.92383994269E+03  0.15547257019E+04  0.12699999809E+01 0.  1.
</event>
<event>
 5   0  0.3935852E-07  0.2997987E+04  0.7818609E-02  0.8244306E-01
        1   -1    0    0  501    0  0.00000000000E+00  0.00000000000E+00  0.22117633107E+04  0.22117633107E+04  0.50400001928E-02 0. -1.
       -1   -1    0    0    0  501  0.00000000000E+00  0.00000000000E+00 -0.10159232447E+04  0.10159232447E+04  0.50400001928E-02 0.  1.
    10030    2    1    2    0    0  0.00000000000E+00  0.00000000000E+00  0.11958400661E+04  0.32276865554E+04  0.29979871641E+04 0.  0.
        5    1    3    3  502    0 -0.13615031125E+04  0.32113380290E+03  0.11778384517E+04  0.18286998532E+04  0.46999998093E+01 0. -1.
       -5    1    3    3    0  502  0.13615031125E+04 -0.32113380290E+03  0.18001614349E+02  0.13989867022E+04  0.46999998093E+01 0.  1.
</event>
<event>
 5   0  0.4219337E-07  0.3094689E+04  0.7818609E-02  0.8217197E-01
       -1   -1    0    0    0  501  0.00000000000E+00  0.00000000000E+00  0.14126253477E+04  0.14126253477E+04  0.50400001928E-02 0. -1.
        1   -1    0    0  501    0  0.00000000000E+00  0.00000000000E+00 -0.16949110048E+04  0.16949110048E+04  0.50400001928E-02 0.  1.
    10030    2    1    2    0    0  0.00000000000E+00  0.00000000000E+00 -0.28228565713E+03  0.31075363525E+04  0.30946885126E+04 0.  0.
        4    1    3    3  502    0 -0.12372046151E+04  0.41701218569E+03  0.69278568806E+03  0.14780149002E+04  0.12699999809E+01 0. -1.
       -4    1    3    3    0  502  0.12372046151E+04 -0.41701218569E+03 -0.97507134519E+03  0.16295214524E+04  0.12699999809E+01 0.  1.
</event>
<event>
 5   0  0.3935852E-07  0.3092169E+04  0.7818609E-02  0.8217890E-01
       -1   -1    0    0    0  501  0.00000000000E+00  0.00000000000E+00  0.15326426991E+04  0.15326426991E+04  0.50400001928E-02 0. -1.
        1   -1    0    0  501    0  0.00000000000E+00  0.00000000000E+00 -0.15596438082E+04  0.15596438082E+04  0.50400001928E-02 0.  1.
    10030    2    1    2    0    0  0.00000000000E+00  0.00000000000E+00 -0.27001109081E+02  0.30922865073E+04  0.30921686214E+04 0.  0.
        5    1    3    3  502    0  0.30823910783E+03 -0.64234645134E+03 -0.13856805180E+04  0.15581248022E+04  0.46999998093E+01 0.  1.
       -5    1    3    3    0  502 -0.30823910783E+03  0.64234645134E+03  0.13586794089E+04  0.15341617051E+04  0.46999998093E+01 0. -1.
</event>
<event>
 5   0  0.1193123E-06  0.3152989E+04  0.7818609E-02  0.8201344E-01
        2   -1    0    0  501    0  0.00000000000E+00  0.00000000000E+00  0.18608385920E+04  0.18608385920E+04  0.25500000920E-02 0.  1.
       -2   -1    0    0    0  501  0.00000000000E+00  0.00000000000E+00 -0.13355991392E+04  0.13355991392E+04  0.25500000920E-02 0. -1.
    10030    2    1    2    0    0  0.00000000000E+00  0.00000000000E+00  0.52523945272E+03  0.31964377312E+04  0.31529886912E+04 0.  0.
        3    1    3    3  502    0 -0.58534719091E+03 -0.36048053855E+03  0.17008866504E+04  0.18345552487E+04  0.10100000352E+00 0.  1.
       -3    1    3    3    0  502  0.58534719091E+03  0.36048053855E+03 -0.11756471977E+04  0.13618824825E+04  0.10100000352E+00 0. -1.
</event>
<event>
 5   0  0.1176002E-06  0.3104641E+04  0.7818609E-02  0.8214465E-01
       -2   -1    0    0    0  501  0.00000000000E+00  0.00000000000E+00  0.17498979277E+04  0.17498979277E+04  0.25500000920E-02 0. -1.
        2   -1    0    0  501    0  0.00000000000E+00  0.00000000000E+00 -0.13770508702E+04  0.13770508702E+04  0.25500000920E-02 0.  1.
    10030    2    1    2    0    0  0.00000000000E+00  0.00000000000E+00  0.37284705742E+03  0.31269487979E+04  0.31046406968E+04 0.  0.
        2    1    3    3  502    0 -0.13814803369E+04 -0.61423620385E+03 -0.16813495940E+03  0.15211980147E+04  0.25500000920E-02 0. -1.
       -2    1    3    3    0  502  0.13814803369E+04  0.61423620385E+03  0.54098201681E+03  0.16057507832E+04  0.25500000920E-02 0.  1.
</event>
<event>
 5   0  0.1200286E-06  0.3115929E+04  0.7818609E-02  0.8211380E-01
       -2   -1    0    0    0  501  0.00000000000E+00  0.00000000000E+00  0.13992102731E+04  0.13992102731E+04  0.25500000920E-02 0. -1.
        2   -1    0    0  501    0  0.00000000000E+00  0.00000000000E+00 -0.17347305580E+04  0.17347305580E+04  0.25500000920E-02 0.  1.
    10030    2    1    2    0    0  0.00000000000E+00  0.00000000000E+00 -0.33552028491E+03  0.31339408312E+04  0.31159286371E+04 0.  0.
        5    1    3    3  502    0  0.10505598293E+04 -0.17096093992E+03 -0.13120217253E+04  0.16894752722E+04  0.46999998093E+01 0.  1.
       -5    1    3    3    0  502 -0.10505598293E+04  0.17096093992E+03  0.97650144036E+03  0.14444655589E+04  0.46999998093E+01 0. -1.
</event>
<event>
 5   0  0.4219337E-07  0.3082179E+04  0.7818609E-02  0.8220646E-01
       -1   -1    0    0    0  501  0.00000000000E+00  0.00000000000E+00  0.15541250778E+04  0.15541250778E+04  0.50400001928E-02 0.  1.
        1   -1    0    0  501    0  0.00000000000E+00  0.00000000000E+00 -0.15281628090E+04  0.15281628090E+04  0.50400001928E-02 0. -1.
    10030    2    1    2    0    0  0.00000000000E+00  0.00000000000E+00  0.25962268826E+02  0.30822878868E+04  0.30821785441E+04 0.  0.
        4    1    3    3  502    0 -0.14507876889E+04  0.42372986977E+03 -0.28806544125E+03  0.15386082126E+04  0.12699999809E+01 0. -1.
       -4    1    3    3    0  502  0.14507876889E+04 -0.42372986977E+03  0.31402771007E+03  0.15436796741E+04  0.12699999809E+01 0.  1.
</event>
<event>
 5   0  0.4330395E-07  0.3104529E+04  0.7818609E-02  0.8214496E-01
       -1   -1    0    0    0  501  0.00000000000E+00  0.00000000000E+00  0.84649158945E+03  0.84649158946E+03  0.50400001928E-02 0. -1.
        1   -1    0    0  501    0  0.00000000000E+00  0.00000000000E+00 -0.28464850646E+04  0.28464850646E+04  0.50400001928E-02 0.  1.
    10030    2    1    2    0    0  0.00000000000E+00  0.00000000000E+00 -0.19999934752E+04  0.36929766541E+04  0.31045293793E+04 0.  0.
        1    1    3    3  502    0 -0.16647488665E+03 -0.15417758514E+04 -0.10818854945E+04  0.18908365574E+04  0.50400001928E-02 0.  1.
       -1    1    3    3    0  502  0.16647488665E+03  0.15417758514E+04 -0.91810798072E+03  0.18021400967E+04  0.50400001928E-02 0. -1.
</event>
<event>
 5   0  0.1176002E-06  0.3108325E+04  0.7818609E-02  0.8213457E-01
        2   -1    0    0  501    0  0.00000000000E+00  0.00000000000E+00  0.23787855323E+04  0.23787855323E+04  0.25500000920E-02 0.  1.
       -2   -1    0    0    0  501  0.00000000000E+00  0.00000000000E+00 -0.10154006354E+04  0.10154006354E+04  0.25500000920E-02 0. -1.
    10030    2    1    2    0    0  0.00000000000E+00  0.00000000000E+00  0.13633848969E+04  0.33941861677E+04  0.31083245268E+04 0.  0.
        2    1    3    3  502    0  0.99989882654E+03  0.83568029874E+03 -0.24310782125E+03  0.13256170781E+04  0.25500000920E-02 0. -1.
       -2    1    3    3    0  502 -0.99989882654E+03 -0.83568029874E+03  0.16064927181E+04  0.20685690896E+04  0.25500000920E-02 0.  1.
</event>
<event>
 5   0  0.4219337E-07  0.3095319E+04  0.7818609E-02  0.8217024E-01
       -1   -1    0    0    0  501  0.00000000000E+00  0.00000000000E+00  0.14705771983E+04  0.14705771983E+04  0.50400001928E-02 0. -1.
        1   -1    0    0  501    0  0.00000000000E+00  0.00000000000E+00 -0.16287823845E+04  0.16287823845E+04  0.50400001928E-02 0.  1.
    10030    2    1    2    0    0  0.00000000000E+00  0.00000000000E+00 -0.15820518623E+03  0.30993595828E+04  0.30953191988E+04 0.  0.
        4    1    3    3  502    0 -0.11798680881E+04  0.64989900389E+03 -0.84219395664E+03  0.15886313903E+04  0.12699999809E+01 0.  1.
       -4    1    3    3    0  502  0.11798680881E+04 -0.64989900389E+03  0.68398877042E+03  0.15107281925E+04  0.12699999809E+01 0. -1.
</event>
<event>
 5   0  0.1237580E-06  0.3058709E+04  0.7818609E-02  0.8227162E-01
        2   -1    0    0  501    0  0.00000000000E+00  0.00000000000E+00  0.72052064903E+03  0.72052064903E+03  0.25500000920E-02 0. -1.
       -2   -1    0    0    0  501  0.00000000000E+00  0.00000000000E+00 -0.32461604626E+04  0.32461604626E+04  0.25500000920E-02 0.  1.
    10030    2    1    2    0    0  0.00000000000E+00  0.00000000000E+00 -0.25256398136E+04  0.39666811116E+04  0.30587092986E+04 0.  0.
        4    1    3    3  502    0 -0.12167965621E+04 -0.21634056035E+03 -0.24310827119E+04  0.27271893731E+04  0.12699999809E+01 0.  1.
       -4    1    3    3    0  502  0.12167965621E+04  0.21634056035E+03 -0.94557101647E+02  0.12394917385E+04  0.12699999809E+01 0. -1.
</event>
<event>
 5   0  0.3935852E-07  0.3108941E+04  0.7818609E-02  0.8213289E-01
        1   -1    0    0  501    0  0.00000000000E+00  0.00000000000E+00  0.91250573548E+03  0.91250573550E+03  0.50400001928E-02 0. -1.
       -1   -1    0    0    0  501  0.00000000000E+00  0.00000000000E+00 -0.26480688611E+04  0.26480688611E+04  0.50400001928E-02 0.  1.
    10030    2    1    2    0    0  0.00000000000E+00  0.00000000000E+00 -0.17355631256E+04  0.35605745966E+04  0.31089406709E+04 0.  0.
        5    1    3    3  502    0 -0.51032991169E+02 -0.44022960933E+03  0.83861197670E+03  0.94852443963E+03  0.46999998093E+01 0. -1.
       -5    1    3    3    0  502  0.51032991169E+02  0.44022960933E+03 -0.25741751023E+04  0.26120501570E+04  0.46999998093E+01 0.  1.
</event>
<event>
 5   0  0.1200286E-06  0.3107293E+04  0.7818609E-02  0.8213739E-01
        2   -1    0    0  501    0  0.00000000000E+00  0.00000000000E+00  0.23356651825E+04  0.23356651825E+04  0.25500000920E-02 0.  1.
       -2   -1    0    0    0  501  0.00000000000E+00  0.00000000000E+00 -0.10334606847E+04  0.10334606847E+04  0.25500000920E-02 0. -1.
    10030    2    1    2    0    0  0.00000000000E+00  0.00000000000E+00  0.13022044977E+04  0.33691258672E+04  0.31072934453E+04 0.  0.
        5    1    3    3  502    0  0.96854342902E+03  0.77996246121E+03 -0.35870672791E+03  0.12942605694E+04  0.46999998093E+01 0. -1.
       -5    1    3    3    0  502 -0.96854342902E+03 -0.77996246121E+03  0.16609112257E+04  0.20748652979E+04  0.46999998093E+01 0.  1.
</event>
<event>
 5   0  0.1258262E-06  0.3098280E+04  0.7818609E-02  0.8216210E-01
       -2   -1    0    0    0  501  0.00000000000E+00  0.00000000000E+00  0.15210454268E+04  0.15210454268E+04  0.25500000920E-02 0.  1.
        2   -1    0    0  501    0  0.00000000000E+00  0.00000000000E+00 -0.15777537912E+04  0.15777537912E+04  0.25500000920E-02 0. -1.
    10030    2    1    2    0    0  0.00000000000E+00  0.00000000000E+00 -0.56708364376E+02  0.30987992180E+04  0.30982802899E+04 0.  0.
        1    1    3    3  502    0  0.14471036459E+04 -0.20134226884E+01 -0.58136827946E+03  0.15595198274E+04  0.50400001928E-02 0.  1.
       -1    1    3    3    0  502 -0.14471036459E+04  0.20134226884E+01  0.52465991508E+03  0.15392793906E+04  0.50400001928E-02 0. -1.
</event>
<event>
 5   0  0.4173905E-07  0.3092952E+04  0.7818609E-02  0.8217675E-01
       -1   -1    0    0    0  501  0.00000000000E+00  0.00000000000E+00  0.15651474947E+04  0.15651474947E+04  0.50400001928E-02 0.  1.
        1   -1    0    0  501    0  0.00000000000E+00  0.00000000000E+00 -0.15280273642E+04  0.15280273642E+04  0.50400001928E-02 0. -1.
    10030    2    1    2    0    0  0.00000000000E+00  0.00000000000E+00  0.37120130512E+02  0.30931748589E+04  0.30929521179E+04 0.  0.
        3    1    3    3  502    0  0.91641959517E+03 -0.57508645138E+03 -0.10865257974E+04  0.15333256730E+04  0.10100000352E+00 0. -1.
       -3    1    3    3    0  502 -0.91641959517E+03  0.57508645138E+03  0.11236459279E+04  0.15598491858E+04  0.10100000352E+00 0.  1.
</event>
<event>
 5   0  0.4219337E-07  0.3086338E+04  0.7818609E-02  0.8219497E-01
       -1   -1    0    0    0  501  0.00000000000E+00  0.00000000000E+00  0.16257010141E+04  0.16257010141E+04  0.50400001928E-02 0. -1.
        1   -1    0    0  501    0  0.00000000000E+00  0.00000000000E+00 -0.14648273656E+04  0.14648273656E+04  0.50400001928E-02 0.  1.
    10030    2    1    2    0    0  0.00000000000E+00  0.00000000000E+00  0.16087364851E+03  0.30905283797E+04  0.30863384998E+04 0.  0.
        4    1    3    3  502    0  0.16804374444E+03 -0.15387591584E+03 -0.14478897923E+04  0.14657090301E+04  0.12699999809E+01 0.  1.
       -4    1    3    3    0  502 -0.16804374444E+03  0.15387591584E+03  0.16087634408E+04  0.16248193496E+04  0.12699999809E+01 0. -1.
</event>
<event>
 5   0  0.4219337E-07  0.3099912E+04  0.7818609E-02  0.8215762E-01
        1   -1    0    0  501    0  0.00000000000E+00  0.00000000000E+00  0.15679211418E+04  0.15679211418E+04  0.50400001928E-02 0. -1.
       -1   -1    0    0    0  501  0.00000000000E+00  0.00000000000E+00 -0.15321962433E+04  0.15321962433E+04  0.50400001928E-02 0.  1.
    10030    2    1    2    0    0  0.00000000000E+00  0.00000000000E+00  0.35724898493E+02  0.31001173852E+04  0.30999115364E+04 0.  0.
        4    1    3    3  502    0  0.52567470246E+03 -0.70724226898E+03  0.12930297654E+04  0.15647533694E+04  0.12699999809E+01 0. -1.
       -4    1    3    3    0  502 -0.52567470246E+03  0.70724226898E+03 -0.12573048669E+04  0.15353640158E+04  0.12699999809E+01 0.  1.
</event>
<event>
 5   0  0.4219337E-07  0.3129687E+04  0.7818609E-02  0.8207637E-01
        1   -1    0    0  501    0  0.00000000000E+00  0.00000000000E+00  0.23813222847E+04  0.23813222847E+04  0.50400001928E-02 0.  1.
       -1   -1    0    0    0  501  0.00000000000E+00  0.00000000000E+00 -0.10283093106E+04  0.10283093107E+04  0.50400001928E-02 0. -1.
    10030    2    1    2    0    0  0.00000000000E+00  0.00000000000E+00  0.13530129740E+04  0.34096315953E+04  0.31296874457E+04 0.  0.
        4    1    3    3  502    0  0.33503363405E+03  0.13189130928E+04  0.15182451572E+04  0.20388352686E+04  0.12699999809E+01 0.  1.
       -4    1    3    3    0  502 -0.33503363405E+03 -0.13189130928E+04 -0.16523218311E+03  0.13707963268E+04  0.12699999809E+01 0. -1.
</event>
<event>
 5   0  0.4173905E-07  0.3106194E+04  0.7818609E-02  0.8214040E-01
       -1   -1    0    0    0  501  0.00000000000E+00  0.00000000000E+00  0.16232744131E+04  0.16232744131E+04  0.50400001928E-02 0.  1.
        1   -1    0    0  501    0  0.00000000000E+00  0.00000000000E+00 -0.14859536252E+04  0.14859536253E+04  0.50400001928E-02 0. -1.
    10030    2    1    2    0    0  0.00000000000E+00  0.00000000000E+00  0.13732078788E+03  0.31092280384E+04  0.31061941336E+04 0.  0.
        3    1    3    3  502    0  0.11263794069E+04  0.71847491523E+03  0.86137690727E+03  0.15896247855E+04  0.10100000352E+00 0.  1.
       -3    1    3    3    0  502 -0.11263794069E+04 -0.71847491523E+03 -0.72405611939E+03  0.15196032529E+04  0.10100000352E+00 0. -1.
</event>
<event>
 5   0  0.1200286E-06  0.3088868E+04  0.7818609E-02  0.8218800E-01
       -2   -1    0    0    0  501  0.00000000000E+00  0.00000000000E+00  0.15373048818E+04  0.15373048818E+04  0.25500000920E-02 0.  1.
        2   -1    0    0  501    0  0.00000000000E+00  0.00000000000E+00 -0.15515963325E+04  0.15515963325E+04  0.25500000920E-02 0. -1.
    10030    2    1    2    0    0  0.00000000000E+00  0.00000000000E+00 -0.14291450722E+02  0.30889012143E+04  0.30888681529E+04 0.  0.
        5    1    3    3  502    0  0.14964246446E+04 -0.41052219032E+02  0.37270373624E+03  0.15426931538E+04  0.46999998093E+01 0.  1.
       -5    1    3    3    0  502 -0.14964246446E+04  0.41052219032E+02 -0.38699518697E+03  0.15462080605E+04  0.46999998093E+01 0. -1.
</event>
<event>
 5   0  0.1176002E-06  0.3094960E+04  0.7818609E-02  0.8217122E-01
       -2   -1    0    0    0  501  0.00000000000E+00  0.00000000000E+00  0.14137287046E+04  0.14137287046E+04  0.25500000920E-02 0. -1.
        2   -1    0    0  501    0  0.00000000000E+00  0.00000000000E+00 -0.16938856207E+04  0.16938856207E+04  0.25500000920E-02 0.  1.
    10030    2    1    2    0    0  0.00000000000E+00  0.00000000000E+00 -0.28015691613E+03  0.31076143253E+04  0.30949602416E+04 0.  0.
        2    1    3    3  502    0 -0.13472108342E+04 -0.25218020280E+03 -0.86143268105E+03  0.16188385190E+04  0.25500000920E-02 0.  1.
       -2    1    3    3    0  502  0.13472108342E+04  0.25218020280E+03  0.58127576492E+03  0.14887758063E+04  0.25500000920E-02 0. -1.
</event>
<event>
 5   0  0.4134019E-07  0.3084529E+04  0.7818609E-02  0.8219997E-01
        1   -1    0    0  501    0  0.00000000000E+00  0.00000000000E+00  0.15429066699E+04  0.15429066699E+04  0.50400001928E-02 0. -1.
       -1   -1    0    0    0  501  0.00000000000E+00  0.00000000000E+00 -0.15416221367E+04  0.15416221367E+04  0.50400001928E-02 0.  1.
    10030    2    1    2    0    0  0.00000000000E+00  0.00000000000E+00  0.12845332390E+01  0.30845288066E+04  0.30845285391E+04 0.  0.
        2    1    3    3  502    0  0.86290544852E+02 -0.40386523349E+03  0.14865851576E+04  0.15428832152E+04  0.25500000920E-02 0. -1.
       -2    1    3    3    0  502 -0.86290544852E+02  0.40386523349E+03 -0.14853006243E+04  0.15416455914E+04  0.25500000920E-02 0.  1.
</event>
<event>
 5   0  0.4330395E-07  0.3109988E+04  0.7818609E-02  0.8213002E-01
       -1   -1    0    0    0  501  0.00000000000E+00  0.00000000000E+00  0.12975200267E+04  0.12975200267E+04  0.50400001928E-02 0.  1.
        1   -1    0    0  501    0  0.00000000000E+00  0.00000000000E+00 -0.18635599128E+04  0.18635599128E+04  0.50400001928E-02 0. -1.
    10030    2    1    2    0    0  0.00000000000E+00  0.00000000000E+00 -0.56603988611E+03  0.31610799396E+04  0.31099879793E+04 0.  0.
        1    1    3    3  502    0  0.49174764149E+03 -0.61540915990E+03  0.10797000981E+04  0.13365240285E+04  0.50400001928E-02 0.  1.
       -1    1    3    3    0  502 -0.49174764149E+03  0.61540915990E+03 -0.16457399842E+04  0.18245559110E+04  0.50400001928E-02 0. -1.
</event>
<event>
 5   0  0.4173905E-07  0.3092204E+04  0.7818609E-02  0.8217881E-01
        1   -1    0    0  501    0  0.00000000000E+00  0.00000000000E+00  0.16073647916E+04  0.16073647916E+04  0.50400001928E-02 0.  1.
       -1   -1    0    0    0  501  0.00000000000E+00  0.00000000000E+00 -0.14871744301E+04  0.14871744301E+04  0.50400001928E-02 0. -1.
    10030    2    1    2    0    0  0.00000000000E+00  0.00000000000E+00  0.12019036152E+03  0.30945392217E+04  0.30922042739E+04 0.  0.
        3    1    3    3  502    0  0.46148976207E+03 -0.24601294496E+03  0.15161634745E+04  0.16038225779E+04  0.10100000352E+00 0.  1.
       -3    1    3    3    0  502 -0.46148976207E+03  0.24601294496E+03 -0.13959731130E+04  0.14907166438E+04  0.10100000352E+00 0. -1.
</event>
<event>
 5   0  0.4330395E-07  0.3100210E+04  0.7818609E-02  0.8215680E-01
       -1   -1    0    0    0  501  0.00000000000E+00  0.00000000000E+00  0.10646401659E+04  0.10646401659E+04  0.50400001928E-02 0. -1.
        1   -1    0    0  501    0  0.00000000000E+00  0.00000000000E+00 -0.22569370455E+04  0.22569370455E+04  0.50400001928E-02 0.  1.
    10030    2    1    2    0    0  0.00000000000E+00  0.00000000000E+00 -0.11922968796E+04  0.33215772115E+04  0.31002102062E+04 0.  0.
        1    1    3    3  502    0 -0.11909135740E+03 -0.13150584848E+04  0.27377889415E+03  0.13485238051E+04  0.50400001928E-02 0. -1.
       -1    1    3    3    0  502  0.11909135740E+03  0.13150584848E+04 -0.14660757738E+04  0.19730534064E+04  0.50400001928E-02 0.  1.
</event>
<event>
 5   0  0.4219337E-07  0.3099532E+04  0.7818609E-02  0.8215866E-01
       -1   -1    0    0    0  501  0.00000000000E+00  0.00000000000E+00  0.15946084933E+04  0.15946084933E+04  0.50400001928E-02 0. -1.
        1   -1    0    0  501    0  0.00000000000E+00  0.00000000000E+00 -0.15061841929E+04  0.15061841929E+04  0.50400001928E-02 0.  1.
    10030    2    1    2    0    0  0.00000000000E+00  0.00000000000E+00  0.88424300426E+02  0.31007926862E+04  0.30995316462E+04 0.  0.
        4    1    3    3  502    0  0.12068752031E+04  0.90230092796E+03  0.40640609325E+03  0.15607249104E+04  0.12699999809E+01 0. -1.
       -4    1    3    3    0  502 -0.12068752031E+04 -0.90230092796E+03 -0.31798179282E+03  0.15400677758E+04  0.12699999809E+01 0.  1.
</event>
<event>
 5   0  0.4219337E-07  0.3106077E+04  0.7818609E-02  0.8214072E-01
        1   -1    0    0  501    0  0.00000000000E+00  0.00000000000E+00  0.13352173338E+04  0.13352173338E+04  0.50400001928E-02 0.  1.
       -1   -1    0    0    0  501  0.00000000000E+00  0.00000000000E+00 -0.18063940038E+04  0.18063940038E+04  0.50400001928E-02 0. -1.
    10030    2    1    2    0    0  0.00000000000E+00  0.00000000000E+00 -0.47117667003E+03  0.31416113376E+04  0.31060770020E+04 0.  0.
        4    1    3    3  502    0  0.19191491234E+03 -0.13818547355E+04 -0.92572355403E+03  0.16743116660E+04  0.12699999809E+01 0. -1.
       -4    1    3    3    0  502 -0.19191491234E+03  0.13818547355E+04  0.45454688400E+03  0.14672996716E+04  0.12699999809E+01 0.  1.
</event>
<event>
 5   0  0.4173905E-07  0.3102668E+04  0.7818609E-02  0.8215006E-01
       -1   -1    0    0    0  501  0.00000000000E+00  0.00000000000E+00  0.17543134253E+04  0.17543134253E+04  0.50400001928E-02 0. -1.
        1   -1    0    0  501    0  0.00000000000E+00  0.00000000000E+00 -0.13718396095E+04  0.13718396096E+04  0.50400001928E-02 0.  1.
    10030    2    1    2    0    0  0.00000000000E+00  0.00000000000E+00  0.38247381580E+03  0.31261530349E+04  0.31026676551E+04 0.  0.
        3    1    3    3  502    0  0.14976814358E+04 -0.12658724299E+02 -0.21608380190E+03  0.15132422629E+04  0.10100000352E+00 0.  1.
       -3    1    3    3    0  502 -0.14976814358E+04  0.12658724299E+02  0.59855761769E+03  0.16129107720E+04  0.10100000352E+00 0. -1.
</event>
<event>
 5   0  0.1176002E-06  0.3082034E+04  0.7818609E-02  0.8220686E-01
        2   -1    0    0  501    0  0.00000000000E+00  0.00000000000E+00  0.19206942934E+04  0.19206942934E+04  0.25500000920E-02 0. -1.
       -2   -1    0    0    0  501  0.00000000000E+00  0.00000000000E+00 -0.12363931586E+04  0.12363931586E+04  0.25500000920E-02 0.  1.
    10030    2    1    2    0    0  0.00000000000E+00  0.00000000000E+00  0.68430113480E+03  0.31570874521E+04  0.30820339286E+04 0.  0.
        2    1    3    3  502    0  0.13763607088E+04  0.61875062123E+03  0.66202429264E+03  0.16478766022E+04  0.25500000920E-02 0. -1.
       -2    1    3    3    0  502 -0.13763607088E+04 -0.61875062123E+03  0.22276842161E+02  0.15092108499E+04  0.25500000920E-02 0.  1.
</event>
<event>
 5   0  0.3935852E-07  0.3109058E+04  0.7818609E-02  0.8213257E-01
       -1   -1    0    0    0  501  0.00000000000E+00  0.00000000000E+00  0.11974669343E+04  0.11974669343E+04  0.50400001928E-02 0. -1.
        1   -1    0    0  501    0  0.00000000000E+00  0.00000000000E+00 -0.20180598216E+04  0.20180598216E+04  0.50400001928E-02 0.  1.
    10030    2    1    2    0    0  0.00000000000E+00  0.00000000000E+00 -0.82059288727E+03  0.32155267559E+04  0.31090576758E+04 0.  0.
        5    1    3    3  502    0  0.60521010836E+03 -0.53164850858E+03  0.96474686835E+03  0.12568564046E+04  0.46999998093E+01 0. -1.
       -5    1    3    3    0  502 -0.60521010836E+03  0.53164850858E+03 -0.17853397556E+04  0.19586703513E+04  0.46999998093E+01 0.  1.
</event>
<event>
 5   0  0.1258262E-06  0.3107345E+04  0.7818609E-02  0.8213725E-01
       -2   -1    0    0    0  501  0.00000000000E+00  0.00000000000E+00  0.94799839474E+03  0.94799839474E+03  0.25500000920E-02 0. -1.
        2   -1    0    0  501    0  0.00000000000E+00  0.00000000000E+00 -0.25463100774E+04  0.25463100774E+04  0.25500000920E-02 0.  1.
    10030    2    1    2    0    0  0.00000000000E+00  0.00000000000E+00 -0.15983116826E+04  0.34943084721E+04  0.31073447610E+04 0.  0.
        1    1    3    3  502    0  0.25317388021E+03  0.15316195964E+04 -0.86976233788E+03  0.17794499504E+04  0.50400001928E-02 0.  1.
       -1    1    3    3    0  502 -0.25317388021E+03 -0.15316195964E+04 -0.72854934475E+03  0.17148585217E+04  0.50400001928E-02 0. -1.
</event>
<event>
 5   0  0.4173905E-07  0.3090988E+04  0.7818609E-02  0.8218216E-01
       -1   -1    0    0    0  501  0.00000000000E+00  0.00000000000E+00  0.14731680567E+04  0.14731680567E+04  0.50400001928E-02 0.  1.
        1   -1    0    0  501    0  0.00000000000E+00  0.00000000000E+00 -0.16213705671E+04  0.16213705671E+04  0.50400001928E-02 0. -1.
    10030    2    1    2    0    0  0.00000000000E+00  0.00000000000E+00 -0.14820251035E+03  0.30945386238E+04  0.30909877564E+04 0.  0.
        3    1    3    3  502    0  0.70414104070E+03 -0.13479239468E+04  0.20160164259E+03  0.15340654497E+04  0.10100000352E+00 0.  1.
       -3    1    3    3    0  502 -0.70414104070E+03  0.13479239468E+04 -0.34980415294E+03  0.15604731741E+04  0.10100000352E+00 0. -1.
</event>
<event>
 5   0  0.1258262E-06  0.3099898E+04  0.7818609E-02  0.8215766E-01
        2   -1    0    0  501    0  0.00000000000E+00  0.00000000000E+00  0.20711800871E+04  0.20711800871E+04  0.25500000920E-02 0. -1.
       -2   -1    0    0    0  501  0.00000000000E+00  0.00000000000E+00 -0.11598905604E+04  0.11598905604E+04  0.25500000920E-02 0.  1.
    10030    2    1    2    0    0  0.00000000000E+00  0.00000000000E+00  0.91128952667E+03  0.32310706475E+04  0.30998982125E+04 0.  0.
        1    1    3    3  502    0 -0.18645632461E+03 -0.14112201432E+04  0.10948091445E+04  0.17958049216E+04  0.50400001928E-02 0. -1.
       -1    1    3    3    0  502  0.18645632461E+03  0.14112201432E+04 -0.18351961780E+03  0.14352657259E+04  0.50400001928E-02 0.  1.
</event>
<event>
 5   0  0.4330395E-07  0.3096702E+04  0.7818609E-02  0.8216644E-01
       -1   -1    0    0    0  501  0.00000000000E+00  0.00000000000E+00  0.11955594437E+04  0.11955594438E+04  0.50400001928E-02 0.  1.
        1   -1    0    0  501    0  0.00000000000E+00  0.00000000000E+00 -0.20052453950E+04  0.20052453950E+04  0.50400001928E-02 0. -1.
    10030    2    1    2    0    0  0.00000000000E+00  0.00000000000E+00 -0.80968595127E+03  0.32008048388E+04  0.30967015155E+04 0.  0.
        1    1    3    3  502    0  0.74567824991E+03  0.91222075429E+03  0.63352202792E+03  0.13377342475E+04  0.50400001928E-02 0.  1.
       -1    1    3    3    0  502 -0.74567824991E+03 -0.91222075429E+03 -0.14432079792E+04  0.18630705913E+04  0.50400001928E-02 0. -1.
</event>
<event>
 5   0  0.1200286E-06  0.3076418E+04  0.7818609E-02  0.8222240E-01
       -2   -1    0    0    0  501  0.00000000000E+00  0.00000000000E+00  0.16174177271E+04  0.16174177271E+04  0.25500000920E-02 0.  1.
        2   -1    0    0  501    0  0.00000000000E+00  0.00000000000E+00 -0.14628792063E+04  0.14628792063E+04  0.25500000920E-02 0. -1.
    10030    2    1    2    0    0  0.00000000000E+00  0.00000000000E+00  0.15453852073E+03  0.30802969334E+04  0.30764178915E+04 0.  0.
        5    1    3    3  502    0  0.68745431279E+02  0.89398193053E+02  0.16132657090E+04  0.16172094203E+04  0.46999998093E+01 0.  1.
       -5    1    3    3    0  502 -0.68745431279E+02 -0.89398193053E+02 -0.14587271883E+04  0.14630875131E+04  0.46999998093E+01 0. -1.
</event>
<event>
 5   0  0.4134019E-07  0.3109297E+04  0.7818609E-02  0.8213191E-01
        1   -1    0    0  501    0  0.00000000000E+00  0.00000000000E+00  0.25560950203E+04  0.25560950203E+04  0.50400001928E-02 0. -1.
       -1   -1    0    0    0  501  0.00000000000E+00  0.00000000000E+00 -0.94555654792E+03  0.94555654794E+03  0.50400001928E-02 0.  1.
    10030    2    1    2    0    0  0.00000000000E+00  0.00000000000E+00  0.16105384724E+04  0.35016515683E+04  0.31092972734E+04 0.  0.
        2    1    3    3  502    0  0.63967706861E+03  0.42815326072E+03  0.23264272702E+04  0.24504623667E+04  0.25500000920E-02 0. -1.
       -2    1    3    3    0  502 -0.63967706861E+03 -0.42815326072E+03 -0.71588879781E+03  0.10511892016E+04  0.25500000920E-02 0.  1.
</event>
<event>
 5   0  0.1193123E-06  0.3101136E+04  0.7818609E-02  0.8215426E-01
       -2   -1    0    0    0  501  0.00000000000E+00  0.00000000000E+00  0.11962189096E+04  0.11962189096E+04  0.25500000920E-02 0.  1.
        2   -1    0    0  501    0  0.00000000000E+00  0.00000000000E+00 -0.20098842614E+04  0.20098842614E+04  0.25500000920E-02 0. -1.
    10030    2    1    2    0    0  0.00000000000E+00  0.00000000000E+00 -0.81366535180E+03  0.32061031711E+04  0.31011362819E+04 0.  0.
        3    1    3    3  502    0  0.76256877567E+03 -0.35242026918E+03  0.94056519318E+03  0.12611003436E+04  0.10100000352E+00 0.  1.
       -3    1    3    3    0  502 -0.76256877567E+03  0.35242026918E+03 -0.17542305450E+04  0.19450028275E+04  0.10100000352E+00 0. -1.
</event>
<event>
 5   0  0.1176002E-06  0.3076489E+04  0.7818609E-02  0.8222220E-01
        2   -1    0    0  501    0  0.00000000000E+00  0.00000000000E+00  0.15629243205E+04  0.15629243205E+04  0.25500000920E-02 0.  1.
       -2   -1    0    0    0  501  0.00000000000E+00  0.00000000000E+00 -0.15139541072E+04  0.15139541072E+04  0.25500000920E-02 0. -1.
    10030    2    1    2    0    0  0.00000000000E+00  0.00000000000E+00  0.48970213324E+02  0.30768784278E+04  0.30764887091E+04 0.  0.
        2    1    3    3  502    0  0.46965300854E+03  0.14222639285E+04  0.37493934608E+03  0.15440168859E+04  0.25500000920E-02 0. -1.
       -2    1    3    3    0  502 -0.46965300854E+03 -0.14222639285E+04 -0.32596913275E+03  0.15328615418E+04  0.25500000920E-02 0.  1.
</event>
<event>
 5   0  0.4134019E-07  0.3105246E+04  0.7818609E-02  0.8214300E-01
       -1   -1    0    0    0  501  0.00000000000E+00  0.00000000000E+00  0.95315539260E+03  0.95315539262E+03  0.50400001928E-02 0. -1.
        1   -1    0    0  501    0  0.00000000000E+00  0.00000000000E+00 -0.25291131256E+04  0.25291131256E+04  0.50400001928E-02 0.  1.
    10030    2    1    2    0    0  0.00000000000E+00  0.00000000000E+00 -0.15759577330E+04  0.34822685182E+04  0.31052457643E+04 0.  0.
        2    1    3    3  502    0 -0.13110752896E+04  0.27430448300E+03 -0.16684690609E+04  0.21396145381E+04  0.25500000920E-02 0.  1.
       -2    1    3    3    0  502  0.13110752896E+04 -0.27430448300E+03  0.92511327922E+02  0.13426539801E+04  0.25500000920E-02 0. -1.
</event>
<event>
 5   0  0.1200286E-06  0.3119104E+04  0.7818609E-02  0.8210515E-01
       -2   -1    0    0    0  501  0.00000000000E+00  0.00000000000E+00  0.18333433326E+04  0.18333433326E+04  0.25500000920E-02 0. -1.
        2   -1    0    0  501    0  0.00000000000E+00  0.00000000000E+00 -0.13266483847E+04  0.13266483847E+04  0.25500000920E-02 0.  1.
    10030    2    1    2    0    0  0.00000000000E+00  0.00000000000E+00  0.50669494798E+03  0.31599917173E+04  0.31191036987E+04 0.  0.
        5    1    3    3  502    0  0.69036588224E+02 -0.15570441569E+04  0.30908986057E+03  0.15889339788E+04  0.46999998093E+01 0. -1.
       -5    1    3    3    0  502 -0.69036588224E+02  0.15570441569E+04  0.19760508741E+03  0.15710577385E+04  0.46999998093E+01 0.  1.
</event>
<event>
 5   0  0.1200286E-06  0.3103597E+04  0.7818609E-02  0.8214751E-01
       -2   -1    0    0    0  501  0.00000000000E+00  0.00000000000E+00  0.16218022916E+04  0.16218022916E+04  0.25500000920E-02 0. -1.
        2   -1    0    0  501    0  0.00000000000E+00  0.00000000000E+00 -0.14848165608E+04  0.14848165608E+04  0.25500000920E-02 0.  1.
    10030    2    1    2    0    0  0.00000000000E+00  0.00000000000E+00  0.13698573075E+03  0.31066188524E+04  0.31035972039E+04 0.  0.
        5    1    3    3  502    0 -0.23688784870E+03 -0.11116764541E+04 -0.98899981522E+03  0.15066795001E+04  0.46999998093E+01 0.  1.
       -5    1    3    3    0  502  0.23688784870E+03  0.11116764541E+04  0.11259855460E+04  0.15999393523E+04  0.46999998093E+01 0. -1.
</event>
<event>
 5   0  0.1193123E-06  0.3102315E+04  0.7818609E-02  0.8215103E-01
        2   -1    0    0  501    0  0.00000000000E+00  0.00000000000E+00  0.16365185585E+04  0.16365185585E+04  0.25500000920E-02 0. -1.
       -2   -1    0    0    0  501  0.00000000000E+00  0.00000000000E+00 -0.14702492131E+04  0.14702492131E+04  0.25500000920E-02 0.  1.
    10030    2    1    2    0    0  0.00000000000E+00  0.00000000000E+00  0.16626934543E+03  0.31067677717E+04  0.31023153437E+04 0.  0.
        3    1    3    3  502    0 -0.14507272928E+03  0.31393416102E+03 -0.14311497078E+04  0.14723417574E+04  0.10100000352E+00 0.  1.
       -3    1    3    3    0  502  0.14507272928E+03 -0.31393416102E+03  0.15974190532E+04  0.16344260143E+04  0.10100000352E+00 0. -1.
</event>
<event>
 5   0  0.1258262E-06  0.3100767E+04  0.7818609E-02  0.8215527E-01
        2   -1    0    0  501    0  0.00000000000E+00  0.00000000000E+00  0.20517212174E+04  0.20517212174E+04  0.25500000920E-02 0.  1.
       -2   -1    0    0    0  501  0.00000000000E+00  0.00000000000E+00 -0.11715477807E+04  0.11715477807E+04  0.25500000920E-02 0. -1.
    10030    2    1    2    0    0  0.00000000000E+00  0.00000000000E+00  0.88017343669E+03  0.32232689980E+04  0.31007672849E+04 0.  0.
        1    1    3    3  502    0  0.11142686443E+04  0.10705906782E+04  0.57128890813E+03  0.16474616926E+04  0.50400001928E-02 0. -1.
       -1    1    3    3    0  502 -0.11142686443E+04 -0.10705906782E+04  0.30888452857E+03  0.15758073055E+04  0.50400001928E-02 0.  1.
</event>
<event>
 5   0  0.3935852E-07  0.3102206E+04  0.7818609E-02  0.8215133E-01
       -1   -1    0    0    0  501  0.00000000000E+00  0.00000000000E+00  0.12818023371E+04  0.12818023372E+04  0.50400001928E-02 0.  1.
        1   -1    0    0  501    0  0.00000000000E+00  0.00000000000E+00 -0.18769818999E+04  0.18769818999E+04  0.50400001928E-02 0. -1.
    10030    2    1    2    0    0  0.00000000000E+00  0.00000000000E+00 -0.59517956272E+03  0.31587842370E+04  0.31022055290E+04 0.  0.
        5    1    3    3  502    0  0.10438232816E+03  0.15446923000E+04 -0.39379968312E+03  0.15975200320E+04  0.46999998093E+01 0.  1.
       -5    1    3    3    0  502 -0.10438232816E+03 -0.15446923000E+04 -0.20137987961E+03  0.15612642051E+04  0.46999998093E+01 0. -1.
</event>
<event>
 5   0  0.4330395E-07  0.3133752E+04  0.7818609E-02  0.8206536E-01
        1   -1    0    0  501    0  0.00000000000E+00  0.00000000000E+00  0.17279393375E+04  0.17279393375E+04  0.50400001928E-02 0.  1.
       -1   -1    0    0    0  501  0.00000000000E+00  0.00000000000E+00 -0.14208254707E+04  0.14208254707E+04  0.50400001928E-02 0. -1.
    10030    2    1    2    0    0  0.00000000000E+00  0.00000000000E+00  0.30711386685E+03  0.31487648082E+04  0.31337518872E+04 0.  0.
        1    1    3    3  502    0 -0.57144571647E+03 -0.13474110569E+04  0.71573124254E+03  0.16292139131E+04  0.50400001928E-02 0.  1.
       -1    1    3    3    0  502  0.57144571647E+03  0.13474110569E+04 -0.40861737568E+03  0.15195508951E+04  0.50400001928E-02 0. -1.
</event>
<event>
 5   0  0.1176002E-06  0.3102072E+04  0.7818609E-02  0.8215169E-01
        2   -1    0    0  501    0  0.00000000000E+00  0.00000000000E+00  0.13351329331E+04  0.13351329331E+04  0.25500000920E-02 0.  1.
       -2   -1    0    0    0  501  0.00000000000E+00  0.00000000000E+00 -0.18018530124E+04  0.18018530124E+04  0.25500000920E-02 0. -1.
    10030    2    1    2    0    0  0.00000000000E+00  0.00000000000E+00 -0.46672007930E+03  0.31369859455E+04  0.31020724024E+04 0.  0.
        2    1    3    3  502    0 -0.74851400654E+03 -0.87049451316E+03  0.82129659966E+03  0.14115813898E+04  0.25500000920E-02 0.  1.
       -2    1    3    3    0  502  0.74851400654E+03  0.87049451316E+03 -0.12880166790E+04  0.17254045557E+04  0.25500000920E-02 0. -1.
</event>
<event>
 5   0  0.4134019E-07  0.3112553E+04  0.7818609E-02  0.8212301E-01
       -1   -1    0    0    0  501  0.00000000000E+00  0.00000000000E+00  0.20144761731E+04  0.20144761731E+04  0.50400001928E-02 0. -1.
        1   -1    0    0  501    0  0.00000000000E+00  0.00000000000E+00 -0.12022962229E+04  0.12022962229E+04  0.50400001928E-02 0.  1.
    10030    2    1    2    0    0  0.00000000000E+00  0.00000000000E+00  0.81217995018E+03  0.32167723961E+04  0.31125533532E+04 0.  0.
        2    1    3    3  502    0  0.42623287618E+03  0.11681017573E+04  0.13733006961E+04  0.18525903438E+04  0.25500000920E-02 0. -1.
       -2    1    3    3    0  502 -0.42623287618E+03 -0.11681017573E+04 -0.56112074592E+03  0.13641820522E+04  0.25500000920E-02 0.  1.
</event>
<event>
 5   0  0.1193123E-06  0.3123485E+04  0.7818609E-02  0.8209322E-01
        2   -1    0    0  501    0  0.00000000000E+00  0.00000000000E+00  0.14069732163E+04  0.14069732163E+04  0.25500000920E-02 0. -1.
       -2   -1    0    0    0  501  0.00000000000E+00  0.00000000000E+00 -0.17335370014E+04  0.17335370014E+04  0.25500000920E-02 0.  1.
    10030    2    1    2    0    0  0.00000000000E+00  0.00000000000E+00 -0.32656378513E+03  0.31405102177E+04  0.31234853164E+04 0.  0.
        3    1    3    3  502    0  0.87269773496E+03 -0.94455558808E+03  0.72769345829E+03  0.14776076526E+04  0.10100000352E+00 0. -1.
       -3    1    3    3    0  502 -0.87269773496E+03  0.94455558808E+03 -0.10542572434E+04  0.16629025651E+04  0.10100000352E+00 0.  1.
</event>
<event>
 5   0  0.1200286E-06  0.3083412E+04  0.7818609E-02  0.8220305E-01
        2   -1    0    0  501    0  0.00000000000E+00  0.00000000000E+00  0.15690317786E+04  0.15690317786E+04  0.25500000920E-02 0.  1.
       -2   -1    0    0    0  501  0.00000000000E+00  0.00000000000E+00 -0.15148560918E+04  0.15148560918E+04  0.25500000920E-02 0. -1.
    10030    2    1    2    0    0  0.00000000000E+00  0.00000000000E+00  0.54175686802E+02  0.30838878704E+04  0.30834119725E+04 0.  0.
        5    1    3    3  502    0 -0.15931041073E+03 -0.27055007371E+03  0.15367107836E+04  0.15684639849E+04  0.46999998093E+01 0.  1.
       -5    1    3    3    0  502  0.15931041073E+03  0.27055007371E+03 -0.14825350968E+04  0.15154238855E+04  0.46999998093E+01 0. -1.
</event>
<event>
 5   0  0.3935852E-07  0.3101706E+04  0.7818609E-02  0.8215270E-01
       -1   -1    0    0    0  501  0.00000000000E+00  0.00000000000E+00  0.10943432078E+04  0.10943432078E+04  0.50400001928E-02 0.  1.
        1   -1    0    0  501    0  0.00000000000E+00  0.00000000000E+00 -0.21977972523E+04  0.21977972523E+04  0.50400001928E-02 0. -1.
    10030    2    1    2    0    0  0.00000000000E+00  0.00000000000E+00 -0.11034540445E+04  0.32921404601E+04  0.31017056567E+04 0.  0.
        5    1    3    3  502    0  0.10311257050E+04 -0.55479150975E+03  0.52761936452E+03  0.12842967424E+04  0.46999998093E+01 0.  1.
       -5    1    3    3    0  502 -0.10311257050E+04  0.55479150975E+03 -0.16310734091E+04  0.20078437177E+04  0.46999998093E+01 0. -1.
</event>
<event>
 5   0  0.3935852E-07  0.3103229E+04  0.7818609E-02  0.8214852E-01
        1   -1    0    0  501    0  0.00000000000E+00  0.00000000000E+00  0.20877050538E+04  0.20877050538E+04  0.50400001928E-02 0.  1.
       -1   -1    0    0    0  501  0.00000000000E+00  0.00000000000E+00 -0.11531839721E+04  0.11531839721E+04  0.50400001928E-02 0. -1.
    10030    2    1    2    0    0  0.00000000000E+00  0.00000000000E+00  0.93452108164E+03  0.32408890259E+04  0.31032292900E+04 0.  0.
        5    1    3    3  502    0 -0.13455929099E+04 -0.74450196575E+03  0.25175141243E+03  0.15583017422E+04  0.46999998093E+01 0.  1.
       -5    1    3    3    0  502  0.13455929099E+04  0.74450196575E+03  0.68276966921E+03  0.16825872837E+04  0.46999998093E+01 0. -1.
</event>
<event>
 5   0  0.1258262E-06  0.2900904E+04  0.7818609E-02  0.8272609E-01
       -2   -1    0    0    0  501  0.00000000000E+00  0.00000000000E+00  0.10655267459E+04  0.10655267459E+04  0.25500000920E-02 0.  1.
        2   -1    0    0  501    0  0.00000000000E+00  0.00000000000E+00 -0.19744330281E+04  0.19744330281E+04  0.25500000920E-02 0. -1.
    10030    2    1    2    0    0  0.00000000000E+00  0.00000000000E+00 -0.90890628224E+03  0.30399597740E+04  0.29009041345E+04 0.  0.
        1    1    3    3  502    0 -0.12320807005E+04  0.64760599621E+03 -0.88192188161E+03  0.16477871781E+04  0.50400001928E-02 0. -1.
       -1    1    3    3    0  502  0.12320807005E+04 -0.64760599621E+03 -0.26984400629E+02  0.13921725959E+04  0.50400001928E-02 0.  1.
</event>
<event>
 5   0  0.1237580E-06  0.3098563E+04  0.7818609E-02  0.8216132E-01
        2   -1    0    0  501    0  0.00000000000E+00  0.00000000000E+00  0.14146019132E+04  0.14146019132E+04  0.25500000920E-02 0. -1.
       -2   -1    0    0    0  501  0.00000000000E+00  0.00000000000E+00 -0.16967835055E+04  0.16967835055E+04  0.25500000920E-02 0.  1.
    10030    2    1    2    0    0  0.00000000000E+00  0.00000000000E+00 -0.28218159232E+03  0.31113854187E+04  0.30985630174E+04 0.  0.
        4    1    3    3  502    0 -0.67908427173E+03 -0.70617223400E+03 -0.13462393927E+04  0.16649915278E+04  0.12699999809E+01 0.  1.
       -4    1    3    3    0  502  0.67908427173E+03  0.70617223400E+03  0.10640578004E+04  0.14463938909E+04  0.12699999809E+01 0. -1.
</event>
<event>
 5   0  0.4134019E-07  0.3141811E+04  0.7818609E-02  0.8204356E-01
       -1   -1    0    0    0  501  0.00000000000E+00  0.00000000000E+00  0.16008858236E+04  0.16008858236E+04  0.50400001928E-02 0. -1.
        1   -1    0    0  501    0  0.00000000000E+00  0.00000000000E+00 -0.15414867410E+04  0.15414867410E+04  0.50400001928E-02 0.  1.
    10030    2    1    2    0    0  0.00000000000E+00  0.00000000000E+00  0.59399082576E+02  0.31423725647E+04  0.31418111153E+04 0.  0.
        2    1    3    3  502    0  0.38990778954E+03 -0.57906338816E+02 -0.14912178024E+04  0.15424369558E+04  0.25500000920E-02 0.  1.
       -2    1    3    3    0  502 -0.38990778954E+03  0.57906338816E+02  0.15506168850E+04  0.15999356088E+04  0.25500000920E-02 0. -1.
</event>
<event>
 5   0  0.4219337E-07  0.3088753E+04  0.7818609E-02  0.8218831E-01
        1   -1    0    0  501    0  0.00000000000E+00  0.00000000000E+00  0.11682205397E+04  0.11682205397E+04  0.50400001928E-02 0.  1.
       -1   -1    0    0    0  501  0.00000000000E+00  0.00000000000E+00 -0.20416505983E+04  0.20416505983E+04  0.50400001928E-02 0. -1.
    10030    2    1    2    0    0  0.00000000000E+00  0.00000000000E+00 -0.87343005857E+03  0.32098711380E+04  0.30887526051E+04 0.  0.
        4    1    3    3  502    0  0.25095715123E+03  0.37248520380E+03 -0.19722804533E+04  0.20227744605E+04  0.12699999809E+01 0. -1.
       -4    1    3    3    0  502 -0.25095715123E+03 -0.37248520380E+03  0.10988503947E+04  0.11870966775E+04  0.12699999809E+01 0.  1.
</event>
<event>
 5   0  0.1200286E-06  0.3108936E+04  0.7818609E-02  0.8213290E-01
       -2   -1    0    0    0  501  0.00000000000E+00  0.00000000000E+00  0.15416041089E+04  0.15416041089E+04  0.25500000920E-02 0.  1.
        2   -1    0    0  501    0  0.00000000000E+00  0.00000000000E+00 -0.15674391026E+04  0.15674391026E+04  0.25500000920E-02 0. -1.
    10030    2    1    2    0    0  0.00000000000E+00  0.00000000000E+00 -0.25834993731E+02  0.31090432116E+04  0.31089358701E+04 0.  0.
        5    1    3    3  502    0 -0.72310997587E+03 -0.11189177519E+04 -0.81387180013E+03  0.15611772384E+04  0.46999998093E+01 0.  1.
       -5    1    3    3    0  502  0.72310997587E+03  0.11189177519E+04  0.78803680639E+03  0.15478659732E+04  0.46999998093E+01 0. -1.
</event>
<event>
 5   0  0.4330395E-07  0.3104708E+04  0.7818609E-02  0.8214447E-01
        1   -1    0    0  501    0  0.00000000000E+00  0.00000000000E+00  0.13325416436E+04  0.13325416436E+04  0.50400001928E-02 0.  1.
       -1   -1    0    0    0  501  0.00000000000E+00  0.00000000000E+00 -0.18084258681E+04  0.18084258681E+04  0.50400001928E-02 0. -1.
    10030    2    1    2    0    0  0.00000000000E+00  0.00000000000E+00 -0.47588422449E+03  0.31409675118E+04  0.31047078953E+04 0.  0.
        1    1    3    3  502    0  0.97449768851E+03 -0.11661353292E+04  0.82435096823E+02  0.15219437888E+04  0.50400001928E-02 0. -1.
       -1    1    3    3    0  502 -0.97449768851E+03  0.11661353292E+04 -0.55831932131E+03  0.16190237230E+04  0.50400001928E-02 0.  1.
</event>
<event>
 5   0  0.1200286E-06  0.3124182E+04  0.7818609E-02  0.8209133E-01
       -2   -1    0    0    0  501  0.00000000000E+00  0.00000000000E+00  0.10643900632E+04  0.10643900632E+04  0.25500000920E-02 0.  1.
        2   -1    0    0  501    0  0.00000000000E+00  0.00000000000E+00 -0.22925127027E+04  0.22925127027E+04  0.25500000920E-02 0. -1.
    10030    2    1    2    0    0  0.00000000000E+00  0.00000000000E+00 -0.12281226395E+04  0.33569027659E+04  0.31241816468E+04 0.  0.
        5    1    3    3  502    0 -0.13266564127E+03 -0.13804255763E+04 -0.13865971844E+04  0.19610835744E+04  0.46999998093E+01 0. -1.
       -5    1    3    3    0  502  0.13266564127E+03  0.13804255763E+04  0.15847454492E+03  0.13958191915E+04  0.46999998093E+01 0.  1.
</event>
<event>
 5   0  0.4134019E-07  0.3090466E+04  0.7818609E-02  0.8218359E-01
       -1   -1    0    0    0  501  0.00000000000E+00  0.00000000000E+00  0.85050928338E+03  0.85050928340E+03  0.50400001928E-02 0. -1.
        1   -1    0    0  501    0  0.00000000000E+00  0.00000000000E+00 -0.28074288629E+04  0.28074288629E+04  0.50400001928E-02 0.  1.
    10030    2    1    2    0    0  0.00000000000E+00  0.00000000000E+00 -0.19569195795E+04  0.36579381463E+04  0.30904655380E+04 0.  0.
        2    1    3    3  502    0 -0.10791989306E+04  0.99390032549E+03 -0.40439031109E+03  0.15218540379E+04  0.25500000920E-02 0. -1.
       -2    1    3    3    0  502  0.10791989306E+04 -0.99390032549E+03 -0.15525292684E+04  0.21360841084E+04  0.25500000920E-02 0.  1.
</event>
<event>
 5   0  0.1258262E-06  0.3077968E+04  0.7818609E-02  0.8221811E-01
       -2   -1    0    0    0  501  0.00000000000E+00  0.00000000000E+00  0.13754913144E+04  0.13754913144E+04  0.25500000920E-02 0.  1.
        2   -1    0    0  501    0  0.00000000000E+00  0.00000000000E+00 -0.17219095498E+04  0.17219095498E+04  0.25500000920E-02 0. -1.
    10030    2    1    2    0    0  0.00000000000E+00  0.00000000000E+00 -0.34641823532E+03  0.30974008642E+04  0.30779679205E+04 0.  0.
        1    1    3    3  502    0  0.26520773488E+03  0.38535099628E+03 -0.16486312850E+04  0.17137139922E+04  0.50400001928E-02 0. -1.
       -1    1    3    3    0  502 -0.26520773488E+03 -0.38535099628E+03  0.13022130497E+04  0.13836868720E+04  0.50400001928E-02 0.  1.
</event>
<event>
 5   0  0.1176002E-06  0.3109243E+04  0.7818609E-02  0.8213206E-01
       -2   -1    0    0    0  501  0.00000000000E+00  0.00000000000E+00  0.19611715606E+04  0.19611715606E+04  0.25500000920E-02 0. -1.
        2   -1    0    0  501    0  0.00000000000E+00  0.00000000000E+00 -0.12323492550E+04  0.12323492550E+04  0.25500000920E-02 0.  1.
    10030    2    1    2    0    0  0.00000000000E+00  0.00000000000E+00  0.72882230560E+03  0.31935208156E+04  0.31092431952E+04 0.  0.
        2    1    3    3  502    0  0.10418208938E+04  0.71278994953E+03 -0.56759189372E+03  0.13840595524E+04  0.25500000920E-02 0.  1.
       -2    1    3    3    0  502 -0.10418208938E+04 -0.71278994953E+03  0.12964141993E+04  0.18094612632E+04  0.25500000920E-02 0. -1.
</event>
<event>
 5   0  0.3902375E-07  0.3120881E+04  0.7818609E-02  0.8210031E-01
       -3   -1    0    0    0  501  0.00000000000E+00  0.00000000000E+00  0.20848178794E+04  0.20848178819E+04  0.10100000352E+00 0. -1.
        3   -1    0    0  501    0  0.00000000000E+00  0.00000000000E+00 -0.11679555742E+04  0.11679555785E+04  0.10100000352E+00 0.  1.
    10030    2    1    2    0    0  0.00000000000E+00  0.00000000000E+00  0.91686230528E+03  0.32527734604E+04  0.31208810772E+04 0.  0.
        3    1    3    3  502    0 -0.10905514051E+04  0.10043623822E+04 -0.48892665689E+02  0.14833868898E+04  0.10100000352E+00 0. -1.
       -3    1    3    3    0  502  0.10905514051E+04 -0.10043623822E+04  0.96575497097E+03  0.17693865706E+04  0.10100000352E+00 0.  1.
</event>
<event>
 5   0  0.4219337E-07  0.3103550E+04  0.7818609E-02  0.8214764E-01
       -1   -1    0    0    0  501  0.00000000000E+00  0.00000000000E+00  0.11114903956E+04  0.11114903956E+04  0.50400001928E-02 0. -1.
        1   -1    0    0  501    0  0.00000000000E+00  0.00000000000E+00 -0.21664649507E+04  0.21664649507E+04  0.50400001928E-02 0.  1.
    10030    2    1    2    0    0  0.00000000000E+00  0.00000000000E+00 -0.10549745551E+04  0.32779553463E+04  0.31035495711E+04 0.  0.
        4    1    3    3  502    0  0.11693414774E+04 -0.10146529657E+04 -0.41609373597E+03  0.16031268639E+04  0.12699999809E+01 0.  1.
       -4    1    3    3    0  502 -0.11693414774E+04  0.10146529657E+04 -0.63888081916E+03  0.16748284824E+04  0.12699999809E+01 0. -1.
</event>
<event>
 5   0  0.1237580E-06  0.3092038E+04  0.7818609E-02  0.8217926E-01
       -2   -1    0    0    0  501  0.00000000000E+00  0.00000000000E+00  0.14287893987E+04  0.14287893987E+04  0.25500000920E-02 0. -1.
        2   -1    0    0  501    0  0.00000000000E+00  0.00000000000E+00 -0.16728674946E+04  0.16728674946E+04  0.25500000920E-02 0.  1.
    10030    2    1    2    0    0  0.00000000000E+00  0.00000000000E+00 -0.24407809594E+03  0.31016568933E+04  0.30920383838E+04 0.  0.
        4    1    3    3  502    0  0.15168399424E+04 -0.19438816942E+03  0.10578760152E+03  0.15329001274E+04  0.12699999809E+01 0.  1.
       -4    1    3    3    0  502 -0.15168399424E+04  0.19438816942E+03 -0.34986569746E+03  0.15687567658E+04  0.12699999809E+01 0. -1.
</event>
<event>
 5   0  0.1200286E-06  0.3099926E+04  0.7818609E-02  0.8215758E-01
       -2   -1    0    0    0  501  0.00000000000E+00  0.00000000000E+00  0.14380689125E+04  0.14380689125E+04  0.25500000920E-02 0. -1.
        2   -1    0    0  501    0  0.00000000000E+00  0.00000000000E+00 -0.16705638409E+04  0.16705638409E+04  0.25500000920E-02 0.  1.
    10030    2    1    2    0    0  0.00000000000E+00  0.00000000000E+00 -0.23249492845E+03  0.31086327534E+04  0.30999264029E+04 0.  0.
        5    1    3    3  502    0  0.85011982282E+03 -0.80841714526E+03  0.89957427192E+03  0.14783429760E+04  0.46999998093E+01 0. -1.
       -5    1    3    3    0  502 -0.85011982282E+03  0.80841714526E+03 -0.11320692004E+04  0.16302897774E+04  0.46999998093E+01 0.  1.
</event>
<event>
 5   0  0.4330395E-07  0.3096169E+04  0.7818609E-02  0.8216790E-01
       -1   -1    0    0    0  501  0.00000000000E+00  0.00000000000E+00  0.85760481045E+03  0.85760481046E+03  0.50400001928E-02 0. -1.
        1   -1    0    0  501    0  0.00000000000E+00  0.00000000000E+00 -0.27944867782E+04  0.27944867782E+04  0.50400001928E-02 0.  1.
    10030    2    1    2    0    0  0.00000000000E+00  0.00000000000E+00 -0.19368819678E+04  0.36520915887E+04  0.30961687963E+04 0.  0.
        1    1    3    3  502    0  0.28578056817E+03  0.13880044761E+04 -0.17034999318E+04  0.22158833400E+04  0.50400001928E-02 0.  1.
       -1    1    3    3    0  502 -0.28578056817E+03 -0.13880044761E+04 -0.23338203600E+03  0.14362082487E+04  0.50400001928E-02 0. -1.
</event>
<event>
 5   0  0.1237580E-06  0.3109147E+04  0.7818609E-02  0.8213232E-01
       -2   -1    0    0    0  501  0.00000000000E+00  0.00000000000E+00  0.79688476697E+03  0.79688476697E+03  0.25500000920E-02 0. -1.
        2   -1    0    0  501    0  0.00000000000E+00  0.00000000000E+00 -0.30326820966E+04  0.30326820966E+04  0.25500000920E-02 0.  1.
    10030    2    1    2    0    0  0.00000000000E+00  0.00000000000E+00 -0.22357973296E+04  0.38295668636E+04  0.31091466134E+04 0.  0.
        4    1    3    3  502    0 -0.13791550077E+04 -0.60369602012E+03 -0.15952226425E+04  0.21934571598E+04  0.12699999809E+01 0.  1.
       -4    1    3    3    0  502  0.13791550077E+04  0.60369602012E+03 -0.64057468715E+03  0.16361097038E+04  0.12699999809E+01 0. -1.
</event>
<event>
 5   0  0.4173905E-07  0.3092083E+04  0.7818609E-02  0.8217914E-01
       -1   -1    0    0    0  501  0.00000000000E+00  0.00000000000E+00  0.10973573522E+04  0.10973573522E+04  0.50400001928E-02 0. -1.
        1   -1    0    0  501    0  0.00000000000E+00  0.00000000000E+00 -0.21781824147E+04  0.21781824147E+04  0.50400001928E-02 0.  1.
    10030    2    1    2    0    0  0.00000000000E+00  0.00000000000E+00 -0.10808250625E+04  0.32755397670E+04  0.30920831084E+04 0.  0.
        3    1    3    3  502    0  0.92622264174E+03  0.11074543182E+02  0.77086369556E+03  0.12050899862E+04  0.10100000352E+00 0. -1.
       -3    1    3    3    0  502 -0.92622264174E+03 -0.11074543182E+02 -0.18516887581E+04  0.20704497807E+04  0.10100000352E+00 0.  1.
</event>
<event>
 5   0  0.4134019E-07  0.3104419E+04  0.7818609E-02  0.8214526E-01
        1   -1    0    0  501    0  0.00000000000E+00  0.00000000000E+00  0.10679500461E+04  0.10679500461E+04  0.50400001928E-02 0.  1.
       -1   -1    0    0    0  501  0.00000000000E+00  0.00000000000E+00 -0.22560548841E+04  0.22560548841E+04  0.50400001928E-02 0. -1.
    10030    2    1    2    0    0  0.00000000000E+00  0.00000000000E+00 -0.11881048379E+04  0.33240049302E+04  0.31044187330E+04 0.  0.
        2    1    3    3  502    0 -0.64565265059E+03  0.68898429144E+03  0.72507518798E+03  0.11905044004E+04  0.25500000920E-02 0.  1.
       -2    1    3    3    0  502  0.64565265059E+03 -0.68898429144E+03 -0.19131800259E+04  0.21335005298E+04  0.25500000920E-02 0. -1.
</event>
<event>
 5   0  0.4134019E-07  0.3107419E+04  0.7818609E-02  0.8213705E-01
       -1   -1    0    0    0  501  0.00000000000E+00  0.00000000000E+00  0.10537111860E+04  0.10537111860E+04  0.50400001928E-02 0.  1.
        1   -1    0    0  501    0  0.00000000000E+00  0.00000000000E+00 -0.22909627641E+04  0.22909627641E+04  0.50400001928E-02 0. -1.
    10030    2    1    2    0    0  0.00000000000E+00  0.00000000000E+00 -0.12372515781E+04  0.33446739501E+04  0.31074189233E+04 0.  0.
        2    1    3    3  502    0  0.63757346697E+03  0.13987810868E+04 -0.37573113805E+03  0.15824861272E+04  0.25500000920E-02 0.  1.
       -2    1    3    3    0  502 -0.63757346697E+03 -0.13987810868E+04 -0.86152044008E+03  0.17621878229E+04  0.25500000920E-02 0. -1.
</event>
<event>
 5   0  0.4330395E-07  0.3096022E+04  0.7818609E-02  0.8216831E-01
        1   -1    0    0  501    0  0.00000000000E+00  0.00000000000E+00  0.21035315171E+04  0.21035315171E+04  0.50400001928E-02 0. -1.
       -1   -1    0    0    0  501  0.00000000000E+00  0.00000000000E+00 -0.11391973106E+04  0.11391973106E+04  0.50400001928E-02 0.  1.
    10030    2    1    2    0    0  0.00000000000E+00  0.00000000000E+00  0.96433420646E+03  0.32427288277E+04  0.30960216066E+04 0.  0.
        1    1    3    3  502    0  0.84097664311E+03  0.12062830135E+04  0.98879984844E+03  0.17720286576E+04  0.50400001928E-02 0.  1.
       -1    1    3    3    0  502 -0.84097664311E+03 -0.12062830135E+04 -0.24465641976E+02  0.14707001702E+04  0.50400001928E-02 0. -1.
</event>
<event>
 5   0  0.3935852E-07  0.3096037E+04  0.7818609E-02  0.8216826E-01
       -1   -1    0    0    0  501  0.00000000000E+00  0.00000000000E+00  0.14460261621E+04  0.14460261621E+04  0.50400001928E-02 0. -1.
        1   -1    0    0  501    0  0.00000000000E+00  0.00000000000E+00 -0.16572044402E+04  0.16572044402E+04  0.50400001928E-02 0.  1.
    10030    2    1    2    0    0  0.00000000000E+00  0.00000000000E+00 -0.21117827814E+03  0.31032306023E+04  0.30960368063E+04 0.  0.
        5    1    3    3  502    0  0.68706823863E+03 -0.21149774545E+03  0.12685612914E+04  0.14581028430E+04  0.46999998093E+01 0. -1.
       -5    1    3    3    0  502 -0.68706823863E+03  0.21149774545E+03 -0.14797395695E+04  0.16451277593E+04  0.46999998093E+01 0.  1.
</event>
<event>
 5   0  0.4134019E-07  0.3104507E+04  0.7818609E-02  0.8214502E-01
        1   -1    0    0  501    0  0.00000000000E+00  0.00000000000E+00  0.18444437431E+04  0.18444437432E+04  0.50400001928E-02 0.  1.
       -1   -1    0    0    0  501  0.00000000000E+00  0.00000000000E+00 -0.13063508603E+04  0.13063508603E+04  0.50400001928E-02 0. -1.
    10030    2    1    2    0    0  0.00000000000E+00  0.00000000000E+00  0.53809288285E+03  0.31507946035E+04  0.31045068340E+04 0.  0.
        2    1    3    3  502    0 -0.10164251639E+04  0.10998111674E+04  0.68352990466E+03  0.16461828113E+04  0.25500000920E-02 0.  1.
       -2    1    3    3    0  502  0.10164251639E+04 -0.10998111674E+04 -0.14543702181E+03  0.15046117921E+04  0.25500000920E-02 0. -1.
</event>
<event>
 5   0  0.1237580E-06  0.3142231E+04  0.7818609E-02  0.8204243E-01
       -2   -1    0    0    0  501  0.00000000000E+00  0.00000000000E+00  0.12466013449E+04  0.12466013449E+04  0.25500000920E-02 0.  1.
        2   -1    0    0  501    0  0.00000000000E+00  0.00000000000E+00 -0.19801073145E+04  0.19801073145E+04  0.25500000920E-02 0. -1.
    10030    2    1    2    0    0  0.00000000000E+00  0.00000000000E+00 -0.73350596958E+03  0.32267086594E+04  0.31422313354E+04 0.  0.
        4    1    3    3  502    0 -0.14244831245E+04  0.12393835156E+03  0.30181897016E+03  0.14613723654E+04  0.12699999809E+01 0.  1.
       -4    1    3    3    0  502  0.14244831245E+04 -0.12393835156E+03 -0.10353249397E+04  0.17653362939E+04  0.12699999809E+01 0. -1.
</event>
<event>
 5   0  0.1237580E-06  0.3104549E+04  0.7818609E-02  0.8214491E-01
       -2   -1    0    0    0  501  0.00000000000E+00  0.00000000000E+00  0.83928186711E+03  0.83928186711E+03  0.25500000920E-02 0. -1.
        2   -1    0    0  501    0  0.00000000000E+00  0.00000000000E+00 -0.28709732514E+04  0.28709732514E+04  0.25500000920E-02 0.  1.
    10030    2    1    2    0    0  0.00000000000E+00  0.00000000000E+00 -0.20316913843E+04  0.37102551185E+04  0.31045487858E+04 0.  0.
        4    1    3    3  502    0  0.11764807514E+04 -0.89918282880E+03 -0.45923372528E+03  0.15503334949E+04  0.12699999809E+01 0. -1.
       -4    1    3    3    0  502 -0.11764807514E+04  0.89918282880E+03 -0.15724576590E+04  0.21599216236E+04  0.12699999809E+01 0.  1.
</event>
<event>
 5   0  0.1258262E-06  0.3122683E+04  0.7818609E-02  0.8209540E-01
       -2   -1    0    0    0  501  0.00000000000E+00  0.00000000000E+00  0.13835385804E+04  0.13835385804E+04  0.25500000920E-02 0. -1.
        2   -1    0    0  501    0  0.00000000000E+00  0.00000000000E+00 -0.17619939225E+04  0.17619939225E+04  0.25500000920E-02 0.  1.
    10030    2    1    2    0    0  0.00000000000E+00  0.00000000000E+00 -0.37845534212E+03  0.31455325029E+04  0.31226825457E+04 0.  0.
        1    1    3    3  502    0  0.63262681859E+03 -0.13995935017E+04 -0.47182986410E+03  0.16067675881E+04  0.50400001928E-02 0.  1.
       -1    1    3    3    0  502 -0.63262681859E+03  0.13995935017E+04  0.93374521974E+02  0.15387649148E+04  0.50400001928E-02 0. -1.
</event>
<event>
 5   0  0.4219337E-07  0.3062466E+04  0.7818609E-02  0.8226115E-01
       -1   -1    0    0    0  501  0.00000000000E+00  0.00000000000E+00  0.92229519627E+03  0.92229519628E+03  0.50400001928E-02 0.  1.
        1   -1    0    0  501    0  0.00000000000E+00  0.00000000000E+00 -0.25422170550E+04  0.25422170550E+04  0.50400001928E-02 0. -1.
    10030    2    1    2    0    0  0.00000000000E+00  0.00000000000E+00 -0.16199218587E+04  0.34645122513E+04  0.30624660506E+04 0.  0.
        4    1    3    3  502    0  0.53362281450E+03 -0.72489808220E+03  0.59138745629E+03  0.10770196257E+04  0.12699999809E+01 0.  1.
       -4    1    3    3    0  502 -0.53362281450E+03  0.72489808220E+03 -0.22113093150E+04  0.23874926256E+04  0.12699999809E+01 0. -1.
</event>
<event>
 5   0  0.4219337E-07  0.3077592E+04  0.7818609E-02  0.8221915E-01
        1   -1    0    0  501    0  0.00000000000E+00  0.00000000000E+00  0.21948728394E+04  0.21948728394E+04  0.50400001928E-02 0. -1.
       -1   -1    0    0    0  501  0.00000000000E+00  0.00000000000E+00 -0.10788290553E+04  0.10788290553E+04  0.50400001928E-02 0.  1.
    10030    2    1    2    0    0  0.00000000000E+00  0.00000000000E+00  0.11160437842E+04  0.32737018947E+04  0.30775916505E+04 0.  0.
        4    1    3    3  502    0 -0.34737996680E+03 -0.10297134721E+04 -0.60085344030E+03  0.12417766086E+04  0.12699999809E+01 0.  1.
       -4    1    3    3    0  502  0.34737996680E+03  0.10297134721E+04  0.17168972245E+04  0.20319252861E+04  0.12699999809E+01 0. -1.
</event>
<event>
 5   0  0.1200286E-06  0.3110660E+04  0.7818609E-02  0.8212818E-01
        2   -1    0    0  501    0  0.00000000000E+00  0.00000000000E+00  0.11099421777E+04  0.11099421777E+04  0.25500000920E-02 0.  1.
       -2   -1    0    0    0  501  0.00000000000E+00  0.00000000000E+00 -0.21794394612E+04  0.21794394612E+04  0.25500000920E-02 0. -1.
    10030    2    1    2    0    0  0.00000000000E+00  0.00000000000E+00 -0.10694972835E+04  0.32893816389E+04  0.31106602397E+04 0.  0.
        5    1    3    3  502    0 -0.78602961746E+02 -0.76230973420E+02 -0.21753510660E+04  0.21781101756E+04  0.46999998093E+01 0. -1.
       -5    1    3    3    0  502  0.78602961746E+02  0.76230973420E+02  0.11058537825E+04  0.11112714633E+04  0.46999998093E+01 0.  1.
</event>
<event>
 5   0  0.3935852E-07  0.3098675E+04  0.7818609E-02  0.8216102E-01
       -1   -1    0    0    0  501  0.00000000000E+00  0.00000000000E+00  0.12953666541E+04  0.12953666542E+04  0.50400001928E-02 0.  1.
        1   -1    0    0  501    0  0.00000000000E+00  0.00000000000E+00 -0.18531026405E+04  0.18531026405E+04  0.50400001928E-02 0. -1.
    10030    2    1    2    0    0  0.00000000000E+00  0.00000000000E+00 -0.55773598636E+03  0.31484692947E+04  0.30986754378E+04 0.  0.
        5    1    3    3  502    0 -0.33795423920E+02  0.32007330504E+03  0.12610173567E+04  0.13014514648E+04  0.46999998093E+01 0.  1.
       -5    1    3    3    0  502  0.33795423920E+02 -0.32007330504E+03 -0.18187533430E+04  0.18470178299E+04  0.46999998093E+01 0. -1.
</event>
<event>
 5   0  0.3935852E-07  0.3105491E+04  0.7818609E-02  0.8214233E-01
        1   -1    0    0  501    0  0.00000000000E+00  0.00000000000E+00  0.17845729912E+04  0.17845729912E+04  0.50400001928E-02 0. -1.
       -1   -1    0    0    0  501  0.00000000000E+00  0.00000000000E+00 -0.13510338281E+04  0.13510338281E+04  0.50400001928E-02 0.  1.
    10030    2    1    2    0    0  0.00000000000E+00  0.00000000000E+00  0.43353916314E+03  0.31356068193E+04  0.31054909305E+04 0.  0.
        5    1    3    3  502    0  0.10860677507E+03  0.15298608653E+04 -0.27916407131E+02  0.15339723317E+04  0.46999998093E+01 0. -1.
       -5    1    3    3    0  502 -0.10860677507E+03 -0.15298608653E+04  0.46145557027E+03  0.16016344876E+04  0.46999998093E+01 0.  1.
</event>
<event>
 5   0  0.1176002E-06  0.3074632E+04  0.7818609E-02  0.8222735E-01
       -2   -1    0    0    0  501  0.00000000000E+00  0.00000000000E+00  0.11567113252E+04  0.11567113252E+04  0.25500000920E-02 0. -1.
        2   -1    0    0  501    0  0.00000000000E+00  0.00000000000E+00 -0.20431550058E+04  0.20431550058E+04  0.25500000920E-02 0.  1.
    10030    2    1    2    0    0  0.00000000000E+00  0.00000000000E+00 -0.88644368055E+03  0.31998663310E+04  0.30746320328E+04 0.  0.
        2    1    3    3  502    0  0.12483768357E+04 -0.57598144465E+03 -0.11590916811E+04  0.17982471670E+04  0.25500000920E-02 0. -1.
       -2    1    3    3    0  502 -0.12483768357E+04  0.57598144465E+03  0.27264800054E+03  0.14016191639E+04  0.25500000920E-02 0.  1.
</event>
<event>
 5   0  0.4173905E-07  0.3125012E+04  0.7818609E-02  0.8208907E-01
       -1   -1    0    0    0  501  0.00000000000E+00  0.00000000000E+00  0.22901299758E+04  0.22901299758E+04  0.50400001928E-02 0. -1.
        1   -1    0    0  501    0  0.00000000000E+00  0.00000000000E+00 -0.10660639866E+04  0.10660639866E+04  0.50400001928E-02 0.  1.
    10030    2    1    2    0    0  0.00000000000E+00  0.00000000000E+00  0.12240659892E+04  0.33561939624E+04  0.31250120587E+04 0.  0.
        3    1    3    3  502    0  0.12702981422E+04 -0.89144313802E+03  0.41664915512E+03  0.16068368826E+04  0.10100000352E+00 0.  1.
       -3    1    3    3    0  502 -0.12702981422E+04  0.89144313802E+03  0.80741683412E+03  0.17493570798E+04  0.10100000352E+00 0. -1.
</event>
<event>
 5   0  0.1193123E-06  0.3107584E+04  0.7818609E-02  0.8213660E-01
        2   -1    0    0  501    0  0.00000000000E+00  0.00000000000E+00  0.24791063264E+04  0.24791063264E+04  0.25500000920E-02 0.  1.
       -2   -1    0    0    0  501  0.00000000000E+00  0.00000000000E+00 -0.97384664197E+03  0.97384664197E+03  0.25500000920E-02 0. -1.
    10030    2    1    2    0    0  0.00000000000E+00  0.00000000000E+00  0.15052596845E+04  0.34529529684E+04  0.31075838660E+04 0.  0.
        3    1    3    3  502    0  0.11662272816E+04 -0.87181646802E+03  0.15002919696E+03  0.14637823596E+04  0.10100000352E+00 0. -1.
       -3    1    3    3    0  502 -0.11662272816E+04  0.87181646802E+03  0.13552304875E+04  0.19891706088E+04  0.10100000352E+00 0.  1.
</event>
<event>
 5   0  0.1237580E-06  0.3082594E+04  0.7818609E-02  0.8220531E-01
       -2   -1    0    0    0  501  0.00000000000E+00  0.00000000000E+00  0.23022878210E+04  0.23022878210E+04  0.25500000920E-02 0.  1.
        2   -1    0    0  501    0  0.00000000000E+00  0.00000000000E+00 -0.10318417865E+04  0.10318417865E+04  0.25500000920E-02 0. -1.
    10030    2    1    2    0    0  0.00000000000E+00  0.00000000000E+00  0.12704460344E+04  0.33341296075E+04  0.30825942181E+04 0.  0.
        4    1    3    3  502    0  0.58291152704E+03 -0.78493481716E+03  0.19239542915E+04  0.21581265589E+04  0.12699999809E+01 0.  1.
       -4    1    3    3    0  502 -0.58291152704E+03  0.78493481716E+03 -0.65350825701E+03  0.11760030486E+04  0.12699999809E+01 0. -1.
</event>
<event>
 5   0  0.1237580E-06  0.3118102E+04  0.7818609E-02  0.8210787E-01
       -2   -1    0    0    0  501  0.00000000000E+00  0.00000000000E+00  0.14681466397E+04  0.14681466397E+04  0.25500000920E-02 0. -1.
        2   -1    0    0  501    0  0.00000000000E+00  0.00000000000E+00 -0.16555841840E+04  0.16555841840E+04  0.25500000920E-02 0.  1.
    10030    2    1    2    0    0  0.00000000000E+00  0.00000000000E+00 -0.18743754431E+03  0.31237308238E+04  0.31181022155E+04 0.  0.
        4    1    3    3  502    0  0.11177129398E+04  0.20111788227E+03  0.97634236575E+03  0.14976570523E+04  0.12699999809E+01 0. -1.
       -4    1    3    3    0  502 -0.11177129398E+04 -0.20111788227E+03 -0.11637799101E+04  0.16260737715E+04  0.12699999809E+01 0.  1.
</event>
<event>
 5   0  0.4134019E-07  0.3105604E+04  0.7818609E-02  0.8214202E-01
       -1   -1    0    0    0  501  0.00000000000E+00  0.00000000000E+00  0.15977095700E+04  0.15977095700E+04  0.50400001928E-02 0.  1.
        1   -1    0    0  501    0  0.00000000000E+00  0.00000000000E+00 -0.15091566640E+04  0.15091566640E+04  0.50400001928E-02 0. -1.
    10030    2    1    2    0    0  0.00000000000E+00  0.00000000000E+00  0.88552905982E+02  0.31068662340E+04  0.31056039958E+04 0.  0.
        2    1    3    3  502    0 -0.12024917507E+04 -0.31889835006E+03 -0.88535441376E+03  0.15269364774E+04  0.25500000920E-02 0. -1.
       -2    1    3    3    0  502  0.12024917507E+04  0.31889835006E+03  0.97390731974E+03  0.15799297565E+04  0.25500000920E-02 0.  1.
</event>
<event>
 5   0  0.1258262E-06  0.3110698E+04  0.7818609E-02  0.8212808E-01
       -2   -1    0    0    0  501  0.00000000000E+00  0.00000000000E+00  0.12811454982E+04  0.12811454982E+04  0.25500000920E-02 0. -1.
        2   -1    0    0  501    0  0.00000000000E+00  0.00000000000E+00 -0.18882400033E+04  0.18882400033E+04  0.25500000920E-02 0.  1.
    10030    2    1    2    0    0  0.00000000000E+00  0.00000000000E+00 -0.60709450507E+03  0.31693855015E+04  0.31106977865E+04 0.  0.
        1    1    3    3  502    0 -0.71046304076E+03 -0.42077104819E+03 -0.16464828257E+04  0.18419315141E+04  0.50400001928E-02 0.  1.
       -1    1    3    3    0  502  0.71046304076E+03  0.42077104819E+03  0.10393883207E+04  0.13274539873E+04  0.50400001928E-02 0. -1.
</event>
<event>
 5   0  0.4330395E-07  0.3102332E+04  0.7818609E-02  0.8215098E-01
       -1   -1    0    0    0  501  0.00000000000E+00  0.00000000000E+00  0.13776099301E+04  0.13776099301E+04  0.50400001928E-02 0.  1.
        1   -1    0    0  501    0  0.00000000000E+00  0.00000000000E+00 -0.17465877670E+04  0.17465877670E+04  0.50400001928E-02 0. -1.
    10030    2    1    2    0    0  0.00000000000E+00  0.00000000000E+00 -0.36897783688E+03  0.31241976971E+04  0.31023324461E+04 0.  0.
        1    1    3    3  502    0 -0.12833437637E+04 -0.61695445276E+03  0.43508106011E+03  0.14889256333E+04  0.50400001928E-02 0.  1.
       -1    1    3    3    0  502  0.12833437637E+04  0.61695445276E+03 -0.80405889700E+03  0.16352720638E+04  0.50400001928E-02 0. -1.
</event>
<event>
 5   0  0.3935852E-07  0.3062751E+04  0.7818609E-02  0.8226036E-01
       -1   -1    0    0    0  501  0.00000000000E+00  0.00000000000E+00  0.14199627719E+04  0.14199627719E+04  0.50400001928E-02 0. -1.
        1   -1    0    0  501    0  0.00000000000E+00  0.00000000000E+00 -0.16515298087E+04  0.16515298088E+04  0.50400001928E-02 0.  1.
    10030    2    1    2    0    0  0.00000000000E+00  0.00000000000E+00 -0.23156703686E+03  0.30714925807E+04  0.30627509498E+04 0.  0.
        5    1    3    3  502    0  0.85699798162E+03  0.36514295474E+03  0.11031335829E+04  0.14438492683E+04  0.46999998093E+01 0. -1.
       -5    1    3    3    0  502 -0.85699798162E+03 -0.36514295474E+03 -0.13347006197E+04  0.16276433124E+04  0.46999998093E+01 0.  1.
</event>
<event>
 5   0  0.1258262E-06  0.3098030E+04  0.7818609E-02  0.8216279E-01
        2   -1    0    0  501    0  0.00000000000E+00  0.00000000000E+00  0.25617970609E+04  0.25617970609E+04  0.25500000920E-02 0. -1.
       -2   -1    0    0    0  501  0.00000000000E+00  0.00000000000E+00 -0.93662646363E+03  0.93662646363E+03  0.25500000920E-02 0.  1.
    10030    2    1    2    0    0  0.00000000000E+00  0.00000000000E+00  0.16251705973E+04  0.34984235246E+04  0.30980296459E+04 0.  0.
        1    1    3    3  502    0 -0.89539480709E+03 -0.12613189519E+04  0.90563344239E+03  0.17924366910E+04  0.50400001928E-02 0.  1.
       -1    1    3    3    0  502  0.89539480709E+03  0.12613189519E+04  0.71953715493E+03  0.17059868336E+04  0.50400001928E-02 0. -1.
</event>
<event>
 5   0  0.3935852E-07  0.3111323E+04  0.7818609E-02  0.8212637E-01
        1   -1    0    0  501    0  0.00000000000E+00  0.00000000000E+00  0.15664494018E+04  0.15664494018E+04  0.50400001928E-02 0.  1.
       -1   -1    0    0    0  501  0.00000000000E+00  0.00000000000E+00 -0.15449477723E+04  0.15449477723E+04  0.50400001928E-02 0. -1.
    10030    2    1    2    0    0  0.00000000000E+00  0.00000000000E+00  0.21501629487E+02  0.31113971741E+04  0.31113228786E+04 0.  0.
        5    1    3    3  502    0  0.87974147463E+03 -0.12826917883E+04  0.39337117456E+02  0.15558961356E+04  0.46999998093E+01 0.  1.
       -5    1    3    3    0  502 -0.87974147463E+03  0.12826917883E+04 -0.17835487969E+02  0.15555010385E+04  0.46999998093E+01 0. -1.
</event>
<event>
 5   0  0.4173905E-07  0.3089405E+04  0.7818609E-02  0.8218652E-01
        1   -1    0    0  501    0  0.00000000000E+00  0.00000000000E+00  0.12756571563E+04  0.12756571563E+04  0.50400001928E-02 0.  1.
       -1   -1    0    0    0  501  0.00000000000E+00  0.00000000000E+00 -0.18704913153E+04  0.18704913153E+04  0.50400001928E-02 0. -1.
    10030    2    1    2    0    0  0.00000000000E+00  0.00000000000E+00 -0.59483415899E+03  0.31461484717E+04  0.30894048827E+04 0.  0.
        3    1    3    3  502    0  0.96226693018E+03 -0.84875493381E+03  0.57847520289E+03  0.14074715461E+04  0.10100000352E+00 0.  1.
       -3    1    3    3    0  502 -0.96226693018E+03  0.84875493381E+03 -0.11733093619E+04  0.17386769256E+04  0.10100000352E+00 0. -1.
</event>
<event>
 5   0  0.4219337E-07  0.3097562E+04  0.7818609E-02  0.8216407E-01
        1   -1    0    0  501    0  0.00000000000E+00  0.00000000000E+00  0.13078668777E+04  0.13078668777E+04  0.50400001928E-02 0.  1.
       -1   -1    0    0    0  501  0.00000000000E+00  0.00000000000E+00 -0.18340721409E+04  0.18340721409E+04  0.50400001928E-02 0. -1.
    10030    2    1    2    0    0  0.00000000000E+00  0.00000000000E+00 -0.52620526319E+03  0.31419390187E+04  0.30975617537E+04 0.  0.
        4    1    3    3  502    0  0.12402381984E+04 -0.92216085638E+03 -0.16091630689E+03  0.15538555610E+04  0.12699999809E+01 0.  1.
       -4    1    3    3    0  502 -0.12402381984E+04  0.92216085638E+03 -0.36528895630E+03  0.15880834576E+04  0.12699999809E+01 0. -1.
</event>
<event>
 5   0  0.1200286E-06  0.3098787E+04  0.7818609E-02  0.8216071E-01
        2   -1    0    0  501    0  0.00000000000E+00  0.00000000000E+00  0.24938659991E+04  0.24938659991E+04  0.25500000920E-02 0.  1.
       -2   -1    0    0    0  501  0.00000000000E+00  0.00000000000E+00 -0.96260965762E+03  0.96260965762E+03  0.25500000920E-02 0. -1.
    10030    2    1    2    0    0  0.00000000000E+00  0.00000000000E+00  0.15312563415E+04  0.34564756567E+04  0.30987865338E+04 0.  0.
        5    1    3    3  502    0 -0.25074902372E+03 -0.93146714677E+02 -0.93665136303E+03  0.97410946470E+03  0.46999998093E+01 0. -1.
       -5    1    3    3    0  502  0.25074902372E+03  0.93146714677E+02  0.24679077045E+04  0.24823661920E+04  0.46999998093E+01 0.  1.
</event>
<event>
 5   0  0.1258262E-06  0.3113781E+04  0.7818609E-02  0.8211966E-01
       -2   -1    0    0    0  501  0.00000000000E+00  0.00000000000E+00  0.98808136481E+03  0.98808136482E+03  0.25500000920E-02 0. -1.
        2   -1    0    0  501    0  0.00000000000E+00  0.00000000000E+00 -0.24531457764E+04  0.24531457764E+04  0.25500000920E-02 0.  1.
    10030    2    1    2    0    0  0.00000000000E+00  0.00000000000E+00 -0.14650644116E+04  0.34412271412E+04  0.31137807417E+04 0.  0.
        1    1    3    3  502    0  0.40125991020E+03 -0.18882997510E+03 -0.23818674976E+04  0.24227998372E+04  0.50400001928E-02 0.  1.
       -1    1    3    3    0  502 -0.40125991020E+03  0.18882997510E+03  0.91680308601E+03  0.10184273040E+04  0.50400001928E-02 0. -1.
</event>
<event>
 5   0  0.4134019E-07  0.3105324E+04  0.7818609E-02  0.8214278E-01
       -1   -1    0    0    0  501  0.00000000000E+00  0.00000000000E+00  0.11954822472E+04  0.11954822472E+04  0.50400001928E-02 0. -1.
        1   -1    0    0  501    0  0.00000000000E+00  0.00000000000E+00 -0.20165583816E+04  0.20165583816E+04  0.50400001928E-02 0.  1.
    10030    2    1    2    0    0  0.00000000000E+00  0.00000000000E+00 -0.82107613434E+03  0.32120406288E+04  0.31053242959E+04 0.  0.
        2    1    3    3  502    0  0.53573308097E+02  0.10927379666E+04  0.72905560608E+03  0.13147123031E+04  0.25500000920E-02 0. -1.
       -2    1    3    3    0  502 -0.53573308097E+02 -0.10927379666E+04 -0.15501317404E+04  0.18973283258E+04  0.25500000920E-02 0.  1.
</event>
<event>
 5   0  0.3935852E-07  0.3098031E+04  0.7818609E-02  0.8216279E-01
       -1   -1    0    0    0  501  0.00000000000E+00  0.00000000000E+00  0.77354372351E+03  0.77354372353E+03  0.50400001928E-02 0.  1.
        1   -1    0    0  501    0  0.00000000000E+00  0.00000000000E+00 -0.31018909925E+04  0.31018909925E+04  0.50400001928E-02 0. -1.
    10030    2    1    2    0    0  0.00000000000E+00  0.00000000000E+00 -0.23283472690E+04  0.38754347160E+04  0.30980305410E+04 0.  0.
        5    1    3    3  502    0  0.62060201586E+03 -0.12088915423E+04 -0.20943012720E+04  0.24965347045E+04  0.46999998093E+01 0. -1.
       -5    1    3    3    0  502 -0.62060201586E+03  0.12088915423E+04 -0.23404599700E+03  0.13789000115E+04  0.46999998093E+01 0.  1.
</event>
<event>
 5   0  0.1193123E-06  0.3106489E+04  0.7818609E-02  0.8213959E-01
        2   -1    0    0  501    0  0.00000000000E+00  0.00000000000E+00  0.21575220401E+04  0.21575220401E+04  0.25500000920E-02 0. -1.
       -2   -1    0    0    0  501  0.00000000000E+00  0.00000000000E+00 -0.11182124196E+04  0.11182124196E+04  0.25500000920E-02 0.  1.
    10030    2    1    2    0    0  0.00000000000E+00  0.00000000000E+00  0.10393096205E+04  0.32757344598E+04  0.31064886550E+04 0.  0.
        3    1    3    3  502    0 -0.11621456344E+04 -0.70710407723E+03 -0.27084711659E+03  0.13870604970E+04  0.10100000352E+00 0.  1.
       -3    1    3    3    0  502  0.11621456344E+04  0.70710407723E+03  0.13101567371E+04  0.18886739627E+04  0.10100000352E+00 0. -1.
</event>
<event>
 5   0  0.1258262E-06  0.3097247E+04  0.7818609E-02  0.8216494E-01
        2   -1    0    0  501    0  0.00000000000E+00  0.00000000000E+00  0.24478841159E+04  0.24478841159E+04  0.25500000920E-02 0.  1.
       -2   -1    0    0    0  501  0.00000000000E+00  0.00000000000E+00 -0.97971738340E+03  0.97971738340E+03  0.25500000920E-02 0. -1.
    10030    2    1    2    0    0  0.00000000000E+00  0.00000000000E+00  0.14681667325E+04  0.34276014993E+04  0.30972469200E+04 0.  0.
        1    1    3    3  502    0 -0.78504448671E+02  0.19928452528E+03 -0.96324606867E+03  0.98677264824E+03  0.50400001928E-02 0. -1.
       -1    1    3    3    0  502  0.78504448671E+02 -0.19928452528E+03  0.24314128012E+04  0.24408288511E+04  0.50400001928E-02 0.  1.
</event>
<event>
 5   0  0.3902375E-07  0.3149038E+04  0.7818609E-02  0.8202407E-01
        3   -1    0    0  501    0  0.00000000000E+00  0.00000000000E+00  0.15308114615E+04  0.15308114648E+04  0.10100000352E+00 0. -1.
       -3   -1    0    0    0  501  0.00000000000E+00  0.00000000000E+00 -0.16194742833E+04  0.16194742865E+04  0.10100000352E+00 0.  1.
    10030    2    1    2    0    0  0.00000000000E+00  0.00000000000E+00 -0.88662821815E+02  0.31502857513E+04  0.31490378243E+04 0.  0.
        4    1    3    3  502    0 -0.99625432394E+02 -0.53214573591E+03  0.14347685856E+04  0.15335145315E+04  0.12699999809E+01 0. -1.
       -4    1    3    3    0  502  0.99625432394E+02  0.53214573591E+03 -0.15234314075E+04  0.16167712198E+04  0.12699999809E+01 0.  1.
</event>
<event>
 5   0  0.4134019E-07  0.3096671E+04  0.7818609E-02  0.8216652E-01
       -1   -1    0    0    0  501  0.00000000000E+00  0.00000000000E+00  0.98602388373E+03  0.98602388374E+03  0.50400001928E-02 0.  1.
        1   -1    0    0  501    0  0.00000000000E+00  0.00000000000E+00 -0.24313237528E+04  0.24313237529E+04  0.50400001928E-02 0. -1.
    10030    2    1    2    0    0  0.00000000000E+00  0.00000000000E+00 -0.14452998691E+04  0.34173476366E+04  0.30966713028E+04 0.  0.
        2    1    3    3  502    0  0.12348765190E+04  0.50957514186E+03  0.14119938550E+03  0.13433257642E+04  0.25500000920E-02 0. -1.
       -2    1    3    3    0  502 -0.12348765190E+04 -0.50957514186E+03 -0.15864992546E+04  0.20740218724E+04  0.25500000920E-02 0.  1.
</event>
<event>
 5   0  0.3935852E-07  0.3094569E+04  0.7818609E-02  0.8217230E-01
       -1   -1    0    0    0  501  0.00000000000E+00  0.00000000000E+00  0.10073906192E+04  0.10073906192E+04  0.50400001928E-02 0. -1.
        1   -1    0    0  501    0  0.00000000000E+00  0.00000000000E+00 -0.23765260893E+04  0.23765260893E+04  0.50400001928E-02 0.  1.
    10030    2    1    2    0    0  0.00000000000E+00  0.00000000000E+00 -0.13691354701E+04  0.33839167085E+04  0.30945694942E+04 0.  0.
        5    1    3    3  502    0 -0.73601283574E+03 -0.26191067877E+03  0.77588375508E+03  0.11010584859E+04  0.46999998093E+01 0. -1.
       -5    1    3    3    0  502  0.73601283574E+03  0.26191067877E+03 -0.21450192252E+04  0.22828582226E+04  0.46999998093E+01 0.  1.
</event>
<event>
 5   0  0.4134019E-07  0.3109438E+04  0.7818609E-02  0.8213153E-01
        1   -1    0    0  501    0  0.00000000000E+00  0.00000000000E+00  0.14796424734E+04  0.14796424734E+04  0.50400001928E-02 0. -1.
       -1   -1    0    0    0  501  0.00000000000E+00  0.00000000000E+00 -0.16336044403E+04  0.16336044403E+04  0.50400001928E-02 0.  1.
    10030    2    1    2    0    0  0.00000000000E+00  0.00000000000E+00 -0.15396196697E+03  0.31132469137E+04  0.31094375791E+04 0.  0.
        2    1    3    3  502    0  0.12313275725E+04  0.45457827372E+03  0.75731142206E+03  0.15153645065E+04  0.25500000920E-02 0. -1.
       -2    1    3    3    0  502 -0.12313275725E+04 -0.45457827372E+03 -0.91127338902E+03  0.15978824072E+04  0.25500000920E-02 0.  1.
</event>
<event>
 5   0  0.3935852E-07  0.3104019E+04  0.7818609E-02  0.8214636E-01
       -1   -1    0    0    0  501  0.00000000000E+00  0.00000000000E+00  0.12917457910E+04  0.12917457910E+04  0.50400001928E-02 0. -1.
        1   -1    0    0  501    0  0.00000000000E+00  0.00000000000E+00 -0.18647121906E+04  0.18647121906E+04  0.50400001928E-02 0.  1.
    10030    2    1    2    0    0  0.00000000000E+00  0.00000000000E+00 -0.57296639954E+03  0.31564579816E+04  0.31040194095E+04 0.  0.
        5    1    3    3  502    0  0.22576346447E+03 -0.19813529151E+03  0.12618975286E+04  0.12971639058E+04  0.46999998093E+01 0. -1.
       -5    1    3    3    0  502 -0.22576346447E+03  0.19813529151E+03 -0.18348639282E+04  0.18592940759E+04  0.46999998093E+01 0.  1.
</event>
<event>
 5   0  0.4134019E-07  0.3090659E+04  0.7818609E-02  0.8218306E-01
        1   -1    0    0  501    0  0.00000000000E+00  0.00000000000E+00  0.17102862660E+04  0.17102862660E+04  0.50400001928E-02 0. -1.
       -1   -1    0    0    0  501  0.00000000000E+00  0.00000000000E+00 -0.13962830481E+04  0.13962830481E+04  0.50400001928E-02 0.  1.
    10030    2    1    2    0    0  0.00000000000E+00  0.00000000000E+00  0.31400321789E+03  0.31065693141E+04  0.30906592958E+04 0.  0.
        2    1    3    3  502    0 -0.69126120554E+03 -0.12446223141E+04  0.76102514217E+03  0.16143376432E+04  0.25500000920E-02 0. -1.
       -2    1    3    3    0  502  0.69126120554E+03  0.12446223141E+04 -0.44702192429E+03  0.14922316710E+04  0.25500000920E-02 0.  1.
</event>
<event>
 5   0  0.1193123E-06  0.3055761E+04  0.7818609E-02  0.8227985E-01
        2   -1    0    0  501    0  0.00000000000E+00  0.00000000000E+00  0.30887783959E+04  0.30887783959E+04  0.25500000920E-02 0. -1.
       -2   -1    0    0    0  501  0.00000000000E+00  0.00000000000E+00 -0.75577420177E+03  0.75577420177E+03  0.25500000920E-02 0.  1.
    10030    2    1    2    0    0  0.00000000000E+00  0.00000000000E+00  0.23330041942E+04  0.38445525977E+04  0.30557611337E+04 0.  0.
        3    1    3    3  502    0  0.14359629378E+04 -0.52090289797E+03  0.12080324539E+04  0.19474783202E+04  0.10100000352E+00 0.  1.
       -3    1    3    3    0  502 -0.14359629378E+04  0.52090289797E+03  0.11249717403E+04  0.18970742775E+04  0.10100000352E+00 0. -1.
</event>
<event>
 5   0  0.1176002E-06  0.3102954E+04  0.7818609E-02  0.8214928E-01
       -2   -1    0    0    0  501  0.00000000000E+00  0.00000000000E+00  0.12905329178E+04  0.12905329178E+04  0.25500000920E-02 0.  1.
        2   -1    0    0  501    0  0.00000000000E+00  0.00000000000E+00 -0.18651836745E+04  0.18651836745E+04  0.25500000920E-02 0. -1.
    10030    2    1    2    0    0  0.00000000000E+00  0.00000000000E+00 -0.57465075676E+03  0.31557165923E+04  0.31029540311E+04 0.  0.
        2    1    3    3  502    0 -0.13936285625E+04 -0.40951056613E+03 -0.84173850518E+03  0.16788160069E+04  0.25500000920E-02 0.  1.
       -2    1    3    3    0  502  0.13936285625E+04  0.40951056613E+03  0.26708774843E+03  0.14769005854E+04  0.25500000920E-02 0. -1.
</event>
<event>
 5   0  0.1258262E-06  0.3093643E+04  0.7818609E-02  0.8217485E-01
        2   -1    0    0  501    0  0.00000000000E+00  0.00000000000E+00  0.18230437759E+04  0.18230437759E+04  0.25500000920E-02 0. -1.
       -2   -1    0    0    0  501  0.00000000000E+00  0.00000000000E+00 -0.13124520005E+04  0.13124520005E+04  0.25500000920E-02 0.  1.
    10030    2    1    2    0    0  0.00000000000E+00  0.00000000000E+00  0.51059177539E+03  0.31354957764E+04  0.30936434512E+04 0.  0.
        1    1    3    3  502    0 -0.12257241929E+04 -0.90913720699E+03  0.51115350686E+03  0.16094123666E+04  0.50400001928E-02 0. -1.
       -1    1    3    3    0  502  0.12257241929E+04  0.90913720699E+03 -0.56173146454E+00  0.15260834098E+04  0.50400001928E-02 0.  1.
</event>
<event>
 5   0  0.4134019E-07  0.3026705E+04  0.7818609E-02  0.8236146E-01
       -1   -1    0    0    0  501  0.00000000000E+00  0.00000000000E+00  0.11803654350E+04  0.11803654350E+04  0.50400001928E-02 0.  1.
        1   -1    0    0  501    0  0.00000000000E+00  0.00000000000E+00 -0.19402770830E+04  0.19402770830E+04  0.50400001928E-02 0. -1.
    10030    2    1    2    0    0  0.00000000000E+00  0.00000000000E+00 -0.75991164798E+03  0.31206425180E+04  0.30267051413E+04 0.  0.
        2    1    3    3  502    0 -0.59559453194E+03 -0.11327782417E+04  0.45277209593E+03  0.13575426189E+04  0.25500000920E-02 0.  1.
       -2    1    3    3    0  502  0.59559453194E+03  0.11327782417E+04 -0.12126837439E+04  0.17630998991E+04  0.25500000920E-02 0. -1.
</event>
<event>
 5   0  0.1237580E-06  0.3122281E+04  0.7818609E-02  0.8209650E-01
       -2   -1    0    0    0  501  0.00000000000E+00  0.00000000000E+00  0.15116564841E+04  0.15116564841E+04  0.25500000920E-02 0. -1.
        2   -1    0    0  501    0  0.00000000000E+00  0.00000000000E+00 -0.16122445091E+04  0.16122445091E+04  0.25500000920E-02 0.  1.
    10030    2    1    2    0    0  0.00000000000E+00  0.00000000000E+00 -0.10058802506E+03  0.31239009932E+04  0.31222811315E+04 0.  0.
        4    1    3    3  502    0 -0.12043522990E+04  0.23357827863E+03  0.91567825844E+03  0.15308466802E+04  0.12699999809E+01 0. -1.
       -4    1    3    3    0  502  0.12043522990E+04 -0.23357827863E+03 -0.10162662835E+04  0.15930543130E+04  0.12699999809E+01 0.  1.
</event>
<event>
 5   0  0.4330395E-07  0.3215769E+04  0.7818609E-02  0.8184665E-01
        1   -1    0    0  501    0  0.00000000000E+00  0.00000000000E+00  0.25191747503E+04  0.25191747503E+04  0.50400001928E-02 0. -1.
       -1   -1    0    0    0  501  0.00000000000E+00  0.00000000000E+00 -0.10262460505E+04  0.10262460505E+04  0.50400001928E-02 0.  1.
    10030    2    1    2    0    0  0.00000000000E+00  0.00000000000E+00  0.14929286998E+04  0.35454208008E+04  0.32157693562E+04 0.  0.
        1    1    3    3  502    0 -0.88145624922E+03  0.57856018087E+03 -0.59189313764E+03  0.12091461816E+04  0.50400001928E-02 0.  1.
       -1    1    3    3    0  502  0.88145624922E+03 -0.57856018087E+03  0.20848218375E+04  0.23362746192E+04  0.50400001928E-02 0. -1.
</event>
<event>
 5   0  0.4219337E-07  0.3092240E+04  0.7818609E-02  0.8217871E-01
        1   -1    0    0  501    0  0.00000000000E+00  0.00000000000E+00  0.11479933250E+04  0.11479933250E+04  0.50400001928E-02 0. -1.
       -1   -1    0    0    0  501  0.00000000000E+00  0.00000000000E+00 -0.20823172370E+04  0.20823172370E+04  0.50400001928E-02 0.  1.
    10030    2    1    2    0    0  0.00000000000E+00  0.00000000000E+00 -0.93432391203E+03  0.32303105620E+04  0.30922395047E+04 0.  0.
        4    1    3    3  502    0 -0.69539611257E+03  0.13685414115E+04 -0.27452843605E+03  0.15594386245E+04  0.12699999809E+01 0. -1.
       -4    1    3    3    0  502  0.69539611257E+03 -0.13685414115E+04 -0.65979547598E+03  0.16708719375E+04  0.12699999809E+01 0.  1.
</event>
<event>
 5   0  0.1193123E-06  0.3078688E+04  0.7818609E-02  0.8221611E-01
       -2   -1    0    0    0  501  0.00000000000E+00  0.00000000000E+00  0.13841563575E+04  0.13841563575E+04  0.25500000920E-02 0.  1.
        2   -1    0    0  501    0  0.00000000000E+00  0.00000000000E+00 -0.17119309557E+04  0.17119309557E+04  0.25500000920E-02 0. -1.
    10030    2    1    2    0    0  0.00000000000E+00  0.00000000000E+00 -0.32777459818E+03  0.30960873132E+04  0.30786881075E+04 0.  0.
        3    1    3    3  502    0 -0.12851972149E+04  0.78980375750E+03  0.14453512836E+03  0.15153917876E+04  0.10100000352E+00 0. -1.
       -3    1    3    3    0  502  0.12851972149E+04 -0.78980375750E+03 -0.47230972654E+03  0.15806955255E+04  0.10100000352E+00 0.  1.
</event>
<event>
 5   0  0.3935852E-07  0.3058205E+04  0.7818609E-02  0.8227303E-01
        1   -1    0    0  501    0  0.00000000000E+00  0.00000000000E+00  0.20446465258E+04  0.20446465258E+04  0.50400001928E-02 0. -1.
       -1   -1    0    0    0  501  0.00000000000E+00  0.00000000000E+00 -0.11435493152E+04  0.11435493152E+04  0.50400001928E-02 0.  1.
    10030    2    1    2    0    0  0.00000000000E+00  0.00000000000E+00  0.90109721054E+03  0.31881958410E+04  0.30582047900E+04 0.  0.
        5    1    3    3  502    0 -0.13923406841E+04  0.63132468025E+03  0.41843990451E+03  0.15850228630E+04  0.46999998093E+01 0. -1.
       -5    1    3    3    0  502  0.13923406841E+04 -0.63132468025E+03  0.48265730603E+03  0.16031729780E+04  0.46999998093E+01 0.  1.
</event>
<event>
 5   0  0.1193123E-06  0.3096158E+04  0.7818609E-02  0.8216793E-01
       -2   -1    0    0    0  501  0.00000000000E+00  0.00000000000E+00  0.10755932701E+04  0.10755932701E+04  0.25500000920E-02 0.  1.
        2   -1    0    0  501    0  0.00000000000E+00  0.00000000000E+00 -0.22281180060E+04  0.22281180060E+04  0.25500000920E-02 0. -1.
    10030    2    1    2    0    0  0.00000000000E+00  0.00000000000E+00 -0.11525247359E+04  0.33037112760E+04  0.30961580916E+04 0.  0.
        3    1    3    3  502    0 -0.39581162756E+03  0.14138788063E+04 -0.10999025761E+04  0.18345314962E+04  0.10100000352E+00 0. -1.
       -3    1    3    3    0  502  0.39581162756E+03 -0.14138788063E+04 -0.52622159755E+02  0.14691797798E+04  0.10100000352E+00 0.  1.
</event>
<event>
 5   0  0.4219337E-07  0.3103338E+04  0.7818609E-02  0.8214822E-01
       -1   -1    0    0    0  501  0.00000000000E+00  0.00000000000E+00  0.10752540461E+04  0.10752540461E+04  0.50400001928E-02 0.  1.
        1   -1    0    0  501    0  0.00000000000E+00  0.00000000000E+00 -0.22391699495E+04  0.22391699495E+04  0.50400001928E-02 0. -1.
    10030    2    1    2    0    0  0.00000000000E+00  0.00000000000E+00 -0.11639159034E+04  0.33144239956E+04  0.31033379114E+04 0.  0.
        4    1    3    3  502    0  0.41596910761E+03 -0.12554873350E+04 -0.14485658672E+04  0.19615359878E+04  0.12699999809E+01 0. -1.
       -4    1    3    3    0  502 -0.41596910761E+03  0.12554873350E+04  0.28464996387E+03  0.13528880078E+04  0.12699999809E+01 0.  1.
</event>
<event>
 5   0  0.3935852E-07  0.3315968E+04  0.7818609E-02  0.8158844E-01
        1   -1    0    0  501    0  0.00000000000E+00  0.00000000000E+00  0.32044516437E+04  0.32044516437E+04  0.50400001928E-02 0.  1.
       -1   -1    0    0    0  501  0.00000000000E+00  0.00000000000E+00 -0.85784127227E+03  0.85784127228E+03  0.50400001928E-02 0. -1.
    10030    2    1    2    0    0  0.00000000000E+00  0.00000000000E+00  0.23466103715E+04  0.40622929160E+04  0.33159679582E+04 0.  0.
        5    1    3    3  502    0  0.83402162200E+03 -0.11168876331E+04  0.22730460648E+04  0.26664190506E+04  0.46999998093E+01 0.  1.
       -5    1    3    3    0  502 -0.83402162200E+03  0.11168876331E+04  0.73564306707E+02  0.13958738654E+04  0.46999998093E+01 0. -1.
</event>
<event>
 5   0  0.1200286E-06  0.3099143E+04  0.7818609E-02  0.8215973E-01
       -2   -1    0    0    0  501  0.00000000000E+00  0.00000000000E+00  0.12040541926E+04  0.12040541926E+04  0.25500000920E-02 0. -1.
        2   -1    0    0  501    0  0.00000000000E+00  0.00000000000E+00 -0.19942395141E+04  0.19942395141E+04  0.25500000920E-02 0.  1.
    10030    2    1    2    0    0  0.00000000000E+00  0.00000000000E+00 -0.79018532144E+03  0.31982937067E+04  0.30991433965E+04 0.  0.
        5    1    3    3  502    0  0.36479692462E+03  0.42507605428E+03  0.10959080067E+04  0.12307732924E+04  0.46999998093E+01 0. -1.
       -5    1    3    3    0  502 -0.36479692462E+03 -0.42507605428E+03 -0.18860933281E+04  0.19675204143E+04  0.46999998093E+01 0.  1.
</event>
<event>
 5   0  0.4330395E-07  0.3120796E+04  0.7818609E-02  0.8210054E-01
        1   -1    0    0  501    0  0.00000000000E+00  0.00000000000E+00  0.20486668825E+04  0.20486668825E+04  0.50400001928E-02 0. -1.
       -1   -1    0    0    0  501  0.00000000000E+00  0.00000000000E+00 -0.11885007984E+04  0.11885007985E+04  0.50400001928E-02 0.  1.
    10030    2    1    2    0    0  0.00000000000E+00  0.00000000000E+00  0.86016608403E+03  0.32371676809E+04  0.31207961969E+04 0.  0.
        1    1    3    3  502    0 -0.12841818959E+04  0.82112766206E+03  0.77640159796E+03  0.17106060974E+04  0.50400001928E-02 0.  1.
       -1    1    3    3    0  502  0.12841818959E+04 -0.82112766206E+03  0.83764486067E+02  0.15265615835E+04  0.50400001928E-02 0. -1.
</event>
<event>
 5   0  0.1200286E-06  0.3104228E+04  0.7818609E-02  0.8214579E-01
        2   -1    0    0  501    0  0.00000000000E+00  0.00000000000E+00  0.23516336258E+04  0.23516336258E+04  0.25500000920E-02 0.  1.
       -2   -1    0    0    0  501  0.00000000000E+00  0.00000000000E+00 -0.10244188863E+04  0.10244188864E+04  0.25500000920E-02 0. -1.
    10030    2    1    2    0    0  0.00000000000E+00  0.00000000000E+00  0.13272147394E+04  0.33760525121E+04  0.31042280200E+04 0.  0.
        5    1    3    3  502    0 -0.94357014279E+02 -0.10846915617E+03 -0.10171542019E+04  0.10272748242E+04  0.46999998093E+01 0. -1.
       -5    1    3    3    0  502  0.94357014279E+02  0.10846915617E+03  0.23443689414E+04  0.23487776879E+04  0.46999998093E+01 0.  1.
</event>
<event>
 5   0  0.4134019E-07  0.3100617E+04  0.7818609E-02  0.8215569E-01
       -1   -1    0    0    0  501  0.00000000000E+00  0.00000000000E+00  0.15696978809E+04  0.15696978809E+04  0.50400001928E-02 0. -1.
        1   -1    0    0  501    0  0.00000000000E+00  0.00000000000E+00 -0.15311582615E+04  0.15311582615E+04  0.50400001928E-02 0.  1.
    10030    2    1    2    0    0  0.00000000000E+00  0.00000000000E+00  0.38539619341E+02  0.31008561424E+04  0.31006166344E+04 0.  0.
        2    1    3    3  502    0 -0.14182719702E+04 -0.19305497240E+03 -0.57633498621E+03  0.15430254762E+04  0.25500000920E-02 0.  1.
       -2    1    3    3    0  502  0.14182719702E+04  0.19305497240E+03  0.61487460555E+03  0.15578306662E+04  0.25500000920E-02 0. -1.
</event>
<event>
 5   0  0.4173905E-07  0.3063962E+04  0.7818609E-02  0.8225698E-01
        1   -1    0    0  501    0  0.00000000000E+00  0.00000000000E+00  0.11641151590E+04  0.11641151590E+04  0.50400001928E-02 0.  1.
       -1   -1    0    0    0  501  0.00000000000E+00  0.00000000000E+00 -0.20160947152E+04  0.20160947152E+04  0.50400001928E-02 0. -1.
    10030    2    1    2    0    0  0.00000000000E+00  0.00000000000E+00 -0.85197955625E+03  0.31802098742E+04  0.30639624148E+04 0.  0.
        3    1    3    3  502    0  0.51440667656E+03  0.33602687416E+03 -0.18826005525E+04  0.19803315732E+04  0.10100000352E+00 0. -1.
       -3    1    3    3    0  502 -0.51440667656E+03 -0.33602687416E+03  0.10306209963E+04  0.11998783010E+04  0.10100000352E+00 0.  1.
</event>
<event>
 5   0  0.3935852E-07  0.3098443E+04  0.7818609E-02  0.8216165E-01
       -1   -1    0    0    0  501  0.00000000000E+00  0.00000000000E+00  0.18876608680E+04  0.18876608680E+04  0.50400001928E-02 0. -1.
        1   -1    0    0  501    0  0.00000000000E+00  0.00000000000E+00 -0.12714611994E+04  0.12714611994E+04  0.50400001928E-02 0.  1.
    10030    2    1    2    0    0  0.00000000000E+00  0.00000000000E+00  0.61619966857E+03  0.31591220674E+04  0.30984431906E+04 0.  0.
        5    1    3    3  502    0 -0.77138993293E+03  0.97046144100E+03 -0.63919579660E+03  0.13947871499E+04  0.46999998093E+01 0.  1.
       -5    1    3    3    0  502  0.77138993293E+03 -0.97046144100E+03  0.12553954652E+04  0.17643349175E+04  0.46999998093E+01 0. -1.
</event>
<event>
 5   0  0.1176002E-06  0.3099702E+04  0.7818609E-02  0.8215820E-01
        2   -1    0    0  501    0  0.00000000000E+00  0.00000000000E+00  0.15710385556E+04  0.15710385556E+04  0.25500000920E-02 0. -1.
       -2   -1    0    0    0  501  0.00000000000E+00  0.00000000000E+00 -0.15289492571E+04  0.15289492571E+04  0.25500000920E-02 0.  1.
    10030    2    1    2    0    0  0.00000000000E+00  0.00000000000E+00  0.42089298530E+02  0.30999878127E+04  0.30997020712E+04 0.  0.
        2    1    3    3  502    0 -0.12454935802E+04 -0.49150068160E+03 -0.75954703518E+03  0.15393956207E+04  0.25500000920E-02 0.  1.
       -2    1    3    3    0  502  0.12454935802E+04  0.49150068160E+03  0.80163633371E+03  0.15605921921E+04  0.25500000920E-02 0. -1.
</event>
<event>
 5   0  0.1258262E-06  0.3099210E+04  0.7818609E-02  0.8215955E-01
       -2   -1    0    0    0  501  0.00000000000E+00  0.00000000000E+00  0.14084240925E+04  0.14084240925E+04  0.25500000920E-02 0.  1.
        2   -1    0    0  501    0  0.00000000000E+00  0.00000000000E+00 -0.17049379498E+04  0.17049379498E+04  0.25500000920E-02 0. -1.
    10030    2    1    2    0    0  0.00000000000E+00  0.00000000000E+00 -0.29651385727E+03  0.31133620423E+04  0.30992100185E+04 0.  0.
        1    1    3    3  502    0 -0.10421787901E+04  0.51511036096E+03  0.88101938767E+03  0.14586536518E+04  0.50400001928E-02 0.  1.
       -1    1    3    3    0  502  0.10421787901E+04 -0.51511036096E+03 -0.11775332449E+04  0.16547083905E+04  0.50400001928E-02 0. -1.
</event>
<event>
 5   0  0.4330395E-07  0.3132550E+04  0.7818609E-02  0.8206861E-01
        1   -1    0    0  501    0  0.00000000000E+00  0.00000000000E+00  0.23582270581E+04  0.23582270582E+04  0.50400001928E-02 0.  1.
       -1   -1    0    0    0  501  0.00000000000E+00  0.00000000000E+00 -0.10402803460E+04  0.10402803460E+04  0.50400001928E-02 0. -1.
    10030    2    1    2    0    0  0.00000000000E+00  0.00000000000E+00  0.13179467122E+04  0.33985074042E+04  0.31325499262E+04 0.  0.
        1    1    3    3  502    0  0.88864012826E+03 -0.16495078729E+03  0.20467682857E+04  0.22374428384E+04  0.50400001928E-02 0.  1.
       -1    1    3    3    0  502 -0.88864012826E+03  0.16495078729E+03 -0.72882157353E+03  0.11610645658E+04  0.50400001928E-02 0. -1.
</event>
<event>
 5   0  0.4173905E-07  0.3132317E+04  0.7818609E-02  0.8206924E-01
        1   -1    0    0  501    0  0.00000000000E+00  0.00000000000E+00  0.14505948112E+04  0.14505948112E+04  0.50400001928E-02 0. -1.
       -1   -1    0    0    0  501  0.00000000000E+00  0.00000000000E+00 -0.16909284319E+04  0.16909284319E+04  0.50400001928E-02 0.  1.
    10030    2    1    2    0    0  0.00000000000E+00  0.00000000000E+00 -0.24033362071E+03  0.31415232432E+04  0.31323167206E+04 0.  0.
        3    1    3    3  502    0 -0.12302167133E+04 -0.36389942143E+03  0.78080315299E+03  0.15018353853E+04  0.10100000352E+00 0. -1.
       -3    1    3    3    0  502  0.12302167133E+04  0.36389942143E+03 -0.10211367737E+04  0.16396878579E+04  0.10100000352E+00 0.  1.
</event>
<event>
 5   0  0.4173905E-07  0.3083009E+04  0.7818609E-02  0.8220416E-01
       -1   -1    0    0    0  501  0.00000000000E+00  0.00000000000E+00  0.11389221706E+04  0.11389221707E+04  0.50400001928E-02 0.  1.
        1   -1    0    0  501    0  0.00000000000E+00  0.00000000000E+00 -0.20863903231E+04  0.20863903231E+04  0.50400001928E-02 0. -1.
    10030    2    1    2    0    0  0.00000000000E+00  0.00000000000E+00 -0.94746815242E+03  0.32253124937E+04  0.30830090467E+04 0.  0.
        3    1    3    3  502    0 -0.88734068213E+03 -0.26174963536E+03 -0.17636718613E+04  0.19915885123E+04  0.10100000352E+00 0. -1.
       -3    1    3    3    0  502  0.88734068213E+03  0.26174963536E+03  0.81620370887E+03  0.12337239814E+04  0.10100000352E+00 0.  1.
</event>
<event>
 5   0  0.4219337E-07  0.3100677E+04  0.7818609E-02  0.8215552E-01
        1   -1    0    0  501    0  0.00000000000E+00  0.00000000000E+00  0.75065743925E+03  0.75065743927E+03  0.50400001928E-02 0.  1.
       -1   -1    0    0    0  501  0.00000000000E+00  0.00000000000E+00 -0.32019260811E+04  0.32019260811E+04  0.50400001928E-02 0. -1.
    10030    2    1    2    0    0  0.00000000000E+00  0.00000000000E+00 -0.24512686418E+04  0.39525835203E+04  0.31006771084E+04 0.  0.
        4    1    3    3  502    0 -0.12440189122E+04  0.37025686068E+03 -0.23064487885E+04  0.26465790794E+04  0.12699999809E+01 0.  1.
       -4    1    3    3    0  502  0.12440189122E+04 -0.37025686068E+03 -0.14481985329E+03  0.13060044409E+04  0.12699999809E+01 0. -1.
</event>
<event>
 5   0  0.1258262E-06  0.3090298E+04  0.7818609E-02  0.8218406E-01
       -2   -1    0    0    0  501  0.00000000000E+00  0.00000000000E+00  0.91947349229E+03  0.91947349230E+03  0.25500000920E-02 0. -1.
        2   -1    0    0  501    0  0.00000000000E+00  0.00000000000E+00 -0.25965780462E+04  0.25965780462E+04  0.25500000920E-02 0.  1.
    10030    2    1    2    0    0  0.00000000000E+00  0.00000000000E+00 -0.16771045539E+04  0.35160515385E+04  0.30902975159E+04 0.  0.
        1    1    3    3  502    0 -0.63985949278E+03 -0.25735446419E+03  0.73463323571E+03  0.10076395595E+04  0.50400001928E-02 0. -1.
       -1    1    3    3    0  502  0.63985949278E+03  0.25735446419E+03 -0.24117377897E+04  0.25084119791E+04  0.50400001928E-02 0.  1.
</event>
<event>
 5   0  0.1193123E-06  0.2926833E+04  0.7818609E-02  0.8264938E-01
       -2   -1    0    0    0  501  0.00000000000E+00  0.00000000000E+00  0.12319722562E+04  0.12319722562E+04  0.25500000920E-02 0.  1.
        2   -1    0    0  501    0  0.00000000000E+00  0.00000000000E+00 -0.17383414864E+04  0.17383414864E+04  0.25500000920E-02 0. -1.
    10030    2    1    2    0    0  0.00000000000E+00  0.00000000000E+00 -0.50636923015E+03  0.29703137426E+04  0.29268334309E+04 0.  0.
        3    1    3    3  502    0 -0.75414347529E+03 -0.11687929686E+04  0.20830042311E+03  0.14064844334E+04  0.10100000352E+00 0.  1.
       -3    1    3    3    0  502  0.75414347529E+03  0.11687929686E+04 -0.71466965326E+03  0.15638293092E+04  0.10100000352E+00 0. -1.
</event>
<event>
 5   0  0.4173905E-07  0.3060461E+04  0.7818609E-02  0.8226674E-01
        1   -1    0    0  501    0  0.00000000000E+00  0.00000000000E+00  0.14366515734E+04  0.14366515734E+04  0.50400001928E-02 0.  1.
       -1   -1    0    0    0  501  0.00000000000E+00  0.00000000000E+00 -0.16299047644E+04  0.16299047644E+04  0.50400001928E-02 0. -1.
    10030    2    1    2    0    0  0.00000000000E+00  0.00000000000E+00 -0.19325319098E+03  0.30665563378E+04  0.30604609092E+04 0.  0.
        3    1    3    3  502    0 -0.12110413087E+04  0.76067780640E+03 -0.64209438533E+03  0.15676533374E+04  0.10100000352E+00 0. -1.
       -3    1    3    3    0  502  0.12110413087E+04 -0.76067780640E+03  0.44884119436E+03  0.14989030004E+04  0.10100000352E+00 0.  1.
</event>
<event>
 5   0  0.1237580E-06  0.3098608E+04  0.7818609E-02  0.8216120E-01
        2   -1    0    0  501    0  0.00000000000E+00  0.00000000000E+00  0.13950649683E+04  0.13950649683E+04  0.25500000920E-02 0.  1.
       -2   -1    0    0    0  501  0.00000000000E+00  0.00000000000E+00 -0.17205961145E+04  0.17205961145E+04  0.25500000920E-02 0. -1.
    10030    2    1    2    0    0  0.00000000000E+00  0.00000000000E+00 -0.32553114617E+03  0.31156610828E+04  0.30986083095E+04 0.  0.
        4    1    3    3  502    0 -0.72742390289E+03  0.97835875121E+03 -0.11240659002E+04  0.16582693212E+04  0.12699999809E+01 0. -1.
       -4    1    3    3    0  502  0.72742390289E+03 -0.97835875121E+03  0.79853475405E+03  0.14573917616E+04  0.12699999809E+01 0.  1.
</event>
<event>
 5   0  0.4173905E-07  0.3097430E+04  0.7818609E-02  0.8216444E-01
        1   -1    0    0  501    0  0.00000000000E+00  0.00000000000E+00  0.19160261467E+04  0.19160261467E+04  0.50400001928E-02 0. -1.
       -1   -1    0    0    0  501  0.00000000000E+00  0.00000000000E+00 -0.12518187966E+04  0.12518187966E+04  0.50400001928E-02 0.  1.
    10030    2    1    2    0    0  0.00000000000E+00  0.00000000000E+00  0.66420735011E+03  0.31678449433E+04  0.30974296087E+04 0.  0.
        3    1    3    3  502    0 -0.10311063051E+04  0.98033228565E+03  0.95780089111E+03  0.17151134539E+04  0.10100000352E+00 0.  1.
       -3    1    3    3    0  502  0.10311063051E+04 -0.98033228565E+03 -0.29359354100E+03  0.14527314894E+04  0.10100000352E+00 0. -1.
</event>
<event>
 5   0  0.4173905E-07  0.3067172E+04  0.7818609E-02  0.8224806E-01
       -1   -1    0    0    0  501  0.00000000000E+00  0.00000000000E+00  0.88291230288E+03  0.88291230289E+03  0.50400001928E-02 0.  1.
        1   -1    0    0  501    0  0.00000000000E+00  0.00000000000E+00 -0.26637815728E+04  0.26637815728E+04  0.50400001928E-02 0. -1.
    10030    2    1    2    0    0  0.00000000000E+00  0.00000000000E+00 -0.17808692699E+04  0.35466938757E+04  0.30671716762E+04 0.  0.
        3    1    3    3  502    0 -0.13945594506E+03  0.14023172500E+04 -0.19092634518E+03  0.14221091764E+04  0.10100000352E+00 0.  1.
       -3    1    3    3    0  502  0.13945594506E+03 -0.14023172500E+04 -0.15899429248E+04  0.21245846993E+04  0.10100000352E+00 0. -1.
</event>
<event>
 5   0  0.1200286E-06  0.3033142E+04  0.7818609E-02  0.8234330E-01
       -2   -1    0    0    0  501  0.00000000000E+00  0.00000000000E+00  0.93719898299E+03  0.93719898300E+03  0.25500000920E-02 0. -1.
        2   -1    0    0  501    0  0.00000000000E+00  0.00000000000E+00 -0.24541077809E+04  0.24541077809E+04  0.25500000920E-02 0.  1.
    10030    2    1    2    0    0  0.00000000000E+00  0.00000000000E+00 -0.15169087979E+04  0.33913067639E+04  0.30331418143E+04 0.  0.
        5    1    3    3  502    0 -0.15507440582E+03 -0.17399568257E+03 -0.24339553728E+04  0.24450937437E+04  0.46999998093E+01 0.  1.
       -5    1    3    3    0  502  0.15507440582E+03  0.17399568257E+03  0.91704657492E+03  0.94621302013E+03  0.46999998093E+01 0. -1.
</event>
<event>
 5   0  0.4219337E-07  0.3125591E+04  0.7818609E-02  0.8208750E-01
        1   -1    0    0  501    0  0.00000000000E+00  0.00000000000E+00  0.20513201900E+04  0.20513201901E+04  0.50400001928E-02 0.  1.
       -1   -1    0    0    0  501  0.00000000000E+00  0.00000000000E+00 -0.11906133544E+04  0.11906133544E+04  0.50400001928E-02 0. -1.
    10030    2    1    2    0    0  0.00000000000E+00  0.00000000000E+00  0.86070683567E+03  0.32419335444E+04  0.31255906401E+04 0.  0.
        4    1    3    3  502    0 -0.19657159126E+03 -0.29949794741E+03  0.20081556980E+04  0.20398603705E+04  0.12699999809E+01 0.  1.
       -4    1    3    3    0  502  0.19657159126E+03  0.29949794741E+03 -0.11474488623E+04  0.12020731739E+04  0.12699999809E+01 0. -1.
</event>
<event>
 5   0  0.4173905E-07  0.3096852E+04  0.7818609E-02  0.8216602E-01
        1   -1    0    0  501    0  0.00000000000E+00  0.00000000000E+00  0.16717405021E+04  0.16717405021E+04  0.50400001928E-02 0. -1.
       -1   -1    0    0    0  501  0.00000000000E+00  0.00000000000E+00 -0.14342073676E+04  0.14342073676E+04  0.50400001928E-02 0.  1.
    10030    2    1    2    0    0  0.00000000000E+00  0.00000000000E+00  0.23753313454E+03  0.31059478697E+04  0.30968516560E+04 0.  0.
        3    1    3    3  502    0 -0.14885512933E+04  0.13882245017E+03 -0.28561234392E+03  0.15220483062E+04  0.10100000352E+00 0.  1.
       -3    1    3    3    0  502  0.14885512933E+04 -0.13882245017E+03  0.52314547846E+03  0.15838995635E+04  0.10100000352E+00 0. -1.
</event>
<event>
 5   0  0.1176002E-06  0.3089807E+04  0.7818609E-02  0.8218541E-01
       -2   -1    0    0    0  501  0.00000000000E+00  0.00000000000E+00  0.22923135864E+04  0.22923135864E+04  0.25500000920E-02 0.  1.
        2   -1    0    0  501    0  0.00000000000E+00  0.00000000000E+00 -0.10411867752E+04  0.10411867752E+04  0.25500000920E-02 0. -1.
    10030    2    1    2    0    0  0.00000000000E+00  0.00000000000E+00  0.12511268113E+04  0.33335003616E+04  0.30898068488E+04 0.  0.
        2    1    3    3  502    0 -0.72422525991E+03  0.51092148779E+03 -0.73961604137E+03  0.11543720728E+04  0.25500000920E-02 0. -1.
       -2    1    3    3    0  502  0.72422525991E+03 -0.51092148779E+03  0.19907428526E+04  0.21791282888E+04  0.25500000920E-02 0.  1.
</event>
<event>
 5   0  0.4330395E-07  0.3102285E+04  0.7818609E-02  0.8215111E-01
        1   -1    0    0  501    0  0.00000000000E+00  0.00000000000E+00  0.21658926523E+04  0.21658926523E+04  0.50400001928E-02 0.  1.
       -1   -1    0    0    0  501  0.00000000000E+00  0.00000000000E+00 -0.11108782382E+04  0.11108782382E+04  0.50400001928E-02 0. -1.
    10030    2    1    2    0    0  0.00000000000E+00  0.00000000000E+00  0.10550144140E+04  0.32767708905E+04  0.31022849732E+04 0.  0.
        1    1    3    3  502    0 -0.56238256135E+03  0.39052490123E+02 -0.99884579437E+03  0.11469490674E+04  0.50400001928E-02 0. -1.
       -1    1    3    3    0  502  0.56238256135E+03 -0.39052490123E+02  0.20538602084E+04  0.21298218231E+04  0.50400001928E-02 0.  1.
</event>
<event>
 5   0  0.1258262E-06  0.3097278E+04  0.7818609E-02  0.8216485E-01
       -2   -1    0    0    0  501  0.00000000000E+00  0.00000000000E+00  0.97395426173E+03  0.97395426173E+03  0.25500000920E-02 0.  1.
        2   -1    0    0  501    0  0.00000000000E+00  0.00000000000E+00 -0.24624179612E+04  0.24624179612E+04  0.25500000920E-02 0. -1.
    10030    2    1    2    0    0  0.00000000000E+00  0.00000000000E+00 -0.14884636995E+04  0.34363722230E+04  0.30972778161E+04 0.  0.
        1    1    3    3  502    0  0.86484254971E+03  0.11612076351E+04 -0.13459561913E+03  0.14541223430E+04  0.50400001928E-02 0.  1.
       -1    1    3    3    0  502 -0.86484254971E+03 -0.11612076351E+04 -0.13538680804E+04  0.19822498800E+04  0.50400001928E-02 0. -1.
</event>
<event>
 5   0  0.4134019E-07  0.3090229E+04  0.7818609E-02  0.8218425E-01
        1   -1    0    0  501    0  0.00000000000E+00  0.00000000000E+00  0.15860615085E+04  0.15860615085E+04  0.50400001928E-02 0.  1.
       -1   -1    0    0    0  501  0.00000000000E+00  0.00000000000E+00 -0.15052242159E+04  0.15052242159E+04  0.50400001928E-02 0. -1.
    10030    2    1    2    0    0  0.00000000000E+00  0.00000000000E+00  0.80837292604E+02  0.30912857245E+04  0.30902285939E+04 0.  0.
        2    1    3    3  502    0  0.86226663717E+03  0.12744600801E+04  0.18055918673E+03  0.15493075451E+04  0.25500000920E-02 0. -1.
       -2    1    3    3    0  502 -0.86226663717E+03 -0.12744600801E+04 -0.99721894125E+02  0.15419781794E+04  0.25500000920E-02 0.  1.
</event>
<event>
 5   0  0.4219337E-07  0.3090987E+04  0.7818609E-02  0.8218216E-01
       -1   -1    0    0    0  501  0.00000000000E+00  0.00000000000E+00  0.11178464836E+04  0.11178464836E+04  0.50400001928E-02 0. -1.
        1   -1    0    0  501    0  0.00000000000E+00  0.00000000000E+00 -0.21367425534E+04  0.21367425534E+04  0.50400001928E-02 0.  1.
    10030    2    1    2    0    0  0.00000000000E+00  0.00000000000E+00 -0.10188960698E+04  0.32545890369E+04  0.30909869942E+04 0.  0.
        4    1    3    3  502    0  0.24848381146E+03 -0.14670601385E+03 -0.21081259621E+04  0.21277837165E+04  0.12699999809E+01 0.  1.
       -4    1    3    3    0  502 -0.24848381146E+03  0.14670601385E+03  0.10892298923E+04  0.11268053205E+04  0.12699999809E+01 0. -1.
</event>
<event>
 5   0  0.1193123E-06  0.3091721E+04  0.7818609E-02  0.8218014E-01
        2   -1    0    0  501    0  0.00000000000E+00  0.00000000000E+00  0.10252921504E+04  0.10252921504E+04  0.25500000920E-02 0. -1.
       -2   -1    0    0    0  501  0.00000000000E+00  0.00000000000E+00 -0.23307353549E+04  0.23307353549E+04  0.25500000920E-02 0.  1.
    10030    2    1    2    0    0  0.00000000000E+00  0.00000000000E+00 -0.13054432046E+04  0.33560275053E+04  0.30917209861E+04 0.  0.
        3    1    3    3  502    0  0.21495841896E+03 -0.14924686687E+04 -0.28299395730E+03  0.15341953719E+04  0.10100000352E+00 0. -1.
       -3    1    3    3    0  502 -0.21495841896E+03  0.14924686687E+04 -0.10224492473E+04  0.18218321334E+04  0.10100000352E+00 0.  1.
</event>
<event>
 5   0  0.4173905E-07  0.3087806E+04  0.7818609E-02  0.8219093E-01
        1   -1    0    0  501    0  0.00000000000E+00  0.00000000000E+00  0.19684027973E+04  0.19684027973E+04  0.50400001928E-02 0. -1.
       -1   -1    0    0    0  501  0.00000000000E+00  0.00000000000E+00 -0.12109492740E+04  0.12109492740E+04  0.50400001928E-02 0.  1.
    10030    2    1    2    0    0  0.00000000000E+00  0.00000000000E+00  0.75745352331E+03  0.31793520713E+04  0.30878056534E+04 0.  0.
        3    1    3    3  502    0  0.12326631356E+04 -0.92956418405E+03  0.36907055598E+03  0.15873755270E+04  0.10100000352E+00 0.  1.
       -3    1    3    3    0  502 -0.12326631356E+04  0.92956418405E+03  0.38838296733E+03  0.15919765443E+04  0.10100000352E+00 0. -1.
</event>
<event>
 5   0  0.1176002E-06  0.3106307E+04  0.7818609E-02  0.8214009E-01
       -2   -1    0    0    0  501  0.00000000000E+00  0.00000000000E+00  0.15435970837E+04  0.15435970837E+04  0.25500000920E-02 0.  1.
        2   -1    0    0  501    0  0.00000000000E+00  0.00000000000E+00 -0.15627687893E+04  0.15627687893E+04  0.25500000920E-02 0. -1.
    10030    2    1    2    0    0  0.00000000000E+00  0.00000000000E+00 -0.19171705593E+02  0.31063658731E+04  0.31063067110E+04 0.  0.
        2    1    3    3  502    0  0.74804226379E+03 -0.82246207187E+03 -0.10941682905E+04  0.15598767054E+04  0.25500000920E-02 0. -1.
       -2    1    3    3    0  502 -0.74804226379E+03  0.82246207187E+03  0.10749965849E+04  0.15464891677E+04  0.25500000920E-02 0.  1.
</event>
<event>
 5   0  0.1193123E-06  0.3113305E+04  0.7818609E-02  0.8212096E-01
       -2   -1    0    0    0  501  0.00000000000E+00  0.00000000000E+00  0.11914129556E+04  0.11914129556E+04  0.25500000920E-02 0. -1.
        2   -1    0    0  501    0  0.00000000000E+00  0.00000000000E+00 -0.20338599317E+04  0.20338599317E+04  0.25500000920E-02 0.  1.
    10030    2    1    2    0    0  0.00000000000E+00  0.00000000000E+00 -0.84244697608E+03  0.32252728873E+04  0.31133050429E+04 0.  0.
        3    1    3    3  502    0 -0.71331007804E+03 -0.16600197998E+03  0.10017854410E+04  0.12409439974E+04  0.10100000352E+00 0. -1.
       -3    1    3    3    0  502  0.71331007804E+03  0.16600197998E+03 -0.18442324171E+04  0.19843288899E+04  0.10100000352E+00 0.  1.
</event>
<event>
 5   0  0.1176002E-06  0.3006203E+04  0.7818609E-02  0.8241962E-01
       -2   -1    0    0    0  501  0.00000000000E+00  0.00000000000E+00  0.15047866855E+04  0.15047866855E+04  0.25500000920E-02 0.  1.
        2   -1    0    0  501    0  0.00000000000E+00  0.00000000000E+00 -0.15014178589E+04  0.15014178589E+04  0.25500000920E-02 0. -1.
    10030    2    1    2    0    0  0.00000000000E+00  0.00000000000E+00  0.33688266099E+01  0.30062045443E+04  0.30062026567E+04 0.  0.
        2    1    3    3  502    0  0.10010208550E+04  0.10586786954E+04  0.37110347409E+03  0.15035162522E+04  0.25500000920E-02 0.  1.
       -2    1    3    3    0  502 -0.10010208550E+04 -0.10586786954E+04 -0.36773464748E+03  0.15026882921E+04  0.25500000920E-02 0. -1.
</event>
<event>
 5   0  0.1176002E-06  0.3103333E+04  0.7818609E-02  0.8214824E-01
       -2   -1    0    0    0  501  0.00000000000E+00  0.00000000000E+00  0.15102172114E+04  0.15102172114E+04  0.25500000920E-02 0.  1.
        2   -1    0    0  501    0  0.00000000000E+00  0.00000000000E+00 -0.15942530835E+04  0.15942530835E+04  0.25500000920E-02 0. -1.
    10030    2    1    2    0    0  0.00000000000E+00  0.00000000000E+00 -0.84035872099E+02  0.31044702950E+04  0.31033326899E+04 0.  0.
        2    1    3    3  502    0 -0.79680629735E+03 -0.89467783491E+03 -0.10284421499E+04  0.15789369714E+04  0.25500000920E-02 0. -1.
       -2    1    3    3    0  502  0.79680629735E+03  0.89467783491E+03  0.94440627783E+03  0.15255333236E+04  0.25500000920E-02 0.  1.
</event>
<event>
 5   0  0.3935852E-07  0.2979657E+04  0.7818609E-02  0.8249564E-01
       -1   -1    0    0    0  501  0.00000000000E+00  0.00000000000E+00  0.18735841813E+04  0.18735841813E+04  0.50400001928E-02 0.  1.
        1   -1    0    0  501    0  0.00000000000E+00  0.00000000000E+00 -0.11846750639E+04  0.11846750639E+04  0.50400001928E-02 0. -1.
    10030    2    1    2    0    0  0.00000000000E+00  0.00000000000E+00  0.68890911744E+03  0.30582592453E+04  0.29796566646E+04 0.  0.
        5    1    3    3  502    0 -0.41469690270E+03  0.11490930965E+04  0.12196970822E+04  0.17262883675E+04  0.46999998093E+01 0.  1.
       -5    1    3    3    0  502  0.41469690270E+03 -0.11490930965E+04 -0.53078796478E+03  0.13319708777E+04  0.46999998093E+01 0. -1.
</event>
<event>
 5   0  0.4330395E-07  0.3083713E+04  0.7818609E-02  0.8220222E-01
        1   -1    0    0  501    0  0.00000000000E+00  0.00000000000E+00  0.15501165892E+04  0.15501165892E+04  0.50400001928E-02 0.  1.
       -1   -1    0    0    0  501  0.00000000000E+00  0.00000000000E+00 -0.15336402119E+04  0.15336402119E+04  0.50400001928E-02 0. -1.
    10030    2    1    2    0    0  0.00000000000E+00  0.00000000000E+00  0.16476377351E+02  0.30837568011E+04  0.30837127845E+04 0.  0.
        1    1    3    3  502    0  0.11129942409E+03 -0.94148359413E+03 -0.12077323800E+04  0.15353815231E+04  0.50400001928E-02 0. -1.
       -1    1    3    3    0  502 -0.11129942409E+03  0.94148359413E+03  0.12242087574E+04  0.15483752780E+04  0.50400001928E-02 0.  1.
</event>
<event>
 5   0  0.1176002E-06  0.3100930E+04  0.7818609E-02  0.8215483E-01
       -2   -1    0    0    0  501  0.00000000000E+00  0.00000000000E+00  0.11170209620E+04  0.11170209620E+04  0.25500000920E-02 0.  1.
        2   -1    0    0  501    0  0.00000000000E+00  0.00000000000E+00 -0.21521012045E+04  0.21521012045E+04  0.25500000920E-02 0. -1.
    10030    2    1    2    0    0  0.00000000000E+00  0.00000000000E+00 -0.10350802426E+04  0.32691221665E+04  0.31009302848E+04 0.  0.
        2    1    3    3  502    0  0.11551416023E+04 -0.94165595744E+03 -0.66707594650E+02  0.14918170017E+04  0.25500000920E-02 0.  1.
       -2    1    3    3    0  502 -0.11551416023E+04  0.94165595744E+03 -0.96837264791E+03  0.17773051648E+04  0.25500000920E-02 0. -1.
</event>
<event>
 5   0  0.1176002E-06  0.3152908E+04  0.7818609E-02  0.8201366E-01
       -2   -1    0    0    0  501  0.00000000000E+00  0.00000000000E+00  0.15447238844E+04  0.15447238844E+04  0.25500000920E-02 0.  1.
        2   -1    0    0  501    0  0.00000000000E+00  0.00000000000E+00 -0.16088357360E+04  0.16088357360E+04  0.25500000920E-02 0. -1.
    10030    2    1    2    0    0  0.00000000000E+00  0.00000000000E+00 -0.64111851641E+02  0.31535596204E+04  0.31529078562E+04 0.  0.
        2    1    3    3  502    0 -0.84296092206E+03 -0.80804881351E+03 -0.10913692782E+04  0.15983156455E+04  0.25500000920E-02 0. -1.
       -2    1    3    3    0  502  0.84296092206E+03  0.80804881351E+03  0.10272574265E+04  0.15552439749E+04  0.25500000920E-02 0.  1.
</event>
<event>
 5   0  0.1193123E-06  0.3102782E+04  0.7818609E-02  0.8214975E-01
        2   -1    0    0  501    0  0.00000000000E+00  0.00000000000E+00  0.14476157158E+04  0.14476157158E+04  0.25500000920E-02 0. -1.
       -2   -1    0    0    0  501  0.00000000000E+00  0.00000000000E+00 -0.16626056899E+04  0.16626056899E+04  0.25500000920E-02 0.  1.
    10030    2    1    2    0    0  0.00000000000E+00  0.00000000000E+00 -0.21498997413E+03  0.31102214057E+04  0.31027820586E+04 0.  0.
        3    1    3    3  502    0  0.41647701019E+03 -0.14642849582E+04 -0.40692607244E+03  0.15758084838E+04  0.10100000352E+00 0. -1.
       -3    1    3    3    0  502 -0.41647701019E+03  0.14642849582E+04  0.19193609830E+03  0.15344129219E+04  0.10100000352E+00 0.  1.
</event>
<event>
 5   0  0.4134019E-07  0.3105698E+04  0.7818609E-02  0.8214176E-01
        1   -1    0    0  501    0  0.00000000000E+00  0.00000000000E+00  0.12551841544E+04  0.12551841544E+04  0.50400001928E-02 0.  1.
       -1   -1    0    0    0  501  0.00000000000E+00  0.00000000000E+00 -0.19211040453E+04  0.19211040453E+04  0.50400001928E-02 0. -1.
    10030    2    1    2    0    0  0.00000000000E+00  0.00000000000E+00 -0.66591989095E+03  0.31762881997E+04  0.31056975749E+04 0.  0.
        2    1    3    3  502    0  0.60269547424E+03  0.10954368686E+04  0.60890419239E+03  0.13906790008E+04  0.25500000920E-02 0.  1.
       -2    1    3    3    0  502 -0.60269547424E+03 -0.10954368686E+04 -0.12748240833E+04  0.17856091989E+04  0.25500000920E-02 0. -1.
</event>
<event>
 5   0  0.4330395E-07  0.3098782E+04  0.7818609E-02  0.8216072E-01
        1   -1    0    0  501    0  0.00000000000E+00  0.00000000000E+00  0.26517671668E+04  0.26517671668E+04  0.50400001928E-02 0.  1.
       -1   -1    0    0    0  501  0.00000000000E+00  0.00000000000E+00 -0.90528765855E+03  0.90528765856E+03  0.50400001928E-02 0. -1.
    10030    2    1    2    0    0  0.00000000000E+00  0.00000000000E+00  0.17464795082E+04  0.35570548253E+04  0.30987817538E+04 0.  0.
        1    1    3    3  502    0  0.14183136238E+03 -0.11777677446E+04  0.20173100369E+04  0.23402548538E+04  0.50400001928E-02 0.  1.
       -1    1    3    3    0  502 -0.14183136238E+03  0.11777677446E+04 -0.27083052867E+03  0.12167999716E+04  0.50400001928E-02 0. -1.
</event>
<event>
 5   0  0.1176002E-06  0.3136798E+04  0.7818609E-02  0.8205711E-01
        2   -1    0    0  501    0  0.00000000000E+00  0.00000000000E+00  0.14074035337E+04  0.14074035337E+04  0.25500000920E-02 0.  1.
       -2   -1    0    0    0  501  0.00000000000E+00  0.00000000000E+00 -0.17478113051E+04  0.17478113051E+04  0.25500000920E-02 0. -1.
    10030    2    1    2    0    0  0.00000000000E+00  0.00000000000E+00 -0.34040777136E+03  0.31552148388E+04  0.31367982448E+04 0.  0.
        2    1    3    3  502    0 -0.13347377445E+04  0.79685752466E+02 -0.99477355304E+03  0.16665680567E+04  0.25500000920E-02 0. -1.
       -2    1    3    3    0  502  0.13347377445E+04 -0.79685752466E+02  0.65436578168E+03  0.14886467821E+04  0.25500000920E-02 0.  1.
</event>
<event>
 5   0  0.1200286E-06  0.3099130E+04  0.7818609E-02  0.8215977E-01
       -2   -1    0    0    0  501  0.00000000000E+00  0.00000000000E+00  0.95022019838E+03  0.95022019838E+03  0.25500000920E-02 0. -1.
        2   -1    0    0  501    0  0.00000000000E+00  0.00000000000E+00 -0.25269431451E+04  0.25269431451E+04  0.25500000920E-02 0.  1.
    10030    2    1    2    0    0  0.00000000000E+00  0.00000000000E+00 -0.15767229467E+04  0.34771633435E+04  0.30991304694E+04 0.  0.
        5    1    3    3  502    0  0.13641023900E+04  0.17914021612E+03  0.11527690561E+02  0.13758711877E+04  0.46999998093E+01 0. -1.
       -5    1    3    3    0  502 -0.13641023900E+04 -0.17914021612E+03 -0.15882506373E+04  0.21012921558E+04  0.46999998093E+01 0.  1.
</event>
<event>
 5   0  0.4134019E-07  0.3093997E+04  0.7818609E-02  0.8217387E-01
       -1   -1    0    0    0  501  0.00000000000E+00  0.00000000000E+00  0.28166270370E+04  0.28166270370E+04  0.50400001928E-02 0. -1.
        1   -1    0    0  501    0  0.00000000000E+00  0.00000000000E+00 -0.84967038589E+03  0.84967038591E+03  0.50400001928E-02 0.  1.
    10030    2    1    2    0    0  0.00000000000E+00  0.00000000000E+00  0.19669566511E+04  0.36662974230E+04  0.30939971438E+04 0.  0.
        2    1    3    3  502    0  0.41239226446E+03 -0.27959783137E+02 -0.78302535468E+03  0.88542522854E+03  0.25500000920E-02 0.  1.
       -2    1    3    3    0  502 -0.41239226446E+03  0.27959783137E+02  0.27499820058E+04  0.27808721944E+04  0.25500000920E-02 0. -1.
</event>
<event>
 5   0  0.3935852E-07  0.3096652E+04  0.7818609E-02  0.8216657E-01
        1   -1    0    0  501    0  0.00000000000E+00  0.00000000000E+00  0.22539754497E+04  0.22539754498E+04  0.50400001928E-02 0. -1.
       -1   -1    0    0    0  501  0.00000000000E+00  0.00000000000E+00 -0.10635934156E+04  0.10635934156E+04  0.50400001928E-02 0.  1.
    10030    2    1    2    0    0  0.00000000000E+00  0.00000000000E+00  0.11903820342E+04  0.33175688654E+04  0.30966520291E+04 0.  0.
        5    1    3    3  502    0 -0.46926918634E+03 -0.11348171592E+03  0.21712635676E+04  0.22242974710E+04  0.46999998093E+01 0. -1.
       -5    1    3    3    0  502  0.46926918634E+03  0.11348171592E+03 -0.98088153348E+03  0.10932713944E+04  0.46999998093E+01 0.  1.
</event>
<event>
 5   0  0.1237580E-06  0.3104131E+04  0.7818609E-02  0.8214605E-01
       -2   -1    0    0    0  501  0.00000000000E+00  0.00000000000E+00  0.88193207861E+03  0.88193207861E+03  0.25500000920E-02 0.  1.
        2   -1    0    0  501    0  0.00000000000E+00  0.00000000000E+00 -0.27313970885E+04  0.27313970885E+04  0.25500000920E-02 0. -1.
    10030    2    1    2    0    0  0.00000000000E+00  0.00000000000E+00 -0.18494650099E+04  0.36133291671E+04  0.31041306105E+04 0.  0.
        4    1    3    3  502    0 -0.12502900272E+04  0.91874175364E+03 -0.97119992927E+03  0.18304487093E+04  0.12699999809E+01 0.  1.
       -4    1    3    3    0  502  0.12502900272E+04 -0.91874175364E+03 -0.87826508061E+03  0.17828804578E+04  0.12699999809E+01 0. -1.
</event>
<event>
 5   0  0.4173905E-07  0.3074212E+04  0.7818609E-02  0.8222851E-01
       -1   -1    0    0    0  501  0.00000000000E+00  0.00000000000E+00  0.19613067654E+04  0.19613067654E+04  0.50400001928E-02 0. -1.
        1   -1    0    0  501    0  0.00000000000E+00  0.00000000000E+00 -0.12046537616E+04  0.12046537617E+04  0.50400001928E-02 0.  1.
    10030    2    1    2    0    0  0.00000000000E+00  0.00000000000E+00  0.75665300374E+03  0.31659605270E+04  0.30742124668E+04 0.  0.
        3    1    3    3  502    0 -0.45628139213E+03  0.25288015246E+03  0.18673527777E+04  0.19388521055E+04  0.10100000352E+00 0. -1.
       -3    1    3    3    0  502  0.45628139213E+03 -0.25288015246E+03 -0.11106997739E+04  0.12271084216E+04  0.10100000352E+00 0.  1.
</event>
<event>
 5   0  0.4134019E-07  0.3117642E+04  0.7818609E-02  0.8210913E-01
       -1   -1    0    0    0  501  0.00000000000E+00  0.00000000000E+00  0.18530564166E+04  0.18530564166E+04  0.50400001928E-02 0.  1.
        1   -1    0    0  501    0  0.00000000000E+00  0.00000000000E+00 -0.13113052994E+04  0.13113052995E+04  0.50400001928E-02 0. -1.
    10030    2    1    2    0    0  0.00000000000E+00  0.00000000000E+00  0.54175111716E+03  0.31643617161E+04  0.31176418648E+04 0.  0.
        2    1    3    3  502    0  0.36129136098E+03  0.15137696567E+04  0.18070347746E+03  0.15667430446E+04  0.25500000920E-02 0. -1.
       -2    1    3    3    0  502 -0.36129136098E+03 -0.15137696567E+04  0.36104763970E+03  0.15976186714E+04  0.25500000920E-02 0.  1.
</event>
<event>
 5   0  0.1176002E-06  0.3133795E+04  0.7818609E-02  0.8206524E-01
       -2   -1    0    0    0  501  0.00000000000E+00  0.00000000000E+00  0.19360559690E+04  0.19360559690E+04  0.25500000920E-02 0. -1.
        2   -1    0    0  501    0  0.00000000000E+00  0.00000000000E+00 -0.12681282782E+04  0.12681282782E+04  0.25500000920E-02 0.  1.
    10030    2    1    2    0    0  0.00000000000E+00  0.00000000000E+00  0.66792769079E+03  0.32041842471E+04  0.31337947108E+04 0.  0.
        2    1    3    3  502    0  0.11380654891E+04 -0.97190828351E+03  0.80846588447E+03  0.17010043667E+04  0.25500000920E-02 0.  1.
       -2    1    3    3    0  502 -0.11380654891E+04  0.97190828351E+03 -0.14053819368E+03  0.15031798804E+04  0.25500000920E-02 0. -1.
</event>
<event>
 5   0  0.1200286E-06  0.3080810E+04  0.7818609E-02  0.8221024E-01
       -2   -1    0    0    0  501  0.00000000000E+00  0.00000000000E+00  0.12025039066E+04  0.12025039066E+04  0.25500000920E-02 0. -1.
        2   -1    0    0  501    0  0.00000000000E+00  0.00000000000E+00 -0.19732558687E+04  0.19732558687E+04  0.25500000920E-02 0.  1.
    10030    2    1    2    0    0  0.00000000000E+00  0.00000000000E+00 -0.77075196207E+03  0.31757597753E+04  0.30808102122E+04 0.  0.
        5    1    3    3  502    0 -0.13281824741E+04 -0.45951847467E+03 -0.10353647085E+04  0.17456311417E+04  0.46999998093E+01 0.  1.
       -5    1    3    3    0  502  0.13281824741E+04  0.45951847467E+03  0.26461274642E+03  0.14301286336E+04  0.46999998093E+01 0. -1.
</event>
<event>
 5   0  0.4219337E-07  0.3100990E+04  0.7818609E-02  0.8215466E-01
       -1   -1    0    0    0  501  0.00000000000E+00  0.00000000000E+00  0.12684970652E+04  0.12684970652E+04  0.50400001928E-02 0.  1.
        1   -1    0    0  501    0  0.00000000000E+00  0.00000000000E+00 -0.18951831024E+04  0.18951831024E+04  0.50400001928E-02 0. -1.
    10030    2    1    2    0    0  0.00000000000E+00  0.00000000000E+00 -0.62668603725E+03  0.31636801676E+04  0.31009896507E+04 0.  0.
        4    1    3    3  502    0 -0.89488499613E+03  0.12409257316E+04 -0.57005823216E+03  0.16326922026E+04  0.12699999809E+01 0. -1.
       -4    1    3    3    0  502  0.89488499613E+03 -0.12409257316E+04 -0.56627805085E+02  0.15309879649E+04  0.12699999809E+01 0.  1.
</event>
<event>
 5   0  0.1200286E-06  0.3103637E+04  0.7818609E-02  0.8214741E-01
        2   -1    0    0  501    0  0.00000000000E+00  0.00000000000E+00  0.21293101089E+04  0.21293101089E+04  0.25500000920E-02 0.  1.
       -2   -1    0    0    0  501  0.00000000000E+00  0.00000000000E+00 -0.11309485843E+04  0.11309485843E+04  0.25500000920E-02 0. -1.
    10030    2    1    2    0    0  0.00000000000E+00  0.00000000000E+00  0.99836152461E+03  0.32602586932E+04  0.31036367398E+04 0.  0.
        5    1    3    3  502    0  0.11761223033E+04  0.47133699366E+03 -0.44196460234E+03  0.13419303386E+04  0.46999998093E+01 0. -1.
       -5    1    3    3    0  502 -0.11761223033E+04 -0.47133699366E+03  0.14403261270E+04  0.19183283546E+04  0.46999998093E+01 0.  1.
</event>
<event>
 5   0  0.4173905E-07  0.3084012E+04  0.7818609E-02  0.8220140E-01
        1   -1    0    0  501    0  0.00000000000E+00  0.00000000000E+00  0.15080807795E+04  0.15080807795E+04  0.50400001928E-02 0. -1.
       -1   -1    0    0    0  501  0.00000000000E+00  0.00000000000E+00 -0.15766939253E+04  0.15766939253E+04  0.50400001928E-02 0.  1.
    10030    2    1    2    0    0  0.00000000000E+00  0.00000000000E+00 -0.68613145782E+02  0.30847747048E+04  0.30840115460E+04 0.  0.
        3    1    3    3  502    0  0.45229502176E+03 -0.13418080934E+04 -0.64500007622E+03  0.15559707114E+04  0.10100000352E+00 0.  1.
       -3    1    3    3    0  502 -0.45229502176E+03  0.13418080934E+04  0.57638693044E+03  0.15288039934E+04  0.10100000352E+00 0. -1.
</event>
<event>
 5   0  0.1176002E-06  0.3125668E+04  0.7818609E-02  0.8208729E-01
       -2   -1    0    0    0  501  0.00000000000E+00  0.00000000000E+00  0.13002136266E+04  0.13002136266E+04  0.25500000920E-02 0. -1.
        2   -1    0    0  501    0  0.00000000000E+00  0.00000000000E+00 -0.18784991301E+04  0.18784991301E+04  0.25500000920E-02 0.  1.
    10030    2    1    2    0    0  0.00000000000E+00  0.00000000000E+00 -0.57828550355E+03  0.31787127567E+04  0.31256680351E+04 0.  0.
        2    1    3    3  502    0  0.15282354856E+04 -0.32700991721E+03 -0.28577273083E+03  0.15887432892E+04  0.25500000920E-02 0. -1.
       -2    1    3    3    0  502 -0.15282354856E+04  0.32700991721E+03 -0.29251277272E+03  0.15899694675E+04  0.25500000920E-02 0.  1.
</event>
<event>
 5   0  0.1193123E-06  0.3102695E+04  0.7818609E-02  0.8214999E-01
        2   -1    0    0  501    0  0.00000000000E+00  0.00000000000E+00  0.20887880096E+04  0.20887880096E+04  0.25500000920E-02 0.  1.
       -2   -1    0    0    0  501  0.00000000000E+00  0.00000000000E+00 -0.11521889575E+04  0.11521889575E+04  0.25500000920E-02 0. -1.
    10030    2    1    2    0    0  0.00000000000E+00  0.00000000000E+00  0.93659905208E+03  0.32409769671E+04  0.31026946219E+04 0.  0.
        3    1    3    3  502    0 -0.13388601139E+03  0.28998530015E+03  0.20540705869E+04  0.20787551382E+04  0.10100000352E+00 0.  1.
       -3    1    3    3    0  502  0.13388601139E+03 -0.28998530015E+03 -0.11174715348E+04  0.11622218289E+04  0.10100000352E+00 0. -1.
</event>
<event>
 5   0  0.1258262E-06  0.3110056E+04  0.7818609E-02  0.8212984E-01
        2   -1    0    0  501    0  0.00000000000E+00  0.00000000000E+00  0.29403918158E+04  0.29403918158E+04  0.25500000920E-02 0.  1.
       -2   -1    0    0    0  501  0.00000000000E+00  0.00000000000E+00 -0.82237750894E+03  0.82237750895E+03  0.25500000920E-02 0. -1.
    10030    2    1    2    0    0  0.00000000000E+00  0.00000000000E+00  0.21180143068E+04  0.37627693247E+04  0.31100560103E+04 0.  0.
        1    1    3    3  502    0  0.11789547405E+04  0.94103108085E+03  0.15159453823E+04  0.21385892961E+04  0.50400001928E-02 0. -1.
       -1    1    3    3    0  502 -0.11789547405E+04 -0.94103108085E+03  0.60206892453E+03  0.16241800286E+04  0.50400001928E-02 0.  1.
</event>
<event>
 5   0  0.4330395E-07  0.3118647E+04  0.7818609E-02  0.8210639E-01
       -1   -1    0    0    0  501  0.00000000000E+00  0.00000000000E+00  0.88882642561E+03  0.88882642562E+03  0.50400001928E-02 0. -1.
        1   -1    0    0  501    0  0.00000000000E+00  0.00000000000E+00 -0.27356178367E+04  0.27356178367E+04  0.50400001928E-02 0.  1.
    10030    2    1    2    0    0  0.00000000000E+00  0.00000000000E+00 -0.18467914111E+04  0.36244442624E+04  0.31186467730E+04 0.  0.
        1    1    3    3  502    0  0.84504180899E+02  0.81447814276E+02 -0.27304773092E+04  0.27329985436E+04  0.50400001928E-02 0.  1.
       -1    1    3    3    0  502 -0.84504180899E+02 -0.81447814276E+02  0.88368589809E+03  0.89144571879E+03  0.50400001928E-02 0. -1.
</event>
<event>
 5   0  0.1193123E-06  0.3110357E+04  0.7818609E-02  0.8212901E-01
        2   -1    0    0  501    0  0.00000000000E+00  0.00000000000E+00  0.31373993801E+04  0.31373993801E+04  0.25500000920E-02 0.  1.
       -2   -1    0    0    0  501  0.00000000000E+00  0.00000000000E+00 -0.77088679686E+03  0.77088679687E+03  0.25500000920E-02 0. -1.
    10030    2    1    2    0    0  0.00000000000E+00  0.00000000000E+00  0.23665125832E+04  0.39082861769E+04  0.31103567375E+04 0.  0.
        3    1    3    3  502    0 -0.27403788060E+03  0.11963829641E+04  0.23833342900E+04  0.26808042272E+04  0.10100000352E+00 0.  1.
       -3    1    3    3    0  502  0.27403788060E+03 -0.11963829641E+04 -0.16821706767E+02  0.12274819497E+04  0.10100000352E+00 0. -1.
</event>
<event>
 5   0  0.4219337E-07  0.3097526E+04  0.7818609E-02  0.8216417E-01
       -1   -1    0    0    0  501  0.00000000000E+00  0.00000000000E+00  0.11776267824E+04  0.11776267824E+04  0.50400001928E-02 0. -1.
        1   -1    0    0  501    0  0.00000000000E+00  0.00000000000E+00 -0.20368649054E+04  0.20368649054E+04  0.50400001928E-02 0.  1.
    10030    2    1    2    0    0  0.00000000000E+00  0.00000000000E+00 -0.85923812303E+03  0.32144916879E+04  0.30975258932E+04 0.  0.
        4    1    3    3  502    0  0.75578751216E+03 -0.13514398045E+04 -0.39582016558E+03  0.15982113518E+04  0.12699999809E+01 0.  1.
       -4    1    3    3    0  502 -0.75578751216E+03  0.13514398045E+04 -0.46341795745E+03  0.16162803361E+04  0.12699999809E+01 0. -1.
</event>
<event>
 5   0  0.1200286E-06  0.3109312E+04  0.7818609E-02  0.8213187E-01
       -2   -1    0    0    0  501  0.00000000000E+00  0.00000000000E+00  0.13839527977E+04  0.13839527977E+04  0.25500000920E-02 0.  1.
        2   -1    0    0  501    0  0.00000000000E+00  0.00000000000E+00 -0.17464148684E+04  0.17464148684E+04  0.25500000920E-02 0. -1.
    10030    2    1    2    0    0  0.00000000000E+00  0.00000000000E+00 -0.36246207067E+03  0.31303676662E+04  0.31093122990E+04 0.  0.
        5    1    3    3  502    0 -0.11933213374E+04  0.34554419443E+03 -0.11221813615E+04  0.16741355090E+04  0.46999998093E+01 0. -1.
       -5    1    3    3    0  502  0.11933213374E+04 -0.34554419443E+03  0.75971929078E+03  0.14562321571E+04  0.46999998093E+01 0.  1.
</event>
<event>
 5   0  0.4219337E-07  0.3091432E+04  0.7818609E-02  0.8218093E-01
       -1   -1    0    0    0  501  0.00000000000E+00  0.00000000000E+00  0.12255205920E+04  0.12255205920E+04  0.50400001928E-02 0. -1.
        1   -1    0    0  501    0  0.00000000000E+00  0.00000000000E+00 -0.19495698173E+04  0.19495698173E+04  0.50400001928E-02 0.  1.
    10030    2    1    2    0    0  0.00000000000E+00  0.00000000000E+00 -0.72404922526E+03  0.31750904093E+04  0.30914320026E+04 0.  0.
        4    1    3    3  502    0 -0.11625359416E+04 -0.68747752290E+03 -0.11341133038E+04  0.17636127009E+04  0.12699999809E+01 0.  1.
       -4    1    3    3    0  502  0.11625359416E+04  0.68747752290E+03  0.41006407855E+03  0.14114777084E+04  0.12699999809E+01 0. -1.
</event>
<event>
 5   0  0.3935852E-07  0.3100093E+04  0.7818609E-02  0.8215712E-01
       -1   -1    0    0    0  501  0.00000000000E+00  0.00000000000E+00  0.19788337784E+04  0.19788337784E+04  0.50400001928E-02 0.  1.
        1   -1    0    0  501    0  0.00000000000E+00  0.00000000000E+00 -0.12141720140E+04  0.12141720140E+04  0.50400001928E-02 0. -1.
    10030    2    1    2    0    0  0.00000000000E+00  0.00000000000E+00  0.76466176445E+03  0.31930057924E+04  0.31000932851E+04 0.  0.
        5    1    3    3  502    0 -0.11864098447E+04  0.64302997900E+03 -0.40313022176E+03  0.14084004896E+04  0.46999998093E+01 0. -1.
       -5    1    3    3    0  502  0.11864098447E+04 -0.64302997900E+03  0.11677919862E+04  0.17846053027E+04  0.46999998093E+01 0.  1.
</event>
<event>
 5   0  0.1258262E-06  0.3101767E+04  0.7818609E-02  0.8215253E-01
        2   -1    0    0  501    0  0.00000000000E+00  0.00000000000E+00  0.20593068958E+04  0.20593068958E+04  0.25500000920E-02 0.  1.
       -2   -1    0    0    0  501  0.00000000000E+00  0.00000000000E+00 -0.11679853511E+04  0.11679853511E+04  0.25500000920E-02 0. -1.
    10030    2    1    2    0    0  0.00000000000E+00  0.00000000000E+00  0.89132154461E+03  0.32272922469E+04  0.31017674237E+04 0.  0.
        1    1    3    3  502    0  0.10523656513E+04 -0.76094849262E+03 -0.43642375229E+03  0.13700298406E+04  0.50400001928E-02 0. -1.
       -1    1    3    3    0  502 -0.10523656513E+04  0.76094849262E+03  0.13277452969E+04  0.18572624063E+04  0.50400001928E-02 0.  1.
</event>
<event>
 5   0  0.1237580E-06  0.3046389E+04  0.7818609E-02  0.8230607E-01
       -2   -1    0    0    0  501  0.00000000000E+00  0.00000000000E+00  0.90947167818E+03  0.90947167818E+03  0.25500000920E-02 0. -1.
        2   -1    0    0  501    0  0.00000000000E+00  0.00000000000E+00 -0.25510650071E+04  0.25510650071E+04  0.25500000920E-02 0.  1.
    10030    2    1    2    0    0  0.00000000000E+00  0.00000000000E+00 -0.16415933289E+04  0.34605366853E+04  0.30463889267E+04 0.  0.
        4    1    3    3  502    0 -0.65024233605E+02  0.13816304651E+04 -0.96111493905E+02  0.13864955554E+04  0.12699999809E+01 0. -1.
       -4    1    3    3    0  502  0.65024233605E+02 -0.13816304651E+04 -0.15454818350E+04  0.20740411298E+04  0.12699999809E+01 0.  1.
</event>
<event>
 5   0  0.1193123E-06  0.3090500E+04  0.7818609E-02  0.8218350E-01
        2   -1    0    0  501    0  0.00000000000E+00  0.00000000000E+00  0.14802122825E+04  0.14802122825E+04  0.25500000920E-02 0. -1.
       -2   -1    0    0    0  501  0.00000000000E+00  0.00000000000E+00 -0.16131455233E+04  0.16131455233E+04  0.25500000920E-02 0.  1.
    10030    2    1    2    0    0  0.00000000000E+00  0.00000000000E+00 -0.13293324080E+03  0.30933578057E+04  0.30905001647E+04 0.  0.
        3    1    3    3  502    0  0.15257406388E+04 -0.10271040195E+03  0.15591866294E+03  0.15371221693E+04  0.10100000352E+00 0. -1.
       -3    1    3    3    0  502 -0.15257406388E+04  0.10271040195E+03 -0.28885190374E+03  0.15562356365E+04  0.10100000352E+00 0.  1.
</event>
<event>
 5   0  0.4219337E-07  0.3064952E+04  0.7818609E-02  0.8225423E-01
        1   -1    0    0  501    0  0.00000000000E+00  0.00000000000E+00  0.19746662282E+04  0.19746662282E+04  0.50400001928E-02 0. -1.
       -1   -1    0    0    0  501  0.00000000000E+00  0.00000000000E+00 -0.11893059947E+04  0.11893059947E+04  0.50400001928E-02 0.  1.
    10030    2    1    2    0    0  0.00000000000E+00  0.00000000000E+00  0.78536023352E+03  0.31639722230E+04  0.30649517992E+04 0.  0.
        4    1    3    3  502    0  0.12318860068E+04 -0.84442638969E+03  0.38248688953E+02  0.14940092491E+04  0.12699999809E+01 0.  1.
       -4    1    3    3    0  502 -0.12318860068E+04  0.84442638969E+03  0.74711154457E+03  0.16699629739E+04  0.12699999809E+01 0. -1.
</event>
<event>
 5   0  0.4134019E-07  0.3146775E+04  0.7818609E-02  0.8203017E-01
       -1   -1    0    0    0  501  0.00000000000E+00  0.00000000000E+00  0.12940514559E+04  0.12940514559E+04  0.50400001928E-02 0.  1.
        1   -1    0    0  501    0  0.00000000000E+00  0.00000000000E+00 -0.19130217251E+04  0.19130217251E+04  0.50400001928E-02 0. -1.
    10030    2    1    2    0    0  0.00000000000E+00  0.00000000000E+00 -0.61897026920E+03  0.32070731810E+04  0.31467752055E+04 0.  0.
        2    1    3    3  502    0 -0.69446745963E+03  0.67156119111E+03 -0.15751631132E+04  0.18478144710E+04  0.25500000920E-02 0. -1.
       -2    1    3    3    0  502  0.69446745963E+03 -0.67156119111E+03  0.95619284399E+03  0.13592587100E+04  0.25500000920E-02 0.  1.
</event>
<event>
 5   0  0.1200286E-06  0.3085378E+04  0.7818609E-02  0.8219762E-01
       -2   -1    0    0    0  501  0.00000000000E+00  0.00000000000E+00  0.14142837721E+04  0.14142837721E+04  0.25500000920E-02 0. -1.
        2   -1    0    0  501    0  0.00000000000E+00  0.00000000000E+00 -0.16827518703E+04  0.16827518704E+04  0.25500000920E-02 0.  1.
    10030    2    1    2    0    0  0.00000000000E+00  0.00000000000E+00 -0.26846809825E+03  0.30970356425E+04  0.30853775540E+04 0.  0.
        5    1    3    3  502    0  0.90209021163E+03  0.12379578906E+04  0.49652264247E+02  0.15325775433E+04  0.46999998093E+01 0. -1.
       -5    1    3    3    0  502 -0.90209021163E+03 -0.12379578906E+04 -0.31812036250E+03  0.15644580991E+04  0.46999998093E+01 0.  1.
</event>
<event>
 5   0  0.4330395E-07  0.3101497E+04  0.7818609E-02  0.8215327E-01
       -1   -1    0    0    0  501  0.00000000000E+00  0.00000000000E+00  0.13041282160E+04  0.13041282160E+04  0.50400001928E-02 0. -1.
        1   -1    0    0  501    0  0.00000000000E+00  0.00000000000E+00 -0.18440063821E+04  0.18440063821E+04  0.50400001928E-02 0.  1.
    10030    2    1    2    0    0  0.00000000000E+00  0.00000000000E+00 -0.53987816613E+03  0.31481345981E+04  0.31014968989E+04 0.  0.
        1    1    3    3  502    0  0.62844550849E+03  0.71280149039E+03  0.97396442972E+03  0.13607484824E+04  0.50400001928E-02 0. -1.
       -1    1    3    3    0  502 -0.62844550849E+03 -0.71280149039E+03 -0.15138425959E+04  0.17873861158E+04  0.50400001928E-02 0.  1.
</event>
<event>
 5   0  0.1193123E-06  0.3095215E+04  0.7818609E-02  0.8217052E-01
       -2   -1    0    0    0  501  0.00000000000E+00  0.00000000000E+00  0.15418543607E+04  0.15418543607E+04  0.25500000920E-02 0. -1.
        2   -1    0    0  501    0  0.00000000000E+00  0.00000000000E+00 -0.15533821257E+04  0.15533821257E+04  0.25500000920E-02 0.  1.
    10030    2    1    2    0    0  0.00000000000E+00  0.00000000000E+00 -0.11527765025E+02  0.30952364864E+04  0.30952150195E+04 0.  0.
        3    1    3    3  502    0 -0.32046358826E+03 -0.28145522437E+03 -0.14934485730E+04  0.15531589118E+04  0.10100000352E+00 0.  1.
       -3    1    3    3    0  502  0.32046358826E+03  0.28145522437E+03  0.14819208080E+04  0.15420775746E+04  0.10100000352E+00 0. -1.
</event>
<event>
 5   0  0.4134019E-07  0.3147529E+04  0.7818609E-02  0.8202814E-01
        1   -1    0    0  501    0  0.00000000000E+00  0.00000000000E+00  0.15641129126E+04  0.15641129126E+04  0.50400001928E-02 0. -1.
       -1   -1    0    0    0  501  0.00000000000E+00  0.00000000000E+00 -0.15834757389E+04  0.15834757389E+04  0.50400001928E-02 0.  1.
    10030    2    1    2    0    0  0.00000000000E+00  0.00000000000E+00 -0.19362826252E+02  0.31475886515E+04  0.31475290944E+04 0.  0.
        2    1    3    3  502    0 -0.63821718601E+03 -0.11097855712E+04 -0.92500723752E+03  0.15794250790E+04  0.25500000920E-02 0.  1.
       -2    1    3    3    0  502  0.63821718601E+03  0.11097855712E+04  0.90564441126E+03  0.15681635726E+04  0.25500000920E-02 0. -1.
</event>
<event>
 5   0  0.4219337E-07  0.3081148E+04  0.7818609E-02  0.8220931E-01
        1   -1    0    0  501    0  0.00000000000E+00  0.00000000000E+00  0.21202238360E+04  0.21202238360E+04  0.50400001928E-02 0.  1.
       -1   -1    0    0    0  501  0.00000000000E+00  0.00000000000E+00 -0.11193954332E+04  0.11193954332E+04  0.50400001928E-02 0. -1.
    10030    2    1    2    0    0  0.00000000000E+00  0.00000000000E+00  0.10008284029E+04  0.32396192692E+04  0.30811484089E+04 0.  0.
        4    1    3    3  502    0 -0.14401479852E+04  0.10648936045E+03 -0.63844677659E+02  0.14454909058E+04  0.12699999809E+01 0.  1.
       -4    1    3    3    0  502  0.14401479852E+04 -0.10648936045E+03  0.10646730805E+04  0.17941283634E+04  0.12699999809E+01 0. -1.
</event>
<event>
 5   0  0.3902375E-07  0.3114089E+04  0.7818609E-02  0.8211882E-01
        3   -1    0    0  501    0  0.00000000000E+00  0.00000000000E+00  0.20362549348E+04  0.20362549373E+04  0.10100000352E+00 0.  1.
       -3   -1    0    0    0  501  0.00000000000E+00  0.00000000000E+00 -0.11906110216E+04  0.11906110259E+04  0.10100000352E+00 0. -1.
    10030    2    1    2    0    0  0.00000000000E+00  0.00000000000E+00  0.84564391321E+03  0.32268659632E+04  0.31140890026E+04 0.  0.
        4    1    3    3  502    0 -0.81698452004E+03  0.31863050966E+03  0.17560393431E+04  0.19628206477E+04  0.12699999809E+01 0.  1.
       -4    1    3    3    0  502  0.81698452004E+03 -0.31863050966E+03 -0.91039542993E+03  0.12640453154E+04  0.12699999809E+01 0. -1.
</event>
<event>
 5   0  0.1237580E-06  0.3089551E+04  0.7818609E-02  0.8218611E-01
        2   -1    0    0  501    0  0.00000000000E+00  0.00000000000E+00  0.10940607472E+04  0.10940607472E+04  0.25500000920E-02 0. -1.
       -2   -1    0    0    0  501  0.00000000000E+00  0.00000000000E+00 -0.21811691090E+04  0.21811691090E+04  0.25500000920E-02 0.  1.
    10030    2    1    2    0    0  0.00000000000E+00  0.00000000000E+00 -0.10871083618E+04  0.32752298562E+04  0.30895511034E+04 0.  0.
        4    1    3    3  502    0  0.20536306022E+03  0.14667158452E+04 -0.10091543371E+04  0.17921560886E+04  0.12699999809E+01 0. -1.
       -4    1    3    3    0  502 -0.20536306022E+03 -0.14667158452E+04 -0.77954024690E+02  0.14830737676E+04  0.12699999809E+01 0.  1.
</event>
<event>
 5   0  0.3935852E-07  0.3105197E+04  0.7818609E-02  0.8214313E-01
       -1   -1    0    0    0  501  0.00000000000E+00  0.00000000000E+00  0.21848737672E+04  0.21848737673E+04  0.50400001928E-02 0.  1.
        1   -1    0    0  501    0  0.00000000000E+00  0.00000000000E+00 -0.11032957187E+04  0.11032957187E+04  0.50400001928E-02 0. -1.
    10030    2    1    2    0    0  0.00000000000E+00  0.00000000000E+00  0.10815780486E+04  0.32881694859E+04  0.31051968526E+04 0.  0.
        5    1    3    3  502    0 -0.18473909746E+03 -0.76375809541E+03 -0.87717585613E+03  0.11776733567E+04  0.46999998093E+01 0. -1.
       -5    1    3    3    0  502  0.18473909746E+03  0.76375809541E+03  0.19587539047E+04  0.21104961293E+04  0.46999998093E+01 0.  1.
</event>
<event>
 5   0  0.1176002E-06  0.3097459E+04  0.7818609E-02  0.8216436E-01
        2   -1    0    0  501    0  0.00000000000E+00  0.00000000000E+00  0.17696679705E+04  0.17696679705E+04  0.25500000920E-02 0.  1.
       -2   -1    0    0    0  501  0.00000000000E+00  0.00000000000E+00 -0.13553741900E+04  0.13553741900E+04  0.25500000920E-02 0. -1.
    10030    2    1    2    0    0  0.00000000000E+00  0.00000000000E+00  0.41429378049E+03  0.31250421606E+04  0.30974585015E+04 0.  0.
        2    1    3    3  502    0 -0.23165784263E+03 -0.48658163433E+03 -0.12577249122E+04  0.13683197717E+04  0.25500000920E-02 0. -1.
       -2    1    3    3    0  502  0.23165784263E+03  0.48658163433E+03  0.16720186927E+04  0.17567223889E+04  0.25500000920E-02 0.  1.
</event>
<event>
 5   0  0.4219337E-07  0.3102043E+04  0.7818609E-02  0.8215177E-01
        1   -1    0    0  501    0  0.00000000000E+00  0.00000000000E+00  0.10449900846E+04  0.10449900846E+04  0.50400001928E-02 0. -1.
       -1   -1    0    0    0  501  0.00000000000E+00  0.00000000000E+00 -0.23020966619E+04  0.23020966619E+04  0.50400001928E-02 0.  1.
    10030    2    1    2    0    0  0.00000000000E+00  0.00000000000E+00 -0.12571065773E+04  0.33470867466E+04  0.31020433173E+04 0.  0.
        4    1    3    3  502    0  0.59332711627E+03 -0.11481680895E+03  0.91272736616E+03  0.10946656222E+04  0.12699999809E+01 0. -1.
       -4    1    3    3    0  502 -0.59332711627E+03  0.11481680895E+03 -0.21698339435E+04  0.22524211244E+04  0.12699999809E+01 0.  1.
</event>
<event>
 5   0  0.4330395E-07  0.3077881E+04  0.7818609E-02  0.8221835E-01
        1   -1    0    0  501    0  0.00000000000E+00  0.00000000000E+00  0.23451102582E+04  0.23451102582E+04  0.50400001928E-02 0.  1.
       -1   -1    0    0    0  501  0.00000000000E+00  0.00000000000E+00 -0.10099046467E+04  0.10099046467E+04  0.50400001928E-02 0. -1.
    10030    2    1    2    0    0  0.00000000000E+00  0.00000000000E+00  0.13352056114E+04  0.33550149049E+04  0.30778809248E+04 0.  0.
        1    1    3    3  502    0 -0.48212111212E+03 -0.13868246861E+04  0.16498387166E+03  0.14774786478E+04  0.50400001928E-02 0.  1.
       -1    1    3    3    0  502  0.48212111212E+03  0.13868246861E+04  0.11702217398E+04  0.18775362571E+04  0.50400001928E-02 0. -1.
</event>
<event>
 5   0  0.1176002E-06  0.3076564E+04  0.7818609E-02  0.8222199E-01
        2   -1    0    0  501    0  0.00000000000E+00  0.00000000000E+00  0.27996678817E+04  0.27996678817E+04  0.25500000920E-02 0. -1.
       -2   -1    0    0    0  501  0.00000000000E+00  0.00000000000E+00 -0.84521124190E+03  0.84521124191E+03  0.25500000920E-02 0.  1.
    10030    2    1    2    0    0  0.00000000000E+00  0.00000000000E+00  0.19544566398E+04  0.36448791236E+04  0.30765635161E+04 0.  0.
        2    1    3    3  502    0  0.59817778239E+03  0.12558968705E+04  0.19925400046E+03  0.14052742670E+04  0.25500000920E-02 0.  1.
       -2    1    3    3    0  502 -0.59817778239E+03 -0.12558968705E+04  0.17552026393E+04  0.22396048566E+04  0.25500000920E-02 0. -1.
</event>
<event>
 5   0  0.1258262E-06  0.3096021E+04  0.7818609E-02  0.8216831E-01
        2   -1    0    0  501    0  0.00000000000E+00  0.00000000000E+00  0.19989845676E+04  0.19989845676E+04  0.25500000920E-02 0. -1.
       -2   -1    0    0    0  501  0.00000000000E+00  0.00000000000E+00 -0.11987770127E+04  0.11987770127E+04  0.25500000920E-02 0.  1.
    10030    2    1    2    0    0  0.00000000000E+00  0.00000000000E+00  0.80020755481E+03  0.31977615803E+04  0.30960211552E+04 0.  0.
        1    1    3    3  502    0  0.10150704765E+04 -0.57489612480E+03 -0.65091258879E+03  0.13358745543E+04  0.50400001928E-02 0.  1.
       -1    1    3    3    0  502 -0.10150704765E+04  0.57489612480E+03  0.14511201436E+04  0.18618870260E+04  0.50400001928E-02 0. -1.
</event>
<event>
 5   0  0.4134019E-07  0.3085888E+04  0.7818609E-02  0.8219621E-01
       -1   -1    0    0    0  501  0.00000000000E+00  0.00000000000E+00  0.10214557854E+04  0.10214557854E+04  0.50400001928E-02 0. -1.
        1   -1    0    0  501    0  0.00000000000E+00  0.00000000000E+00 -0.23306704133E+04  0.23306704133E+04  0.50400001928E-02 0.  1.
    10030    2    1    2    0    0  0.00000000000E+00  0.00000000000E+00 -0.13092146280E+04  0.33521261987E+04  0.30858883826E+04 0.  0.
        2    1    3    3  502    0  0.11592262816E+04  0.63172881887E+03  0.21291163011E+03  0.13372427733E+04  0.25500000920E-02 0. -1.
       -2    1    3    3    0  502 -0.11592262816E+04 -0.63172881887E+03 -0.15221262581E+04  0.20148834254E+04  0.25500000920E-02 0.  1.
</event>
<event>
 5   0  0.4330395E-07  0.3102584E+04  0.7818609E-02  0.8215029E-01
       -1   -1    0    0    0  501  0.00000000000E+00  0.00000000000E+00  0.22416475162E+04  0.22416475162E+04  0.50400001928E-02 0.  1.
        1   -1    0    0  501    0  0.00000000000E+00  0.00000000000E+00 -0.10735434995E+04  0.10735434995E+04  0.50400001928E-02 0. -1.
    10030    2    1    2    0    0  0.00000000000E+00  0.00000000000E+00  0.11681040168E+04  0.33151910157E+04  0.31025835165E+04 0.  0.
        1    1    3    3  502    0  0.24920509191E+03  0.42736480229E+03 -0.98699450056E+03  0.11040389469E+04  0.50400001928E-02 0. -1.
       -1    1    3    3    0  502 -0.24920509191E+03 -0.42736480229E+03  0.21550985173E+04  0.22111520688E+04  0.50400001928E-02 0.  1.
</event>
<event>
 5   0  0.4330395E-07  0.3083899E+04  0.7818609E-02  0.8220171E-01
        1   -1    0    0  501    0  0.00000000000E+00  0.00000000000E+00  0.20768378907E+04  0.20768378907E+04  0.50400001928E-02 0.  1.
       -1   -1    0    0    0  501  0.00000000000E+00  0.00000000000E+00 -0.11448213118E+04  0.11448213119E+04  0.50400001928E-02 0. -1.
    10030    2    1    2    0    0  0.00000000000E+00  0.00000000000E+00  0.93201657886E+03  0.32216592026E+04  0.30838990117E+04 0.  0.
        1    1    3    3  502    0  0.52186333003E+03  0.84210140145E+03  0.17003707835E+04  0.19679270584E+04  0.50400001928E-02 0.  1.
       -1    1    3    3    0  502 -0.52186333003E+03 -0.84210140145E+03 -0.76835420466E+03  0.12537321442E+04  0.50400001928E-02 0. -1.
</event>
<event>
 5   0  0.1237580E-06  0.3100761E+04  0.7818609E-02  0.8215529E-01
       -2   -1    0    0    0  501  0.00000000000E+00  0.00000000000E+00  0.11947810989E+04  0.11947810989E+04  0.25500000920E-02 0.  1.
        2   -1    0    0  501    0  0.00000000000E+00  0.00000000000E+00 -0.20118163357E+04  0.20118163357E+04  0.25500000920E-02 0. -1.
    10030    2    1    2    0    0  0.00000000000E+00  0.00000000000E+00 -0.81703523676E+03  0.32065974346E+04  0.31007612822E+04 0.  0.
        4    1    3    3  502    0 -0.11901591828E+04  0.32134809858E+03  0.56375103244E+03  0.13555664205E+04  0.12699999809E+01 0.  1.
       -4    1    3    3    0  502  0.11901591828E+04 -0.32134809858E+03 -0.13807862692E+04  0.18510310141E+04  0.12699999809E+01 0. -1.
</event>
<event>
 5   0  0.4173905E-07  0.3105156E+04  0.7818609E-02  0.8214324E-01
        1   -1    0    0  501    0  0.00000000000E+00  0.00000000000E+00  0.18433975255E+04  0.18433975255E+04  0.50400001928E-02 0.  1.
       -1   -1    0    0    0  501  0.00000000000E+00  0.00000000000E+00 -0.13076385616E+04  0.13076385616E+04  0.50400001928E-02 0. -1.
    10030    2    1    2    0    0  0.00000000000E+00  0.00000000000E+00  0.53575896384E+03  0.31510360871E+04  0.31051555122E+04 0.  0.
        3    1    3    3  502    0 -0.12588720328E+04  0.65555624456E+03  0.90645068651E+03  0.16840919340E+04  0.10100000352E+00 0.  1.
       -3    1    3    3    0  502  0.12588720328E+04 -0.65555624456E+03 -0.37069172267E+03  0.14669441531E+04  0.10100000352E+00 0. -1.
</event>
<event>
 5   0  0.4330395E-07  0.3107430E+04  0.7818609E-02  0.8213702E-01
       -1   -1    0    0    0  501  0.00000000000E+00  0.00000000000E+00  0.14438139856E+04  0.14438139856E+04  0.50400001928E-02 0. -1.
        1   -1    0    0  501    0  0.00000000000E+00  0.00000000000E+00 -0.16719817052E+04  0.16719817052E+04  0.50400001928E-02 0.  1.
    10030    2    1    2    0    0  0.00000000000E+00  0.00000000000E+00 -0.22816771958E+03  0.31157956908E+04  0.31074301728E+04 0.  0.
        1    1    3    3  502    0  0.37000431689E+03 -0.68903629273E+03 -0.14602167203E+04  0.16564742912E+04  0.50400001928E-02 0.  1.
       -1    1    3    3    0  502 -0.37000431689E+03  0.68903629273E+03  0.12320490007E+04  0.14593213996E+04  0.50400001928E-02 0. -1.
</event>
<event>
 5   0  0.4330395E-07  0.3088512E+04  0.7818609E-02  0.8218898E-01
       -1   -1    0    0    0  501  0.00000000000E+00  0.00000000000E+00  0.16340765395E+04  0.16340765396E+04  0.50400001928E-02 0. -1.
        1   -1    0    0  501    0  0.00000000000E+00  0.00000000000E+00 -0.14593727088E+04  0.14593727088E+04  0.50400001928E-02 0.  1.
    10030    2    1    2    0    0  0.00000000000E+00  0.00000000000E+00  0.17470383074E+03  0.30934492484E+04  0.30885120728E+04 0.  0.
        1    1    3    3  502    0  0.13508413672E+04 -0.63525261241E+02 -0.65943962784E+03  0.15045492617E+04  0.50400001928E-02 0.  1.
       -1    1    3    3    0  502 -0.13508413672E+04  0.63525261241E+02  0.83414345858E+03  0.15888999867E+04  0.50400001928E-02 0. -1.
</event>
<event>
 5   0  0.1237580E-06  0.3134805E+04  0.7818609E-02  0.8206250E-01
        2   -1    0    0  501    0  0.00000000000E+00  0.00000000000E+00  0.21461966768E+04  0.21461966768E+04  0.25500000920E-02 0.  1.
       -2   -1    0    0    0  501  0.00000000000E+00  0.00000000000E+00 -0.11446996995E+04  0.11446996995E+04  0.25500000920E-02 0. -1.
    10030    2    1    2    0    0  0.00000000000E+00  0.00000000000E+00  0.10014969773E+04  0.32908963762E+04  0.31348050599E+04 0.  0.
        4    1    3    3  502    0 -0.13866956712E+03  0.95594834316E+02 -0.11351717389E+04  0.11475992815E+04  0.12699999809E+01 0. -1.
       -4    1    3    3    0  502  0.13866956712E+03 -0.95594834316E+02  0.21366687161E+04  0.21432970948E+04  0.12699999809E+01 0.  1.
</event>
<event>
 5   0  0.1193123E-06  0.3096333E+04  0.7818609E-02  0.8216745E-01
        2   -1    0    0  501    0  0.00000000000E+00  0.00000000000E+00  0.18093168300E+04  0.18093168300E+04  0.25500000920E-02 0.  1.
       -2   -1    0    0    0  501  0.00000000000E+00  0.00000000000E+00 -0.13247097632E+04  0.13247097632E+04  0.25500000920E-02 0. -1.
    10030    2    1    2    0    0  0.00000000000E+00  0.00000000000E+00  0.48460706681E+03  0.31340265932E+04  0.30963331019E+04 0.  0.
        3    1    3    3  502    0 -0.10019661676E+04 -0.56997417551E+03  0.12883313899E+04  0.17287580924E+04  0.10100000352E+00 0.  1.
       -3    1    3    3    0  502  0.10019661676E+04  0.56997417551E+03 -0.80372432304E+03  0.14052685008E+04  0.10100000352E+00 0. -1.
</event>
<event>
 5   0  0.1200286E-06  0.3103545E+04  0.7818609E-02  0.8214766E-01
       -2   -1    0    0    0  501  0.00000000000E+00  0.00000000000E+00  0.14549446139E+04  0.14549446139E+04  0.25500000920E-02 0.  1.
        2   -1    0    0  501    0  0.00000000000E+00  0.00000000000E+00 -0.16550440170E+04  0.16550440170E+04  0.25500000920E-02 0. -1.
    10030    2    1    2    0    0  0.00000000000E+00  0.00000000000E+00 -0.20009940307E+03  0.31099886309E+04  0.31035446692E+04 0.  0.
        5    1    3    3  502    0  0.79681648486E+03 -0.53337416799E+03 -0.13226529488E+04  0.16336576834E+04  0.46999998093E+01 0. -1.
       -5    1    3    3    0  502 -0.79681648486E+03  0.53337416799E+03  0.11225535457E+04  0.14763309475E+04  0.46999998093E+01 0.  1.
</event>
<event>
 5   0  0.1193123E-06  0.3098337E+04  0.7818609E-02  0.8216194E-01
       -2   -1    0    0    0  501  0.00000000000E+00  0.00000000000E+00  0.10170153012E+04  0.10170153012E+04  0.25500000920E-02 0. -1.
        2   -1    0    0  501    0  0.00000000000E+00  0.00000000000E+00 -0.23597708552E+04  0.23597708552E+04  0.25500000920E-02 0.  1.
    10030    2    1    2    0    0  0.00000000000E+00  0.00000000000E+00 -0.13427555540E+04  0.33767861564E+04  0.30983370165E+04 0.  0.
        3    1    3    3  502    0  0.21484103162E+03 -0.23622917546E+03 -0.23235158518E+04  0.23453543050E+04  0.10100000352E+00 0.  1.
       -3    1    3    3    0  502 -0.21484103162E+03  0.23622917546E+03  0.98076029775E+03  0.10314318514E+04  0.10100000352E+00 0. -1.
</event>
<event>
 5   0  0.3935852E-07  0.3135341E+04  0.7818609E-02  0.8206105E-01
       -1   -1    0    0    0  501  0.00000000000E+00  0.00000000000E+00  0.10519897827E+04  0.10519897827E+04  0.50400001928E-02 0. -1.
        1   -1    0    0  501    0  0.00000000000E+00  0.00000000000E+00 -0.23361362994E+04  0.23361362994E+04  0.50400001928E-02 0.  1.
    10030    2    1    2    0    0  0.00000000000E+00  0.00000000000E+00 -0.12841465167E+04  0.33881260821E+04  0.31353414602E+04 0.  0.
        5    1    3    3  502    0  0.95658380657E+03  0.11199711645E+04 -0.12221797444E+04  0.19139314006E+04  0.46999998093E+01 0.  1.
       -5    1    3    3    0  502 -0.95658380657E+03 -0.11199711645E+04 -0.61966772251E+02  0.14741946816E+04  0.46999998093E+01 0. -1.
</event>
<event>
 5   0  0.1200286E-06  0.3135422E+04  0.7818609E-02  0.8206083E-01
        2   -1    0    0  501    0  0.00000000000E+00  0.00000000000E+00  0.21439548880E+04  0.21439548880E+04  0.25500000920E-02 0.  1.
       -2   -1    0    0    0  501  0.00000000000E+00  0.00000000000E+00 -0.11463473677E+04  0.11463473677E+04  0.25500000920E-02 0. -1.
    10030    2    1    2    0    0  0.00000000000E+00  0.00000000000E+00  0.99760752031E+03  0.32903022557E+04  0.31354215297E+04 0.  0.
        5    1    3    3  502    0 -0.88813144475E+03  0.12899276310E+04  0.42456905187E+03  0.16226434378E+04  0.46999998093E+01 0.  1.
       -5    1    3    3    0  502  0.88813144475E+03 -0.12899276310E+04  0.57303846844E+03  0.16676588179E+04  0.46999998093E+01 0. -1.
</event>
<event>
 5   0  0.1176002E-06  0.3107343E+04  0.7818609E-02  0.8213726E-01
       -2   -1    0    0    0  501  0.00000000000E+00  0.00000000000E+00  0.16459954645E+04  0.16459954645E+04  0.25500000920E-02 0. -1.
        2   -1    0    0  501    0  0.00000000000E+00  0.00000000000E+00 -0.14665257732E+04  0.14665257732E+04  0.25500000920E-02 0.  1.
    10030    2    1    2    0    0  0.00000000000E+00  0.00000000000E+00  0.17946969129E+03  0.31125212378E+04  0.31073427692E+04 0.  0.
        2    1    3    3  502    0 -0.14501457851E+04  0.55701364348E+03  0.11638320881E+03  0.15577971782E+04  0.25500000920E-02 0.  1.
       -2    1    3    3    0  502  0.14501457851E+04 -0.55701364348E+03  0.63086482480E+02  0.15547240596E+04  0.25500000920E-02 0. -1.
</event>
<event>
 5   0  0.1200286E-06  0.3105640E+04  0.7818609E-02  0.8214192E-01
        2   -1    0    0  501    0  0.00000000000E+00  0.00000000000E+00  0.19824771584E+04  0.19824771584E+04  0.25500000920E-02 0. -1.
       -2   -1    0    0    0  501  0.00000000000E+00  0.00000000000E+00 -0.12162812357E+04  0.12162812357E+04  0.25500000920E-02 0.  1.
    10030    2    1    2    0    0  0.00000000000E+00  0.00000000000E+00  0.76619592277E+03  0.31987583941E+04  0.31056398812E+04 0.  0.
        5    1    3    3  502    0  0.84485857661E+03 -0.10556971258E+04  0.11694992645E+04  0.17877452435E+04  0.46999998093E+01 0. -1.
       -5    1    3    3    0  502 -0.84485857661E+03  0.10556971258E+04 -0.40330334173E+03  0.14110131506E+04  0.46999998093E+01 0.  1.
</event>
<event>
 5   0  0.4330395E-07  0.3098687E+04  0.7818609E-02  0.8216098E-01
        1   -1    0    0  501    0  0.00000000000E+00  0.00000000000E+00  0.12996657229E+04  0.12996657229E+04  0.50400001928E-02 0.  1.
       -1   -1    0    0    0  501  0.00000000000E+00  0.00000000000E+00 -0.18469868367E+04  0.18469868367E+04  0.50400001928E-02 0. -1.
    10030    2    1    2    0    0  0.00000000000E+00  0.00000000000E+00 -0.54732111372E+03  0.31466525596E+04  0.30986871300E+04 0.  0.
        1    1    3    3  502    0 -0.92450936357E+03  0.40501347003E+02  0.98819556443E+03  0.13538420868E+04  0.50400001928E-02 0.  1.
       -1    1    3    3    0  502  0.92450936357E+03 -0.40501347003E+02 -0.15355166782E+04  0.17928104728E+04  0.50400001928E-02 0. -1.
</event>
<event>
 5   0  0.1176002E-06  0.3109925E+04  0.7818609E-02  0.8213019E-01
        2   -1    0    0  501    0  0.00000000000E+00  0.00000000000E+00  0.24222874945E+04  0.24222874945E+04  0.25500000920E-02 0. -1.
       -2   -1    0    0    0  501  0.00000000000E+00  0.00000000000E+00 -0.99819223250E+03  0.99819223251E+03  0.25500000920E-02 0.  1.
    10030    2    1    2    0    0  0.00000000000E+00  0.00000000000E+00  0.14240952620E+04  0.34204797270E+04  0.31099251193E+04 0.  0.
        2    1    3    3  502    0  0.22455727189E+03 -0.13047234112E+04 -0.18498137940E+03  0.13367674662E+04  0.25500000920E-02 0.  1.
       -2    1    3    3    0  502 -0.22455727189E+03  0.13047234112E+04  0.16090766414E+04  0.20837122608E+04  0.25500000920E-02 0. -1.
</event>
<event>
 5   0  0.3935852E-07  0.3103068E+04  0.7818609E-02  0.8214896E-01
        1   -1    0    0  501    0  0.00000000000E+00  0.00000000000E+00  0.22128500089E+04  0.22128500089E+04  0.50400001928E-02 0.  1.
       -1   -1    0    0    0  501  0.00000000000E+00  0.00000000000E+00 -0.10878538596E+04  0.10878538596E+04  0.50400001928E-02 0. -1.
    10030    2    1    2    0    0  0.00000000000E+00  0.00000000000E+00  0.11249961493E+04  0.33007038684E+04  0.31030677871E+04 0.  0.
        5    1    3    3  502    0  0.92455063865E+03  0.11327184553E+03  0.18823365763E+04  0.21001993884E+04  0.46999998093E+01 0.  1.
       -5    1    3    3    0  502 -0.92455063865E+03 -0.11327184553E+03 -0.75734042696E+03  0.12005044801E+04  0.46999998093E+01 0. -1.
</event>
<event>
 5   0  0.4173905E-07  0.3103877E+04  0.7818609E-02  0.8214675E-01
       -1   -1    0    0    0  501  0.00000000000E+00  0.00000000000E+00  0.11540545372E+04  0.11540545372E+04  0.50400001928E-02 0.  1.
        1   -1    0    0  501    0  0.00000000000E+00  0.00000000000E+00 -0.20870015100E+04  0.20870015100E+04  0.50400001928E-02 0. -1.
    10030    2    1    2    0    0  0.00000000000E+00  0.00000000000E+00 -0.93294697279E+03  0.32410560473E+04  0.31038772926E+04 0.  0.
        3    1    3    3  502    0 -0.67690451513E+03  0.60710697031E+03  0.84678088116E+03  0.12425041114E+04  0.10100000352E+00 0.  1.
       -3    1    3    3    0  502  0.67690451513E+03 -0.60710697031E+03 -0.17797278539E+04  0.19985519359E+04  0.10100000352E+00 0. -1.
</event>
<event>
 5   0  0.1237580E-06  0.3092415E+04  0.7818609E-02  0.8217823E-01
        2   -1    0    0  501    0  0.00000000000E+00  0.00000000000E+00  0.15374658995E+04  0.15374658995E+04  0.25500000920E-02 0.  1.
       -2   -1    0    0    0  501  0.00000000000E+00  0.00000000000E+00 -0.15549989499E+04  0.15549989499E+04  0.25500000920E-02 0. -1.
    10030    2    1    2    0    0  0.00000000000E+00  0.00000000000E+00 -0.17533050450E+02  0.30924648494E+04  0.30924151463E+04 0.  0.
        4    1    3    3  502    0  0.72329805975E+03 -0.12969710715E+04 -0.43942667488E+03  0.15486740971E+04  0.12699999809E+01 0. -1.
       -4    1    3    3    0  502 -0.72329805975E+03  0.12969710715E+04  0.42189362443E+03  0.15437907523E+04  0.12699999809E+01 0.  1.
</event>
<event>
 5   0  0.3935852E-07  0.3107403E+04  0.7818609E-02  0.8213709E-01
       -1   -1    0    0    0  501  0.00000000000E+00  0.00000000000E+00  0.91803378141E+03  0.91803378142E+03  0.50400001928E-02 0. -1.
        1   -1    0    0  501    0  0.00000000000E+00  0.00000000000E+00 -0.26295207652E+04  0.26295207652E+04  0.50400001928E-02 0.  1.
    10030    2    1    2    0    0  0.00000000000E+00  0.00000000000E+00 -0.17114869838E+04  0.35475545467E+04  0.31074033478E+04 0.  0.
        5    1    3    3  502    0  0.31425947957E+03 -0.95107341806E+03 -0.22116936520E+04  0.24279436911E+04  0.46999998093E+01 0.  1.
       -5    1    3    3    0  502 -0.31425947957E+03  0.95107341806E+03  0.50020666814E+03  0.11196108556E+04  0.46999998093E+01 0. -1.
</event>
<event>
 5   0  0.4330395E-07  0.3151332E+04  0.7818609E-02  0.8201790E-01
        1   -1    0    0  501    0  0.00000000000E+00  0.00000000000E+00  0.19179613209E+04  0.19179613209E+04  0.50400001928E-02 0. -1.
       -1   -1    0    0    0  501  0.00000000000E+00  0.00000000000E+00 -0.12944593338E+04  0.12944593338E+04  0.50400001928E-02 0.  1.
    10030    2    1    2    0    0  0.00000000000E+00  0.00000000000E+00  0.62350198711E+03  0.32124206548E+04  0.31513317400E+04 0.  0.
        1    1    3    3  502    0  0.12581258467E+03  0.93400157096E+03 -0.97547659854E+03  0.13563710169E+04  0.50400001928E-02 0.  1.
       -1    1    3    3    0  502 -0.12581258467E+03 -0.93400157096E+03  0.15989785856E+04  0.18560496379E+04  0.50400001928E-02 0. -1.
</event>
<event>
 5   0  0.3935852E-07  0.3118396E+04  0.7818609E-02  0.8210707E-01
        1   -1    0    0  501    0  0.00000000000E+00  0.00000000000E+00  0.12792883128E+04  0.12792883128E+04  0.50400001928E-02 0.  1.
       -1   -1    0    0    0  501  0.00000000000E+00  0.00000000000E+00 -0.19003520715E+04  0.19003520715E+04  0.50400001928E-02 0. -1.
    10030    2    1    2    0    0  0.00000000000E+00  0.00000000000E+00 -0.62106375872E+03  0.31796403844E+04  0.31183958667E+04 0.  0.
        5    1    3    3  502    0 -0.96622796247E+03  0.18666638526E+03 -0.15436786845E+04  0.18306847861E+04  0.46999998093E+01 0. -1.
       -5    1    3    3    0  502  0.96622796247E+03 -0.18666638526E+03  0.92261492581E+03  0.13489555983E+04  0.46999998093E+01 0.  1.
</event>
<event>
 5   0  0.1200286E-06  0.3104902E+04  0.7818609E-02  0.8214394E-01
        2   -1    0    0  501    0  0.00000000000E+00  0.00000000000E+00  0.98540724826E+03  0.98540724826E+03  0.25500000920E-02 0.  1.
       -2   -1    0    0    0  501  0.00000000000E+00  0.00000000000E+00 -0.24457942187E+04  0.24457942187E+04  0.25500000920E-02 0. -1.
    10030    2    1    2    0    0  0.00000000000E+00  0.00000000000E+00 -0.14603869704E+04  0.34312014669E+04  0.31049015127E+04 0.  0.
        5    1    3    3  502    0  0.74573771961E+03 -0.86939113391E+03  0.42784345934E+03  0.12227173859E+04  0.46999998093E+01 0.  1.
       -5    1    3    3    0  502 -0.74573771961E+03  0.86939113391E+03 -0.18882304298E+04  0.22084840810E+04  0.46999998093E+01 0. -1.
</event>
<event>
 5   0  0.4330395E-07  0.2996378E+04  0.7818609E-02  0.8244766E-01
       -1   -1    0    0    0  501  0.00000000000E+00  0.00000000000E+00  0.24184703290E+04  0.24184703290E+04  0.50400001928E-02 0.  1.
        1   -1    0    0  501    0  0.00000000000E+00  0.00000000000E+00 -0.92809475734E+03  0.92809475735E+03  0.50400001928E-02 0. -1.
    10030    2    1    2    0    0  0.00000000000E+00  0.00000000000E+00  0.14903755717E+04  0.33465650864E+04  0.29963775684E+04 0.  0.
        1    1    3    3  502    0  0.12971999666E+04  0.46990116377E+03  0.13974197407E+04  0.19637506941E+04  0.50400001928E-02 0.  1.
       -1    1    3    3    0  502 -0.12971999666E+04 -0.46990116377E+03  0.92955831013E+02  0.13828143923E+04  0.50400001928E-02 0. -1.
</event>
<event>
 5   0  0.3902375E-07  0.3091422E+04  0.7818609E-02  0.8218096E-01
        3   -1    0    0  501    0  0.00000000000E+00  0.00000000000E+00  0.15272047994E+04  0.15272048028E+04  0.10100000352E+00 0.  1.
       -3   -1    0    0    0  501  0.00000000000E+00  0.00000000000E+00 -0.15644409685E+04  0.15644409718E+04  0.10100000352E+00 0. -1.
    10030    2    1    2    0    0  0.00000000000E+00  0.00000000000E+00 -0.37236169106E+02  0.30916457746E+04  0.30914215279E+04 0.  0.
        2    1    3    3  502    0  0.86835971114E+03  0.88381403845E+03  0.90559500233E+03  0.15346915491E+04  0.25500000920E-02 0.  1.
       -2    1    3    3    0  502 -0.86835971114E+03 -0.88381403845E+03 -0.94283117143E+03  0.15569542255E+04  0.25500000920E-02 0. -1.
</event>
<event>
 5   0  0.1200286E-06  0.3099015E+04  0.7818609E-02  0.8216008E-01
       -2   -1    0    0    0  501  0.00000000000E+00  0.00000000000E+00  0.17043516485E+04  0.17043516485E+04  0.25500000920E-02 0.  1.
        2   -1    0    0  501    0  0.00000000000E+00  0.00000000000E+00 -0.14087314275E+04  0.14087314275E+04  0.25500000920E-02 0. -1.
    10030    2    1    2    0    0  0.00000000000E+00  0.00000000000E+00  0.29562022100E+03  0.31130830760E+04  0.30990151537E+04 0.  0.
        5    1    3    3  502    0  0.24939263332E+02  0.11119495141E+04  0.12315485121E+04  0.16594539814E+04  0.46999998093E+01 0. -1.
       -5    1    3    3    0  502 -0.24939263332E+02 -0.11119495141E+04 -0.93592829112E+03  0.14536290946E+04  0.46999998093E+01 0.  1.
</event>
<event>
 5   0  0.3935852E-07  0.3094999E+04  0.7818609E-02  0.8217112E-01
       -1   -1    0    0    0  501  0.00000000000E+00  0.00000000000E+00  0.20601269686E+04  0.20601269686E+04  0.50400001928E-02 0. -1.
        1   -1    0    0  501    0  0.00000000000E+00  0.00000000000E+00 -0.11624304672E+04  0.11624304672E+04  0.50400001928E-02 0.  1.
    10030    2    1    2    0    0  0.00000000000E+00  0.00000000000E+00  0.89769650142E+03  0.32225574359E+04  0.30949987752E+04 0.  0.
        5    1    3    3  502    0  0.63633161582E+03 -0.28381384545E+03 -0.98986148204E+03  0.12105024030E+04  0.46999998093E+01 0.  1.
       -5    1    3    3    0  502 -0.63633161582E+03  0.28381384545E+03  0.18875579835E+04  0.20120550328E+04  0.46999998093E+01 0. -1.
</event>
<event>
 5   0  0.1237580E-06  0.3089533E+04  0.7818609E-02  0.8218616E-01
       -2   -1    0    0    0  501  0.00000000000E+00  0.00000000000E+00  0.11938982932E+04  0.11938982932E+04  0.25500000920E-02 0. -1.
        2   -1    0    0  501    0  0.00000000000E+00  0.00000000000E+00 -0.19987492602E+04  0.19987492602E+04  0.25500000920E-02 0.  1.
    10030    2    1    2    0    0  0.00000000000E+00  0.00000000000E+00 -0.80485096699E+03  0.31926475534E+04  0.30895328646E+04 0.  0.
        4    1    3    3  502    0 -0.22615553550E+03  0.13747022084E+04  0.28719239362E+03  0.14224744539E+04  0.12699999809E+01 0. -1.
       -4    1    3    3    0  502  0.22615553550E+03 -0.13747022084E+04 -0.10920433606E+04  0.17701730996E+04  0.12699999809E+01 0.  1.
</event>
<event>
 5   0  0.4219337E-07  0.3095154E+04  0.7818609E-02  0.8217069E-01
        1   -1    0    0  501    0  0.00000000000E+00  0.00000000000E+00  0.17208149767E+04  0.17208149767E+04  0.50400001928E-02 0. -1.
       -1   -1    0    0    0  501  0.00000000000E+00  0.00000000000E+00 -0.13917792853E+04  0.13917792853E+04  0.50400001928E-02 0.  1.
    10030    2    1    2    0    0  0.00000000000E+00  0.00000000000E+00  0.32903569133E+03  0.31125942620E+04  0.30951540436E+04 0.  0.
        4    1    3    3  502    0  0.87057222094E+03 -0.23252905073E+03 -0.11007557434E+04  0.14225436973E+04  0.12699999809E+01 0.  1.
       -4    1    3    3    0  502 -0.87057222094E+03  0.23252905073E+03  0.14297914347E+04  0.16900505646E+04  0.12699999809E+01 0. -1.
</event>
<event>
 5   0  0.4134019E-07  0.3102340E+04  0.7818609E-02  0.8215096E-01
       -1   -1    0    0    0  501  0.00000000000E+00  0.00000000000E+00  0.19662159088E+04  0.19662159088E+04  0.50400001928E-02 0.  1.
        1   -1    0    0  501    0  0.00000000000E+00  0.00000000000E+00 -0.12237356154E+04  0.12237356155E+04  0.50400001928E-02 0. -1.
    10030    2    1    2    0    0  0.00000000000E+00  0.00000000000E+00  0.74248029335E+03  0.31899515243E+04  0.31023400428E+04 0.  0.
        2    1    3    3  502    0  0.11524882886E+04  0.64587189136E+03 -0.46458000347E+03  0.14004336239E+04  0.25500000920E-02 0. -1.
       -2    1    3    3    0  502 -0.11524882886E+04 -0.64587189136E+03  0.12070602968E+04  0.17895179003E+04  0.25500000920E-02 0.  1.
</event>
<event>
 5   0  0.4173905E-07  0.3104099E+04  0.7818609E-02  0.8214614E-01
       -1   -1    0    0    0  501  0.00000000000E+00  0.00000000000E+00  0.17658146110E+04  0.17658146110E+04  0.50400001928E-02 0.  1.
        1   -1    0    0  501    0  0.00000000000E+00  0.00000000000E+00 -0.13641621698E+04  0.13641621698E+04  0.50400001928E-02 0. -1.
    10030    2    1    2    0    0  0.00000000000E+00  0.00000000000E+00  0.40165244120E+03  0.31299767808E+04  0.31040988974E+04 0.  0.
        3    1    3    3  502    0 -0.19893898775E+02  0.15394590332E+04  0.39874706624E+03  0.15903864672E+04  0.10100000352E+00 0.  1.
       -3    1    3    3    0  502  0.19893898775E+02 -0.15394590332E+04  0.29053749657E+01  0.15395903135E+04  0.10100000352E+00 0. -1.
</event>
<event>
 5   0  0.1193123E-06  0.3092136E+04  0.7818609E-02  0.8217899E-01
        2   -1    0    0  501    0  0.00000000000E+00  0.00000000000E+00  0.18231045606E+04  0.18231045607E+04  0.25500000920E-02 0.  1.
       -2   -1    0    0    0  501  0.00000000000E+00  0.00000000000E+00 -0.13111296254E+04  0.13111296255E+04  0.25500000920E-02 0. -1.
    10030    2    1    2    0    0  0.00000000000E+00  0.00000000000E+00  0.51197493520E+03  0.31342341861E+04  0.30921360900E+04 0.  0.
        3    1    3    3  502    0  0.52437261122E+03 -0.35594216056E+03 -0.11734121165E+04  0.13336256830E+04  0.10100000352E+00 0. -1.
       -3    1    3    3    0  502 -0.52437261122E+03  0.35594216056E+03  0.16853870517E+04  0.18006085031E+04  0.10100000352E+00 0.  1.
</event>
<event>
 5   0  0.4134019E-07  0.3136034E+04  0.7818609E-02  0.8205918E-01
        1   -1    0    0  501    0  0.00000000000E+00  0.00000000000E+00  0.15576401768E+04  0.15576401768E+04  0.50400001928E-02 0.  1.
       -1   -1    0    0    0  501  0.00000000000E+00  0.00000000000E+00 -0.15784626185E+04  0.15784626185E+04  0.50400001928E-02 0. -1.
    10030    2    1    2    0    0  0.00000000000E+00  0.00000000000E+00 -0.20822441651E+02  0.31361027953E+04  0.31360336683E+04 0.  0.
        2    1    3    3  502    0  0.44284938356E+03  0.10741131410E+04  0.10426277436E+04  0.15610596490E+04  0.25500000920E-02 0.  1.
       -2    1    3    3    0  502 -0.44284938356E+03 -0.10741131410E+04 -0.10634501853E+04  0.15750431463E+04  0.25500000920E-02 0. -1.
</event>
<event>
 5   0  0.4134019E-07  0.3099797E+04  0.7818609E-02  0.8215794E-01
        1   -1    0    0  501    0  0.00000000000E+00  0.00000000000E+00  0.14746635134E+04  0.14746635134E+04  0.50400001928E-02 0. -1.
       -1   -1    0    0    0  501  0.00000000000E+00  0.00000000000E+00 -0.16289714052E+04  0.16289714052E+04  0.50400001928E-02 0.  1.
    10030    2    1    2    0    0  0.00000000000E+00  0.00000000000E+00 -0.15430789179E+03  0.31036349186E+04  0.30997965712E+04 0.  0.
        2    1    3    3  502    0 -0.15281939293E+04 -0.25792463553E+03 -0.93994177743E+02  0.15526547294E+04  0.25500000920E-02 0.  1.
       -2    1    3    3    0  502  0.15281939293E+04  0.25792463553E+03 -0.60313714049E+02  0.15509801892E+04  0.25500000920E-02 0. -1.
</event>
<event>
 5   0  0.1200286E-06  0.3105048E+04  0.7818609E-02  0.8214354E-01
        2   -1    0    0  501    0  0.00000000000E+00  0.00000000000E+00  0.27175799441E+04  0.27175799441E+04  0.25500000920E-02 0.  1.
       -2   -1    0    0    0  501  0.00000000000E+00  0.00000000000E+00 -0.88694016075E+03  0.88694016075E+03  0.25500000920E-02 0. -1.
    10030    2    1    2    0    0  0.00000000000E+00  0.00000000000E+00  0.18306397833E+04  0.36045201048E+04  0.31050480141E+04 0.  0.
        5    1    3    3  502    0 -0.15792256222E+03 -0.11901536292E+04  0.20579861299E+04  0.23825898090E+04  0.46999998093E+01 0.  1.
       -5    1    3    3    0  502  0.15792256222E+03  0.11901536292E+04 -0.22734634659E+03  0.12219302959E+04  0.46999998093E+01 0. -1.
</event>
<event>
 5   0  0.1237580E-06  0.3100336E+04  0.7818609E-02  0.8215646E-01
        2   -1    0    0  501    0  0.00000000000E+00  0.00000000000E+00  0.17734036491E+04  0.17734036491E+04  0.25500000920E-02 0. -1.
       -2   -1    0    0    0  501  0.00000000000E+00  0.00000000000E+00 -0.13550331483E+04  0.13550331483E+04  0.25500000920E-02 0.  1.
    10030    2    1    2    0    0  0.00000000000E+00  0.00000000000E+00  0.41837050073E+03  0.31284367974E+04  0.31003359366E+04 0.  0.
        4    1    3    3  502    0  0.91885799702E+03  0.80124666582E+03 -0.75694941778E+03  0.14350157742E+04  0.12699999809E+01 0.  1.
       -4    1    3    3    0  502 -0.91885799702E+03 -0.80124666582E+03  0.11753199185E+04  0.16934210232E+04  0.12699999809E+01 0. -1.
</event>
<event>
 5   0  0.4134019E-07  0.3098207E+04  0.7818609E-02  0.8216230E-01
       -1   -1    0    0    0  501  0.00000000000E+00  0.00000000000E+00  0.13486645387E+04  0.13486645387E+04  0.50400001928E-02 0.  1.
        1   -1    0    0  501    0  0.00000000000E+00  0.00000000000E+00 -0.17793318953E+04  0.17793318954E+04  0.50400001928E-02 0. -1.
    10030    2    1    2    0    0  0.00000000000E+00  0.00000000000E+00 -0.43066735663E+03  0.31279964341E+04  0.30982071137E+04 0.  0.
        2    1    3    3  502    0  0.23081899079E+02 -0.13549515928E+04 -0.97308000900E+03  0.16683258965E+04  0.25500000920E-02 0. -1.
       -2    1    3    3    0  502 -0.23081899079E+02  0.13549515928E+04  0.54241265238E+03  0.14596705376E+04  0.25500000920E-02 0.  1.
</event>
<event>
 5   0  0.4173905E-07  0.3108297E+04  0.7818609E-02  0.8213465E-01
       -1   -1    0    0    0  501  0.00000000000E+00  0.00000000000E+00  0.10224866726E+04  0.10224866726E+04  0.50400001928E-02 0. -1.
        1   -1    0    0  501    0  0.00000000000E+00  0.00000000000E+00 -0.23622581864E+04  0.23622581864E+04  0.50400001928E-02 0.  1.
    10030    2    1    2    0    0  0.00000000000E+00  0.00000000000E+00 -0.13397715138E+04  0.33847448590E+04  0.31082969696E+04 0.  0.
        3    1    3    3  502    0 -0.15248809501E+04 -0.21822497910E+03 -0.89435891844E+03  0.17812248423E+04  0.10100000352E+00 0. -1.
       -3    1    3    3    0  502  0.15248809501E+04  0.21822497910E+03 -0.44541259539E+03  0.16035200167E+04  0.10100000352E+00 0.  1.
</event>
<event>
 5   0  0.4173905E-07  0.2922565E+04  0.7818609E-02  0.8266195E-01
        1   -1    0    0  501    0  0.00000000000E+00  0.00000000000E+00  0.14362377369E+04  0.14362377369E+04  0.50400001928E-02 0. -1.
       -1   -1    0    0    0  501  0.00000000000E+00  0.00000000000E+00 -0.14867637818E+04  0.14867637818E+04  0.50400001928E-02 0.  1.
    10030    2    1    2    0    0  0.00000000000E+00  0.00000000000E+00 -0.50526044855E+02  0.29230015188E+04  0.29225647978E+04 0.  0.
        3    1    3    3  502    0  0.13433431893E+04 -0.46965261470E+03  0.30675305253E+03  0.14557616385E+04  0.10100000352E+00 0. -1.
       -3    1    3    3    0  502 -0.13433431893E+04  0.46965261470E+03 -0.35727909739E+03  0.14672398803E+04  0.10100000352E+00 0.  1.
</event>
<event>
 5   0  0.1176002E-06  0.3089293E+04  0.7818609E-02  0.8218682E-01
        2   -1    0    0  501    0  0.00000000000E+00  0.00000000000E+00  0.19133092414E+04  0.19133092414E+04  0.25500000920E-02 0. -1.
       -2   -1    0    0    0  501  0.00000000000E+00  0.00000000000E+00 -0.12470189434E+04  0.12470189434E+04  0.25500000920E-02 0.  1.
    10030    2    1    2    0    0  0.00000000000E+00  0.00000000000E+00  0.66629029801E+03  0.31603281848E+04  0.30892930380E+04 0.  0.
        2    1    3    3  502    0  0.91746042032E+03 -0.61732166311E+02 -0.93651706921E+03  0.13124818872E+04  0.25500000920E-02 0.  1.
       -2    1    3    3    0  502 -0.91746042032E+03  0.61732166311E+02  0.16028073672E+04  0.18478462976E+04  0.25500000920E-02 0. -1.
</event>
<event>
 5   0  0.4330395E-07  0.3125952E+04  0.7818609E-02  0.8208651E-01
       -1   -1    0    0    0  501  0.00000000000E+00  0.00000000000E+00  0.11067284965E+04  0.11067284965E+04  0.50400001928E-02 0.  1.
        1   -1    0    0  501    0  0.00000000000E+00  0.00000000000E+00 -0.22073112389E+04  0.22073112389E+04  0.50400001928E-02 0. -1.
    10030    2    1    2    0    0  0.00000000000E+00  0.00000000000E+00 -0.11005827424E+04  0.33140397354E+04  0.31259521742E+04 0.  0.
        1    1    3    3  502    0  0.81299619684E+03  0.10109087749E+03 -0.19614373863E+04  0.21256572635E+04  0.50400001928E-02 0. -1.
       -1    1    3    3    0  502 -0.81299619684E+03 -0.10109087749E+03  0.86085464391E+03  0.11883824719E+04  0.50400001928E-02 0.  1.
</event>
<event>
 5   0  0.1200286E-06  0.3096606E+04  0.7818609E-02  0.8216670E-01
        2   -1    0    0  501    0  0.00000000000E+00  0.00000000000E+00  0.14896559498E+04  0.14896559498E+04  0.25500000920E-02 0.  1.
       -2   -1    0    0    0  501  0.00000000000E+00  0.00000000000E+00 -0.16092589482E+04  0.16092589482E+04  0.25500000920E-02 0. -1.
    10030    2    1    2    0    0  0.00000000000E+00  0.00000000000E+00 -0.11960299845E+03  0.30989148980E+04  0.30966059917E+04 0.  0.
        5    1    3    3  502    0  0.38381097500E+03  0.10926834589E+04 -0.10881629855E+04  0.15891471860E+04  0.46999998093E+01 0. -1.
       -5    1    3    3    0  502 -0.38381097500E+03 -0.10926834589E+04  0.96855998700E+03  0.15097677120E+04  0.46999998093E+01 0.  1.
</event>
<event>
 5   0  0.4173905E-07  0.3098345E+04  0.7818609E-02  0.8216192E-01
        1   -1    0    0  501    0  0.00000000000E+00  0.00000000000E+00  0.13251616806E+04  0.13251616806E+04  0.50400001928E-02 0. -1.
       -1   -1    0    0    0  501  0.00000000000E+00  0.00000000000E+00 -0.18110511101E+04  0.18110511101E+04  0.50400001928E-02 0.  1.
    10030    2    1    2    0    0  0.00000000000E+00  0.00000000000E+00 -0.48588942943E+03  0.31362127907E+04  0.30983450632E+04 0.  0.
        3    1    3    3  502    0 -0.91886063511E+03  0.12380867725E+04 -0.90197107717E+02  0.15444414043E+04  0.10100000352E+00 0.  1.
       -3    1    3    3    0  502  0.91886063511E+03 -0.12380867725E+04 -0.39569232171E+03  0.15917713864E+04  0.10100000352E+00 0. -1.
</event>
<event>
 5   0  0.1176002E-06  0.3107145E+04  0.7818609E-02  0.8213780E-01
        2   -1    0    0  501    0  0.00000000000E+00  0.00000000000E+00  0.17842599234E+04  0.17842599234E+04  0.25500000920E-02 0. -1.
       -2   -1    0    0    0  501  0.00000000000E+00  0.00000000000E+00 -0.13527105780E+04  0.13527105780E+04  0.25500000920E-02 0.  1.
    10030    2    1    2    0    0  0.00000000000E+00  0.00000000000E+00  0.43154934543E+03  0.31369705014E+04  0.31071448452E+04 0.  0.
        2    1    3    3  502    0  0.54813216365E+03  0.75517021945E+03  0.14698155144E+04  0.17410021756E+04  0.25500000920E-02 0. -1.
       -2    1    3    3    0  502 -0.54813216365E+03 -0.75517021945E+03 -0.10382661689E+04  0.13959683258E+04  0.25500000920E-02 0.  1.
</event>
<event>
 5   0  0.1200286E-06  0.3174168E+04  0.7818609E-02  0.8195673E-01
        2   -1    0    0  501    0  0.00000000000E+00  0.00000000000E+00  0.16737949363E+04  0.16737949363E+04  0.25500000920E-02 0.  1.
       -2   -1    0    0    0  501  0.00000000000E+00  0.00000000000E+00 -0.15048647211E+04  0.15048647211E+04  0.25500000920E-02 0. -1.
    10030    2    1    2    0    0  0.00000000000E+00  0.00000000000E+00  0.16893021518E+03  0.31786596574E+04  0.31741675759E+04 0.  0.
        5    1    3    3  502    0  0.93801477225E+03 -0.78487766390E+03  0.10972856680E+04  0.16431562882E+04  0.46999998093E+01 0.  1.
       -5    1    3    3    0  502 -0.93801477225E+03  0.78487766390E+03 -0.92835545279E+03  0.15355033692E+04  0.46999998093E+01 0. -1.
</event>
<event>
 5   0  0.4330395E-07  0.3060569E+04  0.7818609E-02  0.8226643E-01
        1   -1    0    0  501    0  0.00000000000E+00  0.00000000000E+00  0.16525554173E+04  0.16525554173E+04  0.50400001928E-02 0.  1.
       -1   -1    0    0    0  501  0.00000000000E+00  0.00000000000E+00 -0.14170606150E+04  0.14170606150E+04  0.50400001928E-02 0. -1.
    10030    2    1    2    0    0  0.00000000000E+00  0.00000000000E+00  0.23549480225E+03  0.30696160323E+04  0.30605693561E+04 0.  0.
        1    1    3    3  502    0  0.40787573368E+03 -0.70263947944E+03 -0.11828920116E+04  0.14350255619E+04  0.50400001928E-02 0. -1.
       -1    1    3    3    0  502 -0.40787573368E+03  0.70263947944E+03  0.14183868138E+04  0.16345904704E+04  0.50400001928E-02 0.  1.
</event>
<event>
 5   0  0.4219337E-07  0.3090992E+04  0.7818609E-02  0.8218214E-01
       -1   -1    0    0    0  501  0.00000000000E+00  0.00000000000E+00  0.15258637475E+04  0.15258637475E+04  0.50400001928E-02 0.  1.
        1   -1    0    0  501    0  0.00000000000E+00  0.00000000000E+00 -0.15653809952E+04  0.15653809952E+04  0.50400001928E-02 0. -1.
    10030    2    1    2    0    0  0.00000000000E+00  0.00000000000E+00 -0.39517247689E+02  0.30912447427E+04  0.30909921460E+04 0.  0.
        4    1    3    3  502    0 -0.71455797003E+03 -0.60619778903E+02  0.13493998753E+04  0.15281195917E+04  0.12699999809E+01 0.  1.
       -4    1    3    3    0  502  0.71455797003E+03  0.60619778903E+02 -0.13889171230E+04  0.15631251510E+04  0.12699999809E+01 0. -1.
</event>
<event>
 5   0  0.1193123E-06  0.3097724E+04  0.7818609E-02  0.8216363E-01
       -2   -1    0    0    0  501  0.00000000000E+00  0.00000000000E+00  0.12532370312E+04  0.12532370312E+04  0.25500000920E-02 0. -1.
        2   -1    0    0  501    0  0.00000000000E+00  0.00000000000E+00 -0.19142222187E+04  0.19142222187E+04  0.25500000920E-02 0.  1.
    10030    2    1    2    0    0  0.00000000000E+00  0.00000000000E+00 -0.66098518749E+03  0.31674592499E+04  0.30977244361E+04 0.  0.
        3    1    3    3  502    0 -0.48538233951E+03 -0.92854691031E+03  0.83587848048E+03  0.13403313861E+04  0.10100000352E+00 0. -1.
       -3    1    3    3    0  502  0.48538233951E+03  0.92854691031E+03 -0.14968636680E+04  0.18271278638E+04  0.10100000352E+00 0.  1.
</event>
<event>
 5   0  0.3935852E-07  0.3100052E+04  0.7818609E-02  0.8215724E-01
       -1   -1    0    0    0  501  0.00000000000E+00  0.00000000000E+00  0.12408447792E+04  0.12408447792E+04  0.50400001928E-02 0. -1.
        1   -1    0    0  501    0  0.00000000000E+00  0.00000000000E+00 -0.19362456336E+04  0.19362456336E+04  0.50400001928E-02 0.  1.
    10030    2    1    2    0    0  0.00000000000E+00  0.00000000000E+00 -0.69540085441E+03  0.31770904128E+04  0.31000517968E+04 0.  0.
        5    1    3    3  502    0  0.64531841568E+02 -0.17117595838E+02  0.12393632167E+04  0.12411690633E+04  0.46999998093E+01 0. -1.
       -5    1    3    3    0  502 -0.64531841568E+02  0.17117595838E+02 -0.19347640711E+04  0.19359213496E+04  0.46999998093E+01 0.  1.
</event>
<event>
 5   0  0.1258262E-06  0.3232463E+04  0.7818609E-02  0.8180296E-01
       -2   -1    0    0    0  501  0.00000000000E+00  0.00000000000E+00  0.12592454927E+04  0.12592454927E+04  0.25500000920E-02 0.  1.
        2   -1    0    0  501    0  0.00000000000E+00  0.00000000000E+00 -0.20744205854E+04  0.20744205854E+04  0.25500000920E-02 0. -1.
    10030    2    1    2    0    0  0.00000000000E+00  0.00000000000E+00 -0.81517509271E+03  0.33336660781E+04  0.32324633159E+04 0.  0.
        1    1    3    3  502    0  0.11981589691E+04 -0.28303653142E+03 -0.14875156040E+04  0.19309058148E+04  0.50400001928E-02 0. -1.
       -1    1    3    3    0  502 -0.11981589691E+04  0.28303653142E+03  0.67234051125E+03  0.14027602634E+04  0.50400001928E-02 0.  1.
</event>
<event>
 5   0  0.4330395E-07  0.3107811E+04  0.7818609E-02  0.8213597E-01
        1   -1    0    0  501    0  0.00000000000E+00  0.00000000000E+00  0.18442927090E+04  0.18442927090E+04  0.50400001928E-02 0. -1.
       -1   -1    0    0    0  501  0.00000000000E+00  0.00000000000E+00 -0.13092406846E+04  0.13092406846E+04  0.50400001928E-02 0.  1.
    10030    2    1    2    0    0  0.00000000000E+00  0.00000000000E+00  0.53505202442E+03  0.31535333936E+04  0.31078114801E+04 0.  0.
        1    1    3    3  502    0  0.19162716908E+03 -0.41159061409E+03 -0.12404380853E+04  0.13209142474E+04  0.50400001928E-02 0.  1.
       -1    1    3    3    0  502 -0.19162716908E+03  0.41159061409E+03  0.17754901097E+04  0.18326191462E+04  0.50400001928E-02 0. -1.
</event>
<event>
 5   0  0.1176002E-06  0.3084363E+04  0.7818609E-02  0.8220043E-01
        2   -1    0    0  501    0  0.00000000000E+00  0.00000000000E+00  0.10358563325E+04  0.10358563325E+04  0.25500000920E-02 0. -1.
       -2   -1    0    0    0  501  0.00000000000E+00  0.00000000000E+00 -0.22959970075E+04  0.22959970075E+04  0.25500000920E-02 0.  1.
    10030    2    1    2    0    0  0.00000000000E+00  0.00000000000E+00 -0.12601406750E+04  0.33318533400E+04  0.30843625206E+04 0.  0.
        2    1    3    3  502    0 -0.22382879658E+02 -0.13020819252E+04  0.26229248016E+03  0.13284260154E+04  0.25500000920E-02 0. -1.
       -2    1    3    3    0  502  0.22382879658E+02  0.13020819252E+04 -0.15224331552E+04  0.20034273247E+04  0.25500000920E-02 0.  1.
</event>
<event>
 5   0  0.4173905E-07  0.3103727E+04  0.7818609E-02  0.8214716E-01
       -1   -1    0    0    0  501  0.00000000000E+00  0.00000000000E+00  0.16181381421E+04  0.16181381421E+04  0.50400001928E-02 0.  1.
        1   -1    0    0  501    0  0.00000000000E+00  0.00000000000E+00 -0.14883037135E+04  0.14883037135E+04  0.50400001928E-02 0. -1.
    10030    2    1    2    0    0  0.00000000000E+00  0.00000000000E+00  0.12983442860E+03  0.31064418555E+04  0.31037274402E+04 0.  0.
        3    1    3    3  502    0  0.30158616431E+03  0.27152311339E+03 -0.14342585770E+04  0.14905625420E+04  0.10100000352E+00 0. -1.
       -3    1    3    3    0  502 -0.30158616431E+03 -0.27152311339E+03  0.15640930056E+04  0.16158793136E+04  0.10100000352E+00 0.  1.
</event>
<event>
 5   0  0.1237580E-06  0.3131559E+04  0.7818609E-02  0.8207130E-01
        2   -1    0    0  501    0  0.00000000000E+00  0.00000000000E+00  0.15484274174E+04  0.15484274174E+04  0.25500000920E-02 0.  1.
       -2   -1    0    0    0  501  0.00000000000E+00  0.00000000000E+00 -0.15833258514E+04  0.15833258514E+04  0.25500000920E-02 0. -1.
    10030    2    1    2    0    0  0.00000000000E+00  0.00000000000E+00 -0.34898433987E+02  0.31317532688E+04  0.31315588188E+04 0.  0.
        4    1    3    3  502    0  0.13956676724E+04 -0.59264578908E+03  0.37314674814E+03  0.15615240605E+04  0.12699999809E+01 0.  1.
       -4    1    3    3    0  502 -0.13956676724E+04  0.59264578908E+03 -0.40804518212E+03  0.15702292083E+04  0.12699999809E+01 0. -1.
</event>
<event>
 5   0  0.1258262E-06  0.3110950E+04  0.7818609E-02  0.8212739E-01
       -2   -1    0    0    0  501  0.00000000000E+00  0.00000000000E+00  0.10339130125E+04  0.10339130125E+04  0.25500000920E-02 0. -1.
        2   -1    0    0  501    0  0.00000000000E+00  0.00000000000E+00 -0.23401419438E+04  0.23401419438E+04  0.25500000920E-02 0.  1.
    10030    2    1    2    0    0  0.00000000000E+00  0.00000000000E+00 -0.13062289313E+04  0.33740549564E+04  0.31109504701E+04 0.  0.
        1    1    3    3  502    0 -0.59442409716E+03 -0.63253743200E+02  0.90435830446E+03  0.10840687184E+04  0.50400001928E-02 0. -1.
       -1    1    3    3    0  502  0.59442409716E+03  0.63253743200E+02 -0.22105872357E+04  0.22899862380E+04  0.50400001928E-02 0.  1.
</event>
<event>
 5   0  0.4173905E-07  0.3089717E+04  0.7818609E-02  0.8218566E-01
        1   -1    0    0  501    0  0.00000000000E+00  0.00000000000E+00  0.11230617303E+04  0.11230617303E+04  0.50400001928E-02 0.  1.
       -1   -1    0    0    0  501  0.00000000000E+00  0.00000000000E+00 -0.21250733479E+04  0.21250733479E+04  0.50400001928E-02 0. -1.
    10030    2    1    2    0    0  0.00000000000E+00  0.00000000000E+00 -0.10020116176E+04  0.32481350782E+04  0.30897174959E+04 0.  0.
        3    1    3    3  502    0  0.14467314038E+04 -0.29230765367E+03 -0.21421531147E+02  0.14761214081E+04  0.10100000352E+00 0. -1.
       -3    1    3    3    0  502 -0.14467314038E+04  0.29230765367E+03 -0.98059008645E+03  0.17720136701E+04  0.10100000352E+00 0.  1.
</event>
<event>
 5   0  0.3935852E-07  0.3088374E+04  0.7818609E-02  0.8218936E-01
       -1   -1    0    0    0  501  0.00000000000E+00  0.00000000000E+00  0.10244401264E+04  0.10244401264E+04  0.50400001928E-02 0.  1.
        1   -1    0    0  501    0  0.00000000000E+00  0.00000000000E+00 -0.23276262409E+04  0.23276262409E+04  0.50400001928E-02 0. -1.
    10030    2    1    2    0    0  0.00000000000E+00  0.00000000000E+00 -0.13031861144E+04  0.33520663673E+04  0.30883741486E+04 0.  0.
        5    1    3    3  502    0  0.98338853546E+03 -0.44547599575E+02 -0.19429033124E+04  0.21780571324E+04  0.46999998093E+01 0. -1.
       -5    1    3    3    0  502 -0.98338853546E+03  0.44547599575E+02  0.63971719801E+03  0.11740092349E+04  0.46999998093E+01 0.  1.
</event>
<event>
 5   0  0.4173905E-07  0.3124005E+04  0.7818609E-02  0.8209181E-01
       -1   -1    0    0    0  501  0.00000000000E+00  0.00000000000E+00  0.12645848196E+04  0.12645848196E+04  0.50400001928E-02 0. -1.
        1   -1    0    0  501    0  0.00000000000E+00  0.00000000000E+00 -0.19293698822E+04  0.19293698822E+04  0.50400001928E-02 0.  1.
    10030    2    1    2    0    0  0.00000000000E+00  0.00000000000E+00 -0.66478506261E+03  0.31939547018E+04  0.31240050348E+04 0.  0.
        3    1    3    3  502    0  0.10950712661E+04  0.40067617073E+03  0.73017102751E+03  0.13758169250E+04  0.10100000352E+00 0. -1.
       -3    1    3    3    0  502 -0.10950712661E+04 -0.40067617073E+03 -0.13949560901E+04  0.18181377767E+04  0.10100000352E+00 0.  1.
</event>
<event>
 5   0  0.3935852E-07  0.3052179E+04  0.7818609E-02  0.8228986E-01
        1   -1    0    0  501    0  0.00000000000E+00  0.00000000000E+00  0.27438505846E+04  0.27438505846E+04  0.50400001928E-02 0. -1.
       -1   -1    0    0    0  501  0.00000000000E+00  0.00000000000E+00 -0.84878888025E+03  0.84878888026E+03  0.50400001928E-02 0.  1.
    10030    2    1    2    0    0  0.00000000000E+00  0.00000000000E+00  0.18950617043E+04  0.35926394649E+04  0.30521794608E+04 0.  0.
        5    1    3    3  502    0  0.55277306369E+03 -0.14055309405E+04  0.69004353404E+03  0.16604991580E+04  0.46999998093E+01 0.  1.
       -5    1    3    3    0  502 -0.55277306369E+03  0.14055309405E+04  0.12050181703E+04  0.19321403069E+04  0.46999998093E+01 0. -1.
</event>
<event>
 5   0  0.1176002E-06  0.3115282E+04  0.7818609E-02  0.8211556E-01
        2   -1    0    0  501    0  0.00000000000E+00  0.00000000000E+00  0.99941585869E+03  0.99941585869E+03  0.25500000920E-02 0.  1.
       -2   -1    0    0    0  501  0.00000000000E+00  0.00000000000E+00 -0.24276629374E+04  0.24276629374E+04  0.25500000920E-02 0. -1.
    10030    2    1    2    0    0  0.00000000000E+00  0.00000000000E+00 -0.14282470787E+04  0.34270787961E+04  0.31152815855E+04 0.  0.
        2    1    3    3  502    0  0.80979982246E+03 -0.17268964241E+03 -0.21655070396E+04  0.23184085498E+04  0.25500000920E-02 0. -1.
       -2    1    3    3    0  502 -0.80979982246E+03  0.17268964241E+03  0.73725996092E+03  0.11086702463E+04  0.25500000920E-02 0.  1.
</event>
<event>
 5   0  0.4173905E-07  0.3117343E+04  0.7818609E-02  0.8210994E-01
       -1   -1    0    0    0  501  0.00000000000E+00  0.00000000000E+00  0.30089327632E+04  0.30089327632E+04  0.50400001928E-02 0.  1.
        1   -1    0    0  501    0  0.00000000000E+00  0.00000000000E+00 -0.80741492937E+03  0.80741492938E+03  0.50400001928E-02 0. -1.
    10030    2    1    2    0    0  0.00000000000E+00  0.00000000000E+00  0.22015178339E+04  0.38163476926E+04  0.31173432500E+04 0.  0.
        3    1    3    3  502    0  0.67784234306E+03  0.54287180349E+03 -0.48379363443E+03  0.99410076349E+03  0.10100000352E+00 0. -1.
       -3    1    3    3    0  502 -0.67784234306E+03 -0.54287180349E+03  0.26853114683E+04  0.28222469291E+04  0.10100000352E+00 0.  1.
</event>
<event>
 5   0  0.1258262E-06  0.3076010E+04  0.7818609E-02  0.8222353E-01
       -2   -1    0    0    0  501  0.00000000000E+00  0.00000000000E+00  0.13944516043E+04  0.13944516043E+04  0.25500000920E-02 0. -1.
        2   -1    0    0  501    0  0.00000000000E+00  0.00000000000E+00 -0.16963365704E+04  0.16963365704E+04  0.25500000920E-02 0.  1.
    10030    2    1    2    0    0  0.00000000000E+00  0.00000000000E+00 -0.30188496607E+03  0.30907881747E+04  0.30760099168E+04 0.  0.
        1    1    3    3  502    0  0.72382863207E+02 -0.15204918347E+04  0.69942116384E+02  0.15238197393E+04  0.50400001928E-02 0. -1.
       -1    1    3    3    0  502 -0.72382863207E+02  0.15204918347E+04 -0.37182708245E+03  0.15669684354E+04  0.50400001928E-02 0.  1.
</event>
<event>
 5   0  0.1237580E-06  0.3100791E+04  0.7818609E-02  0.8215521E-01
       -2   -1    0    0    0  501  0.00000000000E+00  0.00000000000E+00  0.14194991977E+04  0.14194991977E+04  0.25500000920E-02 0.  1.
        2   -1    0    0  501    0  0.00000000000E+00  0.00000000000E+00 -0.16933622765E+04  0.16933622765E+04  0.25500000920E-02 0. -1.
    10030    2    1    2    0    0  0.00000000000E+00  0.00000000000E+00 -0.27386307889E+03  0.31128614742E+04  0.31007911203E+04 0.  0.
        4    1    3    3  502    0  0.94527964048E+02 -0.91105201936E+03 -0.13927099688E+04  0.16669115118E+04  0.12699999809E+01 0. -1.
       -4    1    3    3    0  502 -0.94527964048E+02  0.91105201936E+03  0.11188468899E+04  0.14459499625E+04  0.12699999809E+01 0.  1.
</event>
<event>
 5   0  0.3935852E-07  0.3081028E+04  0.7818609E-02  0.8220964E-01
       -1   -1    0    0    0  501  0.00000000000E+00  0.00000000000E+00  0.14560205685E+04  0.14560205685E+04  0.50400001928E-02 0.  1.
        1   -1    0    0  501    0  0.00000000000E+00  0.00000000000E+00 -0.16299102448E+04  0.16299102448E+04  0.50400001928E-02 0. -1.
    10030    2    1    2    0    0  0.00000000000E+00  0.00000000000E+00 -0.17388967627E+03  0.30859308133E+04  0.30810276475E+04 0.  0.
        5    1    3    3  502    0 -0.84420628930E+03 -0.10915501276E+04  0.59897696586E+03  0.15043142742E+04  0.46999998093E+01 0.  1.
       -5    1    3    3    0  502  0.84420628930E+03  0.10915501276E+04 -0.77286664214E+03  0.15816165390E+04  0.46999998093E+01 0. -1.
</event>
<event>
 5   0  0.1193123E-06  0.3082813E+04  0.7818609E-02  0.8220471E-01
        2   -1    0    0  501    0  0.00000000000E+00  0.00000000000E+00  0.12647725630E+04  0.12647725630E+04  0.25500000920E-02 0.  1.
       -2   -1    0    0    0  501  0.00000000000E+00  0.00000000000E+00 -0.18785464079E+04  0.18785464079E+04  0.25500000920E-02 0. -1.
    10030    2    1    2    0    0  0.00000000000E+00  0.00000000000E+00 -0.61377384485E+03  0.31433189709E+04  0.30828129720E+04 0.  0.
        3    1    3    3  502    0  0.83448318585E+03 -0.53142925834E+03 -0.15120991357E+04  0.18069928197E+04  0.10100000352E+00 0. -1.
       -3    1    3    3    0  502 -0.83448318585E+03  0.53142925834E+03  0.89832529081E+03  0.13363261512E+04  0.10100000352E+00 0.  1.
</event>
<event>
 5   0  0.1193123E-06  0.3094053E+04  0.7818609E-02  0.8217372E-01
        2   -1    0    0  501    0  0.00000000000E+00  0.00000000000E+00  0.98384372560E+03  0.98384372560E+03  0.25500000920E-02 0. -1.
       -2   -1    0    0    0  501  0.00000000000E+00  0.00000000000E+00 -0.24325920569E+04  0.24325920569E+04  0.25500000920E-02 0.  1.
    10030    2    1    2    0    0  0.00000000000E+00  0.00000000000E+00 -0.14487483313E+04  0.34164357825E+04  0.30940526383E+04 0.  0.
        3    1    3    3  502    0  0.67621426576E+03 -0.38334086056E+03  0.75255536285E+03  0.10819221474E+04  0.10100000352E+00 0. -1.
       -3    1    3    3    0  502 -0.67621426576E+03  0.38334086056E+03 -0.22013036942E+04  0.23345136352E+04  0.10100000352E+00 0.  1.
</event>
<event>
 5   0  0.4134019E-07  0.3113242E+04  0.7818609E-02  0.8212113E-01
       -1   -1    0    0    0  501  0.00000000000E+00  0.00000000000E+00  0.14328476004E+04  0.14328476004E+04  0.50400001928E-02 0.  1.
        1   -1    0    0  501    0  0.00000000000E+00  0.00000000000E+00 -0.16910861448E+04  0.16910861448E+04  0.50400001928E-02 0. -1.
    10030    2    1    2    0    0  0.00000000000E+00  0.00000000000E+00 -0.25823854434E+03  0.31239337452E+04  0.31132418632E+04 0.  0.
        2    1    3    3  502    0  0.86752585082E+02  0.53748805307E+03 -0.15924311309E+04  0.16829308735E+04  0.25500000920E-02 0. -1.
       -2    1    3    3    0  502 -0.86752585082E+02 -0.53748805307E+03  0.13341925866E+04  0.14410028717E+04  0.25500000920E-02 0.  1.
</event>
<event>
 5   0  0.3935852E-07  0.3101896E+04  0.7818609E-02  0.8215218E-01
       -1   -1    0    0    0  501  0.00000000000E+00  0.00000000000E+00  0.15018267023E+04  0.15018267023E+04  0.50400001928E-02 0. -1.
        1   -1    0    0  501    0  0.00000000000E+00  0.00000000000E+00 -0.16016760089E+04  0.16016760089E+04  0.50400001928E-02 0.  1.
    10030    2    1    2    0    0  0.00000000000E+00  0.00000000000E+00 -0.99849306641E+02  0.31035027113E+04  0.31018960645E+04 0.  0.
        5    1    3    3  502    0 -0.97040349658E+03 -0.39835317893E+03  0.10930546881E+04  0.15149781657E+04  0.46999998093E+01 0. -1.
       -5    1    3    3    0  502  0.97040349658E+03  0.39835317893E+03 -0.11929039947E+04  0.15885245456E+04  0.46999998093E+01 0.  1.
</event>
<event>
 5   0  0.4330395E-07  0.3103275E+04  0.7818609E-02  0.8214840E-01
       -1   -1    0    0    0  501  0.00000000000E+00  0.00000000000E+00  0.12589565125E+04  0.12589565125E+04  0.50400001928E-02 0.  1.
        1   -1    0    0  501    0  0.00000000000E+00  0.00000000000E+00 -0.19123608159E+04  0.19123608159E+04  0.50400001928E-02 0. -1.
    10030    2    1    2    0    0  0.00000000000E+00  0.00000000000E+00 -0.65340430341E+03  0.31713173284E+04  0.31032751109E+04 0.  0.
        1    1    3    3  502    0  0.82748087073E+02 -0.25003351045E+03  0.12359476200E+04  0.12636971637E+04  0.50400001928E-02 0.  1.
       -1    1    3    3    0  502 -0.82748087073E+02  0.25003351045E+03 -0.18893519234E+04  0.19076201647E+04  0.50400001928E-02 0. -1.
</event>
<event>
 5   0  0.1200286E-06  0.3098925E+04  0.7818609E-02  0.8216033E-01
       -2   -1    0    0    0  501  0.00000000000E+00  0.00000000000E+00  0.16688488805E+04  0.16688488805E+04  0.25500000920E-02 0.  1.
        2   -1    0    0  501    0  0.00000000000E+00  0.00000000000E+00 -0.14386168113E+04  0.14386168113E+04  0.25500000920E-02 0. -1.
    10030    2    1    2    0    0  0.00000000000E+00  0.00000000000E+00  0.23023206919E+03  0.31074656918E+04  0.30989250104E+04 0.  0.
        5    1    3    3  502    0  0.80042190425E+03 -0.13038409857E+04 -0.13078506184E+03  0.15355140387E+04  0.46999998093E+01 0. -1.
       -5    1    3    3    0  502 -0.80042190425E+03  0.13038409857E+04  0.36101713103E+03  0.15719516531E+04  0.46999998093E+01 0.  1.
</event>
<event>
 5   0  0.1193123E-06  0.3150957E+04  0.7818609E-02  0.8201891E-01
        2   -1    0    0  501    0  0.00000000000E+00  0.00000000000E+00  0.23658373447E+04  0.23658373447E+04  0.25500000920E-02 0.  1.
       -2   -1    0    0    0  501  0.00000000000E+00  0.00000000000E+00 -0.10491561324E+04  0.10491561324E+04  0.25500000920E-02 0. -1.
    10030    2    1    2    0    0  0.00000000000E+00  0.00000000000E+00  0.13166812123E+04  0.34149934771E+04  0.31509571616E+04 0.  0.
        3    1    3    3  502    0 -0.52579765970E+03 -0.71151723008E+02  0.22660910009E+04  0.23273792517E+04  0.10100000352E+00 0.  1.
       -3    1    3    3    0  502  0.52579765970E+03  0.71151723008E+02 -0.94940978855E+03  0.10876142255E+04  0.10100000352E+00 0. -1.
</event>
<event>
 5   0  0.1237580E-06  0.3115296E+04  0.7818609E-02  0.8211553E-01
        2   -1    0    0  501    0  0.00000000000E+00  0.00000000000E+00  0.24441008040E+04  0.24441008040E+04  0.25500000920E-02 0. -1.
       -2   -1    0    0    0  501  0.00000000000E+00  0.00000000000E+00 -0.99270335970E+03  0.99270335970E+03  0.25500000920E-02 0.  1.
    10030    2    1    2    0    0  0.00000000000E+00  0.00000000000E+00  0.14513974443E+04  0.34368041637E+04  0.31152958637E+04 0.  0.
        4    1    3    3  502    0  0.51569396154E+03 -0.13170601159E+03 -0.88927112368E+03  0.10363838477E+04  0.12699999809E+01 0.  1.
       -4    1    3    3    0  502 -0.51569396154E+03  0.13170601159E+03  0.23406685680E+04  0.24004203160E+04  0.12699999809E+01 0. -1.
</event>
<event>
 5   0  0.1193123E-06  0.2922668E+04  0.7818609E-02  0.8266165E-01
       -2   -1    0    0    0  501  0.00000000000E+00  0.00000000000E+00  0.13244281639E+04  0.13244281639E+04  0.25500000920E-02 0.  1.
        2   -1    0    0  501    0  0.00000000000E+00  0.00000000000E+00 -0.16123913431E+04  0.16123913431E+04  0.25500000920E-02 0. -1.
    10030    2    1    2    0    0  0.00000000000E+00  0.00000000000E+00 -0.28796317920E+03  0.29368195070E+04  0.29226676212E+04 0.  0.
        3    1    3    3  502    0 -0.90100646995E+03 -0.35283847699E+02  0.10115601401E+04  0.13551057287E+04  0.10100000352E+00 0.  1.
       -3    1    3    3    0  502  0.90100646995E+03  0.35283847699E+02 -0.12995233193E+04  0.15817137783E+04  0.10100000352E+00 0. -1.
</event>
<event>
 5   0  0.3935852E-07  0.3129115E+04  0.7818609E-02  0.8207793E-01
        1   -1    0    0  501    0  0.00000000000E+00  0.00000000000E+00  0.19686787985E+04  0.19686787985E+04  0.50400001928E-02 0. -1.
       -1   -1    0    0    0  501  0.00000000000E+00  0.00000000000E+00 -0.12433921101E+04  0.12433921101E+04  0.50400001928E-02 0.  1.
    10030    2    1    2    0    0  0.00000000000E+00  0.00000000000E+00  0.72528668839E+03  0.32120709085E+04  0.31291146897E+04 0.  0.
        5    1    3    3  502    0  0.37483075877E+03  0.15105080359E+04  0.52715746607E+03  0.16431827982E+04  0.46999998093E+01 0.  1.
       -5    1    3    3    0  502 -0.37483075877E+03 -0.15105080359E+04  0.19812922232E+03  0.15688881104E+04  0.46999998093E+01 0. -1.
</event>
<event>
 5   0  0.4219337E-07  0.3121211E+04  0.7818609E-02  0.8209941E-01
        1   -1    0    0  501    0  0.00000000000E+00  0.00000000000E+00  0.17997511425E+04  0.17997511425E+04  0.50400001928E-02 0.  1.
       -1   -1    0    0    0  501  0.00000000000E+00  0.00000000000E+00 -0.13532366972E+04  0.13532366972E+04  0.50400001928E-02 0. -1.
    10030    2    1    2    0    0  0.00000000000E+00  0.00000000000E+00  0.44651444527E+03  0.31529878397E+04  0.31212108496E+04 0.  0.
        4    1    3    3  502    0  0.65676519421E+03 -0.10955077079E+04  0.11290522219E+04  0.17047692486E+04  0.12699999809E+01 0.  1.
       -4    1    3    3    0  502 -0.65676519421E+03  0.10955077079E+04 -0.68253777660E+03  0.14482185911E+04  0.12699999809E+01 0. -1.
</event>
<event>
 5   0  0.3935852E-07  0.2893924E+04  0.7818609E-02  0.8274688E-01
       -1   -1    0    0    0  501  0.00000000000E+00  0.00000000000E+00  0.89666792095E+03  0.89666792096E+03  0.50400001928E-02 0. -1.
        1   -1    0    0  501    0  0.00000000000E+00  0.00000000000E+00 -0.23349771173E+04  0.23349771173E+04  0.50400001928E-02 0.  1.
    10030    2    1    2    0    0  0.00000000000E+00  0.00000000000E+00 -0.14383091963E+04  0.32316450383E+04  0.28939240330E+04 0.  0.
        5    1    3    3  502    0  0.11907936389E+04  0.56769789040E+03 -0.13830105524E+04  0.19112850816E+04  0.46999998093E+01 0.  1.
       -5    1    3    3    0  502 -0.11907936389E+04 -0.56769789040E+03 -0.55298643993E+02  0.13203599567E+04  0.46999998093E+01 0. -1.
</event>
<event>
 5   0  0.4219337E-07  0.3104421E+04  0.7818609E-02  0.8214526E-01
        1   -1    0    0  501    0  0.00000000000E+00  0.00000000000E+00  0.16603003464E+04  0.16603003464E+04  0.50400001928E-02 0. -1.
       -1   -1    0    0    0  501  0.00000000000E+00  0.00000000000E+00 -0.14511575193E+04  0.14511575193E+04  0.50400001928E-02 0.  1.
    10030    2    1    2    0    0  0.00000000000E+00  0.00000000000E+00  0.20914282705E+03  0.31114578657E+04  0.31044209328E+04 0.  0.
        4    1    3    3  502    0  0.82932547593E+03 -0.75589571332E+03 -0.97033181990E+03  0.14834771748E+04  0.12699999809E+01 0.  1.
       -4    1    3    3    0  502 -0.82932547593E+03  0.75589571332E+03  0.11794746470E+04  0.16279806910E+04  0.12699999809E+01 0. -1.
</event>
<event>
 5   0  0.1193123E-06  0.3109064E+04  0.7818609E-02  0.8213255E-01
        2   -1    0    0  501    0  0.00000000000E+00  0.00000000000E+00  0.19097837384E+04  0.19097837384E+04  0.25500000920E-02 0.  1.
       -2   -1    0    0    0  501  0.00000000000E+00  0.00000000000E+00 -0.12653627007E+04  0.12653627007E+04  0.25500000920E-02 0. -1.
    10030    2    1    2    0    0  0.00000000000E+00  0.00000000000E+00  0.64442103772E+03  0.31751464391E+04  0.31090635947E+04 0.  0.
        3    1    3    3  502    0 -0.54235393513E+03 -0.13952008755E+04  0.75045111584E+03  0.16744880297E+04  0.10100000352E+00 0. -1.
       -3    1    3    3    0  502  0.54235393513E+03  0.13952008755E+04 -0.10603007812E+03  0.15006584094E+04  0.10100000352E+00 0.  1.
</event>
<event>
 5   0  0.4173905E-07  0.3109153E+04  0.7818609E-02  0.8213230E-01
       -1   -1    0    0    0  501  0.00000000000E+00  0.00000000000E+00  0.13191024176E+04  0.13191024176E+04  0.50400001928E-02 0. -1.
        1   -1    0    0  501    0  0.00000000000E+00  0.00000000000E+00 -0.18320857042E+04  0.18320857042E+04  0.50400001928E-02 0.  1.
    10030    2    1    2    0    0  0.00000000000E+00  0.00000000000E+00 -0.51298328661E+03  0.31511881218E+04  0.31091533778E+04 0.  0.
        3    1    3    3  502    0  0.86162856176E+03 -0.10378656722E+04  0.52670383447E+03  0.14480973280E+04  0.10100000352E+00 0.  1.
       -3    1    3    3    0  502 -0.86162856176E+03  0.10378656722E+04 -0.10396871211E+04  0.17030907938E+04  0.10100000352E+00 0. -1.
</event>
<event>
 5   0  0.3902375E-07  0.3176705E+04  0.7818609E-02  0.8194997E-01
       -4   -1    0    0    0  501  0.00000000000E+00  0.00000000000E+00  0.12187762596E+04  0.12187769213E+04  0.12699999809E+01 0. -1.
        4   -1    0    0  501    0  0.00000000000E+00  0.00000000000E+00 -0.20699958432E+04  0.20699962328E+04  0.12699999809E+01 0.  1.
    10030    2    1    2    0    0  0.00000000000E+00  0.00000000000E+00 -0.85121958364E+03  0.32887731541E+04  0.31767049091E+04 0.  0.
        5    1    3    3  502    0 -0.40378225546E+03 -0.34724620786E+02  0.11643413511E+04  0.12328660840E+04  0.46999998093E+01 0. -1.
       -5    1    3    3    0  502  0.40378225546E+03  0.34724620786E+02 -0.20155609348E+04  0.20559070701E+04  0.46999998093E+01 0.  1.
</event>
<event>
 5   0  0.1193123E-06  0.3169582E+04  0.7818609E-02  0.8196897E-01
       -2   -1    0    0    0  501  0.00000000000E+00  0.00000000000E+00  0.25856701831E+04  0.25856701831E+04  0.25500000920E-02 0. -1.
        2   -1    0    0  501    0  0.00000000000E+00  0.00000000000E+00 -0.97133894782E+03  0.97133894783E+03  0.25500000920E-02 0.  1.
    10030    2    1    2    0    0  0.00000000000E+00  0.00000000000E+00  0.16143312353E+04  0.35570091309E+04  0.31695817737E+04 0.  0.
        3    1    3    3  502    0 -0.83171626089E+03 -0.47264677691E+03 -0.61076816703E+03  0.11349822370E+04  0.10100000352E+00 0.  1.
       -3    1    3    3    0  502  0.83171626089E+03  0.47264677691E+03  0.22250994023E+04  0.24220268939E+04  0.10100000352E+00 0. -1.
</event>
<event>
 5   0  0.4173905E-07  0.3102337E+04  0.7818609E-02  0.8215097E-01
        1   -1    0    0  501    0  0.00000000000E+00  0.00000000000E+00  0.98953661184E+03  0.98953661186E+03  0.50400001928E-02 0. -1.
       -1   -1    0    0    0  501  0.00000000000E+00  0.00000000000E+00 -0.24315665411E+04  0.24315665411E+04  0.50400001928E-02 0.  1.
    10030    2    1    2    0    0  0.00000000000E+00  0.00000000000E+00 -0.14420299293E+04  0.34211031530E+04  0.31023372586E+04 0.  0.
        3    1    3    3  502    0 -0.35789266542E+02 -0.12040857091E+04  0.35664955550E+03  0.12563049717E+04  0.10100000352E+00 0. -1.
       -3    1    3    3    0  502  0.35789266542E+02  0.12040857091E+04 -0.17986794848E+04  0.21647981812E+04  0.10100000352E+00 0.  1.
</event>
<event>
 5   0  0.1237580E-06  0.3055621E+04  0.7818609E-02  0.8228024E-01
       -2   -1    0    0    0  501  0.00000000000E+00  0.00000000000E+00  0.17339715998E+04  0.17339715998E+04  0.25500000920E-02 0. -1.
        2   -1    0    0  501    0  0.00000000000E+00  0.00000000000E+00 -0.13461610482E+04  0.13461610482E+04  0.25500000920E-02 0.  1.
    10030    2    1    2    0    0  0.00000000000E+00  0.00000000000E+00  0.38781055164E+03  0.30801326481E+04  0.30556210671E+04 0.  0.
        4    1    3    3  502    0  0.46432857059E+03 -0.74929614384E+03  0.14517766117E+04  0.16984412489E+04  0.12699999809E+01 0. -1.
       -4    1    3    3    0  502 -0.46432857059E+03  0.74929614384E+03 -0.10639660601E+04  0.13816913992E+04  0.12699999809E+01 0.  1.
</event>
<event>
 5   0  0.4134019E-07  0.3186307E+04  0.7818609E-02  0.8192443E-01
       -1   -1    0    0    0  501  0.00000000000E+00  0.00000000000E+00  0.14404079258E+04  0.14404079258E+04  0.50400001928E-02 0.  1.
        1   -1    0    0  501    0  0.00000000000E+00  0.00000000000E+00 -0.17620969560E+04  0.17620969560E+04  0.50400001928E-02 0. -1.
    10030    2    1    2    0    0  0.00000000000E+00  0.00000000000E+00 -0.32168903025E+03  0.32025048818E+04  0.31863072177E+04 0.  0.
        2    1    3    3  502    0  0.38012645480E+03 -0.17904937916E+03  0.13837120473E+04  0.14461029810E+04  0.25500000920E-02 0.  1.
       -2    1    3    3    0  502 -0.38012645480E+03  0.17904937916E+03 -0.17054010776E+04  0.17564019008E+04  0.25500000920E-02 0. -1.
</event>
<event>
 5   0  0.4134019E-07  0.3113975E+04  0.7818609E-02  0.8211913E-01
       -1   -1    0    0    0  501  0.00000000000E+00  0.00000000000E+00  0.17678477625E+04  0.17678477625E+04  0.50400001928E-02 0. -1.
        1   -1    0    0  501    0  0.00000000000E+00  0.00000000000E+00 -0.13712778841E+04  0.13712778841E+04  0.50400001928E-02 0.  1.
    10030    2    1    2    0    0  0.00000000000E+00  0.00000000000E+00  0.39656987843E+03  0.31391256466E+04  0.31139752980E+04 0.  0.
        2    1    3    3  502    0  0.44035058088E+03  0.14521394399E+04  0.54980307565E+03  0.16139705726E+04  0.25500000920E-02 0. -1.
       -2    1    3    3    0  502 -0.44035058088E+03 -0.14521394399E+04 -0.15323319721E+03  0.15251550740E+04  0.25500000920E-02 0.  1.
</event>
<event>
 5   0  0.4219337E-07  0.3084702E+04  0.7818609E-02  0.8219949E-01
        1   -1    0    0  501    0  0.00000000000E+00  0.00000000000E+00  0.20440237024E+04  0.20440237024E+04  0.50400001928E-02 0. -1.
       -1   -1    0    0    0  501  0.00000000000E+00  0.00000000000E+00 -0.11638058603E+04  0.11638058604E+04  0.50400001928E-02 0.  1.
    10030    2    1    2    0    0  0.00000000000E+00  0.00000000000E+00  0.88021784206E+03  0.32078295628E+04  0.30847021014E+04 0.  0.
        4    1    3    3  502    0 -0.40468239787E+03 -0.13401513622E+04 -0.23308810517E+03  0.14191917398E+04  0.12699999809E+01 0.  1.
       -4    1    3    3    0  502  0.40468239787E+03  0.13401513622E+04  0.11133059472E+04  0.17886378230E+04  0.12699999809E+01 0. -1.
</event>
<event>
 5   0  0.4173905E-07  0.3121631E+04  0.7818609E-02  0.8209827E-01
        1   -1    0    0  501    0  0.00000000000E+00  0.00000000000E+00  0.12278427582E+04  0.12278427582E+04  0.50400001928E-02 0. -1.
       -1   -1    0    0    0  501  0.00000000000E+00  0.00000000000E+00 -0.19840851908E+04  0.19840851908E+04  0.50400001928E-02 0.  1.
    10030    2    1    2    0    0  0.00000000000E+00  0.00000000000E+00 -0.75624243256E+03  0.32119279490E+04  0.31216307490E+04 0.  0.
        3    1    3    3  502    0 -0.26312665174E+03  0.39871229648E+03 -0.19070161855E+04  0.19659394375E+04  0.10100000352E+00 0.  1.
       -3    1    3    3    0  502  0.26312665174E+03 -0.39871229648E+03  0.11507737529E+04  0.12459885115E+04  0.10100000352E+00 0. -1.
</event>
<event>
 5   0  0.3935852E-07  0.3095959E+04  0.7818609E-02  0.8216848E-01
       -1   -1    0    0    0  501  0.00000000000E+00  0.00000000000E+00  0.14921470770E+04  0.14921470770E+04  0.50400001928E-02 0.  1.
        1   -1    0    0  501    0  0.00000000000E+00  0.00000000000E+00 -0.16059007664E+04  0.16059007664E+04  0.50400001928E-02 0. -1.
    10030    2    1    2    0    0  0.00000000000E+00  0.00000000000E+00 -0.11375368939E+03  0.30980478433E+04  0.30959587429E+04 0.  0.
        5    1    3    3  502    0  0.12929105447E+04 -0.17949123145E+01  0.79493027418E+03  0.15177473865E+04  0.46999998093E+01 0.  1.
       -5    1    3    3    0  502 -0.12929105447E+04  0.17949123145E+01 -0.90868396357E+03  0.15803004569E+04  0.46999998093E+01 0. -1.
</event>
<event>
 5   0  0.1193123E-06  0.3086143E+04  0.7818609E-02  0.8219551E-01
       -2   -1    0    0    0  501  0.00000000000E+00  0.00000000000E+00  0.12749441281E+04  0.12749441282E+04  0.25500000920E-02 0. -1.
        2   -1    0    0  501    0  0.00000000000E+00  0.00000000000E+00 -0.18675879467E+04  0.18675879467E+04  0.25500000920E-02 0.  1.
    10030    2    1    2    0    0  0.00000000000E+00  0.00000000000E+00 -0.59264381855E+03  0.31425320749E+04  0.30861434098E+04 0.  0.
        3    1    3    3  502    0  0.70806241611E+03  0.13710123500E+04 -0.28964253138E+03  0.15700063870E+04  0.10100000352E+00 0. -1.
       -3    1    3    3    0  502 -0.70806241611E+03 -0.13710123500E+04 -0.30300128716E+03  0.15725256879E+04  0.10100000352E+00 0.  1.
</event>
<event>
 5   0  0.4330395E-07  0.3099070E+04  0.7818609E-02  0.8215993E-01
       -1   -1    0    0    0  501  0.00000000000E+00  0.00000000000E+00  0.22159719555E+04  0.22159719555E+04  0.50400001928E-02 0.  1.
        1   -1    0    0  501    0  0.00000000000E+00  0.00000000000E+00 -0.10835240457E+04  0.10835240457E+04  0.50400001928E-02 0. -1.
    10030    2    1    2    0    0  0.00000000000E+00  0.00000000000E+00  0.11324479098E+04  0.32994960013E+04  0.30990701176E+04 0.  0.
        1    1    3    3  502    0  0.15308301566E+04  0.19958995964E+03  0.70819631309E+03  0.16984755336E+04  0.50400001928E-02 0. -1.
       -1    1    3    3    0  502 -0.15308301566E+04 -0.19958995964E+03  0.42425159673E+03  0.16010204676E+04  0.50400001928E-02 0.  1.
</event>
<event>
 5   0  0.1258262E-06  0.3089679E+04  0.7818609E-02  0.8218576E-01
        2   -1    0    0  501    0  0.00000000000E+00  0.00000000000E+00  0.19106510888E+04  0.19106510888E+04  0.25500000920E-02 0.  1.
       -2   -1    0    0    0  501  0.00000000000E+00  0.00000000000E+00 -0.12490654988E+04  0.12490654988E+04  0.25500000920E-02 0. -1.
    10030    2    1    2    0    0  0.00000000000E+00  0.00000000000E+00  0.66158558998E+03  0.31597165876E+04  0.30896785304E+04 0.  0.
        1    1    3    3  502    0 -0.10585764573E+04  0.11233050923E+04  0.39651393254E+03  0.15936190715E+04  0.50400001928E-02 0.  1.
       -1    1    3    3    0  502  0.10585764573E+04 -0.11233050923E+04  0.26507165744E+03  0.15660975161E+04  0.50400001928E-02 0. -1.
</event>
<event>
 5   0  0.4173905E-07  0.3097209E+04  0.7818609E-02  0.8216504E-01
       -1   -1    0    0    0  501  0.00000000000E+00  0.00000000000E+00  0.11201963987E+04  0.11201963987E+04  0.50400001928E-02 0.  1.
        1   -1    0    0  501    0  0.00000000000E+00  0.00000000000E+00 -0.21408525438E+04  0.21408525438E+04  0.50400001928E-02 0. -1.
    10030    2    1    2    0    0  0.00000000000E+00  0.00000000000E+00 -0.10206561450E+04  0.32610489425E+04  0.30972086205E+04 0.  0.
        3    1    3    3  502    0  0.99034954514E+03 -0.10944347667E+04 -0.16928585560E+02  0.14760983258E+04  0.10100000352E+00 0.  1.
       -3    1    3    3    0  502 -0.99034954514E+03  0.10944347667E+04 -0.10037275595E+04  0.17849506167E+04  0.10100000352E+00 0. -1.
</event>
<event>
 5   0  0.4134019E-07  0.3088115E+04  0.7818609E-02  0.8219007E-01
        1   -1    0    0  501    0  0.00000000000E+00  0.00000000000E+00  0.21533543689E+04  0.21533543689E+04  0.50400001928E-02 0. -1.
       -1   -1    0    0    0  501  0.00000000000E+00  0.00000000000E+00 -0.11071625898E+04  0.11071625898E+04  0.50400001928E-02 0.  1.
    10030    2    1    2    0    0  0.00000000000E+00  0.00000000000E+00  0.10461917791E+04  0.32605169587E+04  0.30881148941E+04 0.  0.
        2    1    3    3  502    0 -0.30976743923E+03 -0.77901692779E+03  0.18921302520E+04  0.20695362115E+04  0.25500000920E-02 0. -1.
       -2    1    3    3    0  502  0.30976743923E+03  0.77901692779E+03 -0.84593847287E+03  0.11909807472E+04  0.25500000920E-02 0.  1.
</event>
<event>
 5   0  0.3935852E-07  0.3106130E+04  0.7818609E-02  0.8214058E-01
       -1   -1    0    0    0  501  0.00000000000E+00  0.00000000000E+00  0.15572148088E+04  0.15572148088E+04  0.50400001928E-02 0. -1.
        1   -1    0    0  501    0  0.00000000000E+00  0.00000000000E+00 -0.15489259663E+04  0.15489259663E+04  0.50400001928E-02 0.  1.
    10030    2    1    2    0    0  0.00000000000E+00  0.00000000000E+00  0.82888425374E+01  0.31061407751E+04  0.31061297156E+04 0.  0.
        5    1    3    3  502    0 -0.14238124728E+04  0.59392733510E+03 -0.17473250066E+03  0.15525930484E+04  0.46999998093E+01 0.  1.
       -5    1    3    3    0  502  0.14238124728E+04 -0.59392733510E+03  0.18302134320E+03  0.15535477267E+04  0.46999998093E+01 0. -1.
</event>
<event>
 5   0  0.1200286E-06  0.3096600E+04  0.7818609E-02  0.8216672E-01
        2   -1    0    0  501    0  0.00000000000E+00  0.00000000000E+00  0.17640012257E+04  0.17640012257E+04  0.25500000920E-02 0.  1.
       -2   -1    0    0    0  501  0.00000000000E+00  0.00000000000E+00 -0.13589749475E+04  0.13589749475E+04  0.25500000920E-02 0. -1.
    10030    2    1    2    0    0  0.00000000000E+00  0.00000000000E+00  0.40502627827E+03  0.31229761732E+04  0.30966003766E+04 0.  0.
        5    1    3    3  502    0  0.83218585120E+03  0.51208994050E+03  0.14137600598E+04  0.17185776080E+04  0.46999998093E+01 0.  1.
       -5    1    3    3    0  502 -0.83218585120E+03 -0.51208994050E+03 -0.10087337815E+04  0.14043985652E+04  0.46999998093E+01 0. -1.
</event>
<event>
 5   0  0.1200286E-06  0.3061749E+04  0.7818609E-02  0.8226315E-01
        2   -1    0    0  501    0  0.00000000000E+00  0.00000000000E+00  0.19026956375E+04  0.19026956375E+04  0.25500000920E-02 0.  1.
       -2   -1    0    0    0  501  0.00000000000E+00  0.00000000000E+00 -0.12317138763E+04  0.12317138763E+04  0.25500000920E-02 0. -1.
    10030    2    1    2    0    0  0.00000000000E+00  0.00000000000E+00  0.67098176113E+03  0.31344095138E+04  0.30617489244E+04 0.  0.
        5    1    3    3  502    0  0.43223071018E+03  0.14254209046E+04 -0.26317386354E+02  0.14897526093E+04  0.46999998093E+01 0. -1.
       -5    1    3    3    0  502 -0.43223071018E+03 -0.14254209046E+04  0.69729914749E+03  0.16446569044E+04  0.46999998093E+01 0.  1.
</event>
<event>
 5   0  0.1200286E-06  0.3102272E+04  0.7818609E-02  0.8215115E-01
        2   -1    0    0  501    0  0.00000000000E+00  0.00000000000E+00  0.15835922982E+04  0.15835922982E+04  0.25500000920E-02 0.  1.
       -2   -1    0    0    0  501  0.00000000000E+00  0.00000000000E+00 -0.15193448522E+04  0.15193448522E+04  0.25500000920E-02 0. -1.
    10030    2    1    2    0    0  0.00000000000E+00  0.00000000000E+00  0.64247445991E+02  0.31029371504E+04  0.31022719457E+04 0.  0.
        5    1    3    3  502    0  0.10851717712E+04 -0.14667286911E+03 -0.10666973011E+04  0.15287170849E+04  0.46999998093E+01 0. -1.
       -5    1    3    3    0  502 -0.10851717712E+04  0.14667286911E+03  0.11309447471E+04  0.15742200655E+04  0.46999998093E+01 0.  1.
</event>
<event>
 5   0  0.4219337E-07  0.3088175E+04  0.7818609E-02  0.8218991E-01
        1   -1    0    0  501    0  0.00000000000E+00  0.00000000000E+00  0.23155006586E+04  0.23155006586E+04  0.50400001928E-02 0.  1.
       -1   -1    0    0    0  501  0.00000000000E+00  0.00000000000E+00 -0.10296718410E+04  0.10296718410E+04  0.50400001928E-02 0. -1.
    10030    2    1    2    0    0  0.00000000000E+00  0.00000000000E+00  0.12858288176E+04  0.33451724996E+04  0.30881747528E+04 0.  0.
        4    1    3    3  502    0 -0.20060451274E+03 -0.15220971393E+04  0.46432319869E+03  0.16039387512E+04  0.12699999809E+01 0. -1.
       -4    1    3    3    0  502  0.20060451274E+03  0.15220971393E+04  0.82150561890E+03  0.17412337484E+04  0.12699999809E+01 0.  1.
</event>
<event>
 5   0  0.1176002E-06  0.3092659E+04  0.7818609E-02  0.8217755E-01
       -2   -1    0    0    0  501  0.00000000000E+00  0.00000000000E+00  0.11533016724E+04  0.11533016724E+04  0.25500000920E-02 0.  1.
        2   -1    0    0  501    0  0.00000000000E+00  0.00000000000E+00 -0.20732956409E+04  0.20732956409E+04  0.25500000920E-02 0. -1.
    10030    2    1    2    0    0  0.00000000000E+00  0.00000000000E+00 -0.91999396850E+03  0.32265973132E+04  0.30926592634E+04 0.  0.
        2    1    3    3  502    0 -0.15031185625E+03  0.12146339906E+04  0.52602931004E+03  0.13321547284E+04  0.25500000920E-02 0.  1.
       -2    1    3    3    0  502  0.15031185625E+03 -0.12146339906E+04 -0.14460232785E+04  0.18944425849E+04  0.25500000920E-02 0. -1.
</event>
<event>
 5   0  0.1193123E-06  0.3094240E+04  0.7818609E-02  0.8217321E-01
        2   -1    0    0  501    0  0.00000000000E+00  0.00000000000E+00  0.18597127843E+04  0.18597127843E+04  0.25500000920E-02 0. -1.
       -2   -1    0    0    0  501  0.00000000000E+00  0.00000000000E+00 -0.12870695396E+04  0.12870695396E+04  0.25500000920E-02 0.  1.
    10030    2    1    2    0    0  0.00000000000E+00  0.00000000000E+00  0.57264324464E+03  0.31467823239E+04  0.30942396010E+04 0.  0.
        3    1    3    3  502    0 -0.10692987627E+04  0.71570688718E+03 -0.58730188274E+03  0.14144114338E+04  0.10100000352E+00 0.  1.
       -3    1    3    3    0  502  0.10692987627E+04 -0.71570688718E+03  0.11599451274E+04  0.17323708902E+04  0.10100000352E+00 0. -1.
</event>
<event>
 5   0  0.4173905E-07  0.3099055E+04  0.7818609E-02  0.8215997E-01
        1   -1    0    0  501    0  0.00000000000E+00  0.00000000000E+00  0.13547513538E+04  0.13547513538E+04  0.50400001928E-02 0.  1.
       -1   -1    0    0    0  501  0.00000000000E+00  0.00000000000E+00 -0.17723068741E+04  0.17723068742E+04  0.50400001928E-02 0. -1.
    10030    2    1    2    0    0  0.00000000000E+00  0.00000000000E+00 -0.41755552037E+03  0.31270582279E+04  0.30990547830E+04 0.  0.
        3    1    3    3  502    0  0.89542679502E+02  0.64995068000E+03  0.12076808827E+04  0.13743896472E+04  0.10100000352E+00 0.  1.
       -3    1    3    3    0  502 -0.89542679502E+02 -0.64995068000E+03 -0.16252364030E+04  0.17526685807E+04  0.10100000352E+00 0. -1.
</event>
<event>
 5   0  0.1193123E-06  0.3082877E+04  0.7818609E-02  0.8220453E-01
       -2   -1    0    0    0  501  0.00000000000E+00  0.00000000000E+00  0.13103447222E+04  0.13103447222E+04  0.25500000920E-02 0.  1.
        2   -1    0    0  501    0  0.00000000000E+00  0.00000000000E+00 -0.18132881517E+04  0.18132881517E+04  0.25500000920E-02 0. -1.
    10030    2    1    2    0    0  0.00000000000E+00  0.00000000000E+00 -0.50294342945E+03  0.31236328739E+04  0.30828769417E+04 0.  0.
        3    1    3    3  502    0 -0.55683978135E+03  0.17869407233E+03 -0.16965205320E+04  0.17944871243E+04  0.10100000352E+00 0. -1.
       -3    1    3    3    0  502  0.55683978135E+03 -0.17869407233E+03  0.11935771026E+04  0.13291457496E+04  0.10100000352E+00 0.  1.
</event>
<event>
 5   0  0.4330395E-07  0.3112564E+04  0.7818609E-02  0.8212298E-01
        1   -1    0    0  501    0  0.00000000000E+00  0.00000000000E+00  0.15582140739E+04  0.15582140739E+04  0.50400001928E-02 0. -1.
       -1   -1    0    0    0  501  0.00000000000E+00  0.00000000000E+00 -0.15543522683E+04  0.15543522683E+04  0.50400001928E-02 0.  1.
    10030    2    1    2    0    0  0.00000000000E+00  0.00000000000E+00  0.38618056131E+01  0.31125663422E+04  0.31125639465E+04 0.  0.
        1    1    3    3  502    0 -0.28260275601E+03  0.81520094071E+03 -0.12932908046E+04  0.15546761710E+04  0.50400001928E-02 0.  1.
       -1    1    3    3    0  502  0.28260275601E+03 -0.81520094071E+03  0.12971526102E+04  0.15578901712E+04  0.50400001928E-02 0. -1.
</event>
<event>
 5   0  0.1200286E-06  0.3101443E+04  0.7818609E-02  0.8215342E-01
        2   -1    0    0  501    0  0.00000000000E+00  0.00000000000E+00  0.18809780021E+04  0.18809780021E+04  0.25500000920E-02 0. -1.
       -2   -1    0    0    0  501  0.00000000000E+00  0.00000000000E+00 -0.12784504216E+04  0.12784504216E+04  0.25500000920E-02 0.  1.
    10030    2    1    2    0    0  0.00000000000E+00  0.00000000000E+00  0.60252758048E+03  0.31594284238E+04  0.31014429674E+04 0.  0.
        5    1    3    3  502    0  0.70401132695E+03  0.80652460912E+03 -0.84158502238E+03  0.13617640521E+04  0.46999998093E+01 0.  1.
       -5    1    3    3    0  502 -0.70401132695E+03 -0.80652460912E+03  0.14441126029E+04  0.17976643717E+04  0.46999998093E+01 0. -1.
</event>
<event>
 5   0  0.4173905E-07  0.3103208E+04  0.7818609E-02  0.8214858E-01
        1   -1    0    0  501    0  0.00000000000E+00  0.00000000000E+00  0.15685299106E+04  0.15685299106E+04  0.50400001928E-02 0. -1.
       -1   -1    0    0    0  501  0.00000000000E+00  0.00000000000E+00 -0.15348603706E+04  0.15348603706E+04  0.50400001928E-02 0.  1.
    10030    2    1    2    0    0  0.00000000000E+00  0.00000000000E+00  0.33669540019E+02  0.31033902812E+04  0.31032076308E+04 0.  0.
        3    1    3    3  502    0  0.93990763013E+03  0.57764291578E+03  0.11079428445E+04  0.15635328741E+04  0.10100000352E+00 0. -1.
       -3    1    3    3    0  502 -0.93990763013E+03 -0.57764291578E+03 -0.10742733045E+04  0.15398574071E+04  0.10100000352E+00 0.  1.
</event>
<event>
 5   0  0.1176002E-06  0.3112718E+04  0.7818609E-02  0.8212256E-01
       -2   -1    0    0    0  501  0.00000000000E+00  0.00000000000E+00  0.11103815157E+04  0.11103815157E+04  0.25500000920E-02 0.  1.
        2   -1    0    0  501    0  0.00000000000E+00  0.00000000000E+00 -0.21814607718E+04  0.21814607718E+04  0.25500000920E-02 0. -1.
    10030    2    1    2    0    0  0.00000000000E+00  0.00000000000E+00 -0.10710792561E+04  0.32918422874E+04  0.31127182449E+04 0.  0.
        2    1    3    3  502    0  0.66953538920E+03  0.13914217538E+04 -0.32959880564E+03  0.15789133944E+04  0.25500000920E-02 0. -1.
       -2    1    3    3    0  502 -0.66953538920E+03 -0.13914217538E+04 -0.74148045046E+03  0.17129288931E+04  0.25500000920E-02 0.  1.
</event>
<event>
 5   0  0.3935852E-07  0.3102401E+04  0.7818609E-02  0.8215079E-01
        1   -1    0    0  501    0  0.00000000000E+00  0.00000000000E+00  0.19914329205E+04  0.19914329205E+04  0.50400001928E-02 0. -1.
       -1   -1    0    0    0  501  0.00000000000E+00  0.00000000000E+00 -0.12082876084E+04  0.12082876084E+04  0.50400001928E-02 0.  1.
    10030    2    1    2    0    0  0.00000000000E+00  0.00000000000E+00  0.78314531208E+03  0.31997205289E+04  0.31024014704E+04 0.  0.
        5    1    3    3  502    0 -0.83997384151E+03 -0.13025722654E+04  0.45640196533E+03  0.16157275157E+04  0.46999998093E+01 0. -1.
       -5    1    3    3    0  502  0.83997384151E+03  0.13025722654E+04  0.32674334675E+03  0.15839930132E+04  0.46999998093E+01 0.  1.
</event>
<event>
 5   0  0.4134019E-07  0.3082765E+04  0.7818609E-02  0.8220484E-01
        1   -1    0    0  501    0  0.00000000000E+00  0.00000000000E+00  0.14142406399E+04  0.14142406399E+04  0.50400001928E-02 0.  1.
       -1   -1    0    0    0  501  0.00000000000E+00  0.00000000000E+00 -0.16799540589E+04  0.16799540589E+04  0.50400001928E-02 0. -1.
    10030    2    1    2    0    0  0.00000000000E+00  0.00000000000E+00 -0.26571341903E+03  0.30941946988E+04  0.30827645406E+04 0.  0.
        2    1    3    3  502    0 -0.42359964527E+03 -0.92946221532E+03 -0.12914862048E+04  0.16465944511E+04  0.25500000920E-02 0. -1.
       -2    1    3    3    0  502  0.42359964527E+03  0.92946221532E+03  0.10257727857E+04  0.14476002477E+04  0.25500000920E-02 0.  1.
</event>
<event>
 5   0  0.3935852E-07  0.3101164E+04  0.7818609E-02  0.8215418E-01
       -1   -1    0    0    0  501  0.00000000000E+00  0.00000000000E+00  0.18295376849E+04  0.18295376850E+04  0.50400001928E-02 0. -1.
        1   -1    0    0  501    0  0.00000000000E+00  0.00000000000E+00 -0.13141598521E+04  0.13141598521E+04  0.50400001928E-02 0.  1.
    10030    2    1    2    0    0  0.00000000000E+00  0.00000000000E+00  0.51537783282E+03  0.31436975371E+04  0.31011642804E+04 0.  0.
        5    1    3    3  502    0  0.30363896075E+03  0.11635376191E+04  0.12500257889E+04  0.17345324939E+04  0.46999998093E+01 0. -1.
       -5    1    3    3    0  502 -0.30363896075E+03 -0.11635376191E+04 -0.73464795612E+03  0.14091650432E+04  0.46999998093E+01 0.  1.
</event>
<event>
 5   0  0.1200286E-06  0.3090049E+04  0.7818609E-02  0.8218474E-01
       -2   -1    0    0    0  501  0.00000000000E+00  0.00000000000E+00  0.13488876366E+04  0.13488876366E+04  0.25500000920E-02 0. -1.
        2   -1    0    0  501    0  0.00000000000E+00  0.00000000000E+00 -0.17696809108E+04  0.17696809108E+04  0.25500000920E-02 0.  1.
    10030    2    1    2    0    0  0.00000000000E+00  0.00000000000E+00 -0.42079327421E+03  0.31185685475E+04  0.30900489973E+04 0.  0.
        5    1    3    3  502    0  0.57232989857E+03  0.14085686838E+04  0.66822667191E+02  0.15218786445E+04  0.46999998093E+01 0. -1.
       -5    1    3    3    0  502 -0.57232989857E+03 -0.14085686838E+04 -0.48761594140E+03  0.15966899029E+04  0.46999998093E+01 0.  1.
</event>
<event>
 5   0  0.3935852E-07  0.3100893E+04  0.7818609E-02  0.8215493E-01
        1   -1    0    0  501    0  0.00000000000E+00  0.00000000000E+00  0.28895045228E+04  0.28895045228E+04  0.50400001928E-02 0. -1.
       -1   -1    0    0    0  501  0.00000000000E+00  0.00000000000E+00 -0.83193667262E+03  0.83193667263E+03  0.50400001928E-02 0.  1.
    10030    2    1    2    0    0  0.00000000000E+00  0.00000000000E+00  0.20575678501E+04  0.37214411954E+04  0.31008932766E+04 0.  0.
        5    1    3    3  502    0  0.39243484809E+03 -0.11119127702E+04  0.22369811665E+04  0.25287273376E+04  0.46999998093E+01 0. -1.
       -5    1    3    3    0  502 -0.39243484809E+03  0.11119127702E+04 -0.17941331634E+03  0.11927138578E+04  0.46999998093E+01 0.  1.
</event>
<event>
 5   0  0.1258262E-06  0.3115698E+04  0.7818609E-02  0.8211443E-01
        2   -1    0    0  501    0  0.00000000000E+00  0.00000000000E+00  0.20464309278E+04  0.20464309278E+04  0.25500000920E-02 0. -1.
       -2   -1    0    0    0  501  0.00000000000E+00  0.00000000000E+00 -0.11859149160E+04  0.11859149160E+04  0.25500000920E-02 0.  1.
    10030    2    1    2    0    0  0.00000000000E+00  0.00000000000E+00  0.86051601183E+03  0.32323458438E+04  0.31156976502E+04 0.  0.
        1    1    3    3  502    0 -0.14871759370E+04  0.47159448978E+02  0.90902978340E+03  0.17436316780E+04  0.50400001928E-02 0. -1.
       -1    1    3    3    0  502  0.14871759370E+04 -0.47159448978E+02 -0.48513771569E+02  0.14887141658E+04  0.50400001928E-02 0.  1.
</event>
<event>
 5   0  0.1200286E-06  0.3106764E+04  0.7818609E-02  0.8213884E-01
       -2   -1    0    0    0  501  0.00000000000E+00  0.00000000000E+00  0.11483287165E+04  0.11483287165E+04  0.25500000920E-02 0. -1.
        2   -1    0    0  501    0  0.00000000000E+00  0.00000000000E+00 -0.21013107538E+04  0.21013107538E+04  0.25500000920E-02 0.  1.
    10030    2    1    2    0    0  0.00000000000E+00  0.00000000000E+00 -0.95298203733E+03  0.32496394702E+04  0.31067638988E+04 0.  0.
        5    1    3    3  502    0  0.12379099555E+04  0.48387186106E+03  0.36448660956E+03  0.13781965079E+04  0.46999998093E+01 0. -1.
       -5    1    3    3    0  502 -0.12379099555E+04 -0.48387186106E+03 -0.13174686469E+04  0.18714429624E+04  0.46999998093E+01 0.  1.
</event>
<event>
 5   0  0.1200286E-06  0.3100401E+04  0.7818609E-02  0.8215628E-01
       -2   -1    0    0    0  501  0.00000000000E+00  0.00000000000E+00  0.12570863001E+04  0.12570863001E+04  0.25500000920E-02 0.  1.
        2   -1    0    0  501    0  0.00000000000E+00  0.00000000000E+00 -0.19116597596E+04  0.19116597596E+04  0.25500000920E-02 0. -1.
    10030    2    1    2    0    0  0.00000000000E+00  0.00000000000E+00 -0.65457345952E+03  0.31687460597E+04  0.31004008091E+04 0.  0.
        5    1    3    3  502    0  0.33927093145E+01  0.28225968369E+03 -0.18851638239E+04  0.19061864475E+04  0.46999998093E+01 0. -1.
       -5    1    3    3    0  502 -0.33927093145E+01 -0.28225968369E+03  0.12305903644E+04  0.12625596122E+04  0.46999998093E+01 0.  1.
</event>
<event>
 5   0  0.3935852E-07  0.3096239E+04  0.7818609E-02  0.8216771E-01
        1   -1    0    0  501    0  0.00000000000E+00  0.00000000000E+00  0.74162058213E+03  0.74162058215E+03  0.50400001928E-02 0.  1.
       -1   -1    0    0    0  501  0.00000000000E+00  0.00000000000E+00 -0.32316713464E+04  0.32316713464E+04  0.50400001928E-02 0. -1.
    10030    2    1    2    0    0  0.00000000000E+00  0.00000000000E+00 -0.24900507642E+04  0.39732919285E+04  0.30962389993E+04 0.  0.
        5    1    3    3  502    0  0.32697194793E+02 -0.96078099312E+03  0.31216278463E+03  0.10107605638E+04  0.46999998093E+01 0.  1.
       -5    1    3    3    0  502 -0.32697194793E+02  0.96078099312E+03 -0.28022135489E+04  0.29625313647E+04  0.46999998093E+01 0. -1.
</event>
<event>
 5   0  0.3935852E-07  0.3113438E+04  0.7818609E-02  0.8212060E-01
       -1   -1    0    0    0  501  0.00000000000E+00  0.00000000000E+00  0.13955757162E+04  0.13955757162E+04  0.50400001928E-02 0.  1.
        1   -1    0    0  501    0  0.00000000000E+00  0.00000000000E+00 -0.17364695438E+04  0.17364695438E+04  0.50400001928E-02 0. -1.
    10030    2    1    2    0    0  0.00000000000E+00  0.00000000000E+00 -0.34089382764E+03  0.31320452601E+04  0.31134384383E+04 0.  0.
        5    1    3    3  502    0 -0.96543502402E+02 -0.95551107075E+03  0.10620405679E+04  0.14318778970E+04  0.46999998093E+01 0.  1.
       -5    1    3    3    0  502  0.96543502402E+02  0.95551107075E+03 -0.14029343955E+04  0.17001673630E+04  0.46999998093E+01 0. -1.
</event>
<event>
 5   0  0.1200286E-06  0.3101617E+04  0.7818609E-02  0.8215294E-01
        2   -1    0    0  501    0  0.00000000000E+00  0.00000000000E+00  0.11028649808E+04  0.11028649808E+04  0.25500000920E-02 0.  1.
       -2   -1    0    0    0  501  0.00000000000E+00  0.00000000000E+00 -0.21806907056E+04  0.21806907056E+04  0.25500000920E-02 0. -1.
    10030    2    1    2    0    0  0.00000000000E+00  0.00000000000E+00 -0.10778257248E+04  0.32835556864E+04  0.31016172640E+04 0.  0.
        5    1    3    3  502    0 -0.32386926423E+03 -0.94100827715E+03 -0.17980487878E+04  0.20550886626E+04  0.46999998093E+01 0. -1.
       -5    1    3    3    0  502  0.32386926423E+03  0.94100827715E+03  0.72022306300E+03  0.12284670238E+04  0.46999998093E+01 0.  1.
</event>
<event>
 5   0  0.4219337E-07  0.3089836E+04  0.7818609E-02  0.8218533E-01
        1   -1    0    0  501    0  0.00000000000E+00  0.00000000000E+00  0.13396121371E+04  0.13396121371E+04  0.50400001928E-02 0. -1.
       -1   -1    0    0    0  501  0.00000000000E+00  0.00000000000E+00 -0.17816882534E+04  0.17816882534E+04  0.50400001928E-02 0.  1.
    10030    2    1    2    0    0  0.00000000000E+00  0.00000000000E+00 -0.44207611632E+03  0.31213003904E+04  0.30898357294E+04 0.  0.
        4    1    3    3  502    0  0.32364772771E+03 -0.10951481563E+04 -0.12721492990E+04  0.17095212160E+04  0.12699999809E+01 0.  1.
       -4    1    3    3    0  502 -0.32364772771E+03  0.10951481563E+04  0.83007318268E+03  0.14117791745E+04  0.12699999809E+01 0. -1.
</event>
<event>
 5   0  0.1258262E-06  0.3091498E+04  0.7818609E-02  0.8218075E-01
        2   -1    0    0  501    0  0.00000000000E+00  0.00000000000E+00  0.18225852510E+04  0.18225852510E+04  0.25500000920E-02 0. -1.
       -2   -1    0    0    0  501  0.00000000000E+00  0.00000000000E+00 -0.13109619237E+04  0.13109619237E+04  0.25500000920E-02 0.  1.
    10030    2    1    2    0    0  0.00000000000E+00  0.00000000000E+00  0.51162332731E+03  0.31335471746E+04  0.30914979325E+04 0.  0.
        1    1    3    3  502    0 -0.28979634804E+03  0.73887519614E+03 -0.10886617244E+04  0.13472575214E+04  0.50400001928E-02 0.  1.
       -1    1    3    3    0  502  0.28979634804E+03 -0.73887519614E+03  0.16002850517E+04  0.17862896533E+04  0.50400001928E-02 0. -1.
</event>
<event>
 5   0  0.3935852E-07  0.3064977E+04  0.7818609E-02  0.8225416E-01
        1   -1    0    0  501    0  0.00000000000E+00  0.00000000000E+00  0.10795754427E+04  0.10795754427E+04  0.50400001928E-02 0.  1.
       -1   -1    0    0    0  501  0.00000000000E+00  0.00000000000E+00 -0.21754118294E+04  0.21754118294E+04  0.50400001928E-02 0. -1.
    10030    2    1    2    0    0  0.00000000000E+00  0.00000000000E+00 -0.10958363867E+04  0.32549872721E+04  0.30649771215E+04 0.  0.
        5    1    3    3  502    0  0.55495233849E+03 -0.82820477800E+03 -0.17839459111E+04  0.20436194254E+04  0.46999998093E+01 0. -1.
       -5    1    3    3    0  502 -0.55495233849E+03  0.82820477800E+03  0.68810952442E+03  0.12113678466E+04  0.46999998093E+01 0.  1.
</event>
<event>
 5   0  0.4330395E-07  0.3092279E+04  0.7818609E-02  0.8217860E-01
       -1   -1    0    0    0  501  0.00000000000E+00  0.00000000000E+00  0.11752887922E+04  0.11752887923E+04  0.50400001928E-02 0. -1.
        1   -1    0    0  501    0  0.00000000000E+00  0.00000000000E+00 -0.20340089063E+04  0.20340089063E+04  0.50400001928E-02 0.  1.
    10030    2    1    2    0    0  0.00000000000E+00  0.00000000000E+00 -0.85872011409E+03  0.32092976986E+04  0.30922793347E+04 0.  0.
        1    1    3    3  502    0  0.13655821615E+04 -0.18654930654E+03  0.29782043054E+03  0.14100752790E+04  0.50400001928E-02 0. -1.
       -1    1    3    3    0  502 -0.13655821615E+04  0.18654930654E+03 -0.11565405446E+04  0.17992224196E+04  0.50400001928E-02 0.  1.
</event>
<event>
 5   0  0.4330395E-07  0.3087958E+04  0.7818609E-02  0.8219051E-01
       -1   -1    0    0    0  501  0.00000000000E+00  0.00000000000E+00  0.95647013209E+03  0.95647013211E+03  0.50400001928E-02 0.  1.
        1   -1    0    0  501    0  0.00000000000E+00  0.00000000000E+00 -0.24923627225E+04  0.24923627225E+04  0.50400001928E-02 0. -1.
    10030    2    1    2    0    0  0.00000000000E+00  0.00000000000E+00 -0.15358925904E+04  0.34488328546E+04  0.30879575790E+04 0.  0.
        1    1    3    3  502    0  0.24704673276E+03  0.42957105521E+03 -0.24011331016E+04  0.24517348044E+04  0.50400001928E-02 0. -1.
       -1    1    3    3    0  502 -0.24704673276E+03 -0.42957105521E+03  0.86524051114E+03  0.99709805024E+03  0.50400001928E-02 0.  1.
</event>
<event>
 5   0  0.4219337E-07  0.3133600E+04  0.7818609E-02  0.8206577E-01
        1   -1    0    0  501    0  0.00000000000E+00  0.00000000000E+00  0.14442154782E+04  0.14442154782E+04  0.50400001928E-02 0. -1.
       -1   -1    0    0    0  501  0.00000000000E+00  0.00000000000E+00 -0.16997896036E+04  0.16997896036E+04  0.50400001928E-02 0.  1.
    10030    2    1    2    0    0  0.00000000000E+00  0.00000000000E+00 -0.25557412534E+03  0.31440050818E+04  0.31336001374E+04 0.  0.
        4    1    3    3  502    0  0.11073812212E+04 -0.48190400608E+03 -0.11292678387E+04  0.16534122609E+04  0.12699999809E+01 0.  1.
       -4    1    3    3    0  502 -0.11073812212E+04  0.48190400608E+03  0.87369371336E+03  0.14905928209E+04  0.12699999809E+01 0. -1.
</event>
<event>
 5   0  0.1237580E-06  0.3095708E+04  0.7818609E-02  0.8216917E-01
        2   -1    0    0  501    0  0.00000000000E+00  0.00000000000E+00  0.20118140149E+04  0.20118140149E+04  0.25500000920E-02 0. -1.
       -2   -1    0    0    0  501  0.00000000000E+00  0.00000000000E+00 -0.11908915116E+04  0.11908915116E+04  0.25500000920E-02 0.  1.
    10030    2    1    2    0    0  0.00000000000E+00  0.00000000000E+00  0.82092250336E+03  0.32027055265E+04  0.30957081472E+04 0.  0.
        4    1    3    3  502    0  0.28442976159E+02 -0.42911220518E+03  0.19487645614E+04  0.19956530801E+04  0.12699999809E+01 0. -1.
       -4    1    3    3    0  502 -0.28442976159E+02  0.42911220518E+03 -0.11278420580E+04  0.12070524464E+04  0.12699999809E+01 0.  1.
</event>
<event>
 5   0  0.1193123E-06  0.3101817E+04  0.7818609E-02  0.8215239E-01
       -2   -1    0    0    0  501  0.00000000000E+00  0.00000000000E+00  0.90044642269E+03  0.90044642270E+03  0.25500000920E-02 0. -1.
        2   -1    0    0  501    0  0.00000000000E+00  0.00000000000E+00 -0.26712492602E+04  0.26712492602E+04  0.25500000920E-02 0.  1.
    10030    2    1    2    0    0  0.00000000000E+00  0.00000000000E+00 -0.17708028375E+04  0.35716956829E+04  0.31018167840E+04 0.  0.
        3    1    3    3  502    0 -0.11812689921E+02 -0.50760449401E+03  0.80203107203E+03  0.94923954442E+03  0.10100000352E+00 0. -1.
       -3    1    3    3    0  502  0.11812689921E+02  0.50760449401E+03 -0.25728339095E+04  0.26224561384E+04  0.10100000352E+00 0.  1.
</event>
<event>
 5   0  0.4330395E-07  0.3112042E+04  0.7818609E-02  0.8212441E-01
        1   -1    0    0  501    0  0.00000000000E+00  0.00000000000E+00  0.16760439477E+04  0.16760439477E+04  0.50400001928E-02 0. -1.
       -1   -1    0    0    0  501  0.00000000000E+00  0.00000000000E+00 -0.14445927982E+04  0.14445927982E+04  0.50400001928E-02 0.  1.
    10030    2    1    2    0    0  0.00000000000E+00  0.00000000000E+00  0.23145114953E+03  0.31206367459E+04  0.31120417840E+04 0.  0.
        1    1    3    3  502    0  0.11325815977E+04 -0.64535496879E+03 -0.73631338074E+03  0.14971244123E+04  0.50400001928E-02 0.  1.
       -1    1    3    3    0  502 -0.11325815977E+04  0.64535496879E+03  0.96776453027E+03  0.16235123336E+04  0.50400001928E-02 0. -1.
</event>
<event>
 5   0  0.1200286E-06  0.3077588E+04  0.7818609E-02  0.8221916E-01
        2   -1    0    0  501    0  0.00000000000E+00  0.00000000000E+00  0.11350349582E+04  0.11350349583E+04  0.25500000920E-02 0. -1.
       -2   -1    0    0    0  501  0.00000000000E+00  0.00000000000E+00 -0.20861792071E+04  0.20861792071E+04  0.25500000920E-02 0.  1.
    10030    2    1    2    0    0  0.00000000000E+00  0.00000000000E+00 -0.95114424889E+03  0.32212141654E+04  0.30775875807E+04 0.  0.
        5    1    3    3  502    0 -0.34716582451E+03 -0.10903105448E+03  0.10893469672E+04  0.11485254832E+04  0.46999998093E+01 0. -1.
       -5    1    3    3    0  502  0.34716582451E+03  0.10903105448E+03 -0.20404912161E+04  0.20726886822E+04  0.46999998093E+01 0.  1.
</event>
<event>
 5   0  0.1193123E-06  0.3098036E+04  0.7818609E-02  0.8216277E-01
       -2   -1    0    0    0  501  0.00000000000E+00  0.00000000000E+00  0.13948227951E+04  0.13948227951E+04  0.25500000920E-02 0. -1.
        2   -1    0    0  501    0  0.00000000000E+00  0.00000000000E+00 -0.17202589834E+04  0.17202589834E+04  0.25500000920E-02 0.  1.
    10030    2    1    2    0    0  0.00000000000E+00  0.00000000000E+00 -0.32543618830E+03  0.31150817786E+04  0.30980357930E+04 0.  0.
        3    1    3    3  502    0 -0.67830239934E+02 -0.51367910189E+03 -0.16305409742E+04  0.17108860395E+04  0.10100000352E+00 0.  1.
       -3    1    3    3    0  502  0.67830239934E+02  0.51367910189E+03  0.13051047860E+04  0.14041957391E+04  0.10100000352E+00 0. -1.
</event>
<event>
 5   0  0.1237580E-06  0.3092591E+04  0.7818609E-02  0.8217774E-01
       -2   -1    0    0    0  501  0.00000000000E+00  0.00000000000E+00  0.14891172103E+04  0.14891172103E+04  0.25500000920E-02 0. -1.
        2   -1    0    0  501    0  0.00000000000E+00  0.00000000000E+00 -0.16056694901E+04  0.16056694901E+04  0.25500000920E-02 0.  1.
    10030    2    1    2    0    0  0.00000000000E+00  0.00000000000E+00 -0.11655227983E+03  0.30947867004E+04  0.30925911930E+04 0.  0.
        4    1    3    3  502    0 -0.20175856740E+03 -0.14151565738E+04 -0.64831647946E+03  0.15696147675E+04  0.12699999809E+01 0.  1.
       -4    1    3    3    0  502  0.20175856740E+03  0.14151565738E+04  0.53176419963E+03  0.15251719329E+04  0.12699999809E+01 0. -1.
</event>
<event>
 5   0  0.1176002E-06  0.3095620E+04  0.7818609E-02  0.8216941E-01
       -2   -1    0    0    0  501  0.00000000000E+00  0.00000000000E+00  0.10226244002E+04  0.10226244002E+04  0.25500000920E-02 0. -1.
        2   -1    0    0  501    0  0.00000000000E+00  0.00000000000E+00 -0.23427138526E+04  0.23427138526E+04  0.25500000920E-02 0.  1.
    10030    2    1    2    0    0  0.00000000000E+00  0.00000000000E+00 -0.13200894524E+04  0.33653382527E+04  0.30956203567E+04 0.  0.
        2    1    3    3  502    0  0.21281191903E+03 -0.26929053102E+03 -0.23008207947E+04  0.23262808584E+04  0.25500000920E-02 0.  1.
       -2    1    3    3    0  502 -0.21281191903E+03  0.26929053102E+03  0.98073134228E+03  0.10390573943E+04  0.25500000920E-02 0. -1.
</event>
<event>
 5   0  0.1176002E-06  0.3102285E+04  0.7818609E-02  0.8215111E-01
       -2   -1    0    0    0  501  0.00000000000E+00  0.00000000000E+00  0.17468014947E+04  0.17468014947E+04  0.25500000920E-02 0.  1.
        2   -1    0    0  501    0  0.00000000000E+00  0.00000000000E+00 -0.13773991216E+04  0.13773991216E+04  0.25500000920E-02 0. -1.
    10030    2    1    2    0    0  0.00000000000E+00  0.00000000000E+00  0.36940237308E+03  0.31242006163E+04  0.31022848641E+04 0.  0.
        2    1    3    3  502    0 -0.32886044879E+03 -0.52675882788E+03 -0.12467546013E+04  0.13928463997E+04  0.25500000920E-02 0. -1.
       -2    1    3    3    0  502  0.32886044879E+03  0.52675882788E+03  0.16161569743E+04  0.17313542166E+04  0.25500000920E-02 0.  1.
</event>
<event>
 5   0  0.1176002E-06  0.3095844E+04  0.7818609E-02  0.8216880E-01
       -2   -1    0    0    0  501  0.00000000000E+00  0.00000000000E+00  0.14697715125E+04  0.14697715125E+04  0.25500000920E-02 0.  1.
        2   -1    0    0  501    0  0.00000000000E+00  0.00000000000E+00 -0.16302274197E+04  0.16302274197E+04  0.25500000920E-02 0. -1.
    10030    2    1    2    0    0  0.00000000000E+00  0.00000000000E+00 -0.16045590721E+03  0.30999989323E+04  0.30958435493E+04 0.  0.
        2    1    3    3  502    0  0.60351927027E+03 -0.18219474380E+03 -0.14958551277E+04  0.16232723115E+04  0.25500000920E-02 0. -1.
       -2    1    3    3    0  502 -0.60351927027E+03  0.18219474380E+03  0.13353992205E+04  0.14767266208E+04  0.25500000920E-02 0.  1.
</event>
<event>
 5   0  0.1193123E-06  0.3056802E+04  0.7818609E-02  0.8227694E-01
        2   -1    0    0  501    0  0.00000000000E+00  0.00000000000E+00  0.26140155421E+04  0.26140155421E+04  0.25500000920E-02 0.  1.
       -2   -1    0    0    0  501  0.00000000000E+00  0.00000000000E+00 -0.89364768382E+03  0.89364768383E+03  0.25500000920E-02 0. -1.
    10030    2    1    2    0    0  0.00000000000E+00  0.00000000000E+00  0.17203678582E+04  0.35076632259E+04  0.30568015537E+04 0.  0.
        3    1    3    3  502    0 -0.41557634498E+03  0.15809246261E+03 -0.81779375510E+03  0.93085098771E+03  0.10100000352E+00 0. -1.
       -3    1    3    3    0  502  0.41557634498E+03 -0.15809246261E+03  0.25381616133E+04  0.25768122382E+04  0.10100000352E+00 0.  1.
</event>
<event>
 5   0  0.1237580E-06  0.3099689E+04  0.7818609E-02  0.8215823E-01
        2   -1    0    0  501    0  0.00000000000E+00  0.00000000000E+00  0.98416416924E+03  0.98416416924E+03  0.25500000920E-02 0.  1.
       -2   -1    0    0    0  501  0.00000000000E+00  0.00000000000E+00 -0.24406679671E+04  0.24406679671E+04  0.25500000920E-02 0. -1.
    10030    2    1    2    0    0  0.00000000000E+00  0.00000000000E+00 -0.14565037979E+04  0.34248321364E+04  0.30996889923E+04 0.  0.
        4    1    3    3  502    0  0.13187687905E+04  0.30327188111E+03  0.10657784982E+03  0.13573818209E+04  0.12699999809E+01 0. -1.
       -4    1    3    3    0  502 -0.13187687905E+04 -0.30327188111E+03 -0.15630816477E+04  0.20674503155E+04  0.12699999809E+01 0.  1.
</event>
<event>
 5   0  0.1258262E-06  0.3075863E+04  0.7818609E-02  0.8222394E-01
       -2   -1    0    0    0  501  0.00000000000E+00  0.00000000000E+00  0.13322465388E+04  0.13322465388E+04  0.25500000920E-02 0. -1.
        2   -1    0    0  501    0  0.00000000000E+00  0.00000000000E+00 -0.17753715941E+04  0.17753715941E+04  0.25500000920E-02 0.  1.
    10030    2    1    2    0    0  0.00000000000E+00  0.00000000000E+00 -0.44312505539E+03  0.31076181329E+04  0.30758625856E+04 0.  0.
        1    1    3    3  502    0  0.88554074167E+03  0.91058843328E+03  0.65449915165E+03  0.14288886729E+04  0.50400001928E-02 0. -1.
       -1    1    3    3    0  502 -0.88554074167E+03 -0.91058843328E+03 -0.10976242070E+04  0.16787294600E+04  0.50400001928E-02 0.  1.
</event>
<event>
 5   0  0.4330395E-07  0.3082619E+04  0.7818609E-02  0.8220524E-01
        1   -1    0    0  501    0  0.00000000000E+00  0.00000000000E+00  0.13154536716E+04  0.13154536716E+04  0.50400001928E-02 0. -1.
       -1   -1    0    0    0  501  0.00000000000E+00  0.00000000000E+00 -0.18059438397E+04  0.18059438397E+04  0.50400001928E-02 0.  1.
    10030    2    1    2    0    0  0.00000000000E+00  0.00000000000E+00 -0.49049016804E+03  0.31213975113E+04  0.30826193113E+04 0.  0.
        1    1    3    3  502    0  0.10613256818E+04  0.62205413326E+03 -0.11855123206E+04  0.17084504705E+04  0.50400001928E-02 0. -1.
       -1    1    3    3    0  502 -0.10613256818E+04 -0.62205413326E+03  0.69502215258E+03  0.14129470408E+04  0.50400001928E-02 0.  1.
</event>
<event>
 5   0  0.4173905E-07  0.3144797E+04  0.7818609E-02  0.8203550E-01
       -1   -1    0    0    0  501  0.00000000000E+00  0.00000000000E+00  0.12460682340E+04  0.12460682340E+04  0.50400001928E-02 0. -1.
        1   -1    0    0  501    0  0.00000000000E+00  0.00000000000E+00 -0.19841904504E+04  0.19841904504E+04  0.50400001928E-02 0.  1.
    10030    2    1    2    0    0  0.00000000000E+00  0.00000000000E+00 -0.73812221644E+03  0.32302586844E+04  0.31447967759E+04 0.  0.
        3    1    3    3  502    0 -0.24492480031E+03 -0.91416212904E+03  0.92075257653E+03  0.13204036782E+04  0.10100000352E+00 0. -1.
       -3    1    3    3    0  502  0.24492480031E+03  0.91416212904E+03 -0.16588747930E+04  0.19098550063E+04  0.10100000352E+00 0.  1.
</event>
<event>
 5   0  0.4330395E-07  0.3086376E+04  0.7818609E-02  0.8219487E-01
       -1   -1    0    0    0  501  0.00000000000E+00  0.00000000000E+00  0.18949358795E+04  0.18949358795E+04  0.50400001928E-02 0. -1.
        1   -1    0    0  501    0  0.00000000000E+00  0.00000000000E+00 -0.12567330744E+04  0.12567330744E+04  0.50400001928E-02 0.  1.
    10030    2    1    2    0    0  0.00000000000E+00  0.00000000000E+00  0.63820280508E+03  0.31516689539E+04  0.30863756049E+04 0.  0.
        1    1    3    3  502    0 -0.11505563892E+03 -0.70822467727E+03 -0.10760407071E+04  0.12933226964E+04  0.50400001928E-02 0.  1.
       -1    1    3    3    0  502  0.11505563892E+03  0.70822467727E+03  0.17142435122E+04  0.18583462575E+04  0.50400001928E-02 0. -1.
</event>
<event>
 5   0  0.1237580E-06  0.3042639E+04  0.7818609E-02  0.8231659E-01
       -2   -1    0    0    0  501  0.00000000000E+00  0.00000000000E+00  0.72036916354E+03  0.72036916354E+03  0.25500000920E-02 0. -1.
        2   -1    0    0  501    0  0.00000000000E+00  0.00000000000E+00 -0.32128147362E+04  0.32128147362E+04  0.25500000920E-02 0.  1.
    10030    2    1    2    0    0  0.00000000000E+00  0.00000000000E+00 -0.24924455726E+04  0.39331838997E+04  0.30426387653E+04 0.  0.
        4    1    3    3  502    0 -0.95482780155E+02  0.84376730803E+03  0.38551196406E+03  0.93256705857E+03  0.12699999809E+01 0. -1.
       -4    1    3    3    0  502  0.95482780155E+02 -0.84376730803E+03 -0.28779575367E+04  0.30006168411E+04  0.12699999809E+01 0.  1.
</event>
<event>
 5   0  0.1176002E-06  0.3099674E+04  0.7818609E-02  0.8215827E-01
       -2   -1    0    0    0  501  0.00000000000E+00  0.00000000000E+00  0.14436596106E+04  0.14436596106E+04  0.25500000920E-02 0. -1.
        2   -1    0    0  501    0  0.00000000000E+00  0.00000000000E+00 -0.16638239816E+04  0.16638239816E+04  0.25500000920E-02 0.  1.
    10030    2    1    2    0    0  0.00000000000E+00  0.00000000000E+00 -0.22016437101E+03  0.31074835921E+04  0.30996744869E+04 0.  0.
        2    1    3    3  502    0  0.36540755483E+03  0.74536059003E+02  0.13980072059E+04  0.14468940711E+04  0.25500000920E-02 0. -1.
       -2    1    3    3    0  502 -0.36540755483E+03 -0.74536059003E+02 -0.16181715769E+04  0.16605895211E+04  0.25500000920E-02 0.  1.
</event>
<event>
 5   0  0.1176002E-06  0.3009195E+04  0.7818609E-02  0.8241110E-01
       -2   -1    0    0    0  501  0.00000000000E+00  0.00000000000E+00  0.85733557226E+03  0.85733557227E+03  0.25500000920E-02 0.  1.
        2   -1    0    0  501    0  0.00000000000E+00  0.00000000000E+00 -0.26405214967E+04  0.26405214967E+04  0.25500000920E-02 0. -1.
    10030    2    1    2    0    0  0.00000000000E+00  0.00000000000E+00 -0.17831859244E+04  0.34978570689E+04  0.30091945822E+04 0.  0.
        2    1    3    3  502    0  0.97460586954E+02  0.49896747657E+03  0.75446996992E+03  0.90977582085E+03  0.25500000920E-02 0.  1.
       -2    1    3    3    0  502 -0.97460586954E+02 -0.49896747657E+03 -0.25376558943E+04  0.25880812481E+04  0.25500000920E-02 0. -1.
</event>
<event>
 5   0  0.1258262E-06  0.3087875E+04  0.7818609E-02  0.8219073E-01
        2   -1    0    0  501    0  0.00000000000E+00  0.00000000000E+00  0.16978876128E+04  0.16978876128E+04  0.25500000920E-02 0. -1.
       -2   -1    0    0    0  501  0.00000000000E+00  0.00000000000E+00 -0.14039461476E+04  0.14039461476E+04  0.25500000920E-02 0.  1.
    10030    2    1    2    0    0  0.00000000000E+00  0.00000000000E+00  0.29394146518E+03  0.31018337604E+04  0.30878748504E+04 0.  0.
        1    1    3    3  502    0  0.47331193808E+03 -0.67569608521E+03 -0.11639780026E+04  0.14266864340E+04  0.50400001928E-02 0.  1.
       -1    1    3    3    0  502 -0.47331193808E+03  0.67569608521E+03  0.14579194678E+04  0.16751473264E+04  0.50400001928E-02 0. -1.
</event>
<event>
 5   0  0.1200286E-06  0.3101882E+04  0.7818609E-02  0.8215222E-01
       -2   -1    0    0    0  501  0.00000000000E+00  0.00000000000E+00  0.12138379816E+04  0.12138379816E+04  0.25500000920E-02 0. -1.
        2   -1    0    0  501    0  0.00000000000E+00  0.00000000000E+00 -0.19816625178E+04  0.19816625178E+04  0.25500000920E-02 0.  1.
    10030    2    1    2    0    0  0.00000000000E+00  0.00000000000E+00 -0.76782453614E+03  0.31955004994E+04  0.31018815134E+04 0.  0.
        5    1    3    3  502    0 -0.86604608228E+02  0.10606778795E+04 -0.15461729069E+04  0.18770217554E+04  0.46999998093E+01 0.  1.
       -5    1    3    3    0  502  0.86604608228E+02 -0.10606778795E+04  0.77834837074E+03  0.13184787440E+04  0.46999998093E+01 0. -1.
</event>
<event>
 5   0  0.4134019E-07  0.3098834E+04  0.7818609E-02  0.8216058E-01
       -1   -1    0    0    0  501  0.00000000000E+00  0.00000000000E+00  0.12172486584E+04  0.12172486584E+04  0.50400001928E-02 0.  1.
        1   -1    0    0  501    0  0.00000000000E+00  0.00000000000E+00 -0.19722285302E+04  0.19722285302E+04  0.50400001928E-02 0. -1.
    10030    2    1    2    0    0  0.00000000000E+00  0.00000000000E+00 -0.75497987181E+03  0.31894771886E+04  0.30988336725E+04 0.  0.
        2    1    3    3  502    0  0.23710384237E+03  0.19825438527E+03  0.11851994640E+04  0.12248350104E+04  0.25500000920E-02 0.  1.
       -2    1    3    3    0  502 -0.23710384237E+03 -0.19825438527E+03 -0.19401793358E+04  0.19646421782E+04  0.25500000920E-02 0. -1.
</event>
<event>
 5   0  0.4173905E-07  0.3098268E+04  0.7818609E-02  0.8216213E-01
       -1   -1    0    0    0  501  0.00000000000E+00  0.00000000000E+00  0.10133803557E+04  0.10133803557E+04  0.50400001928E-02 0. -1.
        1   -1    0    0  501    0  0.00000000000E+00  0.00000000000E+00 -0.23681292402E+04  0.23681292402E+04  0.50400001928E-02 0.  1.
    10030    2    1    2    0    0  0.00000000000E+00  0.00000000000E+00 -0.13547488845E+04  0.33815095959E+04  0.30982676784E+04 0.  0.
        3    1    3    3  502    0 -0.79304105871E+01 -0.75371516333E+03  0.79974241271E+03  0.10989710532E+04  0.10100000352E+00 0. -1.
       -3    1    3    3    0  502  0.79304105871E+01  0.75371516333E+03 -0.21544912973E+04  0.22825385427E+04  0.10100000352E+00 0.  1.
</event>
<event>
 5   0  0.4330395E-07  0.3094636E+04  0.7818609E-02  0.8217212E-01
        1   -1    0    0  501    0  0.00000000000E+00  0.00000000000E+00  0.31420106096E+04  0.31420106096E+04  0.50400001928E-02 0. -1.
       -1   -1    0    0    0  501  0.00000000000E+00  0.00000000000E+00 -0.76199394486E+03  0.76199394488E+03  0.50400001928E-02 0.  1.
    10030    2    1    2    0    0  0.00000000000E+00  0.00000000000E+00  0.23800166647E+04  0.39040045545E+04  0.30946360427E+04 0.  0.
        1    1    3    3  502    0 -0.22965151103E+03  0.27071839577E+03  0.30899402502E+04  0.31102667114E+04  0.50400001928E-02 0. -1.
       -1    1    3    3    0  502  0.22965151103E+03 -0.27071839577E+03 -0.70992358545E+03  0.79373784308E+03  0.50400001928E-02 0.  1.
</event>
<event>
 5   0  0.4134019E-07  0.3125925E+04  0.7818609E-02  0.8208659E-01
       -1   -1    0    0    0  501  0.00000000000E+00  0.00000000000E+00  0.16062728248E+04  0.16062728248E+04  0.50400001928E-02 0. -1.
        1   -1    0    0  501    0  0.00000000000E+00  0.00000000000E+00 -0.15208199405E+04  0.15208199406E+04  0.50400001928E-02 0.  1.
    10030    2    1    2    0    0  0.00000000000E+00  0.00000000000E+00  0.85452884219E+02  0.31270927653E+04  0.31259249779E+04 0.  0.
        2    1    3    3  502    0 -0.13809457289E+04  0.67012813284E+03 -0.25194925082E+03  0.15554938912E+04  0.25500000920E-02 0.  1.
       -2    1    3    3    0  502  0.13809457289E+04 -0.67012813284E+03  0.33740213504E+03  0.15715988742E+04  0.25500000920E-02 0. -1.
</event>
<event>
 5   0  0.1193123E-06  0.3115321E+04  0.7818609E-02  0.8211546E-01
        2   -1    0    0  501    0  0.00000000000E+00  0.00000000000E+00  0.13163360626E+04  0.13163360626E+04  0.25500000920E-02 0.  1.
       -2   -1    0    0    0  501  0.00000000000E+00  0.00000000000E+00 -0.18432273513E+04  0.18432273513E+04  0.25500000920E-02 0. -1.
    10030    2    1    2    0    0  0.00000000000E+00  0.00000000000E+00 -0.52689128875E+03  0.31595634139E+04  0.31153212573E+04 0.  0.
        3    1    3    3  502    0 -0.69496031344E+03  0.13627080434E+04 -0.56149593076E+03  0.16294848079E+04  0.10100000352E+00 0. -1.
       -3    1    3    3    0  502  0.69496031344E+03 -0.13627080434E+04  0.34604642013E+02  0.15300786059E+04  0.10100000352E+00 0.  1.
</event>
<event>
 5   0  0.4134019E-07  0.3104354E+04  0.7818609E-02  0.8214544E-01
        1   -1    0    0  501    0  0.00000000000E+00  0.00000000000E+00  0.20276818649E+04  0.20276818649E+04  0.50400001928E-02 0.  1.
       -1   -1    0    0    0  501  0.00000000000E+00  0.00000000000E+00 -0.11881811935E+04  0.11881811935E+04  0.50400001928E-02 0. -1.
    10030    2    1    2    0    0  0.00000000000E+00  0.00000000000E+00  0.83950067139E+03  0.32158630584E+04  0.31043540123E+04 0.  0.
        2    1    3    3  502    0  0.76989310292E+03 -0.57827963331E+03 -0.84139933834E+03  0.12787085558E+04  0.25500000920E-02 0. -1.
       -2    1    3    3    0  502 -0.76989310292E+03  0.57827963331E+03  0.16809000097E+04  0.19371545026E+04  0.25500000920E-02 0.  1.
</event>
<event>
 5   0  0.1200286E-06  0.3091622E+04  0.7818609E-02  0.8218041E-01
       -2   -1    0    0    0  501  0.00000000000E+00  0.00000000000E+00  0.15891779922E+04  0.15891779922E+04  0.25500000920E-02 0. -1.
        2   -1    0    0  501    0  0.00000000000E+00  0.00000000000E+00 -0.15036278530E+04  0.15036278530E+04  0.25500000920E-02 0.  1.
    10030    2    1    2    0    0  0.00000000000E+00  0.00000000000E+00  0.85550139239E+02  0.30928058452E+04  0.30916224170E+04 0.  0.
        5    1    3    3  502    0  0.95114328263E+02  0.62839582009E+03  0.14524213214E+04  0.15853951643E+04  0.46999998093E+01 0. -1.
       -5    1    3    3    0  502 -0.95114328263E+02 -0.62839582009E+03 -0.13668711822E+04  0.15074106809E+04  0.46999998093E+01 0.  1.
</event>
<event>
 5   0  0.1258262E-06  0.3111403E+04  0.7818609E-02  0.8212615E-01
        2   -1    0    0  501    0  0.00000000000E+00  0.00000000000E+00  0.17074822281E+04  0.17074822281E+04  0.25500000920E-02 0.  1.
       -2   -1    0    0    0  501  0.00000000000E+00  0.00000000000E+00 -0.14174129973E+04  0.14174129973E+04  0.25500000920E-02 0. -1.
    10030    2    1    2    0    0  0.00000000000E+00  0.00000000000E+00  0.29006923079E+03  0.31248952254E+04  0.31114032222E+04 0.  0.
        1    1    3    3  502    0  0.96173230441E+03  0.60938941009E+03 -0.91971489090E+03  0.14636119564E+04  0.50400001928E-02 0. -1.
       -1    1    3    3    0  502 -0.96173230441E+03 -0.60938941009E+03  0.12097841217E+04  0.16612832689E+04  0.50400001928E-02 0.  1.
</event>
<event>
 5   0  0.3935852E-07  0.3101255E+04  0.7818609E-02  0.8215394E-01
       -1   -1    0    0    0  501  0.00000000000E+00  0.00000000000E+00  0.10092943031E+04  0.10092943031E+04  0.50400001928E-02 0. -1.
        1   -1    0    0  501    0  0.00000000000E+00  0.00000000000E+00 -0.23823031769E+04  0.23823031769E+04  0.50400001928E-02 0.  1.
    10030    2    1    2    0    0  0.00000000000E+00  0.00000000000E+00 -0.13730088738E+04  0.33915974801E+04  0.31012546008E+04 0.  0.
        5    1    3    3  502    0 -0.89749516511E+03  0.12111054439E+04 -0.10840608550E+04  0.18567401528E+04  0.46999998093E+01 0.  1.
       -5    1    3    3    0  502  0.89749516511E+03 -0.12111054439E+04 -0.28894801886E+03  0.15348573273E+04  0.46999998093E+01 0. -1.
</event>
<event>
 5   0  0.4173905E-07  0.3106076E+04  0.7818609E-02  0.8214072E-01
        1   -1    0    0  501    0  0.00000000000E+00  0.00000000000E+00  0.10836850634E+04  0.10836850634E+04  0.50400001928E-02 0. -1.
       -1   -1    0    0    0  501  0.00000000000E+00  0.00000000000E+00 -0.22256712746E+04  0.22256712746E+04  0.50400001928E-02 0.  1.
    10030    2    1    2    0    0  0.00000000000E+00  0.00000000000E+00 -0.11419862112E+04  0.33093563380E+04  0.31060757984E+04 0.  0.
        3    1    3    3  502    0  0.11704302721E+04  0.74985318729E+03 -0.13089557779E+04  0.19093328843E+04  0.10100000352E+00 0.  1.
       -3    1    3    3    0  502 -0.11704302721E+04 -0.74985318729E+03  0.16696956668E+03  0.14000234537E+04  0.10100000352E+00 0. -1.
</event>
<event>
 5   0  0.4330395E-07  0.3106722E+04  0.7818609E-02  0.8213896E-01
        1   -1    0    0  501    0  0.00000000000E+00  0.00000000000E+00  0.20598404121E+04  0.20598404121E+04  0.50400001928E-02 0. -1.
       -1   -1    0    0    0  501  0.00000000000E+00  0.00000000000E+00 -0.11714158844E+04  0.11714158844E+04  0.50400001928E-02 0.  1.
    10030    2    1    2    0    0  0.00000000000E+00  0.00000000000E+00  0.88842452772E+03  0.32312562966E+04  0.31067216020E+04 0.  0.
        1    1    3    3  502    0  0.44933049207E+03 -0.14869023460E+04  0.45709004028E+03  0.16191688555E+04  0.50400001928E-02 0. -1.
       -1    1    3    3    0  502 -0.44933049207E+03  0.14869023460E+04  0.43133448744E+03  0.16120874411E+04  0.50400001928E-02 0.  1.
</event>
<event>
 5   0  0.3935852E-07  0.3094576E+04  0.7818609E-02  0.8217228E-01
        1   -1    0    0  501    0  0.00000000000E+00  0.00000000000E+00  0.21080179705E+04  0.21080179705E+04  0.50400001928E-02 0.  1.
       -1   -1    0    0    0  501  0.00000000000E+00  0.00000000000E+00 -0.11357111890E+04  0.11357111890E+04  0.50400001928E-02 0. -1.
    10030    2    1    2    0    0  0.00000000000E+00  0.00000000000E+00  0.97230678151E+03  0.32437291595E+04  0.30945756386E+04 0.  0.
        5    1    3    3  502    0  0.48218091481E+03 -0.13441501601E+04  0.11105483839E+04  0.18090267799E+04  0.46999998093E+01 0.  1.
       -5    1    3    3    0  502 -0.48218091481E+03  0.13441501601E+04 -0.13824160239E+03  0.14347023796E+04  0.46999998093E+01 0. -1.
</event>
<event>
 5   0  0.1176002E-06  0.3079824E+04  0.7818609E-02  0.8221297E-01
       -2   -1    0    0    0  501  0.00000000000E+00  0.00000000000E+00  0.15600486767E+04  0.15600486767E+04  0.25500000920E-02 0. -1.
        2   -1    0    0  501    0  0.00000000000E+00  0.00000000000E+00 -0.15200356883E+04  0.15200356883E+04  0.25500000920E-02 0.  1.
    10030    2    1    2    0    0  0.00000000000E+00  0.00000000000E+00  0.40012988343E+02  0.30800843650E+04  0.30798244522E+04 0.  0.
        2    1    3    3  502    0 -0.71417070180E+03  0.25408504550E+03 -0.13205284494E+04  0.15226274618E+04  0.25500000920E-02 0.  1.
       -2    1    3    3    0  502  0.71417070180E+03 -0.25408504550E+03  0.13605414377E+04  0.15574569033E+04  0.25500000920E-02 0. -1.
</event>
<event>
 5   0  0.4134019E-07  0.3100935E+04  0.7818609E-02  0.8215481E-01
        1   -1    0    0  501    0  0.00000000000E+00  0.00000000000E+00  0.11298877350E+04  0.11298877351E+04  0.50400001928E-02 0. -1.
       -1   -1    0    0    0  501  0.00000000000E+00  0.00000000000E+00 -0.21275999109E+04  0.21275999109E+04  0.50400001928E-02 0.  1.
    10030    2    1    2    0    0  0.00000000000E+00  0.00000000000E+00 -0.99771217587E+03  0.32574876460E+04  0.31009347265E+04 0.  0.
        2    1    3    3  502    0  0.10997008875E+04 -0.99924017834E+03 -0.96407548494E+03  0.17712324852E+04  0.25500000920E-02 0. -1.
       -2    1    3    3    0  502 -0.10997008875E+04  0.99924017834E+03 -0.33636690929E+02  0.14862551608E+04  0.25500000920E-02 0.  1.
</event>
<event>
 5   0  0.1200286E-06  0.3104608E+04  0.7818609E-02  0.8214474E-01
       -2   -1    0    0    0  501  0.00000000000E+00  0.00000000000E+00  0.20614249338E+04  0.20614249338E+04  0.25500000920E-02 0.  1.
        2   -1    0    0  501    0  0.00000000000E+00  0.00000000000E+00 -0.11689236493E+04  0.11689236493E+04  0.25500000920E-02 0. -1.
    10030    2    1    2    0    0  0.00000000000E+00  0.00000000000E+00  0.89250128450E+03  0.32303485831E+04  0.31046084175E+04 0.  0.
        5    1    3    3  502    0 -0.32458852050E+03 -0.30024898586E+03  0.19945076276E+04  0.20429365942E+04  0.46999998093E+01 0.  1.
       -5    1    3    3    0  502  0.32458852050E+03  0.30024898586E+03 -0.11020063432E+04  0.11874119889E+04  0.46999998093E+01 0. -1.
</event>
<event>
 5   0  0.4330395E-07  0.3085203E+04  0.7818609E-02  0.8219811E-01
        1   -1    0    0  501    0  0.00000000000E+00  0.00000000000E+00  0.13642821751E+04  0.13642821751E+04  0.50400001928E-02 0. -1.
       -1   -1    0    0    0  501  0.00000000000E+00  0.00000000000E+00 -0.17442279110E+04  0.17442279110E+04  0.50400001928E-02 0.  1.
    10030    2    1    2    0    0  0.00000000000E+00  0.00000000000E+00 -0.37994573588E+03  0.31085100861E+04  0.30852027799E+04 0.  0.
        1    1    3    3  502    0 -0.15006479494E+04 -0.31178807619E+03 -0.36582787122E+03  0.15757493785E+04  0.50400001928E-02 0. -1.
       -1    1    3    3    0  502  0.15006479494E+04  0.31178807619E+03 -0.14117864660E+02  0.15327607076E+04  0.50400001928E-02 0.  1.
</event>
<event>
 5   0  0.1193123E-06  0.3094404E+04  0.7818609E-02  0.8217275E-01
       -2   -1    0    0    0  501  0.00000000000E+00  0.00000000000E+00  0.12589224079E+04  0.12589224079E+04  0.25500000920E-02 0.  1.
        2   -1    0    0  501    0  0.00000000000E+00  0.00000000000E+00 -0.19014944463E+04  0.19014944463E+04  0.25500000920E-02 0. -1.
    10030    2    1    2    0    0  0.00000000000E+00  0.00000000000E+00 -0.64257203837E+03  0.31604168542E+04  0.30944039600E+04 0.  0.
        3    1    3    3  502    0 -0.68020819780E+03  0.45100231705E+03  0.10211930384E+04  0.13072572487E+04  0.10100000352E+00 0.  1.
       -3    1    3    3    0  502  0.68020819780E+03 -0.45100231705E+03 -0.16637650768E+04  0.18531596055E+04  0.10100000352E+00 0. -1.
</event>
<event>
 5   0  0.1200286E-06  0.3104288E+04  0.7818609E-02  0.8214562E-01
       -2   -1    0    0    0  501  0.00000000000E+00  0.00000000000E+00  0.13034751297E+04  0.13034751297E+04  0.25500000920E-02 0. -1.
        2   -1    0    0  501    0  0.00000000000E+00  0.00000000000E+00 -0.18482525325E+04  0.18482525325E+04  0.25500000920E-02 0.  1.
    10030    2    1    2    0    0  0.00000000000E+00  0.00000000000E+00 -0.54477740287E+03  0.31517276622E+04  0.31042881371E+04 0.  0.
        5    1    3    3  502    0  0.98652802120E+03 -0.74825721691E+03 -0.12226419995E+04  0.17401154985E+04  0.46999998093E+01 0.  1.
       -5    1    3    3    0  502 -0.98652802120E+03  0.74825721691E+03  0.67786459661E+03  0.14116121637E+04  0.46999998093E+01 0. -1.
</event>
<event>
 5   0  0.1200286E-06  0.3101717E+04  0.7818609E-02  0.8215267E-01
        2   -1    0    0  501    0  0.00000000000E+00  0.00000000000E+00  0.26198171651E+04  0.26198171651E+04  0.25500000920E-02 0.  1.
       -2   -1    0    0    0  501  0.00000000000E+00  0.00000000000E+00 -0.91806496314E+03  0.91806496315E+03  0.25500000920E-02 0. -1.
    10030    2    1    2    0    0  0.00000000000E+00  0.00000000000E+00  0.17017522020E+04  0.35378821283E+04  0.31017171690E+04 0.  0.
        5    1    3    3  502    0 -0.12139908930E+04  0.54104525093E+03  0.17623998785E+04  0.22073919620E+04  0.46999998093E+01 0.  1.
       -5    1    3    3    0  502  0.12139908930E+04 -0.54104525093E+03 -0.60647676556E+02  0.13304901663E+04  0.46999998093E+01 0. -1.
</event>
<event>
 5   0  0.1193123E-06  0.3101070E+04  0.7818609E-02  0.8215444E-01
        2   -1    0    0  501    0  0.00000000000E+00  0.00000000000E+00  0.17063384732E+04  0.17063384732E+04  0.25500000920E-02 0. -1.
       -2   -1    0    0    0  501  0.00000000000E+00  0.00000000000E+00 -0.14089578308E+04  0.14089578308E+04  0.25500000920E-02 0.  1.
    10030    2    1    2    0    0  0.00000000000E+00  0.00000000000E+00  0.29738064239E+03  0.31152963041E+04  0.31010701081E+04 0.  0.
        3    1    3    3  502    0  0.73856817156E+03  0.13164578674E+04  0.50473785207E+03  0.15916358158E+04  0.10100000352E+00 0. -1.
       -3    1    3    3    0  502 -0.73856817156E+03 -0.13164578674E+04 -0.20735720969E+03  0.15236604882E+04  0.10100000352E+00 0.  1.
</event>
<event>
 5   0  0.4330395E-07  0.3091705E+04  0.7818609E-02  0.8218018E-01
        1   -1    0    0  501    0  0.00000000000E+00  0.00000000000E+00  0.19772512297E+04  0.19772512297E+04  0.50400001928E-02 0. -1.
       -1   -1    0    0    0  501  0.00000000000E+00  0.00000000000E+00 -0.12085770386E+04  0.12085770386E+04  0.50400001928E-02 0.  1.
    10030    2    1    2    0    0  0.00000000000E+00  0.00000000000E+00  0.76867419110E+03  0.31858282684E+04  0.30917053132E+04 0.  0.
        1    1    3    3  502    0  0.85905123060E+03 -0.80765623344E+03  0.14144627678E+04  0.18414620630E+04  0.50400001928E-02 0. -1.
       -1    1    3    3    0  502 -0.85905123060E+03  0.80765623344E+03 -0.64578857667E+03  0.13443662053E+04  0.50400001928E-02 0.  1.
</event>
<event>
 5   0  0.4219337E-07  0.3106064E+04  0.7818609E-02  0.8214076E-01
        1   -1    0    0  501    0  0.00000000000E+00  0.00000000000E+00  0.21817039538E+04  0.21817039538E+04  0.50400001928E-02 0. -1.
       -1   -1    0    0    0  501  0.00000000000E+00  0.00000000000E+00 -0.11055155403E+04  0.11055155403E+04  0.50400001928E-02 0.  1.
    10030    2    1    2    0    0  0.00000000000E+00  0.00000000000E+00  0.10761884135E+04  0.32872194941E+04  0.31060635057E+04 0.  0.
        4    1    3    3  502    0  0.64861556009E+03 -0.12772203084E+04 -0.96822313817E+02  0.14357472042E+04  0.12699999809E+01 0.  1.
       -4    1    3    3    0  502 -0.64861556009E+03  0.12772203084E+04  0.11730107273E+04  0.18514722899E+04  0.12699999809E+01 0. -1.
</event>
<event>
 5   0  0.3935852E-07  0.3120810E+04  0.7818609E-02  0.8210050E-01
        1   -1    0    0  501    0  0.00000000000E+00  0.00000000000E+00  0.14155660467E+04  0.14155660467E+04  0.50400001928E-02 0.  1.
       -1   -1    0    0    0  501  0.00000000000E+00  0.00000000000E+00 -0.17200637992E+04  0.17200637992E+04  0.50400001928E-02 0. -1.
    10030    2    1    2    0    0  0.00000000000E+00  0.00000000000E+00 -0.30449775246E+03  0.31356298459E+04  0.31208100950E+04 0.  0.
        5    1    3    3  502    0  0.56874562076E+03  0.40200625444E+03  0.12507204007E+04  0.14315740359E+04  0.46999998093E+01 0.  1.
       -5    1    3    3    0  502 -0.56874562076E+03 -0.40200625444E+03 -0.15552181531E+04  0.17040558100E+04  0.46999998093E+01 0. -1.
</event>
<event>
 5   0  0.1176002E-06  0.3103916E+04  0.7818609E-02  0.8214664E-01
        2   -1    0    0  501    0  0.00000000000E+00  0.00000000000E+00  0.13756694611E+04  0.13756694611E+04  0.25500000920E-02 0.  1.
       -2   -1    0    0    0  501  0.00000000000E+00  0.00000000000E+00 -0.17508372262E+04  0.17508372262E+04  0.25500000920E-02 0. -1.
    10030    2    1    2    0    0  0.00000000000E+00  0.00000000000E+00 -0.37516776510E+03  0.31265066874E+04  0.31039157873E+04 0.  0.
        2    1    3    3  502    0  0.26608292956E+03  0.59261221404E+03  0.12321367451E+04  0.13928927885E+04  0.25500000920E-02 0.  1.
       -2    1    3    3    0  502 -0.26608292956E+03 -0.59261221404E+03 -0.16073045102E+04  0.17336138989E+04  0.25500000920E-02 0. -1.
</event>
<event>
 5   0  0.4173905E-07  0.3069477E+04  0.7818609E-02  0.8224165E-01
        1   -1    0    0  501    0  0.00000000000E+00  0.00000000000E+00  0.25808790300E+04  0.25808790300E+04  0.50400001928E-02 0.  1.
       -1   -1    0    0    0  501  0.00000000000E+00  0.00000000000E+00 -0.91264337685E+03  0.91264337686E+03  0.50400001928E-02 0. -1.
    10030    2    1    2    0    0  0.00000000000E+00  0.00000000000E+00  0.16682356531E+04  0.34935224068E+04  0.30694769282E+04 0.  0.
        3    1    3    3  502    0  0.93949608409E+03 -0.87895643133E+03 -0.11826534919E+03  0.12919767812E+04  0.10100000352E+00 0. -1.
       -3    1    3    3    0  502 -0.93949608409E+03  0.87895643133E+03  0.17865010023E+04  0.22015456256E+04  0.10100000352E+00 0.  1.
</event>
<event>
 5   0  0.4219337E-07  0.3098827E+04  0.7818609E-02  0.8216060E-01
       -1   -1    0    0    0  501  0.00000000000E+00  0.00000000000E+00  0.12132169481E+04  0.12132169481E+04  0.50400001928E-02 0.  1.
        1   -1    0    0  501    0  0.00000000000E+00  0.00000000000E+00 -0.19787740711E+04  0.19787740711E+04  0.50400001928E-02 0. -1.
    10030    2    1    2    0    0  0.00000000000E+00  0.00000000000E+00 -0.76555712298E+03  0.31919910192E+04  0.30988270294E+04 0.  0.
        4    1    3    3  502    0  0.32354288565E+03  0.54652312899E+03 -0.18385305778E+04  0.19451385112E+04  0.12699999809E+01 0. -1.
       -4    1    3    3    0  502 -0.32354288565E+03 -0.54652312899E+03  0.10729734548E+04  0.12468525081E+04  0.12699999809E+01 0.  1.
</event>
<event>
 5   0  0.1237580E-06  0.2998629E+04  0.7818609E-02  0.8244123E-01
        2   -1    0    0  501    0  0.00000000000E+00  0.00000000000E+00  0.18603721961E+04  0.18603721961E+04  0.25500000920E-02 0.  1.
       -2   -1    0    0    0  501  0.00000000000E+00  0.00000000000E+00 -0.12083299803E+04  0.12083299803E+04  0.25500000920E-02 0. -1.
    10030    2    1    2    0    0  0.00000000000E+00  0.00000000000E+00  0.65204221582E+03  0.30687021764E+04  0.29986286860E+04 0.  0.
        4    1    3    3  502    0 -0.11676367329E+04  0.72102505423E+03 -0.29198605888E+03  0.14030360438E+04  0.12699999809E+01 0.  1.
       -4    1    3    3    0  502  0.11676367329E+04 -0.72102505423E+03  0.94402827470E+03  0.16656661326E+04  0.12699999809E+01 0. -1.
</event>
<event>
 5   0  0.4219337E-07  0.3102080E+04  0.7818609E-02  0.8215167E-01
        1   -1    0    0  501    0  0.00000000000E+00  0.00000000000E+00  0.20205150667E+04  0.20205150667E+04  0.50400001928E-02 0. -1.
       -1   -1    0    0    0  501  0.00000000000E+00  0.00000000000E+00 -0.11906496520E+04  0.11906496520E+04  0.50400001928E-02 0.  1.
    10030    2    1    2    0    0  0.00000000000E+00  0.00000000000E+00  0.82986541471E+03  0.32111647188E+04  0.31020803092E+04 0.  0.
        4    1    3    3  502    0 -0.79761794870E+03  0.10681412333E+04  0.12356584753E+04  0.18176835717E+04  0.12699999809E+01 0. -1.
       -4    1    3    3    0  502  0.79761794870E+03 -0.10681412333E+04 -0.40579306058E+03  0.13934811471E+04  0.12699999809E+01 0.  1.
</event>
<event>
 5   0  0.4219337E-07  0.3075783E+04  0.7818609E-02  0.8222416E-01
       -1   -1    0    0    0  501  0.00000000000E+00  0.00000000000E+00  0.29103105649E+04  0.29103105649E+04  0.50400001928E-02 0.  1.
        1   -1    0    0  501    0  0.00000000000E+00  0.00000000000E+00 -0.81266574533E+03  0.81266574535E+03  0.50400001928E-02 0. -1.
    10030    2    1    2    0    0  0.00000000000E+00  0.00000000000E+00  0.20976448196E+04  0.37229763103E+04  0.30757826350E+04 0.  0.
        4    1    3    3  502    0  0.13586349535E+04 -0.71652338306E+03  0.95653348442E+03  0.18094896007E+04  0.12699999809E+01 0. -1.
       -4    1    3    3    0  502 -0.13586349535E+04  0.71652338306E+03  0.11411113352E+04  0.19134867096E+04  0.12699999809E+01 0.  1.
</event>
<event>
 5   0  0.4330395E-07  0.3120110E+04  0.7818609E-02  0.8210240E-01
       -1   -1    0    0    0  501  0.00000000000E+00  0.00000000000E+00  0.12808881395E+04  0.12808881395E+04  0.50400001928E-02 0. -1.
        1   -1    0    0  501    0  0.00000000000E+00  0.00000000000E+00 -0.19000662057E+04  0.19000662057E+04  0.50400001928E-02 0.  1.
    10030    2    1    2    0    0  0.00000000000E+00  0.00000000000E+00 -0.61917806614E+03  0.31809543452E+04  0.31201104257E+04 0.  0.
        1    1    3    3  502    0  0.13270159571E+04  0.43458396625E+03 -0.10188110286E+04  0.17285284164E+04  0.50400001928E-02 0.  1.
       -1    1    3    3    0  502 -0.13270159571E+04 -0.43458396625E+03  0.39963296242E+03  0.14524259289E+04  0.50400001928E-02 0. -1.
</event>
<event>
 5   0  0.1258262E-06  0.3086493E+04  0.7818609E-02  0.8219455E-01
        2   -1    0    0  501    0  0.00000000000E+00  0.00000000000E+00  0.23951784369E+04  0.23951784369E+04  0.25500000920E-02 0. -1.
       -2   -1    0    0    0  501  0.00000000000E+00  0.00000000000E+00 -0.99433498649E+03  0.99433498649E+03  0.25500000920E-02 0.  1.
    10030    2    1    2    0    0  0.00000000000E+00  0.00000000000E+00  0.14008434504E+04  0.33895134234E+04  0.30864929734E+04 0.  0.
        1    1    3    3  502    0  0.14352467797E+04  0.99209770269E+02  0.13136662424E+04  0.19482029909E+04  0.50400001928E-02 0. -1.
       -1    1    3    3    0  502 -0.14352467797E+04 -0.99209770269E+02  0.87177207931E+02  0.14413104325E+04  0.50400001928E-02 0.  1.
</event>
<event>
 5   0  0.4173905E-07  0.3102503E+04  0.7818609E-02  0.8215051E-01
        1   -1    0    0  501    0  0.00000000000E+00  0.00000000000E+00  0.23032404954E+04  0.23032404954E+04  0.50400001928E-02 0. -1.
       -1   -1    0    0    0  501  0.00000000000E+00  0.00000000000E+00 -0.10447809438E+04  0.10447809438E+04  0.50400001928E-02 0.  1.
    10030    2    1    2    0    0  0.00000000000E+00  0.00000000000E+00  0.12584595516E+04  0.33480214392E+04  0.31025033625E+04 0.  0.
        3    1    3    3  502    0  0.66864401513E+03 -0.36575918387E+03 -0.82880851798E+03  0.11259609981E+04  0.10100000352E+00 0.  1.
       -3    1    3    3    0  502 -0.66864401513E+03  0.36575918387E+03  0.20872680696E+04  0.22220604411E+04  0.10100000352E+00 0. -1.
</event>
<event>
 5   0  0.1176002E-06  0.3112193E+04  0.7818609E-02  0.8212399E-01
       -2   -1    0    0    0  501  0.00000000000E+00  0.00000000000E+00  0.22244609483E+04  0.22244609483E+04  0.25500000920E-02 0. -1.
        2   -1    0    0  501    0  0.00000000000E+00  0.00000000000E+00 -0.10885499803E+04  0.10885499803E+04  0.25500000920E-02 0.  1.
    10030    2    1    2    0    0  0.00000000000E+00  0.00000000000E+00  0.11359109680E+04  0.33130109286E+04  0.31121933882E+04 0.  0.
        2    1    3    3  502    0  0.49837253343E+03 -0.16287599601E+03 -0.99168712909E+03  0.11217607295E+04  0.25500000920E-02 0.  1.
       -2    1    3    3    0  502 -0.49837253343E+03  0.16287599601E+03  0.21275980971E+04  0.21912501991E+04  0.25500000920E-02 0. -1.
</event>
<event>
 5   0  0.1193123E-06  0.3097541E+04  0.7818609E-02  0.8216413E-01
        2   -1    0    0  501    0  0.00000000000E+00  0.00000000000E+00  0.16065347716E+04  0.16065347716E+04  0.25500000920E-02 0. -1.
       -2   -1    0    0    0  501  0.00000000000E+00  0.00000000000E+00 -0.14930828469E+04  0.14930828469E+04  0.25500000920E-02 0.  1.
    10030    2    1    2    0    0  0.00000000000E+00  0.00000000000E+00  0.11345192472E+03  0.30996176186E+04  0.30975406441E+04 0.  0.
        3    1    3    3  502    0 -0.13464402734E+04 -0.15120004742E+03  0.80751341608E+03  0.15772890640E+04  0.10100000352E+00 0. -1.
       -3    1    3    3    0  502  0.13464402734E+04  0.15120004742E+03 -0.69406149136E+03  0.15223285546E+04  0.10100000352E+00 0.  1.
</event>
<event>
 5   0  0.3935852E-07  0.3082111E+04  0.7818609E-02  0.8220665E-01
        1   -1    0    0  501    0  0.00000000000E+00  0.00000000000E+00  0.21387225094E+04  0.21387225094E+04  0.50400001928E-02 0.  1.
       -1   -1    0    0    0  501  0.00000000000E+00  0.00000000000E+00 -0.11104066301E+04  0.11104066301E+04  0.50400001928E-02 0. -1.
    10030    2    1    2    0    0  0.00000000000E+00  0.00000000000E+00  0.10283158793E+04  0.32491291395E+04  0.30821107406E+04 0.  0.
        5    1    3    3  502    0 -0.14894059815E+04  0.65308404486E+02  0.92547322354E+03  0.17547416171E+04  0.46999998093E+01 0.  1.
       -5    1    3    3    0  502  0.14894059815E+04 -0.65308404486E+02  0.10284265580E+03  0.14943875224E+04  0.46999998093E+01 0. -1.
</event>
<event>
 5   0  0.1237580E-06  0.3088116E+04  0.7818609E-02  0.8219007E-01
        2   -1    0    0  501    0  0.00000000000E+00  0.00000000000E+00  0.14904757288E+04  0.14904757288E+04  0.25500000920E-02 0. -1.
       -2   -1    0    0    0  501  0.00000000000E+00  0.00000000000E+00 -0.15995666455E+04  0.15995666455E+04  0.25500000920E-02 0.  1.
    10030    2    1    2    0    0  0.00000000000E+00  0.00000000000E+00 -0.10909091678E+03  0.30900423743E+04  0.30881161000E+04 0.  0.
        4    1    3    3  502    0  0.10693511686E+04 -0.31348166399E+03  0.10149200724E+04  0.15072647550E+04  0.12699999809E+01 0. -1.
       -4    1    3    3    0  502 -0.10693511686E+04  0.31348166399E+03 -0.11240109891E+04  0.15827776193E+04  0.12699999809E+01 0.  1.
</event>
<event>
 5   0  0.1237580E-06  0.3089859E+04  0.7818609E-02  0.8218527E-01
        2   -1    0    0  501    0  0.00000000000E+00  0.00000000000E+00  0.21247568283E+04  0.21247568283E+04  0.25500000920E-02 0.  1.
       -2   -1    0    0    0  501  0.00000000000E+00  0.00000000000E+00 -0.11233318569E+04  0.11233318569E+04  0.25500000920E-02 0. -1.
    10030    2    1    2    0    0  0.00000000000E+00  0.00000000000E+00  0.10014249714E+04  0.32480886852E+04  0.30898589181E+04 0.  0.
        4    1    3    3  502    0 -0.25732881301E+03  0.51205739860E+03 -0.10074651010E+04  0.11590549772E+04  0.12699999809E+01 0. -1.
       -4    1    3    3    0  502  0.25732881301E+03 -0.51205739860E+03  0.20088900724E+04  0.20890337081E+04  0.12699999809E+01 0.  1.
</event>
<event>
 5   0  0.1176002E-06  0.3097440E+04  0.7818609E-02  0.8216441E-01
        2   -1    0    0  501    0  0.00000000000E+00  0.00000000000E+00  0.17631699815E+04  0.17631699815E+04  0.25500000920E-02 0. -1.
       -2   -1    0    0    0  501  0.00000000000E+00  0.00000000000E+00 -0.13603532865E+04  0.13603532865E+04  0.25500000920E-02 0.  1.
    10030    2    1    2    0    0  0.00000000000E+00  0.00000000000E+00  0.40281669502E+03  0.31235232680E+04  0.30974402844E+04 0.  0.
        2    1    3    3  502    0  0.11985732268E+04  0.67393358860E+03 -0.51717184873E+03  0.14690918906E+04  0.25500000920E-02 0.  1.
       -2    1    3    3    0  502 -0.11985732268E+04 -0.67393358860E+03  0.91998854375E+03  0.16544313774E+04  0.25500000920E-02 0. -1.
</event>
<event>
 5   0  0.3935852E-07  0.3130727E+04  0.7818609E-02  0.8207355E-01
        1   -1    0    0  501    0  0.00000000000E+00  0.00000000000E+00  0.26456157370E+04  0.26456157370E+04  0.50400001928E-02 0.  1.
       -1   -1    0    0    0  501  0.00000000000E+00  0.00000000000E+00 -0.92619761857E+03  0.92619761858E+03  0.50400001928E-02 0. -1.
    10030    2    1    2    0    0  0.00000000000E+00  0.00000000000E+00  0.17194181184E+04  0.35718133556E+04  0.31307270691E+04 0.  0.
        5    1    3    3  502    0 -0.70275640952E+03  0.12360282423E+04  0.11270217360E+03  0.14263086121E+04  0.46999998093E+01 0. -1.
       -5    1    3    3    0  502  0.70275640952E+03 -0.12360282423E+04  0.16067159448E+04  0.21455047435E+04  0.46999998093E+01 0.  1.
</event>
<event>
 5   0  0.1193123E-06  0.3095511E+04  0.7818609E-02  0.8216971E-01
       -2   -1    0    0    0  501  0.00000000000E+00  0.00000000000E+00  0.17489769453E+04  0.17489769453E+04  0.25500000920E-02 0. -1.
        2   -1    0    0  501    0  0.00000000000E+00  0.00000000000E+00 -0.13696845092E+04  0.13696845092E+04  0.25500000920E-02 0.  1.
    10030    2    1    2    0    0  0.00000000000E+00  0.00000000000E+00  0.37929243610E+03  0.31186614545E+04  0.30955107035E+04 0.  0.
        3    1    3    3  502    0  0.20623571120E+03 -0.15331937147E+04  0.23828233767E+03  0.15652458651E+04  0.10100000352E+00 0. -1.
       -3    1    3    3    0  502 -0.20623571120E+03  0.15331937147E+04  0.14101009843E+03  0.15534155894E+04  0.10100000352E+00 0.  1.
</event>
<event>
 5   0  0.3902375E-07  0.3087939E+04  0.7818609E-02  0.8219056E-01
        3   -1    0    0  501    0  0.00000000000E+00  0.00000000000E+00  0.14946589225E+04  0.14946589259E+04  0.10100000352E+00 0.  1.
       -3   -1    0    0    0  501  0.00000000000E+00  0.00000000000E+00 -0.15949073215E+04  0.15949073247E+04  0.10100000352E+00 0. -1.
    10030    2    1    2    0    0  0.00000000000E+00  0.00000000000E+00 -0.10024839905E+03  0.30895662506E+04  0.30879394223E+04 0.  0.
        1    1    3    3  502    0  0.10449134935E+04 -0.99594788439E+02  0.10827616628E+04  0.15080239220E+04  0.50400001928E-02 0.  1.
       -1    1    3    3    0  502 -0.10449134935E+04  0.99594788439E+02 -0.11830100618E+04  0.15815423286E+04  0.50400001928E-02 0. -1.
</event>
<event>
 5   0  0.4173905E-07  0.3097672E+04  0.7818609E-02  0.8216377E-01
       -1   -1    0    0    0  501  0.00000000000E+00  0.00000000000E+00  0.12233709232E+04  0.12233709232E+04  0.50400001928E-02 0. -1.
        1   -1    0    0  501    0  0.00000000000E+00  0.00000000000E+00 -0.19608882377E+04  0.19608882377E+04  0.50400001928E-02 0.  1.
    10030    2    1    2    0    0  0.00000000000E+00  0.00000000000E+00 -0.73751731448E+03  0.31842591610E+04  0.30976724512E+04 0.  0.
        3    1    3    3  502    0  0.57212896210E+03 -0.22700161372E+02 -0.18480982120E+04  0.19347645484E+04  0.10100000352E+00 0.  1.
       -3    1    3    3    0  502 -0.57212896210E+03  0.22700161372E+02  0.11105808975E+04  0.12494946125E+04  0.10100000352E+00 0. -1.
</event>
<event>
 5   0  0.3902375E-07  0.3073377E+04  0.7818609E-02  0.8223082E-01
        3   -1    0    0  501    0  0.00000000000E+00  0.00000000000E+00  0.26427417633E+04  0.26427417652E+04  0.10100000352E+00 0. -1.
       -3   -1    0    0    0  501  0.00000000000E+00  0.00000000000E+00 -0.89354628352E+03  0.89354628922E+03  0.10100000352E+00 0.  1.
    10030    2    1    2    0    0  0.00000000000E+00  0.00000000000E+00  0.17491954797E+04  0.35362880544E+04  0.30733773568E+04 0.  0.
        5    1    3    3  502    0 -0.10945295815E+03  0.57943508456E+03 -0.75817357334E+03  0.96050727461E+03  0.46999998093E+01 0.  1.
       -5    1    3    3    0  502  0.10945295815E+03 -0.57943508456E+03  0.25073690531E+04  0.25757807798E+04  0.46999998093E+01 0. -1.
</event>
<event>
 5   0  0.1237580E-06  0.3092227E+04  0.7818609E-02  0.8217875E-01
        2   -1    0    0  501    0  0.00000000000E+00  0.00000000000E+00  0.18230605526E+04  0.18230605526E+04  0.25500000920E-02 0.  1.
       -2   -1    0    0    0  501  0.00000000000E+00  0.00000000000E+00 -0.13112379840E+04  0.13112379840E+04  0.25500000920E-02 0. -1.
    10030    2    1    2    0    0  0.00000000000E+00  0.00000000000E+00  0.51182256854E+03  0.31342985366E+04  0.30922265401E+04 0.  0.
        4    1    3    3  502    0 -0.10625412462E+03  0.14444368310E+04 -0.29253927686E+03  0.14775887585E+04  0.12699999809E+01 0. -1.
       -4    1    3    3    0  502  0.10625412462E+03 -0.14444368310E+04  0.80436184540E+03  0.16567097782E+04  0.12699999809E+01 0.  1.
</event>
<event>
 5   0  0.4219337E-07  0.3091954E+04  0.7818609E-02  0.8217949E-01
        1   -1    0    0  501    0  0.00000000000E+00  0.00000000000E+00  0.17406541540E+04  0.17406541540E+04  0.50400001928E-02 0. -1.
       -1   -1    0    0    0  501  0.00000000000E+00  0.00000000000E+00 -0.13730731221E+04  0.13730731221E+04  0.50400001928E-02 0.  1.
    10030    2    1    2    0    0  0.00000000000E+00  0.00000000000E+00  0.36758103191E+03  0.31137272761E+04  0.30919543553E+04 0.  0.
        4    1    3    3  502    0  0.27555330786E+03 -0.52050420970E+03  0.16232578962E+04  0.17267953174E+04  0.12699999809E+01 0. -1.
       -4    1    3    3    0  502 -0.27555330786E+03  0.52050420970E+03 -0.12556768643E+04  0.13869319587E+04  0.12699999809E+01 0.  1.
</event>
<event>
 5   0  0.4173905E-07  0.3102670E+04  0.7818609E-02  0.8215006E-01
        1   -1    0    0  501    0  0.00000000000E+00  0.00000000000E+00  0.11135260008E+04  0.11135260008E+04  0.50400001928E-02 0. -1.
       -1   -1    0    0    0  501  0.00000000000E+00  0.00000000000E+00 -0.21612788123E+04  0.21612788123E+04  0.50400001928E-02 0.  1.
    10030    2    1    2    0    0  0.00000000000E+00  0.00000000000E+00 -0.10477528115E+04  0.32748048131E+04  0.31026699164E+04 0.  0.
        3    1    3    3  502    0  0.10121467929E+04 -0.14496849843E+03 -0.17553018611E+04  0.20313890887E+04  0.10100000352E+00 0.  1.
       -3    1    3    3    0  502 -0.10121467929E+04  0.14496849843E+03  0.70754904963E+03  0.12434157244E+04  0.10100000352E+00 0. -1.
</event>
<event>
 5   0  0.1176002E-06  0.3095053E+04  0.7818609E-02  0.8217097E-01
        2   -1    0    0  501    0  0.00000000000E+00  0.00000000000E+00  0.19481817047E+04  0.19481817047E+04  0.25500000920E-02 0.  1.
       -2   -1    0    0    0  501  0.00000000000E+00  0.00000000000E+00 -0.12292687023E+04  0.12292687023E+04  0.25500000920E-02 0. -1.
    10030    2    1    2    0    0  0.00000000000E+00  0.00000000000E+00  0.71891300240E+03  0.31774504071E+04  0.30950533411E+04 0.  0.
        2    1    3    3  502    0  0.58074396348E+03  0.71117462631E+03 -0.91942216156E+03  0.12993729301E+04  0.25500000920E-02 0. -1.
       -2    1    3    3    0  502 -0.58074396348E+03 -0.71117462631E+03  0.16383351640E+04  0.18780774770E+04  0.25500000920E-02 0.  1.
</event>
<event>
 5   0  0.4173905E-07  0.3103117E+04  0.7818609E-02  0.8214883E-01
       -1   -1    0    0    0  501  0.00000000000E+00  0.00000000000E+00  0.11700774237E+04  0.11700774237E+04  0.50400001928E-02 0.  1.
        1   -1    0    0  501    0  0.00000000000E+00  0.00000000000E+00 -0.20574146569E+04  0.20574146569E+04  0.50400001928E-02 0. -1.
    10030    2    1    2    0    0  0.00000000000E+00  0.00000000000E+00 -0.88733723317E+03  0.32274920806E+04  0.31031174269E+04 0.  0.
        3    1    3    3  502    0 -0.98834653903E+03  0.66312841167E+03 -0.14789361134E+04  0.18983730427E+04  0.10100000352E+00 0. -1.
       -3    1    3    3    0  502  0.98834653903E+03 -0.66312841167E+03  0.59159888022E+03  0.13291190379E+04  0.10100000352E+00 0.  1.
</event>
<event>
 5   0  0.1237580E-06  0.3085721E+04  0.7818609E-02  0.8219668E-01
        2   -1    0    0  501    0  0.00000000000E+00  0.00000000000E+00  0.24743786176E+04  0.24743786176E+04  0.25500000920E-02 0. -1.
       -2   -1    0    0    0  501  0.00000000000E+00  0.00000000000E+00 -0.96202679245E+03  0.96202679245E+03  0.25500000920E-02 0.  1.
    10030    2    1    2    0    0  0.00000000000E+00  0.00000000000E+00  0.15123518251E+04  0.34364054100E+04  0.30857210015E+04 0.  0.
        4    1    3    3  502    0  0.76284997598E+03 -0.37133264415E+03 -0.67891297712E+03  0.10866243426E+04  0.12699999809E+01 0.  1.
       -4    1    3    3    0  502 -0.76284997598E+03  0.37133264415E+03  0.21912648023E+04  0.23497810675E+04  0.12699999809E+01 0. -1.
</event>
<event>
 5   0  0.1258262E-06  0.3117103E+04  0.7818609E-02  0.8211060E-01
       -2   -1    0    0    0  501  0.00000000000E+00  0.00000000000E+00  0.10271780258E+04  0.10271780258E+04  0.25500000920E-02 0. -1.
        2   -1    0    0  501    0  0.00000000000E+00  0.00000000000E+00 -0.23648121934E+04  0.23648121934E+04  0.25500000920E-02 0.  1.
    10030    2    1    2    0    0  0.00000000000E+00  0.00000000000E+00 -0.13376341675E+04  0.33919902192E+04  0.31171032195E+04 0.  0.
        1    1    3    3  502    0  0.87855190880E+02  0.12331320220E+04  0.36395750453E+03  0.12887195907E+04  0.50400001928E-02 0. -1.
       -1    1    3    3    0  502 -0.87855190880E+02 -0.12331320220E+04 -0.17015916721E+04  0.21032706285E+04  0.50400001928E-02 0.  1.
</event>
<event>
 5   0  0.1193123E-06  0.3050802E+04  0.7818609E-02  0.8229371E-01
       -2   -1    0    0    0  501  0.00000000000E+00  0.00000000000E+00  0.96212379277E+03  0.96212379277E+03  0.25500000920E-02 0.  1.
        2   -1    0    0  501    0  0.00000000000E+00  0.00000000000E+00 -0.24184497296E+04  0.24184497296E+04  0.25500000920E-02 0. -1.
    10030    2    1    2    0    0  0.00000000000E+00  0.00000000000E+00 -0.14563259368E+04  0.33805735224E+04  0.30508018792E+04 0.  0.
        3    1    3    3  502    0 -0.50068554701E+03 -0.13306099629E+04 -0.13407684166E+04  0.19541926332E+04  0.10100000352E+00 0. -1.
       -3    1    3    3    0  502  0.50068554701E+03  0.13306099629E+04 -0.11555752025E+03  0.14263808892E+04  0.10100000352E+00 0.  1.
</event>
<event>
 5   0  0.1193123E-06  0.3099305E+04  0.7818609E-02  0.8215929E-01
       -2   -1    0    0    0  501  0.00000000000E+00  0.00000000000E+00  0.17000849826E+04  0.17000849826E+04  0.25500000920E-02 0. -1.
        2   -1    0    0  501    0  0.00000000000E+00  0.00000000000E+00 -0.14125309420E+04  0.14125309420E+04  0.25500000920E-02 0.  1.
    10030    2    1    2    0    0  0.00000000000E+00  0.00000000000E+00  0.28755404063E+03  0.31126159246E+04  0.30993048524E+04 0.  0.
        3    1    3    3  502    0  0.13989437893E+04  0.33334840381E+03  0.72354118264E+03  0.16098685466E+04  0.10100000352E+00 0. -1.
       -3    1    3    3    0  502 -0.13989437893E+04 -0.33334840381E+03 -0.43598714201E+03  0.15027473781E+04  0.10100000352E+00 0.  1.
</event>
<event>
 5   0  0.1200286E-06  0.3099993E+04  0.7818609E-02  0.8215740E-01
        2   -1    0    0  501    0  0.00000000000E+00  0.00000000000E+00  0.16666539792E+04  0.16666539792E+04  0.25500000920E-02 0. -1.
       -2   -1    0    0    0  501  0.00000000000E+00  0.00000000000E+00 -0.14415046381E+04  0.14415046381E+04  0.25500000920E-02 0.  1.
    10030    2    1    2    0    0  0.00000000000E+00  0.00000000000E+00  0.22514934107E+03  0.31081586173E+04  0.30999931878E+04 0.  0.
        5    1    3    3  502    0 -0.39243115040E+03 -0.59734243620E+03 -0.12664197227E+04  0.14541874700E+04  0.46999998093E+01 0.  1.
       -5    1    3    3    0  502  0.39243115040E+03  0.59734243620E+03  0.14915690638E+04  0.16539711473E+04  0.46999998093E+01 0. -1.
</event>
<event>
 5   0  0.4173905E-07  0.3100725E+04  0.7818609E-02  0.8215539E-01
       -1   -1    0    0    0  501  0.00000000000E+00  0.00000000000E+00  0.10612465476E+04  0.10612465477E+04  0.50400001928E-02 0. -1.
        1   -1    0    0  501    0  0.00000000000E+00  0.00000000000E+00 -0.22649055336E+04  0.22649055336E+04  0.50400001928E-02 0.  1.
    10030    2    1    2    0    0  0.00000000000E+00  0.00000000000E+00 -0.12036589860E+04  0.33261520813E+04  0.31007245465E+04 0.  0.
        3    1    3    3  502    0  0.14428498504E+04  0.10459520952E+03 -0.37396191605E+01  0.14466408827E+04  0.10100000352E+00 0. -1.
       -3    1    3    3    0  502 -0.14428498504E+04 -0.10459520952E+03 -0.11999193668E+04  0.18795111986E+04  0.10100000352E+00 0.  1.
</event>
<event>
 5   0  0.4219337E-07  0.3084826E+04  0.7818609E-02  0.8219915E-01
        1   -1    0    0  501    0  0.00000000000E+00  0.00000000000E+00  0.21279261326E+04  0.21279261326E+04  0.50400001928E-02 0.  1.
       -1   -1    0    0    0  501  0.00000000000E+00  0.00000000000E+00 -0.11180073885E+04  0.11180073885E+04  0.50400001928E-02 0. -1.
    10030    2    1    2    0    0  0.00000000000E+00  0.00000000000E+00  0.10099187441E+04  0.32459335210E+04  0.30848255305E+04 0.  0.
        4    1    3    3  502    0  0.39731643958E+03  0.14876923386E+04  0.59875915296E+03  0.16521510172E+04  0.12699999809E+01 0. -1.
       -4    1    3    3    0  502 -0.39731643958E+03 -0.14876923386E+04  0.41115959114E+03  0.15937825039E+04  0.12699999809E+01 0.  1.
</event>
<event>
 5   0  0.1237580E-06  0.3121634E+04  0.7818609E-02  0.8209826E-01
       -2   -1    0    0    0  501  0.00000000000E+00  0.00000000000E+00  0.14149661926E+04  0.14149661926E+04  0.25500000920E-02 0.  1.
        2   -1    0    0  501    0  0.00000000000E+00  0.00000000000E+00 -0.17217015443E+04  0.17217015443E+04  0.25500000920E-02 0. -1.
    10030    2    1    2    0    0  0.00000000000E+00  0.00000000000E+00 -0.30673535177E+03  0.31366677369E+04  0.31216338535E+04 0.  0.
        4    1    3    3  502    0  0.56615080247E+03 -0.12951508823E+04  0.51179118563E+03  0.15032878532E+04  0.12699999809E+01 0.  1.
       -4    1    3    3    0  502 -0.56615080247E+03  0.12951508823E+04 -0.81852653740E+03  0.16333798837E+04  0.12699999809E+01 0. -1.
</event>
<event>
 5   0  0.4173905E-07  0.3095508E+04  0.7818609E-02  0.8216972E-01
        1   -1    0    0  501    0  0.00000000000E+00  0.00000000000E+00  0.19486289425E+04  0.19486289425E+04  0.50400001928E-02 0. -1.
       -1   -1    0    0    0  501  0.00000000000E+00  0.00000000000E+00 -0.12293477610E+04  0.12293477610E+04  0.50400001928E-02 0.  1.
    10030    2    1    2    0    0  0.00000000000E+00  0.00000000000E+00  0.71928118149E+03  0.31779767035E+04  0.30955081183E+04 0.  0.
        3    1    3    3  502    0 -0.66928431959E+03 -0.47456010321E+03  0.17070047538E+04  0.18939414013E+04  0.10100000352E+00 0. -1.
       -3    1    3    3    0  502  0.66928431959E+03  0.47456010321E+03 -0.98772357227E+03  0.12840353022E+04  0.10100000352E+00 0.  1.
</event>
<event>
 5   0  0.4219337E-07  0.3097758E+04  0.7818609E-02  0.8216354E-01
       -1   -1    0    0    0  501  0.00000000000E+00  0.00000000000E+00  0.17308060252E+04  0.17308060252E+04  0.50400001928E-02 0. -1.
        1   -1    0    0  501    0  0.00000000000E+00  0.00000000000E+00 -0.13860741016E+04  0.13860741016E+04  0.50400001928E-02 0.  1.
    10030    2    1    2    0    0  0.00000000000E+00  0.00000000000E+00  0.34473192359E+03  0.31168801269E+04  0.30977575157E+04 0.  0.
        4    1    3    3  502    0 -0.74991940918E+03 -0.27704771048E+03  0.15071633510E+04  0.17060707880E+04  0.12699999809E+01 0. -1.
       -4    1    3    3    0  502  0.74991940918E+03  0.27704771048E+03 -0.11624314275E+04  0.14108093388E+04  0.12699999809E+01 0.  1.
</event>
<event>
 5   0  0.3935852E-07  0.3102301E+04  0.7818609E-02  0.8215107E-01
       -1   -1    0    0    0  501  0.00000000000E+00  0.00000000000E+00  0.16611784262E+04  0.16611784262E+04  0.50400001928E-02 0.  1.
        1   -1    0    0  501    0  0.00000000000E+00  0.00000000000E+00 -0.14484106012E+04  0.14484106012E+04  0.50400001928E-02 0. -1.
    10030    2    1    2    0    0  0.00000000000E+00  0.00000000000E+00  0.21276782493E+03  0.31095890274E+04  0.31023013671E+04 0.  0.
        5    1    3    3  502    0  0.48117815251E+03 -0.10332579809E+04 -0.94817685995E+03  0.14826381613E+04  0.46999998093E+01 0. -1.
       -5    1    3    3    0  502 -0.48117815251E+03  0.10332579809E+04  0.11609446849E+04  0.16269508662E+04  0.46999998093E+01 0.  1.
</event>
<event>
 5   0  0.4173905E-07  0.3110413E+04  0.7818609E-02  0.8212886E-01
        1   -1    0    0  501    0  0.00000000000E+00  0.00000000000E+00  0.15679384115E+04  0.15679384115E+04  0.50400001928E-02 0.  1.
       -1   -1    0    0    0  501  0.00000000000E+00  0.00000000000E+00 -0.15425775291E+04  0.15425775291E+04  0.50400001928E-02 0. -1.
    10030    2    1    2    0    0  0.00000000000E+00  0.00000000000E+00  0.25360882378E+02  0.31105159406E+04  0.31104125518E+04 0.  0.
        3    1    3    3  502    0  0.46745826838E+03 -0.63819405452E+03 -0.13263404161E+04  0.15443405691E+04  0.10100000352E+00 0. -1.
       -3    1    3    3    0  502 -0.46745826838E+03  0.63819405452E+03  0.13517012984E+04  0.15661753715E+04  0.10100000352E+00 0.  1.
</event>
<event>
 5   0  0.3935852E-07  0.3066389E+04  0.7818609E-02  0.8225023E-01
       -1   -1    0    0    0  501  0.00000000000E+00  0.00000000000E+00  0.15835623152E+04  0.15835623152E+04  0.50400001928E-02 0. -1.
        1   -1    0    0  501    0  0.00000000000E+00  0.00000000000E+00 -0.14844284889E+04  0.14844284889E+04  0.50400001928E-02 0.  1.
    10030    2    1    2    0    0  0.00000000000E+00  0.00000000000E+00  0.99133826313E+02  0.30679908041E+04  0.30663887650E+04 0.  0.
        5    1    3    3  502    0 -0.58311304780E+03  0.62128329069E+03 -0.12257162768E+04  0.14927880744E+04  0.46999998093E+01 0.  1.
       -5    1    3    3    0  502  0.58311304780E+03 -0.62128329069E+03  0.13248501031E+04  0.15752027297E+04  0.46999998093E+01 0. -1.
</event>
<event>
 5   0  0.4134019E-07  0.3100730E+04  0.7818609E-02  0.8215538E-01
       -1   -1    0    0    0  501  0.00000000000E+00  0.00000000000E+00  0.10207153183E+04  0.10207153183E+04  0.50400001928E-02 0. -1.
        1   -1    0    0  501    0  0.00000000000E+00  0.00000000000E+00 -0.23548499675E+04  0.23548499675E+04  0.50400001928E-02 0.  1.
    10030    2    1    2    0    0  0.00000000000E+00  0.00000000000E+00 -0.13341346492E+04  0.33755652858E+04  0.31007298716E+04 0.  0.
        2    1    3    3  502    0 -0.89946788050E+03  0.26177243317E+03  0.67776758835E+03  0.11562595637E+04  0.25500000920E-02 0. -1.
       -2    1    3    3    0  502  0.89946788050E+03 -0.26177243317E+03 -0.20119022376E+04  0.22193057221E+04  0.25500000920E-02 0.  1.
</event>
<event>
 5   0  0.4134019E-07  0.3092798E+04  0.7818609E-02  0.8217717E-01
        1   -1    0    0  501    0  0.00000000000E+00  0.00000000000E+00  0.23283434698E+04  0.23283434698E+04  0.50400001928E-02 0. -1.
       -1   -1    0    0    0  501  0.00000000000E+00  0.00000000000E+00 -0.10270602802E+04  0.10270602802E+04  0.50400001928E-02 0.  1.
    10030    2    1    2    0    0  0.00000000000E+00  0.00000000000E+00  0.13012831896E+04  0.33554037501E+04  0.30927975017E+04 0.  0.
        2    1    3    3  502    0  0.50861436858E+03 -0.13532479545E+04  0.55046832139E+02  0.14467199992E+04  0.25500000920E-02 0. -1.
       -2    1    3    3    0  502 -0.50861436858E+03  0.13532479545E+04  0.12462363574E+04  0.19086837509E+04  0.25500000920E-02 0.  1.
</event>
<event>
 5   0  0.1200286E-06  0.3096611E+04  0.7818609E-02  0.8216669E-01
        2   -1    0    0  501    0  0.00000000000E+00  0.00000000000E+00  0.17646686052E+04  0.17646686052E+04  0.25500000920E-02 0.  1.
       -2   -1    0    0    0  501  0.00000000000E+00  0.00000000000E+00 -0.13584703871E+04  0.13584703871E+04  0.25500000920E-02 0. -1.
    10030    2    1    2    0    0  0.00000000000E+00  0.00000000000E+00  0.40619821805E+03  0.31231389923E+04  0.30966110787E+04 0.  0.
        5    1    3    3  502    0  0.15418886220E+04  0.13497455390E+03  0.16289155488E+03  0.15563400661E+04  0.46999998093E+01 0. -1.
       -5    1    3    3    0  502 -0.15418886220E+04 -0.13497455390E+03  0.24330666317E+03  0.15667989262E+04  0.46999998093E+01 0.  1.
</event>
<event>
 5   0  0.4173905E-07  0.3173644E+04  0.7818609E-02  0.8195812E-01
        1   -1    0    0  501    0  0.00000000000E+00  0.00000000000E+00  0.30232943561E+04  0.30232943561E+04  0.50400001928E-02 0.  1.
       -1   -1    0    0    0  501  0.00000000000E+00  0.00000000000E+00 -0.83286788795E+03  0.83286788796E+03  0.50400001928E-02 0. -1.
    10030    2    1    2    0    0  0.00000000000E+00  0.00000000000E+00  0.21904264682E+04  0.38561622441E+04  0.31736444571E+04 0.  0.
        3    1    3    3  502    0  0.65073829686E+03 -0.12168362554E+04  0.20471970426E+04  0.24688391087E+04  0.10100000352E+00 0.  1.
       -3    1    3    3    0  502 -0.65073829686E+03  0.12168362554E+04  0.14322942560E+03  0.13873231354E+04  0.10100000352E+00 0. -1.
</event>
<event>
 5   0  0.1200286E-06  0.3097842E+04  0.7818609E-02  0.8216330E-01
        2   -1    0    0  501    0  0.00000000000E+00  0.00000000000E+00  0.84235955410E+03  0.84235955410E+03  0.25500000920E-02 0. -1.
       -2   -1    0    0    0  501  0.00000000000E+00  0.00000000000E+00 -0.28481380046E+04  0.28481380046E+04  0.25500000920E-02 0.  1.
    10030    2    1    2    0    0  0.00000000000E+00  0.00000000000E+00 -0.20057784505E+04  0.36904975587E+04  0.30978419970E+04 0.  0.
        5    1    3    3  502    0  0.56189840062E+03  0.38948391008E+03 -0.26586448751E+04  0.27451488468E+04  0.46999998093E+01 0.  1.
       -5    1    3    3    0  502 -0.56189840062E+03 -0.38948391008E+03  0.65286642460E+03  0.94534871196E+03  0.46999998093E+01 0. -1.
</event>
<event>
 5   0  0.4173905E-07  0.3094688E+04  0.7818609E-02  0.8217197E-01
       -1   -1    0    0    0  501  0.00000000000E+00  0.00000000000E+00  0.20747361264E+04  0.20747361264E+04  0.50400001928E-02 0. -1.
        1   -1    0    0  501    0  0.00000000000E+00  0.00000000000E+00 -0.11540137759E+04  0.11540137759E+04  0.50400001928E-02 0.  1.
    10030    2    1    2    0    0  0.00000000000E+00  0.00000000000E+00  0.92072235053E+03  0.32287499023E+04  0.30946883987E+04 0.  0.
        3    1    3    3  502    0  0.39587860018E+03  0.84768513868E+02 -0.10977763609E+04  0.11700506467E+04  0.10100000352E+00 0.  1.
       -3    1    3    3    0  502 -0.39587860018E+03 -0.84768513868E+02  0.20184987114E+04  0.20586992557E+04  0.10100000352E+00 0. -1.
</event>
<event>
 5   0  0.1237580E-06  0.3100704E+04  0.7818609E-02  0.8215545E-01
       -2   -1    0    0    0  501  0.00000000000E+00  0.00000000000E+00  0.20095889781E+04  0.20095889781E+04  0.25500000920E-02 0. -1.
        2   -1    0    0  501    0  0.00000000000E+00  0.00000000000E+00 -0.11960610366E+04  0.11960610366E+04  0.25500000920E-02 0.  1.
    10030    2    1    2    0    0  0.00000000000E+00  0.00000000000E+00  0.81352794151E+03  0.32056500147E+04  0.31007038403E+04 0.  0.
        4    1    3    3  502    0  0.96052213485E+03  0.91249132549E+03 -0.42568827154E+03  0.13915657757E+04  0.12699999809E+01 0.  1.
       -4    1    3    3    0  502 -0.96052213485E+03 -0.91249132549E+03  0.12392162130E+04  0.18140842390E+04  0.12699999809E+01 0. -1.
</event>
<event>
 5   0  0.4219337E-07  0.3093730E+04  0.7818609E-02  0.8217461E-01
       -1   -1    0    0    0  501  0.00000000000E+00  0.00000000000E+00  0.13330564197E+04  0.13330564197E+04  0.50400001928E-02 0. -1.
        1   -1    0    0  501    0  0.00000000000E+00  0.00000000000E+00 -0.17949664273E+04  0.17949664273E+04  0.50400001928E-02 0.  1.
    10030    2    1    2    0    0  0.00000000000E+00  0.00000000000E+00 -0.46191000760E+03  0.31280228470E+04  0.30937301234E+04 0.  0.
        4    1    3    3  502    0  0.69239081280E+03 -0.13581751724E+04  0.34144105224E+02  0.15248646725E+04  0.12699999809E+01 0. -1.
       -4    1    3    3    0  502 -0.69239081280E+03  0.13581751724E+04 -0.49605411282E+03  0.16031581745E+04  0.12699999809E+01 0.  1.
</event>
<event>
 5   0  0.1237580E-06  0.3089837E+04  0.7818609E-02  0.8218533E-01
       -2   -1    0    0    0  501  0.00000000000E+00  0.00000000000E+00  0.15376457537E+04  0.15376457537E+04  0.25500000920E-02 0.  1.
        2   -1    0    0  501    0  0.00000000000E+00  0.00000000000E+00 -0.15522251960E+04  0.15522251960E+04  0.25500000920E-02 0. -1.
    10030    2    1    2    0    0  0.00000000000E+00  0.00000000000E+00 -0.14579442354E+02  0.30898709497E+04  0.30898365532E+04 0.  0.
        4    1    3    3  502    0 -0.77676929910E+03 -0.42600834972E+03  0.12583930496E+04  0.15389633973E+04  0.12699999809E+01 0.  1.
       -4    1    3    3    0  502  0.77676929910E+03  0.42600834972E+03 -0.12729724919E+04  0.15509075524E+04  0.12699999809E+01 0. -1.
</event>
<event>
 5   0  0.1176002E-06  0.3142691E+04  0.7818609E-02  0.8204118E-01
       -2   -1    0    0    0  501  0.00000000000E+00  0.00000000000E+00  0.89824448674E+03  0.89824448675E+03  0.25500000920E-02 0.  1.
        2   -1    0    0  501    0  0.00000000000E+00  0.00000000000E+00 -0.27488365087E+04  0.27488365087E+04  0.25500000920E-02 0. -1.
    10030    2    1    2    0    0  0.00000000000E+00  0.00000000000E+00 -0.18505920220E+04  0.36470809955E+04  0.31426913555E+04 0.  0.
        2    1    3    3  502    0  0.92862310121E+03 -0.11566368721E+04 -0.32342743284E+03  0.15181419638E+04  0.25500000920E-02 0.  1.
       -2    1    3    3    0  502 -0.92862310121E+03  0.11566368721E+04 -0.15271645892E+04  0.21289390316E+04  0.25500000920E-02 0. -1.
</event>
<event>
 5   0  0.4330395E-07  0.3111478E+04  0.7818609E-02  0.8212595E-01
        1   -1    0    0  501    0  0.00000000000E+00  0.00000000000E+00  0.18536446992E+04  0.18536446992E+04  0.50400001928E-02 0.  1.
       -1   -1    0    0    0  501  0.00000000000E+00  0.00000000000E+00 -0.13057108055E+04  0.13057108055E+04  0.50400001928E-02 0. -1.
    10030    2    1    2    0    0  0.00000000000E+00  0.00000000000E+00  0.54793389369E+03  0.31593555047E+04  0.31114780496E+04 0.  0.
        1    1    3    3  502    0 -0.31119640804E+03  0.14802881887E+04 -0.95259493008E+02  0.15156420082E+04  0.50400001928E-02 0. -1.
       -1    1    3    3    0  502  0.31119640804E+03 -0.14802881887E+04  0.64319338670E+03  0.16437134965E+04  0.50400001928E-02 0.  1.
</event>
<event>
 5   0  0.3902375E-07  0.3103121E+04  0.7818609E-02  0.8214882E-01
        3   -1    0    0  501    0  0.00000000000E+00  0.00000000000E+00  0.23400295102E+04  0.23400295124E+04  0.10100000352E+00 0. -1.
       -3   -1    0    0    0  501  0.00000000000E+00  0.00000000000E+00 -0.10287649647E+04  0.10287649697E+04  0.10100000352E+00 0.  1.
    10030    2    1    2    0    0  0.00000000000E+00  0.00000000000E+00  0.13112645454E+04  0.33687944820E+04  0.31031212600E+04 0.  0.
        5    1    3    3  502    0  0.10979099146E+04  0.36579731808E+03 -0.46634130770E+03  0.12476819161E+04  0.46999998093E+01 0.  1.
       -5    1    3    3    0  502 -0.10979099146E+04 -0.36579731808E+03  0.17776058531E+04  0.21211125660E+04  0.46999998093E+01 0. -1.
</event>
<event>
 5   0  0.4330395E-07  0.3110041E+04  0.7818609E-02  0.8212988E-01
        1   -1    0    0  501    0  0.00000000000E+00  0.00000000000E+00  0.23685330845E+04  0.23685330845E+04  0.50400001928E-02 0.  1.
       -1   -1    0    0    0  501  0.00000000000E+00  0.00000000000E+00 -0.10209226682E+04  0.10209226682E+04  0.50400001928E-02 0. -1.
    10030    2    1    2    0    0  0.00000000000E+00  0.00000000000E+00  0.13476104162E+04  0.33894557527E+04  0.31100412321E+04 0.  0.
        1    1    3    3  502    0 -0.12200610549E+04 -0.33874264337E+03 -0.30995129423E+03  0.13035970854E+04  0.50400001928E-02 0. -1.
       -1    1    3    3    0  502  0.12200610549E+04  0.33874264337E+03  0.16575617105E+04  0.20858586674E+04  0.50400001928E-02 0.  1.
</event>
<event>
 5   0  0.1200286E-06  0.3103521E+04  0.7818609E-02  0.8214772E-01
        2   -1    0    0  501    0  0.00000000000E+00  0.00000000000E+00  0.16595215760E+04  0.16595215760E+04  0.25500000920E-02 0.  1.
       -2   -1    0    0    0  501  0.00000000000E+00  0.00000000000E+00 -0.14509971244E+04  0.14509971244E+04  0.25500000920E-02 0. -1.
    10030    2    1    2    0    0  0.00000000000E+00  0.00000000000E+00  0.20852445166E+03  0.31105187004E+04  0.31035212483E+04 0.  0.
        5    1    3    3  502    0  0.66041859953E+03 -0.12305317060E+04 -0.57370801668E+03  0.15098092544E+04  0.46999998093E+01 0. -1.
       -5    1    3    3    0  502 -0.66041859953E+03  0.12305317060E+04  0.78223246834E+03  0.16007094461E+04  0.46999998093E+01 0.  1.
</event>
<event>
 5   0  0.1193123E-06  0.3097443E+04  0.7818609E-02  0.8216440E-01
       -2   -1    0    0    0  501  0.00000000000E+00  0.00000000000E+00  0.23553220960E+04  0.23553220960E+04  0.25500000920E-02 0. -1.
        2   -1    0    0  501    0  0.00000000000E+00  0.00000000000E+00 -0.10183481784E+04  0.10183481784E+04  0.25500000920E-02 0.  1.
    10030    2    1    2    0    0  0.00000000000E+00  0.00000000000E+00  0.13369739176E+04  0.33736702745E+04  0.30974427944E+04 0.  0.
        3    1    3    3  502    0  0.10469202250E+04  0.10230418607E+04  0.11752875165E+03  0.14684922961E+04  0.10100000352E+00 0.  1.
       -3    1    3    3    0  502 -0.10469202250E+04 -0.10230418607E+04  0.12194451660E+04  0.19051779783E+04  0.10100000352E+00 0. -1.
</event>
<event>
 5   0  0.1200286E-06  0.3100196E+04  0.7818609E-02  0.8215684E-01
       -2   -1    0    0    0  501  0.00000000000E+00  0.00000000000E+00  0.14541144927E+04  0.14541144927E+04  0.25500000920E-02 0.  1.
        2   -1    0    0  501    0  0.00000000000E+00  0.00000000000E+00 -0.16524174718E+04  0.16524174718E+04  0.25500000920E-02 0. -1.
    10030    2    1    2    0    0  0.00000000000E+00  0.00000000000E+00 -0.19830297913E+03  0.31065319645E+04  0.31001962479E+04 0.  0.
        5    1    3    3  502    0 -0.15219473840E+04 -0.17415133243E+03 -0.33655248006E+03  0.15684202843E+04  0.46999998093E+01 0.  1.
       -5    1    3    3    0  502  0.15219473840E+04  0.17415133243E+03  0.13824950094E+03  0.15381116802E+04  0.46999998093E+01 0. -1.
</event>
<event>
 5   0  0.4134019E-07  0.3092220E+04  0.7818609E-02  0.8217876E-01
       -1   -1    0    0    0  501  0.00000000000E+00  0.00000000000E+00  0.12736437874E+04  0.12736437874E+04  0.50400001928E-02 0. -1.
        1   -1    0    0  501    0  0.00000000000E+00  0.00000000000E+00 -0.18768644787E+04  0.18768644787E+04  0.50400001928E-02 0.  1.
    10030    2    1    2    0    0  0.00000000000E+00  0.00000000000E+00 -0.60322069128E+03  0.31505082661E+04  0.30922204211E+04 0.  0.
        2    1    3    3  502    0 -0.50043874125E+02  0.39083073543E+03 -0.18248517506E+04  0.18669057193E+04  0.25500000920E-02 0.  1.
       -2    1    3    3    0  502  0.50043874125E+02 -0.39083073543E+03  0.12216310593E+04  0.12836025468E+04  0.25500000920E-02 0. -1.
</event>
<event>
 5   0  0.1237580E-06  0.3117133E+04  0.7818609E-02  0.8211052E-01
        2   -1    0    0  501    0  0.00000000000E+00  0.00000000000E+00  0.15098182196E+04  0.15098182196E+04  0.25500000920E-02 0.  1.
       -2   -1    0    0    0  501  0.00000000000E+00  0.00000000000E+00 -0.16088886375E+04  0.16088886375E+04  0.25500000920E-02 0. -1.
    10030    2    1    2    0    0  0.00000000000E+00  0.00000000000E+00 -0.99070417855E+02  0.31187068571E+04  0.31171328994E+04 0.  0.
        4    1    3    3  502    0  0.77726582954E+02 -0.14286831027E+04  0.56879864564E+03  0.15397111229E+04  0.12699999809E+01 0.  1.
       -4    1    3    3    0  502 -0.77726582954E+02  0.14286831027E+04 -0.66786906349E+03  0.15789957342E+04  0.12699999809E+01 0. -1.
</event>
<event>
 5   0  0.4173905E-07  0.3068526E+04  0.7818609E-02  0.8224429E-01
       -1   -1    0    0    0  501  0.00000000000E+00  0.00000000000E+00  0.13415459308E+04  0.13415459308E+04  0.50400001928E-02 0. -1.
        1   -1    0    0  501    0  0.00000000000E+00  0.00000000000E+00 -0.17546647420E+04  0.17546647420E+04  0.50400001928E-02 0.  1.
    10030    2    1    2    0    0  0.00000000000E+00  0.00000000000E+00 -0.41311881116E+03  0.30962106728E+04  0.30685262551E+04 0.  0.
        3    1    3    3  502    0 -0.11185416705E+04 -0.84398729458E+03  0.42398921713E+03  0.14639729808E+04  0.10100000352E+00 0.  1.
       -3    1    3    3    0  502  0.11185416705E+04  0.84398729458E+03 -0.83710802830E+03  0.16322376920E+04  0.10100000352E+00 0. -1.
</event>
<event>
 5   0  0.1193123E-06  0.3114279E+04  0.7818609E-02  0.8211830E-01
        2   -1    0    0  501    0  0.00000000000E+00  0.00000000000E+00  0.14665328394E+04  0.14665328394E+04  0.25500000920E-02 0. -1.
       -2   -1    0    0    0  501  0.00000000000E+00  0.00000000000E+00 -0.16533445440E+04  0.16533445440E+04  0.25500000920E-02 0.  1.
    10030    2    1    2    0    0  0.00000000000E+00  0.00000000000E+00 -0.18681170460E+03  0.31198773834E+04  0.31142794149E+04 0.  0.
        3    1    3    3  502    0 -0.44046031166E+02  0.31282866751E+03  0.14340913720E+04  0.14684753663E+04  0.10100000352E+00 0. -1.
       -3    1    3    3    0  502  0.44046031166E+02 -0.31282866751E+03 -0.16209030766E+04  0.16514020171E+04  0.10100000352E+00 0.  1.
</event>
<event>
 5   0  0.4330395E-07  0.3096805E+04  0.7818609E-02  0.8216615E-01
       -1   -1    0    0    0  501  0.00000000000E+00  0.00000000000E+00  0.12021950700E+04  0.12021950700E+04  0.50400001928E-02 0. -1.
        1   -1    0    0  501    0  0.00000000000E+00  0.00000000000E+00 -0.19943105195E+04  0.19943105195E+04  0.50400001928E-02 0.  1.
    10030    2    1    2    0    0  0.00000000000E+00  0.00000000000E+00 -0.79211544954E+03  0.31965055895E+04  0.30968049823E+04 0.  0.
        1    1    3    3  502    0 -0.69602884304E+03 -0.12581534597E+04 -0.98913777138E+03  0.17452219943E+04  0.50400001928E-02 0. -1.
       -1    1    3    3    0  502  0.69602884304E+03  0.12581534597E+04  0.19702232184E+03  0.14512835952E+04  0.50400001928E-02 0.  1.
</event>
<event>
 5   0  0.1200286E-06  0.2884506E+04  0.7818609E-02  0.8277502E-01
        2   -1    0    0  501    0  0.00000000000E+00  0.00000000000E+00  0.13540363301E+04  0.13540363301E+04  0.25500000920E-02 0.  1.
       -2   -1    0    0    0  501  0.00000000000E+00  0.00000000000E+00 -0.15362167281E+04  0.15362167281E+04  0.25500000920E-02 0. -1.
    10030    2    1    2    0    0  0.00000000000E+00  0.00000000000E+00 -0.18218039798E+03  0.28902530582E+04  0.28845056843E+04 0.  0.
        5    1    3    3  502    0  0.13613382360E+04  0.35422305774E+03 -0.41008817191E+03  0.14652338265E+04  0.46999998093E+01 0. -1.
       -5    1    3    3    0  502 -0.13613382360E+04 -0.35422305774E+03  0.22790777393E+03  0.14250192317E+04  0.46999998093E+01 0.  1.
</event>
<event>
 5   0  0.4219337E-07  0.3080886E+04  0.7818609E-02  0.8221003E-01
       -1   -1    0    0    0  501  0.00000000000E+00  0.00000000000E+00  0.14273466643E+04  0.14273466643E+04  0.50400001928E-02 0.  1.
        1   -1    0    0  501    0  0.00000000000E+00  0.00000000000E+00 -0.16625006178E+04  0.16625006178E+04  0.50400001928E-02 0. -1.
    10030    2    1    2    0    0  0.00000000000E+00  0.00000000000E+00 -0.23515395349E+03  0.30898472820E+04  0.30808860486E+04 0.  0.
        4    1    3    3  502    0  0.14157434348E+04 -0.52439634412E+03  0.18932306659E+03  0.15215669014E+04  0.12699999809E+01 0.  1.
       -4    1    3    3    0  502 -0.14157434348E+04  0.52439634412E+03 -0.42447702008E+03  0.15682803807E+04  0.12699999809E+01 0. -1.
</event>
<event>
 5   0  0.1176002E-06  0.3090742E+04  0.7818609E-02  0.8218283E-01
       -2   -1    0    0    0  501  0.00000000000E+00  0.00000000000E+00  0.12093541884E+04  0.12093541884E+04  0.25500000920E-02 0. -1.
        2   -1    0    0  501    0  0.00000000000E+00  0.00000000000E+00 -0.19747491520E+04  0.19747491520E+04  0.25500000920E-02 0.  1.
    10030    2    1    2    0    0  0.00000000000E+00  0.00000000000E+00 -0.76539496362E+03  0.31841033404E+04  0.30907417608E+04 0.  0.
        2    1    3    3  502    0 -0.18251420212E+03 -0.72962453555E+03  0.10080847300E+04  0.12577353536E+04  0.25500000920E-02 0. -1.
       -2    1    3    3    0  502  0.18251420212E+03  0.72962453555E+03 -0.17734796936E+04  0.19263679868E+04  0.25500000920E-02 0.  1.
</event>
<event>
 5   0  0.1193123E-06  0.3104282E+04  0.7818609E-02  0.8214564E-01
        2   -1    0    0  501    0  0.00000000000E+00  0.00000000000E+00  0.28170021785E+04  0.28170021785E+04  0.25500000920E-02 0. -1.
       -2   -1    0    0    0  501  0.00000000000E+00  0.00000000000E+00 -0.85521448512E+03  0.85521448512E+03  0.25500000920E-02 0.  1.
    10030    2    1    2    0    0  0.00000000000E+00  0.00000000000E+00  0.19617876934E+04  0.36722166636E+04  0.31042816030E+04 0.  0.
        3    1    3    3  502    0  0.13980595039E+04 -0.83797548172E+02  0.18950976103E+03  0.14133316543E+04  0.10100000352E+00 0. -1.
       -3    1    3    3    0  502 -0.13980595039E+04  0.83797548172E+02  0.17722779324E+04  0.22588850093E+04  0.10100000352E+00 0.  1.
</event>
<event>
 5   0  0.3935852E-07  0.3094858E+04  0.7818609E-02  0.8217150E-01
        1   -1    0    0  501    0  0.00000000000E+00  0.00000000000E+00  0.25592890574E+04  0.25592890574E+04  0.50400001928E-02 0.  1.
       -1   -1    0    0    0  501  0.00000000000E+00  0.00000000000E+00 -0.93562577069E+03  0.93562577070E+03  0.50400001928E-02 0. -1.
    10030    2    1    2    0    0  0.00000000000E+00  0.00000000000E+00  0.16236632867E+04  0.34949148281E+04  0.30948581853E+04 0.  0.
        5    1    3    3  502    0  0.99802169838E+03  0.24219637390E+03  0.21189568121E+04  0.23547200376E+04  0.46999998093E+01 0.  1.
       -5    1    3    3    0  502 -0.99802169838E+03 -0.24219637390E+03 -0.49529352540E+03  0.11401947905E+04  0.46999998093E+01 0. -1.
</event>
<event>
 5   0  0.4134019E-07  0.3100611E+04  0.7818609E-02  0.8215570E-01
        1   -1    0    0  501    0  0.00000000000E+00  0.00000000000E+00  0.17000662598E+04  0.17000662598E+04  0.50400001928E-02 0. -1.
       -1   -1    0    0    0  501  0.00000000000E+00  0.00000000000E+00 -0.14137372746E+04  0.14137372746E+04  0.50400001928E-02 0.  1.
    10030    2    1    2    0    0  0.00000000000E+00  0.00000000000E+00  0.28632898521E+03  0.31138035343E+04  0.31006109338E+04 0.  0.
        2    1    3    3  502    0  0.13948075079E+04  0.54141880106E+02 -0.53426306099E+03  0.14946090946E+04  0.25500000920E-02 0. -1.
       -2    1    3    3    0  502 -0.13948075079E+04 -0.54141880106E+02  0.82059204620E+03  0.16191944397E+04  0.25500000920E-02 0.  1.
</event>
<event>
 5   0  0.1237580E-06  0.3111221E+04  0.7818609E-02  0.8212665E-01
       -2   -1    0    0    0  501  0.00000000000E+00  0.00000000000E+00  0.14913569667E+04  0.14913569667E+04  0.25500000920E-02 0.  1.
        2   -1    0    0  501    0  0.00000000000E+00  0.00000000000E+00 -0.16226319543E+04  0.16226319543E+04  0.25500000920E-02 0. -1.
    10030    2    1    2    0    0  0.00000000000E+00  0.00000000000E+00 -0.13127498758E+03  0.31139889211E+04  0.31112206412E+04 0.  0.
        4    1    3    3  502    0 -0.84035464366E+03 -0.13019970120E+04  0.70607503649E+02  0.15512508433E+04  0.12699999809E+01 0. -1.
       -4    1    3    3    0  502  0.84035464366E+03  0.13019970120E+04 -0.20188249123E+03  0.15627380777E+04  0.12699999809E+01 0.  1.
</event>
<event>
 5   0  0.1176002E-06  0.3046157E+04  0.7818609E-02  0.8230672E-01
       -2   -1    0    0    0  501  0.00000000000E+00  0.00000000000E+00  0.17957506158E+04  0.17957506158E+04  0.25500000920E-02 0.  1.
        2   -1    0    0  501    0  0.00000000000E+00  0.00000000000E+00 -0.12918094898E+04  0.12918094898E+04  0.25500000920E-02 0. -1.
    10030    2    1    2    0    0  0.00000000000E+00  0.00000000000E+00  0.50394112596E+03  0.30875601056E+04  0.30461567175E+04 0.  0.
        2    1    3    3  502    0  0.11960944272E+04  0.11936687306E+03  0.12000326210E+04  0.16985195379E+04  0.25500000920E-02 0.  1.
       -2    1    3    3    0  502 -0.11960944272E+04 -0.11936687306E+03 -0.69609149505E+03  0.13890405677E+04  0.25500000920E-02 0. -1.
</event>
<event>
 5   0  0.4134019E-07  0.3101316E+04  0.7818609E-02  0.8215377E-01
       -1   -1    0    0    0  501  0.00000000000E+00  0.00000000000E+00  0.18084492427E+04  0.18084492427E+04  0.50400001928E-02 0.  1.
        1   -1    0    0  501    0  0.00000000000E+00  0.00000000000E+00 -0.13296145806E+04  0.13296145806E+04  0.50400001928E-02 0. -1.
    10030    2    1    2    0    0  0.00000000000E+00  0.00000000000E+00  0.47883466215E+03  0.31380638233E+04  0.31013161602E+04 0.  0.
        2    1    3    3  502    0 -0.13392592190E+03 -0.86974191040E+03  0.15313204862E+04  0.17661623863E+04  0.25500000920E-02 0.  1.
       -2    1    3    3    0  502  0.13392592190E+03  0.86974191040E+03 -0.10524858240E+04  0.13719014371E+04  0.25500000920E-02 0. -1.
</event>
<event>
 5   0  0.1176002E-06  0.3102711E+04  0.7818609E-02  0.8214994E-01
        2   -1    0    0  501    0  0.00000000000E+00  0.00000000000E+00  0.24437827961E+04  0.24437827961E+04  0.25500000920E-02 0. -1.
       -2   -1    0    0    0  501  0.00000000000E+00  0.00000000000E+00 -0.98482701759E+03  0.98482701759E+03  0.25500000920E-02 0.  1.
    10030    2    1    2    0    0  0.00000000000E+00  0.00000000000E+00  0.14589557785E+04  0.34286098137E+04  0.31027106360E+04 0.  0.
        2    1    3    3  502    0 -0.10639983038E+04  0.95488153698E+03  0.63871135200E+02  0.14310732553E+04  0.25500000920E-02 0.  1.
       -2    1    3    3    0  502  0.10639983038E+04 -0.95488153698E+03  0.13950846433E+04  0.19975365584E+04  0.25500000920E-02 0. -1.
</event>
<event>
 5   0  0.1200286E-06  0.3099029E+04  0.7818609E-02  0.8216005E-01
        2   -1    0    0  501    0  0.00000000000E+00  0.00000000000E+00  0.13107021129E+04  0.13107021129E+04  0.25500000920E-02 0.  1.
       -2   -1    0    0    0  501  0.00000000000E+00  0.00000000000E+00 -0.18318386762E+04  0.18318386762E+04  0.25500000920E-02 0. -1.
    10030    2    1    2    0    0  0.00000000000E+00  0.00000000000E+00 -0.52113656326E+03  0.31425407891E+04  0.30990287662E+04 0.  0.
        5    1    3    3  502    0  0.16507592535E+03  0.10852427284E+03  0.12978721982E+04  0.13128297345E+04  0.46999998093E+01 0.  1.
       -5    1    3    3    0  502 -0.16507592535E+03 -0.10852427284E+03 -0.18190087615E+04  0.18297110546E+04  0.46999998093E+01 0. -1.
</event>
<event>
 5   0  0.1237580E-06  0.3166521E+04  0.7818609E-02  0.8197715E-01
       -2   -1    0    0    0  501  0.00000000000E+00  0.00000000000E+00  0.88040365761E+03  0.88040365762E+03  0.25500000920E-02 0.  1.
        2   -1    0    0  501    0  0.00000000000E+00  0.00000000000E+00 -0.28472332381E+04  0.28472332381E+04  0.25500000920E-02 0. -1.
    10030    2    1    2    0    0  0.00000000000E+00  0.00000000000E+00 -0.19668295804E+04  0.37276368957E+04  0.31665214712E+04 0.  0.
        4    1    3    3  502    0  0.56130209955E+03  0.79529097582E+03 -0.24533467260E+04  0.26394051515E+04  0.12699999809E+01 0. -1.
       -4    1    3    3    0  502 -0.56130209955E+03 -0.79529097582E+03  0.48651714552E+03  0.10882317441E+04  0.12699999809E+01 0.  1.
</event>
<event>
 5   0  0.1176002E-06  0.3036175E+04  0.7818609E-02  0.8233476E-01
       -2   -1    0    0    0  501  0.00000000000E+00  0.00000000000E+00  0.79011735612E+03  0.79011735612E+03  0.25500000920E-02 0. -1.
        2   -1    0    0  501    0  0.00000000000E+00  0.00000000000E+00 -0.29167688273E+04  0.29167688273E+04  0.25500000920E-02 0.  1.
    10030    2    1    2    0    0  0.00000000000E+00  0.00000000000E+00 -0.21266514712E+04  0.37068861834E+04  0.30361750109E+04 0.  0.
        2    1    3    3  502    0  0.10242948814E+04  0.10374773847E+04 -0.15799443293E+04  0.21498286935E+04  0.25500000920E-02 0.  1.
       -2    1    3    3    0  502 -0.10242948814E+04 -0.10374773847E+04 -0.54670714189E+03  0.15570574899E+04  0.25500000920E-02 0. -1.
</event>
<event>
 5   0  0.3902375E-07  0.3155629E+04  0.7818609E-02  0.8200635E-01
        4   -1    0    0  501    0  0.00000000000E+00  0.00000000000E+00  0.15763719636E+04  0.15763724752E+04  0.12699999809E+01 0.  1.
       -4   -1    0    0    0  501  0.00000000000E+00  0.00000000000E+00 -0.15792568849E+04  0.15792573956E+04  0.12699999809E+01 0. -1.
    10030    2    1    2    0    0  0.00000000000E+00  0.00000000000E+00 -0.28849212980E+01  0.31556298708E+04  0.31556285521E+04 0.  0.
        4    1    3    3  502    0  0.13368539472E+04  0.63612625252E+03  0.54414111715E+03  0.15773161552E+04  0.12699999809E+01 0. -1.
       -4    1    3    3    0  502 -0.13368539472E+04 -0.63612625252E+03 -0.54702603845E+03  0.15783137156E+04  0.12699999809E+01 0.  1.
</event>
<event>
 5   0  0.4330395E-07  0.3131694E+04  0.7818609E-02  0.8207093E-01
        1   -1    0    0  501    0  0.00000000000E+00  0.00000000000E+00  0.10188286806E+04  0.10188286806E+04  0.50400001928E-02 0. -1.
       -1   -1    0    0    0  501  0.00000000000E+00  0.00000000000E+00 -0.24065640082E+04  0.24065640082E+04  0.50400001928E-02 0.  1.
    10030    2    1    2    0    0  0.00000000000E+00  0.00000000000E+00 -0.13877353276E+04  0.34253926888E+04  0.31316937483E+04 0.  0.
        1    1    3    3  502    0 -0.23144235761E+03 -0.13464863532E+04  0.14291931778E+03  0.13736873719E+04  0.50400001928E-02 0.  1.
       -1    1    3    3    0  502  0.23144235761E+03  0.13464863532E+04 -0.15306546453E+04  0.20517053169E+04  0.50400001928E-02 0. -1.
</event>
<event>
 5   0  0.1193123E-06  0.3111858E+04  0.7818609E-02  0.8212491E-01
       -2   -1    0    0    0  501  0.00000000000E+00  0.00000000000E+00  0.86544352339E+03  0.86544352339E+03  0.25500000920E-02 0. -1.
        2   -1    0    0  501    0  0.00000000000E+00  0.00000000000E+00 -0.27973119940E+04  0.27973119940E+04  0.25500000920E-02 0.  1.
    10030    2    1    2    0    0  0.00000000000E+00  0.00000000000E+00 -0.19318684706E+04  0.36627555174E+04  0.31118583182E+04 0.  0.
        3    1    3    3  502    0  0.35259016897E+03  0.13650195603E+04 -0.19113151777E+03  0.14227190497E+04  0.10100000352E+00 0. -1.
       -3    1    3    3    0  502 -0.35259016897E+03 -0.13650195603E+04 -0.17407369529E+04  0.22400364677E+04  0.10100000352E+00 0.  1.
</event>
<event>
 5   0  0.4330395E-07  0.3097633E+04  0.7818609E-02  0.8216388E-01
        1   -1    0    0  501    0  0.00000000000E+00  0.00000000000E+00  0.15646719086E+04  0.15646719086E+04  0.50400001928E-02 0.  1.
       -1   -1    0    0    0  501  0.00000000000E+00  0.00000000000E+00 -0.15331219106E+04  0.15331219106E+04  0.50400001928E-02 0. -1.
    10030    2    1    2    0    0  0.00000000000E+00  0.00000000000E+00  0.31549997981E+02  0.30977938193E+04  0.30976331520E+04 0.  0.
        1    1    3    3  502    0  0.14629729356E+04  0.47945996053E+03 -0.15352974151E+03  0.15471725973E+04  0.50400001928E-02 0. -1.
       -1    1    3    3    0  502 -0.14629729356E+04 -0.47945996053E+03  0.18507973949E+03  0.15506212220E+04  0.50400001928E-02 0.  1.
</event>
<event>
 5   0  0.1176002E-06  0.3089335E+04  0.7818609E-02  0.8218671E-01
        2   -1    0    0  501    0  0.00000000000E+00  0.00000000000E+00  0.14744006478E+04  0.14744006478E+04  0.25500000920E-02 0. -1.
       -2   -1    0    0    0  501  0.00000000000E+00  0.00000000000E+00 -0.16182834656E+04  0.16182834656E+04  0.25500000920E-02 0.  1.
    10030    2    1    2    0    0  0.00000000000E+00  0.00000000000E+00 -0.14388281788E+03  0.30926841134E+04  0.30893353266E+04 0.  0.
        2    1    3    3  502    0  0.10593565400E+04 -0.74485647250E+03 -0.91484624379E+03  0.15855570293E+04  0.25500000920E-02 0.  1.
       -2    1    3    3    0  502 -0.10593565400E+04  0.74485647250E+03  0.77096342592E+03  0.15071270841E+04  0.25500000920E-02 0. -1.
</event>
<event>
 5   0  0.1200286E-06  0.3099098E+04  0.7818609E-02  0.8215986E-01
       -2   -1    0    0    0  501  0.00000000000E+00  0.00000000000E+00  0.93172058546E+03  0.93172058547E+03  0.25500000920E-02 0. -1.
        2   -1    0    0  501    0  0.00000000000E+00  0.00000000000E+00 -0.25770616555E+04  0.25770616555E+04  0.25500000920E-02 0.  1.
    10030    2    1    2    0    0  0.00000000000E+00  0.00000000000E+00 -0.16453410700E+04  0.35087822410E+04  0.30990975425E+04 0.  0.
        5    1    3    3  502    0 -0.95199532558E+02 -0.15202933761E+04 -0.50099088024E+03  0.16035488307E+04  0.46999998093E+01 0. -1.
       -5    1    3    3    0  502  0.95199532558E+02  0.15202933761E+04 -0.11443501898E+04  0.19052334102E+04  0.46999998093E+01 0.  1.
</event>
<event>
 5   0  0.4173905E-07  0.3103247E+04  0.7818609E-02  0.8214847E-01
       -1   -1    0    0    0  501  0.00000000000E+00  0.00000000000E+00  0.10655196073E+04  0.10655196073E+04  0.50400001928E-02 0. -1.
        1   -1    0    0  501    0  0.00000000000E+00  0.00000000000E+00 -0.22594943656E+04  0.22594943656E+04  0.50400001928E-02 0.  1.
    10030    2    1    2    0    0  0.00000000000E+00  0.00000000000E+00 -0.11939747583E+04  0.33250139730E+04  0.31032470409E+04 0.  0.
        3    1    3    3  502    0 -0.81773154910E+03 -0.13185773485E+04 -0.61230700380E+03  0.16680080897E+04  0.10100000352E+00 0.  1.
       -3    1    3    3    0  502  0.81773154910E+03  0.13185773485E+04 -0.58166775448E+03  0.16570058832E+04  0.10100000352E+00 0. -1.
</event>
<event>
 5   0  0.4330395E-07  0.3094488E+04  0.7818609E-02  0.8217252E-01
       -1   -1    0    0    0  501  0.00000000000E+00  0.00000000000E+00  0.16609900856E+04  0.16609900856E+04  0.50400001928E-02 0.  1.
        1   -1    0    0  501    0  0.00000000000E+00  0.00000000000E+00 -0.14412872549E+04  0.14412872549E+04  0.50400001928E-02 0. -1.
    10030    2    1    2    0    0  0.00000000000E+00  0.00000000000E+00  0.21970283073E+03  0.31022773406E+04  0.30944879001E+04 0.  0.
        1    1    3    3  502    0  0.11074113739E+03 -0.83990966890E+03 -0.11881091113E+04  0.14592172943E+04  0.50400001928E-02 0. -1.
       -1    1    3    3    0  502 -0.11074113739E+03  0.83990966890E+03  0.14078119421E+04  0.16430600463E+04  0.50400001928E-02 0.  1.
</event>
<event>
 5   0  0.3935852E-07  0.3093180E+04  0.7818609E-02  0.8217612E-01
       -1   -1    0    0    0  501  0.00000000000E+00  0.00000000000E+00  0.15210812771E+04  0.15210812771E+04  0.50400001928E-02 0.  1.
        1   -1    0    0  501    0  0.00000000000E+00  0.00000000000E+00 -0.15725269237E+04  0.15725269238E+04  0.50400001928E-02 0. -1.
    10030    2    1    2    0    0  0.00000000000E+00  0.00000000000E+00 -0.51445646625E+02  0.30936082009E+04  0.30931804095E+04 0.  0.
        5    1    3    3  502    0 -0.64730249958E+03  0.49685734416E+03  0.12882516395E+04  0.15249531544E+04  0.46999998093E+01 0.  1.
       -5    1    3    3    0  502  0.64730249958E+03 -0.49685734416E+03 -0.13396972861E+04  0.15686550465E+04  0.46999998093E+01 0. -1.
</event>
<event>
 5   0  0.3902375E-07  0.3100483E+04  0.7818609E-02  0.8215605E-01
       -3   -1    0    0    0  501  0.00000000000E+00  0.00000000000E+00  0.10032397281E+04  0.10032397332E+04  0.10100000352E+00 0.  1.
        3   -1    0    0  501    0  0.00000000000E+00  0.00000000000E+00 -0.23954875953E+04  0.23954875974E+04  0.10100000352E+00 0. -1.
    10030    2    1    2    0    0  0.00000000000E+00  0.00000000000E+00 -0.13922478672E+04  0.33987273306E+04  0.31004827599E+04 0.  0.
        1    1    3    3  502    0 -0.30433902345E+03 -0.13174805507E+04  0.13501234372E+03  0.13588986627E+04  0.50400001928E-02 0.  1.
       -1    1    3    3    0  502  0.30433902345E+03  0.13174805507E+04 -0.15272602109E+04  0.20398286679E+04  0.50400001928E-02 0. -1.
</event>
<event>
 5   0  0.4173905E-07  0.3095717E+04  0.7818609E-02  0.8216914E-01
        1   -1    0    0  501    0  0.00000000000E+00  0.00000000000E+00  0.25736038522E+04  0.25736038522E+04  0.50400001928E-02 0.  1.
       -1   -1    0    0    0  501  0.00000000000E+00  0.00000000000E+00 -0.93093828504E+03  0.93093828505E+03  0.50400001928E-02 0. -1.
    10030    2    1    2    0    0  0.00000000000E+00  0.00000000000E+00  0.16426655671E+04  0.35045421372E+04  0.30957172717E+04 0.  0.
        3    1    3    3  502    0 -0.44957295676E+03  0.12798359991E+04 -0.22619068169E+02  0.13566899648E+04  0.10100000352E+00 0. -1.
       -3    1    3    3    0  502  0.44957295676E+03 -0.12798359991E+04  0.16652846353E+04  0.21478521725E+04  0.10100000352E+00 0.  1.
</event>
<event>
 5   0  0.1200286E-06  0.3115059E+04  0.7818609E-02  0.8211617E-01
        2   -1    0    0  501    0  0.00000000000E+00  0.00000000000E+00  0.18115822921E+04  0.18115822921E+04  0.25500000920E-02 0. -1.
       -2   -1    0    0    0  501  0.00000000000E+00  0.00000000000E+00 -0.13391047291E+04  0.13391047291E+04  0.25500000920E-02 0.  1.
    10030    2    1    2    0    0  0.00000000000E+00  0.00000000000E+00  0.47247756308E+03  0.31506870212E+04  0.31150591741E+04 0.  0.
        5    1    3    3  502    0 -0.50176022161E+03  0.11202573417E+04 -0.73344240056E+03  0.14299299551E+04  0.46999998093E+01 0.  1.
       -5    1    3    3    0  502  0.50176022161E+03 -0.11202573417E+04  0.12059199636E+04  0.17207570661E+04  0.46999998093E+01 0. -1.
</event>
<event>
 5   0  0.3902375E-07  0.3097452E+04  0.7818609E-02  0.8216438E-01
        3   -1    0    0  501    0  0.00000000000E+00  0.00000000000E+00  0.11106615484E+04  0.11106615530E+04  0.10100000352E+00 0. -1.
       -3   -1    0    0    0  501  0.00000000000E+00  0.00000000000E+00 -0.21595705743E+04  0.21595705767E+04  0.10100000352E+00 0.  1.
    10030    2    1    2    0    0  0.00000000000E+00  0.00000000000E+00 -0.10489090259E+04  0.32702321297E+04  0.30974518620E+04 0.  0.
        1    1    3    3  502    0 -0.14655274799E+04  0.13891055810E+03 -0.10324215255E+04  0.17980436991E+04  0.50400001928E-02 0.  1.
       -1    1    3    3    0  502  0.14655274799E+04 -0.13891055810E+03 -0.16487500398E+02  0.14721884306E+04  0.50400001928E-02 0. -1.
</event>
<event>
 5   0  0.1200286E-06  0.3087660E+04  0.7818609E-02  0.8219133E-01
        2   -1    0    0  501    0  0.00000000000E+00  0.00000000000E+00  0.19490056861E+04  0.19490056861E+04  0.25500000920E-02 0. -1.
       -2   -1    0    0    0  501  0.00000000000E+00  0.00000000000E+00 -0.12228857390E+04  0.12228857390E+04  0.25500000920E-02 0.  1.
    10030    2    1    2    0    0  0.00000000000E+00  0.00000000000E+00  0.72611994716E+03  0.31718914251E+04  0.30876601230E+04 0.  0.
        5    1    3    3  502    0 -0.13193211214E+03  0.57717769620E+03 -0.11016154131E+04  0.12506473458E+04  0.46999998093E+01 0.  1.
       -5    1    3    3    0  502  0.13193211214E+03 -0.57717769620E+03  0.18277353603E+04  0.19212440793E+04  0.46999998093E+01 0. -1.
</event>
<event>
 5   0  0.4330395E-07  0.3118339E+04  0.7818609E-02  0.8210723E-01
       -1   -1    0    0    0  501  0.00000000000E+00  0.00000000000E+00  0.97316008034E+03  0.97316008035E+03  0.50400001928E-02 0. -1.
        1   -1    0    0  501    0  0.00000000000E+00  0.00000000000E+00 -0.24980565671E+04  0.24980565671E+04  0.50400001928E-02 0.  1.
    10030    2    1    2    0    0  0.00000000000E+00  0.00000000000E+00 -0.15248964868E+04  0.34712166475E+04  0.31183386151E+04 0.  0.
        1    1    3    3  502    0 -0.14269168442E+04 -0.40321706488E+03 -0.12990030985E+04  0.19713154825E+04  0.50400001928E-02 0.  1.
       -1    1    3    3    0  502  0.14269168442E+04  0.40321706488E+03 -0.22589338822E+03  0.14999011649E+04  0.50400001928E-02 0. -1.
</event>
<event>
 5   0  0.3935852E-07  0.3100576E+04  0.7818609E-02  0.8215580E-01
       -1   -1    0    0    0  501  0.00000000000E+00  0.00000000000E+00  0.10678223200E+04  0.10678223200E+04  0.50400001928E-02 0. -1.
        1   -1    0    0  501    0  0.00000000000E+00  0.00000000000E+00 -0.22507417675E+04  0.22507417675E+04  0.50400001928E-02 0.  1.
    10030    2    1    2    0    0  0.00000000000E+00  0.00000000000E+00 -0.11829194475E+04  0.33185640875E+04  0.31005756213E+04 0.  0.
        5    1    3    3  502    0 -0.75213437944E+03  0.10408940304E+04  0.33804630303E+03  0.13279547809E+04  0.46999998093E+01 0. -1.
       -5    1    3    3    0  502  0.75213437944E+03 -0.10408940304E+04 -0.15209657505E+04  0.19906093066E+04  0.46999998093E+01 0.  1.
</event>
<event>
 5   0  0.1193123E-06  0.3051664E+04  0.7818609E-02  0.8229130E-01
       -2   -1    0    0    0  501  0.00000000000E+00  0.00000000000E+00  0.12366213269E+04  0.12366213269E+04  0.25500000920E-02 0. -1.
        2   -1    0    0  501    0  0.00000000000E+00  0.00000000000E+00 -0.18826804444E+04  0.18826804444E+04  0.25500000920E-02 0.  1.
    10030    2    1    2    0    0  0.00000000000E+00  0.00000000000E+00 -0.64605911746E+03  0.31193017713E+04  0.30516636704E+04 0.  0.
        3    1    3    3  502    0 -0.13496706050E+04 -0.62977742072E+03  0.15879871492E+02  0.14894571233E+04  0.10100000352E+00 0. -1.
       -3    1    3    3    0  502  0.13496706050E+04  0.62977742072E+03 -0.66193898895E+03  0.16298446481E+04  0.10100000352E+00 0.  1.
</event>
<event>
 5   0  0.1200286E-06  0.3080237E+04  0.7818609E-02  0.8221183E-01
       -2   -1    0    0    0  501  0.00000000000E+00  0.00000000000E+00  0.14393550311E+04  0.14393550311E+04  0.25500000920E-02 0. -1.
        2   -1    0    0  501    0  0.00000000000E+00  0.00000000000E+00 -0.16479360469E+04  0.16479360469E+04  0.25500000920E-02 0.  1.
    10030    2    1    2    0    0  0.00000000000E+00  0.00000000000E+00 -0.20858101576E+03  0.30872910780E+04  0.30802370299E+04 0.  0.
        5    1    3    3  502    0 -0.12583199759E+04 -0.76866579503E+03 -0.54997352111E+03  0.15737564075E+04  0.46999998093E+01 0. -1.
       -5    1    3    3    0  502  0.12583199759E+04  0.76866579503E+03  0.34139250535E+03  0.15135346705E+04  0.46999998093E+01 0.  1.
</event>
<event>
 5   0  0.3902375E-07  0.3110138E+04  0.7818609E-02  0.8212961E-01
        3   -1    0    0  501    0  0.00000000000E+00  0.00000000000E+00  0.17961421084E+04  0.17961421113E+04  0.10100000352E+00 0.  1.
       -3   -1    0    0    0  501  0.00000000000E+00  0.00000000000E+00 -0.13463522646E+04  0.13463522684E+04  0.10100000352E+00 0. -1.
    10030    2    1    2    0    0  0.00000000000E+00  0.00000000000E+00  0.44978984385E+03  0.31424943796E+04  0.31101382642E+04 0.  0.
        5    1    3    3  502    0  0.58783544931E+03  0.14354949266E+04  0.33567917668E+03  0.15871039032E+04  0.46999998093E+01 0. -1.
       -5    1    3    3    0  502 -0.58783544931E+03 -0.14354949266E+04  0.11411066717E+03  0.15553904764E+04  0.46999998093E+01 0.  1.
</event>
<event>
 5   0  0.1237580E-06  0.3106019E+04  0.7818609E-02  0.8214088E-01
       -2   -1    0    0    0  501  0.00000000000E+00  0.00000000000E+00  0.12757402509E+04  0.12757402509E+04  0.25500000920E-02 0. -1.
        2   -1    0    0  501    0  0.00000000000E+00  0.00000000000E+00 -0.18905400750E+04  0.18905400750E+04  0.25500000920E-02 0.  1.
    10030    2    1    2    0    0  0.00000000000E+00  0.00000000000E+00 -0.61479982408E+03  0.31662803259E+04  0.31060187183E+04 0.  0.
        4    1    3    3  502    0 -0.14344109880E+03 -0.13337495830E+04  0.49032538920E+03  0.14282450417E+04  0.12699999809E+01 0.  1.
       -4    1    3    3    0  502  0.14344109880E+03  0.13337495830E+04 -0.11051252133E+04  0.17380352842E+04  0.12699999809E+01 0. -1.
</event>
<event>
 5   0  0.4173905E-07  0.3096134E+04  0.7818609E-02  0.8216800E-01
        1   -1    0    0  501    0  0.00000000000E+00  0.00000000000E+00  0.18665572374E+04  0.18665572374E+04  0.50400001928E-02 0. -1.
       -1   -1    0    0    0  501  0.00000000000E+00  0.00000000000E+00 -0.12839209378E+04  0.12839209379E+04  0.50400001928E-02 0.  1.
    10030    2    1    2    0    0  0.00000000000E+00  0.00000000000E+00  0.58263629958E+03  0.31504781753E+04  0.30961343116E+04 0.  0.
        3    1    3    3  502    0 -0.74707398275E+03 -0.43388577544E+03  0.15984412439E+04  0.18169729833E+04  0.10100000352E+00 0. -1.
       -3    1    3    3    0  502  0.74707398275E+03  0.43388577544E+03 -0.10158049443E+04  0.13335051919E+04  0.10100000352E+00 0.  1.
</event>
<event>
 5   0  0.4219337E-07  0.3095642E+04  0.7818609E-02  0.8216935E-01
        1   -1    0    0  501    0  0.00000000000E+00  0.00000000000E+00  0.18762704234E+04  0.18762704234E+04  0.50400001928E-02 0.  1.
       -1   -1    0    0    0  501  0.00000000000E+00  0.00000000000E+00 -0.12768677014E+04  0.12768677014E+04  0.50400001928E-02 0. -1.
    10030    2    1    2    0    0  0.00000000000E+00  0.00000000000E+00  0.59940272206E+03  0.31531381248E+04  0.30956415185E+04 0.  0.
        4    1    3    3  502    0 -0.10618556343E+04 -0.50537652918E+03  0.13247752698E+04  0.17714327401E+04  0.12699999809E+01 0.  1.
       -4    1    3    3    0  502  0.10618556343E+04  0.50537652918E+03 -0.72537254771E+03  0.13817053847E+04  0.12699999809E+01 0. -1.
</event>
<event>
 5   0  0.4219337E-07  0.3117420E+04  0.7818609E-02  0.8210973E-01
        1   -1    0    0  501    0  0.00000000000E+00  0.00000000000E+00  0.16422167973E+04  0.16422167973E+04  0.50400001928E-02 0.  1.
       -1   -1    0    0    0  501  0.00000000000E+00  0.00000000000E+00 -0.14794491987E+04  0.14794491987E+04  0.50400001928E-02 0. -1.
    10030    2    1    2    0    0  0.00000000000E+00  0.00000000000E+00  0.16276759867E+03  0.31216659960E+04  0.31174196541E+04 0.  0.
        4    1    3    3  502    0 -0.40348536801E+03 -0.13124252306E+04 -0.65739773221E+03  0.15223119980E+04  0.12699999809E+01 0. -1.
       -4    1    3    3    0  502  0.40348536801E+03  0.13124252306E+04  0.82016533088E+03  0.15993539980E+04  0.12699999809E+01 0.  1.
</event>
<event>
 5   0  0.4219337E-07  0.3102166E+04  0.7818609E-02  0.8215144E-01
        1   -1    0    0  501    0  0.00000000000E+00  0.00000000000E+00  0.19071780516E+04  0.19071780516E+04  0.50400001928E-02 0. -1.
       -1   -1    0    0    0  501  0.00000000000E+00  0.00000000000E+00 -0.12614752601E+04  0.12614752601E+04  0.50400001928E-02 0.  1.
    10030    2    1    2    0    0  0.00000000000E+00  0.00000000000E+00  0.64570279150E+03  0.31686533116E+04  0.31021656491E+04 0.  0.
        4    1    3    3  502    0  0.87729517626E+03  0.90219703748E+03  0.12490661184E+04  0.17730691193E+04  0.12699999809E+01 0. -1.
       -4    1    3    3    0  502 -0.87729517626E+03 -0.90219703748E+03 -0.60336332692E+03  0.13955841923E+04  0.12699999809E+01 0.  1.
</event>
<event>
 5   0  0.4330395E-07  0.3106736E+04  0.7818609E-02  0.8213892E-01
        1   -1    0    0  501    0  0.00000000000E+00  0.00000000000E+00  0.15710578591E+04  0.15710578591E+04  0.50400001928E-02 0.  1.
       -1   -1    0    0    0  501  0.00000000000E+00  0.00000000000E+00 -0.15358776125E+04  0.15358776125E+04  0.50400001928E-02 0. -1.
    10030    2    1    2    0    0  0.00000000000E+00  0.00000000000E+00  0.35180246581E+02  0.31069354716E+04  0.31067362899E+04 0.  0.
        1    1    3    3  502    0 -0.96902742211E+03  0.83801592116E+03  0.89609266493E+03  0.15634151378E+04  0.50400001928E-02 0.  1.
       -1    1    3    3    0  502  0.96902742211E+03 -0.83801592116E+03 -0.86091241835E+03  0.15435203339E+04  0.50400001928E-02 0. -1.
</event>
<event>
 5   0  0.3935852E-07  0.3093411E+04  0.7818609E-02  0.8217549E-01
        1   -1    0    0  501    0  0.00000000000E+00  0.00000000000E+00  0.27654305792E+04  0.27654305792E+04  0.50400001928E-02 0. -1.
       -1   -1    0    0    0  501  0.00000000000E+00  0.00000000000E+00 -0.86507247319E+03  0.86507247321E+03  0.50400001928E-02 0.  1.
    10030    2    1    2    0    0  0.00000000000E+00  0.00000000000E+00  0.19003581060E+04  0.36305030524E+04  0.30934109786E+04 0.  0.
        5    1    3    3  502    0 -0.12915470836E+04  0.83976940038E+03  0.11118211378E+04  0.18998617969E+04  0.46999998093E+01 0. -1.
       -5    1    3    3    0  502  0.12915470836E+04 -0.83976940038E+03  0.78853696824E+03  0.17306412555E+04  0.46999998093E+01 0.  1.
</event>
<event>
 5   0  0.1237580E-06  0.3107309E+04  0.7818609E-02  0.8213735E-01
        2   -1    0    0  501    0  0.00000000000E+00  0.00000000000E+00  0.12566457849E+04  0.12566457849E+04  0.25500000920E-02 0. -1.
       -2   -1    0    0    0  501  0.00000000000E+00  0.00000000000E+00 -0.19208617474E+04  0.19208617474E+04  0.25500000920E-02 0.  1.
    10030    2    1    2    0    0  0.00000000000E+00  0.00000000000E+00 -0.66421596250E+03  0.31775075324E+04  0.31073093302E+04 0.  0.
        4    1    3    3  502    0  0.12660577575E+04  0.48406755940E+03  0.44440019140E+03  0.14264349934E+04  0.12699999809E+01 0. -1.
       -4    1    3    3    0  502 -0.12660577575E+04 -0.48406755940E+03 -0.11086161539E+04  0.17510725390E+04  0.12699999809E+01 0.  1.
</event>
<event>
 5   0  0.3935852E-07  0.3103189E+04  0.7818609E-02  0.8214863E-01
        1   -1    0    0  501    0  0.00000000000E+00  0.00000000000E+00  0.15045777348E+04  0.15045777348E+04  0.50400001928E-02 0.  1.
       -1   -1    0    0    0  501  0.00000000000E+00  0.00000000000E+00 -0.16000802998E+04  0.16000802998E+04  0.50400001928E-02 0. -1.
    10030    2    1    2    0    0  0.00000000000E+00  0.00000000000E+00 -0.95502564987E+02  0.31046580347E+04  0.31031888071E+04 0.  0.
        5    1    3    3  502    0 -0.78242638471E+02  0.12539191894E+03 -0.15930142158E+04  0.15998629396E+04  0.46999998093E+01 0. -1.
       -5    1    3    3    0  502  0.78242638471E+02 -0.12539191894E+03  0.14975116508E+04  0.15047950951E+04  0.46999998093E+01 0.  1.
</event>
<event>
 5   0  0.1237580E-06  0.3068003E+04  0.7818609E-02  0.8224575E-01
       -2   -1    0    0    0  501  0.00000000000E+00  0.00000000000E+00  0.99927677023E+03  0.99927677023E+03  0.25500000920E-02 0.  1.
        2   -1    0    0  501    0  0.00000000000E+00  0.00000000000E+00 -0.23548630090E+04  0.23548630090E+04  0.25500000920E-02 0. -1.
    10030    2    1    2    0    0  0.00000000000E+00  0.00000000000E+00 -0.13555862388E+04  0.33541397792E+04  0.30680025436E+04 0.  0.
        4    1    3    3  502    0  0.64384013526E+02  0.15268577816E+04 -0.82331774772E+03  0.17358841301E+04  0.12699999809E+01 0.  1.
       -4    1    3    3    0  502 -0.64384013526E+02 -0.15268577816E+04 -0.53226849105E+03  0.16182556491E+04  0.12699999809E+01 0. -1.
</event>
<event>
 5   0  0.4330395E-07  0.3095705E+04  0.7818609E-02  0.8216918E-01
        1   -1    0    0  501    0  0.00000000000E+00  0.00000000000E+00  0.19473574751E+04  0.19473574751E+04  0.50400001928E-02 0. -1.
       -1   -1    0    0    0  501  0.00000000000E+00  0.00000000000E+00 -0.12303065382E+04  0.12303065382E+04  0.50400001928E-02 0.  1.
    10030    2    1    2    0    0  0.00000000000E+00  0.00000000000E+00  0.71705093694E+03  0.31776640133E+04  0.30957045297E+04 0.  0.
        1    1    3    3  502    0 -0.10359950915E+04  0.63521008506E+03  0.13425876019E+04  0.18108890497E+04  0.50400001928E-02 0. -1.
       -1    1    3    3    0  502  0.10359950915E+04 -0.63521008506E+03 -0.62553666492E+03  0.13667749635E+04  0.50400001928E-02 0.  1.
</event>
<event>
 5   0  0.1258262E-06  0.3082547E+04  0.7818609E-02  0.8220544E-01
       -2   -1    0    0    0  501  0.00000000000E+00  0.00000000000E+00  0.12115198101E+04  0.12115198101E+04  0.25500000920E-02 0.  1.
        2   -1    0    0  501    0  0.00000000000E+00  0.00000000000E+00 -0.19607800811E+04  0.19607800811E+04  0.25500000920E-02 0. -1.
    10030    2    1    2    0    0  0.00000000000E+00  0.00000000000E+00 -0.74926027100E+03  0.31722998912E+04  0.30825469415E+04 0.  0.
        1    1    3    3  502    0 -0.14878838763E+04  0.40190080197E+03 -0.36003163426E+03  0.15827019497E+04  0.50400001928E-02 0. -1.
       -1    1    3    3    0  502  0.14878838763E+04 -0.40190080197E+03 -0.38922863674E+03  0.15895979415E+04  0.50400001928E-02 0.  1.
</event>
<event>
 5   0  0.4173905E-07  0.3118535E+04  0.7818609E-02  0.8210669E-01
       -1   -1    0    0    0  501  0.00000000000E+00  0.00000000000E+00  0.15359048144E+04  0.15359048144E+04  0.50400001928E-02 0. -1.
        1   -1    0    0  501    0  0.00000000000E+00  0.00000000000E+00 -0.15829856293E+04  0.15829856293E+04  0.50400001928E-02 0.  1.
    10030    2    1    2    0    0  0.00000000000E+00  0.00000000000E+00 -0.47080814853E+02  0.31188904437E+04  0.31185350722E+04 0.  0.
        3    1    3    3  502    0 -0.79430984566E+03  0.51926669162E+03  0.12138350824E+04  0.15407665772E+04  0.10100000352E+00 0. -1.
       -3    1    3    3    0  502  0.79430984566E+03 -0.51926669162E+03 -0.12609158973E+04  0.15781238665E+04  0.10100000352E+00 0.  1.
</event>
<event>
 5   0  0.1176002E-06  0.3095482E+04  0.7818609E-02  0.8216979E-01
       -2   -1    0    0    0  501  0.00000000000E+00  0.00000000000E+00  0.97860313390E+03  0.97860313390E+03  0.25500000920E-02 0.  1.
        2   -1    0    0  501    0  0.00000000000E+00  0.00000000000E+00 -0.24478786206E+04  0.24478786206E+04  0.25500000920E-02 0. -1.
    10030    2    1    2    0    0  0.00000000000E+00  0.00000000000E+00 -0.14692754867E+04  0.34264817545E+04  0.30954816682E+04 0.  0.
        2    1    3    3  502    0  0.15298096984E+04 -0.69407754380E+02 -0.98306042510E+03  0.18197645312E+04  0.25500000920E-02 0.  1.
       -2    1    3    3    0  502 -0.15298096984E+04  0.69407754380E+02 -0.48621506163E+03  0.16067172233E+04  0.25500000920E-02 0. -1.
</event>
<event>
 5   0  0.4330395E-07  0.3099037E+04  0.7818609E-02  0.8216002E-01
        1   -1    0    0  501    0  0.00000000000E+00  0.00000000000E+00  0.18298950915E+04  0.18298950915E+04  0.50400001928E-02 0. -1.
       -1   -1    0    0    0  501  0.00000000000E+00  0.00000000000E+00 -0.13121015266E+04  0.13121015266E+04  0.50400001928E-02 0.  1.
    10030    2    1    2    0    0  0.00000000000E+00  0.00000000000E+00  0.51779356491E+03  0.31419966180E+04  0.30990373621E+04 0.  0.
        1    1    3    3  502    0 -0.10664964620E+04  0.10281850617E+04 -0.20174589258E+03  0.14950854925E+04  0.50400001928E-02 0. -1.
       -1    1    3    3    0  502  0.10664964620E+04 -0.10281850617E+04  0.71953945749E+03  0.16469111256E+04  0.50400001928E-02 0.  1.
</event>
<event>
 5   0  0.4173905E-07  0.3112950E+04  0.7818609E-02  0.8212193E-01
        1   -1    0    0  501    0  0.00000000000E+00  0.00000000000E+00  0.14214759100E+04  0.14214759100E+04  0.50400001928E-02 0. -1.
       -1   -1    0    0    0  501  0.00000000000E+00  0.00000000000E+00 -0.17042953512E+04  0.17042953512E+04  0.50400001928E-02 0.  1.
    10030    2    1    2    0    0  0.00000000000E+00  0.00000000000E+00 -0.28281944117E+03  0.31257712611E+04  0.31129502310E+04 0.  0.
        3    1    3    3  502    0  0.14724642451E+04  0.19841357378E+03  0.32428472491E+03  0.15207496482E+04  0.10100000352E+00 0. -1.
       -3    1    3    3    0  502 -0.14724642451E+04 -0.19841357378E+03 -0.60710416609E+03  0.16050216130E+04  0.10100000352E+00 0.  1.
</event>
<event>
 5   0  0.4330395E-07  0.3096338E+04  0.7818609E-02  0.8216744E-01
       -1   -1    0    0    0  501  0.00000000000E+00  0.00000000000E+00  0.13200662198E+04  0.13200662198E+04  0.50400001928E-02 0.  1.
        1   -1    0    0  501    0  0.00000000000E+00  0.00000000000E+00 -0.18156874226E+04  0.18156874226E+04  0.50400001928E-02 0. -1.
    10030    2    1    2    0    0  0.00000000000E+00  0.00000000000E+00 -0.49562120282E+03  0.31357536425E+04  0.30963382453E+04 0.  0.
        1    1    3    3  502    0 -0.12540577563E+04 -0.58370854381E+03  0.45634691602E+03  0.14565812810E+04  0.50400001928E-02 0. -1.
       -1    1    3    3    0  502  0.12540577563E+04  0.58370854381E+03 -0.95196811883E+03  0.16791723615E+04  0.50400001928E-02 0.  1.
</event>
<event>
 5   0  0.1200286E-06  0.3100617E+04  0.7818609E-02  0.8215569E-01
        2   -1    0    0  501    0  0.00000000000E+00  0.00000000000E+00  0.15503409839E+04  0.15503409839E+04  0.25500000920E-02 0. -1.
       -2   -1    0    0    0  501  0.00000000000E+00  0.00000000000E+00 -0.15502755349E+04  0.15502755349E+04  0.25500000920E-02 0.  1.
    10030    2    1    2    0    0  0.00000000000E+00  0.00000000000E+00  0.65448953525E-01  0.31006165188E+04  0.31006165181E+04 0.  0.
        5    1    3    3  502    0 -0.71878050895E+03  0.13710370037E+04 -0.83906078595E+02  0.15503064876E+04  0.46999998093E+01 0. -1.
       -5    1    3    3    0  502  0.71878050895E+03 -0.13710370037E+04  0.83971527548E+02  0.15503100312E+04  0.46999998093E+01 0.  1.
</event>
<event>
 5   0  0.1193123E-06  0.3094478E+04  0.7818609E-02  0.8217255E-01
        2   -1    0    0  501    0  0.00000000000E+00  0.00000000000E+00  0.14142007084E+04  0.14142007084E+04  0.25500000920E-02 0. -1.
       -2   -1    0    0    0  501  0.00000000000E+00  0.00000000000E+00 -0.16927925519E+04  0.16927925519E+04  0.25500000920E-02 0.  1.
    10030    2    1    2    0    0  0.00000000000E+00  0.00000000000E+00 -0.27859184348E+03  0.31069932603E+04  0.30944779372E+04 0.  0.
        3    1    3    3  502    0 -0.12352332026E+04  0.92267958702E+03 -0.26947263402E+03  0.15651690630E+04  0.10100000352E+00 0.  1.
       -3    1    3    3    0  502  0.12352332026E+04 -0.92267958702E+03 -0.91192094545E+01  0.15418241973E+04  0.10100000352E+00 0. -1.
</event>
<event>
 5   0  0.1258262E-06  0.3095951E+04  0.7818609E-02  0.8216850E-01
       -2   -1    0    0    0  501  0.00000000000E+00  0.00000000000E+00  0.15630402067E+04  0.15630402067E+04  0.25500000920E-02 0. -1.
        2   -1    0    0  501    0  0.00000000000E+00  0.00000000000E+00 -0.15330555076E+04  0.15330555076E+04  0.25500000920E-02 0.  1.
    10030    2    1    2    0    0  0.00000000000E+00  0.00000000000E+00  0.29984699031E+02  0.30960957143E+04  0.30959505148E+04 0.  0.
        1    1    3    3  502    0 -0.84771037683E+03  0.17889148725E+03 -0.12678820448E+04  0.15356236280E+04  0.50400001928E-02 0.  1.
       -1    1    3    3    0  502  0.84771037683E+03 -0.17889148725E+03  0.12978667439E+04  0.15604720863E+04  0.50400001928E-02 0. -1.
</event>
<event>
 5   0  0.4134019E-07  0.3102282E+04  0.7818609E-02  0.8215112E-01
        1   -1    0    0  501    0  0.00000000000E+00  0.00000000000E+00  0.18898352018E+04  0.18898352018E+04  0.50400001928E-02 0.  1.
       -1   -1    0    0    0  501  0.00000000000E+00  0.00000000000E+00 -0.12731468493E+04  0.12731468493E+04  0.50400001928E-02 0. -1.
    10030    2    1    2    0    0  0.00000000000E+00  0.00000000000E+00  0.61668835252E+03  0.31629820511E+04  0.31022815687E+04 0.  0.
        2    1    3    3  502    0 -0.91099549439E+03  0.10388171792E+04  0.10271087035E+04  0.17216289413E+04  0.25500000920E-02 0.  1.
       -2    1    3    3    0  502  0.91099549439E+03 -0.10388171792E+04 -0.41042035098E+03  0.14413531098E+04  0.25500000920E-02 0. -1.
</event>
<event>
 5   0  0.4330395E-07  0.3107525E+04  0.7818609E-02  0.8213676E-01
        1   -1    0    0  501    0  0.00000000000E+00  0.00000000000E+00  0.14978176890E+04  0.14978176890E+04  0.50400001928E-02 0.  1.
       -1   -1    0    0    0  501  0.00000000000E+00  0.00000000000E+00 -0.16117969029E+04  0.16117969029E+04  0.50400001928E-02 0. -1.
    10030    2    1    2    0    0  0.00000000000E+00  0.00000000000E+00 -0.11397921385E+03  0.31096145919E+04  0.31075250038E+04 0.  0.
        1    1    3    3  502    0 -0.14271978065E+04  0.34200982517E+03 -0.56754206753E+03  0.15735209874E+04  0.50400001928E-02 0. -1.
       -1    1    3    3    0  502  0.14271978065E+04 -0.34200982517E+03  0.45356285367E+03  0.15360936045E+04  0.50400001928E-02 0.  1.
</event>
<event>
 5   0  0.1200286E-06  0.3076647E+04  0.7818609E-02  0.8222176E-01
       -2   -1    0    0    0  501  0.00000000000E+00  0.00000000000E+00  0.13852920221E+04  0.13852920221E+04  0.25500000920E-02 0. -1.
        2   -1    0    0  501    0  0.00000000000E+00  0.00000000000E+00 -0.17082598656E+04  0.17082598656E+04  0.25500000920E-02 0.  1.
    10030    2    1    2    0    0  0.00000000000E+00  0.00000000000E+00 -0.32296784345E+03  0.30935518877E+04  0.30766467224E+04 0.  0.
        5    1    3    3  502    0 -0.12965683469E+04 -0.82359322096E+03 -0.77229697359E+02  0.15379797749E+04  0.46999998093E+01 0.  1.
       -5    1    3    3    0  502  0.12965683469E+04  0.82359322096E+03 -0.24573814609E+03  0.15555721128E+04  0.46999998093E+01 0. -1.
</event>
<event>
 5   0  0.3935852E-07  0.3099849E+04  0.7818609E-02  0.8215779E-01
       -1   -1    0    0    0  501  0.00000000000E+00  0.00000000000E+00  0.13508143063E+04  0.13508143063E+04  0.50400001928E-02 0.  1.
        1   -1    0    0  501    0  0.00000000000E+00  0.00000000000E+00 -0.17783830262E+04  0.17783830263E+04  0.50400001928E-02 0. -1.
    10030    2    1    2    0    0  0.00000000000E+00  0.00000000000E+00 -0.42756871997E+03  0.31291973325E+04  0.30998485343E+04 0.  0.
        5    1    3    3  502    0 -0.52897036011E+03 -0.13011435275E+04  0.44775142753E+03  0.14742074318E+04  0.46999998093E+01 0. -1.
       -5    1    3    3    0  502  0.52897036011E+03  0.13011435275E+04 -0.87532014750E+03  0.16549899008E+04  0.46999998093E+01 0.  1.
</event>
<event>
 5   0  0.4219337E-07  0.3099542E+04  0.7818609E-02  0.8215864E-01
       -1   -1    0    0    0  501  0.00000000000E+00  0.00000000000E+00  0.14936900455E+04  0.14936900455E+04  0.50400001928E-02 0.  1.
        1   -1    0    0  501    0  0.00000000000E+00  0.00000000000E+00 -0.16079572464E+04  0.16079572465E+04  0.50400001928E-02 0. -1.
    10030    2    1    2    0    0  0.00000000000E+00  0.00000000000E+00 -0.11426720094E+03  0.31016472920E+04  0.30995417291E+04 0.  0.
        4    1    3    3  502    0  0.15710895017E+03  0.99084461968E+03  0.11249104844E+04  0.15072761835E+04  0.12699999809E+01 0.  1.
       -4    1    3    3    0  502 -0.15710895017E+03 -0.99084461968E+03 -0.12391776854E+04  0.15943711084E+04  0.12699999809E+01 0. -1.
</event>
<event>
 5   0  0.1200286E-06  0.3110521E+04  0.7818609E-02  0.8212857E-01
       -2   -1    0    0    0  501  0.00000000000E+00  0.00000000000E+00  0.16954928810E+04  0.16954928810E+04  0.25500000920E-02 0.  1.
        2   -1    0    0  501    0  0.00000000000E+00  0.00000000000E+00 -0.14266261638E+04  0.14266261638E+04  0.25500000920E-02 0. -1.
    10030    2    1    2    0    0  0.00000000000E+00  0.00000000000E+00  0.26886671722E+03  0.31221190449E+04  0.31105205382E+04 0.  0.
        5    1    3    3  502    0 -0.21316385951E+03 -0.88238226204E+03 -0.11331195963E+04  0.14519019929E+04  0.46999998093E+01 0. -1.
       -5    1    3    3    0  502  0.21316385951E+03  0.88238226204E+03  0.14019863135E+04  0.16702170520E+04  0.46999998093E+01 0.  1.
</event>
<event>
 5   0  0.3902375E-07  0.3281659E+04  0.7818609E-02  0.8167578E-01
       -3   -1    0    0    0  501  0.00000000000E+00  0.00000000000E+00  0.21109011568E+04  0.21109011592E+04  0.10100000352E+00 0. -1.
        3   -1    0    0  501    0  0.00000000000E+00  0.00000000000E+00 -0.12754367099E+04  0.12754367139E+04  0.10100000352E+00 0.  1.
    10030    2    1    2    0    0  0.00000000000E+00  0.00000000000E+00  0.83546444693E+03  0.33863378731E+04  0.32816586277E+04 0.  0.
        4    1    3    3  502    0  0.10338243896E+03  0.14458754729E+04 -0.37560591518E+03  0.14974395575E+04  0.12699999809E+01 0.  1.
       -4    1    3    3    0  502 -0.10338243896E+03 -0.14458754729E+04  0.12110703621E+04  0.18888983156E+04  0.12699999809E+01 0. -1.
</event>
<event>
 5   0  0.1200286E-06  0.3091267E+04  0.7818609E-02  0.8218139E-01
        2   -1    0    0  501    0  0.00000000000E+00  0.00000000000E+00  0.14127546465E+04  0.14127546465E+04  0.25500000920E-02 0.  1.
       -2   -1    0    0    0  501  0.00000000000E+00  0.00000000000E+00 -0.16910102486E+04  0.16910102486E+04  0.25500000920E-02 0. -1.
    10030    2    1    2    0    0  0.00000000000E+00  0.00000000000E+00 -0.27825560210E+03  0.31037648950E+04  0.30912667862E+04 0.  0.
        5    1    3    3  502    0  0.23181776594E+03 -0.66764441417E+03  0.12410103278E+04  0.14281516950E+04  0.46999998093E+01 0.  1.
       -5    1    3    3    0  502 -0.23181776594E+03  0.66764441417E+03 -0.15192659299E+04  0.16756132000E+04  0.46999998093E+01 0. -1.
</event>
<event>
 5   0  0.1237580E-06  0.3087623E+04  0.7818609E-02  0.8219143E-01
       -2   -1    0    0    0  501  0.00000000000E+00  0.00000000000E+00  0.15999542435E+04  0.15999542435E+04  0.25500000920E-02 0. -1.
        2   -1    0    0  501    0  0.00000000000E+00  0.00000000000E+00 -0.14896392475E+04  0.14896392475E+04  0.25500000920E-02 0.  1.
    10030    2    1    2    0    0  0.00000000000E+00  0.00000000000E+00  0.11031499597E+03  0.30895934910E+04  0.30876234455E+04 0.  0.
        4    1    3    3  502    0 -0.43954775211E+03  0.35804200702E+03  0.14920252034E+04  0.15961006001E+04  0.12699999809E+01 0. -1.
       -4    1    3    3    0  502  0.43954775211E+03 -0.35804200702E+03 -0.13817102074E+04  0.14934928909E+04  0.12699999809E+01 0.  1.
</event>
<event>
 5   0  0.1258262E-06  0.3099595E+04  0.7818609E-02  0.8215849E-01
       -2   -1    0    0    0  501  0.00000000000E+00  0.00000000000E+00  0.94782212404E+03  0.94782212405E+03  0.25500000920E-02 0.  1.
        2   -1    0    0  501    0  0.00000000000E+00  0.00000000000E+00 -0.25340965230E+04  0.25340965230E+04  0.25500000920E-02 0. -1.
    10030    2    1    2    0    0  0.00000000000E+00  0.00000000000E+00 -0.15862743990E+04  0.34819186471E+04  0.30995952955E+04 0.  0.
        1    1    3    3  502    0 -0.25703252359E+03 -0.16184042646E+03  0.91405884171E+03  0.96320382472E+03  0.50400001928E-02 0.  1.
       -1    1    3    3    0  502  0.25703252359E+03  0.16184042646E+03 -0.25003332407E+04  0.25187148224E+04  0.50400001928E-02 0. -1.
</event>
<event>
 5   0  0.1258262E-06  0.3164891E+04  0.7818609E-02  0.8198151E-01
       -2   -1    0    0    0  501  0.00000000000E+00  0.00000000000E+00  0.16265778192E+04  0.16265778192E+04  0.25500000920E-02 0. -1.
        2   -1    0    0  501    0  0.00000000000E+00  0.00000000000E+00 -0.15395109830E+04  0.15395109830E+04  0.25500000920E-02 0.  1.
    10030    2    1    2    0    0  0.00000000000E+00  0.00000000000E+00  0.87066836279E+02  0.31660888022E+04  0.31648914151E+04 0.  0.
        1    1    3    3  502    0  0.28380095166E+03  0.81595108754E+03  0.13698612793E+04  0.16195181635E+04  0.50400001928E-02 0. -1.
       -1    1    3    3    0  502 -0.28380095166E+03 -0.81595108754E+03 -0.12827944430E+04  0.15465706387E+04  0.50400001928E-02 0.  1.
</event>
<event>
 5   0  0.4134019E-07  0.3075628E+04  0.7818609E-02  0.8222459E-01
       -1   -1    0    0    0  501  0.00000000000E+00  0.00000000000E+00  0.11851294552E+04  0.11851294552E+04  0.50400001928E-02 0.  1.
        1   -1    0    0  501    0  0.00000000000E+00  0.00000000000E+00 -0.19954541666E+04  0.19954541666E+04  0.50400001928E-02 0. -1.
    10030    2    1    2    0    0  0.00000000000E+00  0.00000000000E+00 -0.81032471141E+03  0.31805836218E+04  0.30756277469E+04 0.  0.
        2    1    3    3  502    0  0.46530529103E+03  0.14657282607E+04 -0.40332371555E+03  0.15898233763E+04  0.25500000920E-02 0.  1.
       -2    1    3    3    0  502 -0.46530529103E+03 -0.14657282607E+04 -0.40700099586E+03  0.15907602456E+04  0.25500000920E-02 0. -1.
</event>
<event>
 5   0  0.1258262E-06  0.3216298E+04  0.7818609E-02  0.8184526E-01
       -2   -1    0    0    0  501  0.00000000000E+00  0.00000000000E+00  0.12923915518E+04  0.12923915518E+04  0.25500000920E-02 0.  1.
        2   -1    0    0  501    0  0.00000000000E+00  0.00000000000E+00 -0.20010525076E+04  0.20010525076E+04  0.25500000920E-02 0. -1.
    10030    2    1    2    0    0  0.00000000000E+00  0.00000000000E+00 -0.70866095586E+03  0.32934440594E+04  0.32162980928E+04 0.  0.
        1    1    3    3  502    0  0.54091984847E+03 -0.14189024668E+04 -0.89642912610E+03  0.17633671402E+04  0.50400001928E-02 0. -1.
       -1    1    3    3    0  502 -0.54091984847E+03  0.14189024668E+04  0.18776817025E+03  0.15300769192E+04  0.50400001928E-02 0.  1.
</event>
<event>
 5   0  0.3935852E-07  0.3113846E+04  0.7818609E-02  0.8211948E-01
       -1   -1    0    0    0  501  0.00000000000E+00  0.00000000000E+00  0.11103968722E+04  0.11103968722E+04  0.50400001928E-02 0.  1.
        1   -1    0    0  501    0  0.00000000000E+00  0.00000000000E+00 -0.21830117097E+04  0.21830117097E+04  0.50400001928E-02 0. -1.
    10030    2    1    2    0    0  0.00000000000E+00  0.00000000000E+00 -0.10726148375E+04  0.32934085819E+04  0.31138460941E+04 0.  0.
        5    1    3    3  502    0 -0.71469287198E+03  0.48781648789E+03 -0.19052540820E+04  0.20925501270E+04  0.46999998093E+01 0. -1.
       -5    1    3    3    0  502  0.71469287198E+03 -0.48781648789E+03  0.83263924449E+03  0.12008584549E+04  0.46999998093E+01 0.  1.
</event>
<event>
 5   0  0.4173905E-07  0.3084599E+04  0.7818609E-02  0.8219977E-01
       -1   -1    0    0    0  501  0.00000000000E+00  0.00000000000E+00  0.28088730110E+04  0.28088730111E+04  0.50400001928E-02 0.  1.
        1   -1    0    0  501    0  0.00000000000E+00  0.00000000000E+00 -0.84684751177E+03  0.84684751179E+03  0.50400001928E-02 0. -1.
    10030    2    1    2    0    0  0.00000000000E+00  0.00000000000E+00  0.19620254993E+04  0.36557205228E+04  0.30845985932E+04 0.  0.
        3    1    3    3  502    0 -0.11584528929E+04  0.83840132427E+03  0.16656959441E+04  0.21953297871E+04  0.10100000352E+00 0.  1.
       -3    1    3    3    0  502  0.11584528929E+04 -0.83840132427E+03  0.29632955522E+03  0.14603907358E+04  0.10100000352E+00 0. -1.
</event>
<event>
 5   0  0.1237580E-06  0.3096534E+04  0.7818609E-02  0.8216690E-01
        2   -1    0    0  501    0  0.00000000000E+00  0.00000000000E+00  0.18784290070E+04  0.18784290070E+04  0.25500000920E-02 0. -1.
       -2   -1    0    0    0  501  0.00000000000E+00  0.00000000000E+00 -0.12761358791E+04  0.12761358791E+04  0.25500000920E-02 0.  1.
    10030    2    1    2    0    0  0.00000000000E+00  0.00000000000E+00  0.60229312799E+03  0.31545648861E+04  0.30965339670E+04 0.  0.
        4    1    3    3  502    0  0.12714210759E+01 -0.52779033145E+02 -0.12752180957E+04  0.12763111091E+04  0.12699999809E+01 0.  1.
       -4    1    3    3    0  502 -0.12714210759E+01  0.52779033145E+02  0.18775112237E+04  0.18782537770E+04  0.12699999809E+01 0. -1.
</event>
<event>
 5   0  0.4330395E-07  0.3101331E+04  0.7818609E-02  0.8215373E-01
       -1   -1    0    0    0  501  0.00000000000E+00  0.00000000000E+00  0.19145585324E+04  0.19145585325E+04  0.50400001928E-02 0.  1.
        1   -1    0    0  501    0  0.00000000000E+00  0.00000000000E+00 -0.12559358668E+04  0.12559358668E+04  0.50400001928E-02 0. -1.
    10030    2    1    2    0    0  0.00000000000E+00  0.00000000000E+00  0.65862266566E+03  0.31704943992E+04  0.31013305080E+04 0.  0.
        1    1    3    3  502    0 -0.82828131776E+02  0.15436043021E+04  0.45446702952E+03  0.16112464187E+04  0.50400001928E-02 0. -1.
       -1    1    3    3    0  502  0.82828131776E+02 -0.15436043021E+04  0.20415563614E+03  0.15592479805E+04  0.50400001928E-02 0.  1.
</event>
<event>
 5   0  0.1193123E-06  0.3093727E+04  0.7818609E-02  0.8217462E-01
       -2   -1    0    0    0  501  0.00000000000E+00  0.00000000000E+00  0.15063816666E+04  0.15063816666E+04  0.25500000920E-02 0. -1.
        2   -1    0    0  501    0  0.00000000000E+00  0.00000000000E+00 -0.15884331786E+04  0.15884331786E+04  0.25500000920E-02 0.  1.
    10030    2    1    2    0    0  0.00000000000E+00  0.00000000000E+00 -0.82051512040E+02  0.30948148452E+04  0.30937269555E+04 0.  0.
        3    1    3    3  502    0 -0.12212515756E+04 -0.93610059090E+03 -0.19934347323E+03  0.15516048330E+04  0.10100000352E+00 0.  1.
       -3    1    3    3    0  502  0.12212515756E+04  0.93610059090E+03  0.11729196119E+03  0.15432100122E+04  0.10100000352E+00 0. -1.
</event>
<event>
 5   0  0.1193123E-06  0.3086297E+04  0.7818609E-02  0.8219509E-01
        2   -1    0    0  501    0  0.00000000000E+00  0.00000000000E+00  0.19290500274E+04  0.19290500274E+04  0.25500000920E-02 0.  1.
       -2   -1    0    0    0  501  0.00000000000E+00  0.00000000000E+00 -0.12344455197E+04  0.12344455197E+04  0.25500000920E-02 0. -1.
    10030    2    1    2    0    0  0.00000000000E+00  0.00000000000E+00  0.69460450766E+03  0.31634955471E+04  0.30862969162E+04 0.  0.
        3    1    3    3  502    0 -0.81010949537E+03 -0.33199494418E+03 -0.95523489634E+03  0.12957514248E+04  0.10100000352E+00 0. -1.
       -3    1    3    3    0  502  0.81010949537E+03  0.33199494418E+03  0.16498394040E+04  0.18677441224E+04  0.10100000352E+00 0.  1.
</event>
<event>
 5   0  0.1193123E-06  0.3134323E+04  0.7818609E-02  0.8206381E-01
        2   -1    0    0  501    0  0.00000000000E+00  0.00000000000E+00  0.23213971290E+04  0.23213971290E+04  0.25500000920E-02 0.  1.
       -2   -1    0    0    0  501  0.00000000000E+00  0.00000000000E+00 -0.10579817442E+04  0.10579817442E+04  0.25500000920E-02 0. -1.
    10030    2    1    2    0    0  0.00000000000E+00  0.00000000000E+00  0.12634153847E+04  0.33793788732E+04  0.31343233934E+04 0.  0.
        3    1    3    3  502    0 -0.14817485689E+04  0.34931477572E+03  0.23060547009E+03  0.15397332649E+04  0.10100000352E+00 0. -1.
       -3    1    3    3    0  502  0.14817485689E+04 -0.34931477572E+03  0.10328099146E+04  0.18396456083E+04  0.10100000352E+00 0.  1.
</event>
<event>
 5   0  0.4134019E-07  0.3101527E+04  0.7818609E-02  0.8215319E-01
       -1   -1    0    0    0  501  0.00000000000E+00  0.00000000000E+00  0.11103292095E+04  0.11103292095E+04  0.50400001928E-02 0. -1.
        1   -1    0    0  501    0  0.00000000000E+00  0.00000000000E+00 -0.21659042528E+04  0.21659042528E+04  0.50400001928E-02 0.  1.
    10030    2    1    2    0    0  0.00000000000E+00  0.00000000000E+00 -0.10555750433E+04  0.32762334623E+04  0.31015265640E+04 0.  0.
        2    1    3    3  502    0 -0.11158877177E+04 -0.52517054935E+03 -0.15208816210E+04  0.19580833510E+04  0.25500000920E-02 0.  1.
       -2    1    3    3    0  502  0.11158877177E+04  0.52517054935E+03  0.46530657776E+03  0.13181501112E+04  0.25500000920E-02 0. -1.
</event>
<event>
 5   0  0.1200286E-06  0.3110577E+04  0.7818609E-02  0.8212841E-01
       -2   -1    0    0    0  501  0.00000000000E+00  0.00000000000E+00  0.22097090157E+04  0.22097090157E+04  0.25500000920E-02 0. -1.
        2   -1    0    0  501    0  0.00000000000E+00  0.00000000000E+00 -0.10946791318E+04  0.10946791319E+04  0.25500000920E-02 0.  1.
    10030    2    1    2    0    0  0.00000000000E+00  0.00000000000E+00  0.11150298839E+04  0.33043881476E+04  0.31105770185E+04 0.  0.
        5    1    3    3  502    0  0.79838120789E+03 -0.93233569852E+03 -0.45710674386E+03  0.13098210080E+04  0.46999998093E+01 0.  1.
       -5    1    3    3    0  502 -0.79838120789E+03  0.93233569852E+03  0.15721366278E+04  0.19945671396E+04  0.46999998093E+01 0. -1.
</event>
<event>
 5   0  0.1200286E-06  0.3103025E+04  0.7818609E-02  0.8214908E-01
       -2   -1    0    0    0  501  0.00000000000E+00  0.00000000000E+00  0.21367164199E+04  0.21367164199E+04  0.25500000920E-02 0. -1.
        2   -1    0    0  501    0  0.00000000000E+00  0.00000000000E+00 -0.11265843728E+04  0.11265843728E+04  0.25500000920E-02 0.  1.
    10030    2    1    2    0    0  0.00000000000E+00  0.00000000000E+00  0.10101320472E+04  0.32633007927E+04  0.31030251870E+04 0.  0.
        5    1    3    3  502    0 -0.59548513989E+03 -0.10782959868E+04 -0.48697322326E+03  0.13245715523E+04  0.46999998093E+01 0.  1.
       -5    1    3    3    0  502  0.59548513989E+03  0.10782959868E+04  0.14971052704E+04  0.19387292404E+04  0.46999998093E+01 0. -1.
</event>
<event>
 5   0  0.1237580E-06  0.3105492E+04  0.7818609E-02  0.8214232E-01
       -2   -1    0    0    0  501  0.00000000000E+00  0.00000000000E+00  0.24521588916E+04  0.24521588916E+04  0.25500000920E-02 0. -1.
        2   -1    0    0  501    0  0.00000000000E+00  0.00000000000E+00 -0.98322345159E+03  0.98322345159E+03  0.25500000920E-02 0.  1.
    10030    2    1    2    0    0  0.00000000000E+00  0.00000000000E+00  0.14689354400E+04  0.34353823432E+04  0.31054919927E+04 0.  0.
        4    1    3    3  502    0  0.10177820873E+04  0.99724606570E+03  0.51970355929E+02  0.14258620633E+04  0.12699999809E+01 0.  1.
       -4    1    3    3    0  502 -0.10177820873E+04 -0.99724606570E+03  0.14169650840E+04  0.20095202798E+04  0.12699999809E+01 0. -1.
</event>
<event>
 5   0  0.1237580E-06  0.3099247E+04  0.7818609E-02  0.8215945E-01
        2   -1    0    0  501    0  0.00000000000E+00  0.00000000000E+00  0.20449363154E+04  0.20449363154E+04  0.25500000920E-02 0. -1.
       -2   -1    0    0    0  501  0.00000000000E+00  0.00000000000E+00 -0.11742827372E+04  0.11742827372E+04  0.25500000920E-02 0.  1.
    10030    2    1    2    0    0  0.00000000000E+00  0.00000000000E+00  0.87065357820E+03  0.32192190526E+04  0.30992472724E+04 0.  0.
        4    1    3    3  502    0 -0.14415993788E+04 -0.22541350951E+03  0.97736202250E+03  0.17562056130E+04  0.12699999809E+01 0.  1.
       -4    1    3    3    0  502  0.14415993788E+04  0.22541350951E+03 -0.10670844430E+03  0.14630134395E+04  0.12699999809E+01 0. -1.
</event>
<event>
 5   0  0.4219337E-07  0.3101510E+04  0.7818609E-02  0.8215324E-01
        1   -1    0    0  501    0  0.00000000000E+00  0.00000000000E+00  0.23981326146E+04  0.23981326147E+04  0.50400001928E-02 0.  1.
       -1   -1    0    0    0  501  0.00000000000E+00  0.00000000000E+00 -0.10027976183E+04  0.10027976183E+04  0.50400001928E-02 0. -1.
    10030    2    1    2    0    0  0.00000000000E+00  0.00000000000E+00  0.13953349963E+04  0.34009302330E+04  0.31015103897E+04 0.  0.
        4    1    3    3  502    0  0.47013493837E+03  0.23680317503E+03  0.22971647642E+04  0.23567074852E+04  0.12699999809E+01 0.  1.
       -4    1    3    3    0  502 -0.47013493837E+03 -0.23680317503E+03 -0.90182976783E+03  0.10442227478E+04  0.12699999809E+01 0. -1.
</event>
<event>
 5   0  0.1193123E-06  0.3113920E+04  0.7818609E-02  0.8211928E-01
        2   -1    0    0  501    0  0.00000000000E+00  0.00000000000E+00  0.13447625832E+04  0.13447625832E+04  0.25500000920E-02 0. -1.
       -2   -1    0    0    0  501  0.00000000000E+00  0.00000000000E+00 -0.18026415691E+04  0.18026415691E+04  0.25500000920E-02 0.  1.
    10030    2    1    2    0    0  0.00000000000E+00  0.00000000000E+00 -0.45787898593E+03  0.31474041523E+04  0.31139203156E+04 0.  0.
        3    1    3    3  502    0 -0.23950854397E+03  0.13054285374E+04  0.59382639456E+03  0.14540074986E+04  0.10100000352E+00 0. -1.
       -3    1    3    3    0  502  0.23950854397E+03 -0.13054285374E+04 -0.10517053805E+04  0.16933966536E+04  0.10100000352E+00 0.  1.
</event>
<event>
 5   0  0.4219337E-07  0.3097962E+04  0.7818609E-02  0.8216297E-01
        1   -1    0    0  501    0  0.00000000000E+00  0.00000000000E+00  0.13365604038E+04  0.13365604038E+04  0.50400001928E-02 0.  1.
       -1   -1    0    0    0  501  0.00000000000E+00  0.00000000000E+00 -0.17951623020E+04  0.17951623020E+04  0.50400001928E-02 0. -1.
    10030    2    1    2    0    0  0.00000000000E+00  0.00000000000E+00 -0.45860189821E+03  0.31317227057E+04  0.30979624602E+04 0.  0.
        4    1    3    3  502    0 -0.78240730525E+03  0.10729810032E+04  0.57681732654E+03  0.14478153424E+04  0.12699999809E+01 0.  1.
       -4    1    3    3    0  502  0.78240730525E+03 -0.10729810032E+04 -0.10354192247E+04  0.16839073634E+04  0.12699999809E+01 0. -1.
</event>
<event>
 5   0  0.1258262E-06  0.3103518E+04  0.7818609E-02  0.8214773E-01
       -2   -1    0    0    0  501  0.00000000000E+00  0.00000000000E+00  0.20005582261E+04  0.20005582261E+04  0.25500000920E-02 0. -1.
        2   -1    0    0  501    0  0.00000000000E+00  0.00000000000E+00 -0.12036421176E+04  0.12036421176E+04  0.25500000920E-02 0.  1.
    10030    2    1    2    0    0  0.00000000000E+00  0.00000000000E+00  0.79691610855E+03  0.32042003437E+04  0.31035180938E+04 0.  0.
        1    1    3    3  502    0  0.15383985641E+04 -0.19275527558E+03  0.33209687868E+03  0.15855954954E+04  0.50400001928E-02 0.  1.
       -1    1    3    3    0  502 -0.15383985641E+04  0.19275527558E+03  0.46481922987E+03  0.16186048482E+04  0.50400001928E-02 0. -1.
</event>
<event>
 5   0  0.1176002E-06  0.3105729E+04  0.7818609E-02  0.8214167E-01
       -2   -1    0    0    0  501  0.00000000000E+00  0.00000000000E+00  0.10795879227E+04  0.10795879227E+04  0.25500000920E-02 0. -1.
        2   -1    0    0  501    0  0.00000000000E+00  0.00000000000E+00 -0.22336191545E+04  0.22336191545E+04  0.25500000920E-02 0.  1.
    10030    2    1    2    0    0  0.00000000000E+00  0.00000000000E+00 -0.11540312318E+04  0.33132070772E+04  0.31057290694E+04 0.  0.
        2    1    3    3  502    0 -0.14759632388E+04  0.52554448040E+02 -0.65217343204E+02  0.14783378349E+04  0.25500000920E-02 0. -1.
       -2    1    3    3    0  502  0.14759632388E+04 -0.52554448040E+02 -0.10888138886E+04  0.18348692423E+04  0.25500000920E-02 0.  1.
</event>
<event>
 5   0  0.4330395E-07  0.3064113E+04  0.7818609E-02  0.8225656E-01
        1   -1    0    0  501    0  0.00000000000E+00  0.00000000000E+00  0.12153919468E+04  0.12153919468E+04  0.50400001928E-02 0. -1.
       -1   -1    0    0    0  501  0.00000000000E+00  0.00000000000E+00 -0.19312261752E+04  0.19312261752E+04  0.50400001928E-02 0.  1.
    10030    2    1    2    0    0  0.00000000000E+00  0.00000000000E+00 -0.71583422838E+03  0.31466181220E+04  0.30641127531E+04 0.  0.
        1    1    3    3  502    0  0.47050195882E+03 -0.12323286880E+04  0.44228894516E+03  0.13912676233E+04  0.50400001928E-02 0. -1.
       -1    1    3    3    0  502 -0.47050195882E+03  0.12323286880E+04 -0.11581231735E+04  0.17553504988E+04  0.50400001928E-02 0.  1.
</event>
<event>
 5   0  0.4134019E-07  0.3100043E+04  0.7818609E-02  0.8215726E-01
        1   -1    0    0  501    0  0.00000000000E+00  0.00000000000E+00  0.95530400056E+03  0.95530400058E+03  0.50400001928E-02 0. -1.
       -1   -1    0    0    0  501  0.00000000000E+00  0.00000000000E+00 -0.25149765037E+04  0.25149765037E+04  0.50400001928E-02 0.  1.
    10030    2    1    2    0    0  0.00000000000E+00  0.00000000000E+00 -0.15596725032E+04  0.34702805043E+04  0.31000432999E+04 0.  0.
        2    1    3    3  502    0 -0.11583214686E+04 -0.94885158784E+03 -0.12283619248E+04  0.19367242909E+04  0.25500000920E-02 0. -1.
       -2    1    3    3    0  502  0.11583214686E+04  0.94885158784E+03 -0.33131057836E+03  0.15335562135E+04  0.25500000920E-02 0.  1.
</event>
<event>
 5   0  0.1237580E-06  0.3100495E+04  0.7818609E-02  0.8215602E-01
       -2   -1    0    0    0  501  0.00000000000E+00  0.00000000000E+00  0.10223867165E+04  0.10223867165E+04  0.25500000920E-02 0. -1.
        2   -1    0    0  501    0  0.00000000000E+00  0.00000000000E+00 -0.23506436587E+04  0.23506436587E+04  0.25500000920E-02 0.  1.
    10030    2    1    2    0    0  0.00000000000E+00  0.00000000000E+00 -0.13282569423E+04  0.33730303752E+04  0.31004947036E+04 0.  0.
        4    1    3    3  502    0 -0.11417087658E+04 -0.81825985583E+03 -0.13776927704E+04  0.19675078348E+04  0.12699999809E+01 0.  1.
       -4    1    3    3    0  502  0.11417087658E+04  0.81825985583E+03  0.49435828177E+02  0.14055225404E+04  0.12699999809E+01 0. -1.
</event>
<event>
 5   0  0.1237580E-06  0.3094144E+04  0.7818609E-02  0.8217347E-01
       -2   -1    0    0    0  501  0.00000000000E+00  0.00000000000E+00  0.17093006362E+04  0.17093006362E+04  0.25500000920E-02 0.  1.
        2   -1    0    0  501    0  0.00000000000E+00  0.00000000000E+00 -0.14002400765E+04  0.14002400765E+04  0.25500000920E-02 0. -1.
    10030    2    1    2    0    0  0.00000000000E+00  0.00000000000E+00  0.30906055975E+03  0.31095407127E+04  0.30941436641E+04 0.  0.
        4    1    3    3  502    0 -0.11867447972E+04 -0.28390219485E+03 -0.80123640592E+03  0.14597756886E+04  0.12699999809E+01 0.  1.
       -4    1    3    3    0  502  0.11867447972E+04  0.28390219485E+03  0.11102969657E+04  0.16497650241E+04  0.12699999809E+01 0. -1.
</event>
<event>
 5   0  0.4219337E-07  0.3120161E+04  0.7818609E-02  0.8210227E-01
        1   -1    0    0  501    0  0.00000000000E+00  0.00000000000E+00  0.18343230261E+04  0.18343230261E+04  0.50400001928E-02 0. -1.
       -1   -1    0    0    0  501  0.00000000000E+00  0.00000000000E+00 -0.13268390158E+04  0.13268390158E+04  0.50400001928E-02 0.  1.
    10030    2    1    2    0    0  0.00000000000E+00  0.00000000000E+00  0.50748401036E+03  0.31611620419E+04  0.31201611231E+04 0.  0.
        4    1    3    3  502    0  0.12272010644E+04  0.87433784333E+03 -0.15574812228E+03  0.15148426344E+04  0.12699999809E+01 0.  1.
       -4    1    3    3    0  502 -0.12272010644E+04 -0.87433784333E+03  0.66323213264E+03  0.16463194074E+04  0.12699999809E+01 0. -1.
</event>
<event>
 5   0  0.4134019E-07  0.3075539E+04  0.7818609E-02  0.8222483E-01
       -1   -1    0    0    0  501  0.00000000000E+00  0.00000000000E+00  0.11188210428E+04  0.11188210428E+04  0.50400001928E-02 0. -1.
        1   -1    0    0  501    0  0.00000000000E+00  0.00000000000E+00 -0.21135949696E+04  0.21135949696E+04  0.50400001928E-02 0.  1.
    10030    2    1    2    0    0  0.00000000000E+00  0.00000000000E+00 -0.99477392685E+03  0.32324160124E+04  0.30755386702E+04 0.  0.
        2    1    3    3  502    0 -0.12768354557E+04  0.89485392896E+02 -0.13931628951E+04  0.18918824670E+04  0.25500000920E-02 0.  1.
       -2    1    3    3    0  502  0.12768354557E+04 -0.89485392896E+02  0.39838896826E+03  0.13405335455E+04  0.25500000920E-02 0. -1.
</event>
<event>
 5   0  0.1200286E-06  0.3133037E+04  0.7818609E-02  0.8206729E-01
        2   -1    0    0  501    0  0.00000000000E+00  0.00000000000E+00  0.17164894396E+04  0.17164894396E+04  0.25500000920E-02 0. -1.
       -2   -1    0    0    0  501  0.00000000000E+00  0.00000000000E+00 -0.14296504798E+04  0.14296504798E+04  0.25500000920E-02 0.  1.
    10030    2    1    2    0    0  0.00000000000E+00  0.00000000000E+00  0.28683895977E+03  0.31461399194E+04  0.31330368341E+04 0.  0.
        5    1    3    3  502    0 -0.12013377077E+04  0.98912568481E+03  0.32410519166E+03  0.15895433852E+04  0.46999998093E+01 0.  1.
       -5    1    3    3    0  502  0.12013377077E+04 -0.98912568481E+03 -0.37266231897E+02  0.15565965342E+04  0.46999998093E+01 0. -1.
</event>
<event>
 5   0  0.3902375E-07  0.3087870E+04  0.7818609E-02  0.8219075E-01
        4   -1    0    0  501    0  0.00000000000E+00  0.00000000000E+00  0.13461260721E+04  0.13461266711E+04  0.12699999809E+01 0.  1.
       -4   -1    0    0    0  501  0.00000000000E+00  0.00000000000E+00 -0.17708101533E+04  0.17708106087E+04  0.12699999809E+01 0. -1.
    10030    2    1    2    0    0  0.00000000000E+00  0.00000000000E+00 -0.42468408126E+03  0.31169372799E+04  0.30878700487E+04 0.  0.
        1    1    3    3  502    0  0.32287965883E+02 -0.12568112544E+04 -0.11169466869E+04  0.16817214226E+04  0.50400001928E-02 0. -1.
       -1    1    3    3    0  502 -0.32287965883E+02  0.12568112544E+04  0.69226260561E+03  0.14352158573E+04  0.50400001928E-02 0.  1.
</event>
<event>
 5   0  0.3935852E-07  0.3085791E+04  0.7818609E-02  0.8219648E-01
        1   -1    0    0  501    0  0.00000000000E+00  0.00000000000E+00  0.19164098876E+04  0.19164098876E+04  0.50400001928E-02 0. -1.
       -1   -1    0    0    0  501  0.00000000000E+00  0.00000000000E+00 -0.12421803868E+04  0.12421803868E+04  0.50400001928E-02 0.  1.
    10030    2    1    2    0    0  0.00000000000E+00  0.00000000000E+00  0.67422950076E+03  0.31585902744E+04  0.30857911630E+04 0.  0.
        5    1    3    3  502    0  0.64641897164E+03 -0.51195241664E+03 -0.99770219404E+03  0.12943664558E+04  0.46999998093E+01 0.  1.
       -5    1    3    3    0  502 -0.64641897164E+03  0.51195241664E+03  0.16719316948E+04  0.18642238186E+04  0.46999998093E+01 0. -1.
</event>
<event>
 5   0  0.1176002E-06  0.3094895E+04  0.7818609E-02  0.8217140E-01
       -2   -1    0    0    0  501  0.00000000000E+00  0.00000000000E+00  0.11096013877E+04  0.11096013877E+04  0.25500000920E-02 0.  1.
        2   -1    0    0  501    0  0.00000000000E+00  0.00000000000E+00 -0.21580668692E+04  0.21580668692E+04  0.25500000920E-02 0. -1.
    10030    2    1    2    0    0  0.00000000000E+00  0.00000000000E+00 -0.10484654815E+04  0.32676682569E+04  0.30948951471E+04 0.  0.
        2    1    3    3  502    0 -0.17080940953E+03  0.36307082569E+03 -0.21021873179E+04  0.21401373317E+04  0.25500000920E-02 0. -1.
       -2    1    3    3    0  502  0.17080940953E+03 -0.36307082569E+03  0.10537218364E+04  0.11275309252E+04  0.25500000920E-02 0.  1.
</event>
<event>
 5   0  0.4219337E-07  0.3103356E+04  0.7818609E-02  0.8214818E-01
       -1   -1    0    0    0  501  0.00000000000E+00  0.00000000000E+00  0.11122870637E+04  0.11122870638E+04  0.50400001928E-02 0.  1.
        1   -1    0    0  501    0  0.00000000000E+00  0.00000000000E+00 -0.21646426623E+04  0.21646426623E+04  0.50400001928E-02 0. -1.
    10030    2    1    2    0    0  0.00000000000E+00  0.00000000000E+00 -0.10523555985E+04  0.32769297260E+04  0.31033556231E+04 0.  0.
        4    1    3    3  502    0 -0.61873135935E+03  0.65759450046E+03 -0.18586789246E+04  0.20663852447E+04  0.12699999809E+01 0. -1.
       -4    1    3    3    0  502  0.61873135935E+03 -0.65759450046E+03  0.80632332608E+03  0.12105444813E+04  0.12699999809E+01 0.  1.
</event>
<event>
 5   0  0.1193123E-06  0.3149063E+04  0.7818609E-02  0.8202401E-01
       -2   -1    0    0    0  501  0.00000000000E+00  0.00000000000E+00  0.25236872992E+04  0.25236872992E+04  0.25500000920E-02 0.  1.
        2   -1    0    0  501    0  0.00000000000E+00  0.00000000000E+00 -0.98235184747E+03  0.98235184747E+03  0.25500000920E-02 0. -1.
    10030    2    1    2    0    0  0.00000000000E+00  0.00000000000E+00  0.15413354518E+04  0.35060391467E+04  0.31490626420E+04 0.  0.
        3    1    3    3  502    0 -0.14762928989E+03  0.40312304235E+03 -0.91593291320E+03  0.10115511387E+04  0.10100000352E+00 0. -1.
       -3    1    3    3    0  502  0.14762928989E+03 -0.40312304235E+03  0.24572683650E+04  0.24944880080E+04  0.10100000352E+00 0.  1.
</event>
<event>
 5   0  0.4134019E-07  0.3106566E+04  0.7818609E-02  0.8213938E-01
       -1   -1    0    0    0  501  0.00000000000E+00  0.00000000000E+00  0.16099331121E+04  0.16099331121E+04  0.50400001928E-02 0. -1.
        1   -1    0    0  501    0  0.00000000000E+00  0.00000000000E+00 -0.14986258683E+04  0.14986258683E+04  0.50400001928E-02 0.  1.
    10030    2    1    2    0    0  0.00000000000E+00  0.00000000000E+00  0.11130724377E+03  0.31085589805E+04  0.31065655687E+04 0.  0.
        2    1    3    3  502    0 -0.29684125917E+03 -0.48773516551E+03  0.15011175270E+04  0.16060367849E+04  0.25500000920E-02 0. -1.
       -2    1    3    3    0  502  0.29684125917E+03  0.48773516551E+03 -0.13898102832E+04  0.15025221955E+04  0.25500000920E-02 0.  1.
</event>
<event>
 5   0  0.1176002E-06  0.3101126E+04  0.7818609E-02  0.8215429E-01
        2   -1    0    0  501    0  0.00000000000E+00  0.00000000000E+00  0.16716814525E+04  0.16716814525E+04  0.25500000920E-02 0.  1.
       -2   -1    0    0    0  501  0.00000000000E+00  0.00000000000E+00 -0.14382198065E+04  0.14382198065E+04  0.25500000920E-02 0. -1.
    10030    2    1    2    0    0  0.00000000000E+00  0.00000000000E+00  0.23346164596E+03  0.31099012590E+04  0.31011258440E+04 0.  0.
        2    1    3    3  502    0 -0.19046520250E+03  0.14073936603E+04  0.74075485428E+03  0.16017963861E+04  0.25500000920E-02 0.  1.
       -2    1    3    3    0  502  0.19046520250E+03 -0.14073936603E+04 -0.50729320832E+03  0.15081048729E+04  0.25500000920E-02 0. -1.
</event>
<event>
 5   0  0.4173905E-07  0.3097659E+04  0.7818609E-02  0.8216381E-01
        1   -1    0    0  501    0  0.00000000000E+00  0.00000000000E+00  0.23880088515E+04  0.23880088515E+04  0.50400001928E-02 0.  1.
       -1   -1    0    0    0  501  0.00000000000E+00  0.00000000000E+00 -0.10045496703E+04  0.10045496703E+04  0.50400001928E-02 0. -1.
    10030    2    1    2    0    0  0.00000000000E+00  0.00000000000E+00  0.13834591812E+04  0.33925585218E+04  0.30976594418E+04 0.  0.
        3    1    3    3  502    0  0.45497348147E+03 -0.10946009288E+04  0.17834866449E+04  0.21414893614E+04  0.10100000352E+00 0.  1.
       -3    1    3    3    0  502 -0.45497348147E+03  0.10946009288E+04 -0.40002746372E+03  0.12510691604E+04  0.10100000352E+00 0. -1.
</event>
<event>
 5   0  0.1176002E-06  0.3116734E+04  0.7818609E-02  0.8211160E-01
        2   -1    0    0  501    0  0.00000000000E+00  0.00000000000E+00  0.16388783543E+04  0.16388783543E+04  0.25500000920E-02 0. -1.
       -2   -1    0    0    0  501  0.00000000000E+00  0.00000000000E+00 -0.14818104033E+04  0.14818104033E+04  0.25500000920E-02 0.  1.
    10030    2    1    2    0    0  0.00000000000E+00  0.00000000000E+00  0.15706795106E+03  0.31206887576E+04  0.31167335434E+04 0.  0.
        2    1    3    3  502    0 -0.58657942063E+03  0.13054826911E+04 -0.53880868865E+03  0.15292727933E+04  0.25500000920E-02 0.  1.
       -2    1    3    3    0  502  0.58657942063E+03 -0.13054826911E+04  0.69587663971E+03  0.15914159642E+04  0.25500000920E-02 0. -1.
</event>
<event>
 5   0  0.3935852E-07  0.3072818E+04  0.7818609E-02  0.8223237E-01
       -1   -1    0    0    0  501  0.00000000000E+00  0.00000000000E+00  0.13493419097E+04  0.13493419098E+04  0.50400001928E-02 0. -1.
        1   -1    0    0  501    0  0.00000000000E+00  0.00000000000E+00 -0.17494106989E+04  0.17494106989E+04  0.50400001928E-02 0.  1.
    10030    2    1    2    0    0  0.00000000000E+00  0.00000000000E+00 -0.40006878911E+03  0.30987526086E+04  0.30728183632E+04 0.  0.
        5    1    3    3  502    0  0.29518834664E+03  0.10761794891E+03 -0.17166600303E+04  0.17451823780E+04  0.46999998093E+01 0.  1.
       -5    1    3    3    0  502 -0.29518834664E+03 -0.10761794891E+03  0.13165912412E+04  0.13535702306E+04  0.46999998093E+01 0. -1.
</event>
<event>
 5   0  0.4219337E-07  0.3124333E+04  0.7818609E-02  0.8209091E-01
       -1   -1    0    0    0  501  0.00000000000E+00  0.00000000000E+00  0.11766897881E+04  0.11766897881E+04  0.50400001928E-02 0.  1.
        1   -1    0    0  501    0  0.00000000000E+00  0.00000000000E+00 -0.20739231959E+04  0.20739231959E+04  0.50400001928E-02 0. -1.
    10030    2    1    2    0    0  0.00000000000E+00  0.00000000000E+00 -0.89723340778E+03  0.32506129840E+04  0.31243330462E+04 0.  0.
        4    1    3    3  502    0 -0.15116007596E+04 -0.28985917604E+03 -0.17059438659E+03  0.15485668394E+04  0.12699999809E+01 0. -1.
       -4    1    3    3    0  502  0.15116007596E+04  0.28985917604E+03 -0.72663902120E+03  0.17020461446E+04  0.12699999809E+01 0.  1.
</event>
<event>
 5   0  0.1193123E-06  0.3082637E+04  0.7818609E-02  0.8220519E-01
       -2   -1    0    0    0  501  0.00000000000E+00  0.00000000000E+00  0.16593724769E+04  0.16593724769E+04  0.25500000920E-02 0. -1.
        2   -1    0    0  501    0  0.00000000000E+00  0.00000000000E+00 -0.14316635268E+04  0.14316635268E+04  0.25500000920E-02 0.  1.
    10030    2    1    2    0    0  0.00000000000E+00  0.00000000000E+00  0.22770895004E+03  0.30910360037E+04  0.30826372168E+04 0.  0.
        3    1    3    3  502    0 -0.39386822102E+03 -0.47586575041E+03 -0.13021128257E+04  0.14412072054E+04  0.10100000352E+00 0.  1.
       -3    1    3    3    0  502  0.39386822102E+03  0.47586575041E+03  0.15298217757E+04  0.16498287983E+04  0.10100000352E+00 0. -1.
</event>
<event>
 5   0  0.4173905E-07  0.3102801E+04  0.7818609E-02  0.8214969E-01
       -1   -1    0    0    0  501  0.00000000000E+00  0.00000000000E+00  0.22113431330E+04  0.22113431330E+04  0.50400001928E-02 0.  1.
        1   -1    0    0  501    0  0.00000000000E+00  0.00000000000E+00 -0.10884083055E+04  0.10884083055E+04  0.50400001928E-02 0. -1.
    10030    2    1    2    0    0  0.00000000000E+00  0.00000000000E+00  0.11229348275E+04  0.32997514385E+04  0.31028014646E+04 0.  0.
        3    1    3    3  502    0  0.12305403313E+03 -0.13573301029E+04 -0.22676545070E+03  0.13816330494E+04  0.10100000352E+00 0. -1.
       -3    1    3    3    0  502 -0.12305403313E+03  0.13573301029E+04  0.13497002782E+04  0.19181183891E+04  0.10100000352E+00 0.  1.
</event>
<event>
 5   0  0.4134019E-07  0.3095615E+04  0.7818609E-02  0.8216942E-01
       -1   -1    0    0    0  501  0.00000000000E+00  0.00000000000E+00  0.89927970629E+03  0.89927970630E+03  0.50400001928E-02 0. -1.
        1   -1    0    0  501    0  0.00000000000E+00  0.00000000000E+00 -0.26640307340E+04  0.26640307340E+04  0.50400001928E-02 0.  1.
    10030    2    1    2    0    0  0.00000000000E+00  0.00000000000E+00 -0.17647510277E+04  0.35633104403E+04  0.30956154645E+04 0.  0.
        2    1    3    3  502    0  0.34291548867E+03 -0.76341386406E+03 -0.23811355810E+04  0.25239252000E+04  0.25500000920E-02 0.  1.
       -2    1    3    3    0  502 -0.34291548867E+03  0.76341386406E+03  0.61638455328E+03  0.10393852403E+04  0.25500000920E-02 0. -1.
</event>
<event>
 5   0  0.4134019E-07  0.3110659E+04  0.7818609E-02  0.8212819E-01
       -1   -1    0    0    0  501  0.00000000000E+00  0.00000000000E+00  0.10735913946E+04  0.10735913946E+04  0.50400001928E-02 0.  1.
        1   -1    0    0  501    0  0.00000000000E+00  0.00000000000E+00 -0.22532313125E+04  0.22532313125E+04  0.50400001928E-02 0. -1.
    10030    2    1    2    0    0  0.00000000000E+00  0.00000000000E+00 -0.11796399179E+04  0.33268227072E+04  0.31106589316E+04 0.  0.
        2    1    3    3  502    0  0.89056095596E+03 -0.10559587275E+03  0.76923397340E+03  0.11815118326E+04  0.25500000920E-02 0.  1.
       -2    1    3    3    0  502 -0.89056095596E+03  0.10559587275E+03 -0.19488738913E+04  0.21453108746E+04  0.25500000920E-02 0. -1.
</event>
<event>
 5   0  0.1237580E-06  0.3088654E+04  0.7818609E-02  0.8218859E-01
       -2   -1    0    0    0  501  0.00000000000E+00  0.00000000000E+00  0.14155331270E+04  0.14155331270E+04  0.25500000920E-02 0.  1.
        2   -1    0    0  501    0  0.00000000000E+00  0.00000000000E+00 -0.16848395900E+04  0.16848395900E+04  0.25500000920E-02 0. -1.
    10030    2    1    2    0    0  0.00000000000E+00  0.00000000000E+00 -0.26930646302E+03  0.31003727171E+04  0.30886542399E+04 0.  0.
        4    1    3    3  502    0 -0.12185878843E+04 -0.41044052253E+03 -0.99319164055E+03  0.16247612447E+04  0.12699999809E+01 0. -1.
       -4    1    3    3    0  502  0.12185878843E+04  0.41044052253E+03  0.72388517752E+03  0.14756114724E+04  0.12699999809E+01 0.  1.
</event>
<event>
 5   0  0.4330395E-07  0.3106732E+04  0.7818609E-02  0.8213893E-01
        1   -1    0    0  501    0  0.00000000000E+00  0.00000000000E+00  0.20530713134E+04  0.20530713134E+04  0.50400001928E-02 0.  1.
       -1   -1    0    0    0  501  0.00000000000E+00  0.00000000000E+00 -0.11752856051E+04  0.11752856051E+04  0.50400001928E-02 0. -1.
    10030    2    1    2    0    0  0.00000000000E+00  0.00000000000E+00  0.87778570836E+03  0.32283569185E+04  0.31067315049E+04 0.  0.
        1    1    3    3  502    0 -0.61397805302E+03 -0.37343815342E+03  0.18699485665E+04  0.20032804959E+04  0.50400001928E-02 0.  1.
       -1    1    3    3    0  502  0.61397805302E+03  0.37343815342E+03 -0.99216285814E+03  0.12250764226E+04  0.50400001928E-02 0. -1.
</event>
<event>
 5   0  0.4330395E-07  0.3098798E+04  0.7818609E-02  0.8216068E-01
       -1   -1    0    0    0  501  0.00000000000E+00  0.00000000000E+00  0.15181718984E+04  0.15181718984E+04  0.50400001928E-02 0.  1.
        1   -1    0    0  501    0  0.00000000000E+00  0.00000000000E+00 -0.15812688519E+04  0.15812688519E+04  0.50400001928E-02 0. -1.
    10030    2    1    2    0    0  0.00000000000E+00  0.00000000000E+00 -0.63096953513E+02  0.30994407502E+04  0.30987984347E+04 0.  0.
        1    1    3    3  502    0  0.26904539910E+03 -0.51365659302E+03 -0.14686515761E+04  0.15789762425E+04  0.50400001928E-02 0. -1.
       -1    1    3    3    0  502 -0.26904539910E+03  0.51365659302E+03  0.14055546226E+04  0.15204645078E+04  0.50400001928E-02 0.  1.
</event>
<event>
 5   0  0.1200286E-06  0.3076696E+04  0.7818609E-02  0.8222163E-01
       -2   -1    0    0    0  501  0.00000000000E+00  0.00000000000E+00  0.13261466143E+04  0.13261466143E+04  0.25500000920E-02 0.  1.
        2   -1    0    0  501    0  0.00000000000E+00  0.00000000000E+00 -0.17845041418E+04  0.17845041418E+04  0.25500000920E-02 0. -1.
    10030    2    1    2    0    0  0.00000000000E+00  0.00000000000E+00 -0.45835752753E+03  0.31106507561E+04  0.30766957118E+04 0.  0.
        5    1    3    3  502    0  0.96432718761E+03  0.35460980627E+03  0.92836585346E+03  0.13847600107E+04  0.46999998093E+01 0.  1.
       -5    1    3    3    0  502 -0.96432718761E+03 -0.35460980627E+03 -0.13867233810E+04  0.17258907453E+04  0.46999998093E+01 0. -1.
</event>
<event>
 5   0  0.1258262E-06  0.3097132E+04  0.7818609E-02  0.8216526E-01
       -2   -1    0    0    0  501  0.00000000000E+00  0.00000000000E+00  0.18109226480E+04  0.18109226480E+04  0.25500000920E-02 0. -1.
        2   -1    0    0  501    0  0.00000000000E+00  0.00000000000E+00 -0.13242179191E+04  0.13242179191E+04  0.25500000920E-02 0.  1.
    10030    2    1    2    0    0  0.00000000000E+00  0.00000000000E+00  0.48670472892E+03  0.31351405671E+04  0.30971317186E+04 0.  0.
        1    1    3    3  502    0 -0.18991322453E+01  0.15216588850E+04  0.53429366569E+03  0.16127365222E+04  0.50400001928E-02 0. -1.
       -1    1    3    3    0  502  0.18991322453E+01 -0.15216588850E+04 -0.47588936774E+02  0.15224040449E+04  0.50400001928E-02 0.  1.
</event>
<event>
 5   0  0.1258262E-06  0.2984206E+04  0.7818609E-02  0.8248255E-01
        2   -1    0    0  501    0  0.00000000000E+00  0.00000000000E+00  0.15814750703E+04  0.15814750703E+04  0.25500000920E-02 0. -1.
       -2   -1    0    0    0  501  0.00000000000E+00  0.00000000000E+00 -0.14077815984E+04  0.14077815984E+04  0.25500000920E-02 0.  1.
    10030    2    1    2    0    0  0.00000000000E+00  0.00000000000E+00  0.17369347191E+03  0.29892566687E+04  0.29842060936E+04 0.  0.
        1    1    3    3  502    0  0.63826338588E+03 -0.61991900907E+03  0.12866601087E+04  0.15643445794E+04  0.50400001928E-02 0. -1.
       -1    1    3    3    0  502 -0.63826338588E+03  0.61991900907E+03 -0.11129666368E+04  0.14249120893E+04  0.50400001928E-02 0.  1.
</event>
<event>
 5   0  0.4173905E-07  0.3036829E+04  0.7818609E-02  0.8233292E-01
        1   -1    0    0  501    0  0.00000000000E+00  0.00000000000E+00  0.24996864434E+04  0.24996864434E+04  0.50400001928E-02 0. -1.
       -1   -1    0    0    0  501  0.00000000000E+00  0.00000000000E+00 -0.92234854564E+03  0.92234854566E+03  0.50400001928E-02 0.  1.
    10030    2    1    2    0    0  0.00000000000E+00  0.00000000000E+00  0.15773378977E+04  0.34220349890E+04  0.30368287114E+04 0.  0.
        3    1    3    3  502    0 -0.13664093751E+04 -0.50855912836E+03  0.31075493312E+03  0.14907298904E+04  0.10100000352E+00 0.  1.
       -3    1    3    3    0  502  0.13664093751E+04  0.50855912836E+03  0.12665829646E+04  0.19313050986E+04  0.10100000352E+00 0. -1.
</event>
<event>
 5   0  0.1200286E-06  0.3094301E+04  0.7818609E-02  0.8217304E-01
        2   -1    0    0  501    0  0.00000000000E+00  0.00000000000E+00  0.28283559589E+04  0.28283559589E+04  0.25500000920E-02 0. -1.
       -2   -1    0    0    0  501  0.00000000000E+00  0.00000000000E+00 -0.84631320051E+03  0.84631320051E+03  0.25500000920E-02 0.  1.
    10030    2    1    2    0    0  0.00000000000E+00  0.00000000000E+00  0.19820427584E+04  0.36746691594E+04  0.30943012030E+04 0.  0.
        5    1    3    3  502    0 -0.62365503615E+03  0.48037249494E+03 -0.59068654824E+03  0.98419308384E+03  0.46999998093E+01 0.  1.
       -5    1    3    3    0  502  0.62365503615E+03 -0.48037249494E+03  0.25727293066E+04  0.26904760756E+04  0.46999998093E+01 0. -1.
</event>
<event>
 5   0  0.1176002E-06  0.3099296E+04  0.7818609E-02  0.8215931E-01
       -2   -1    0    0    0  501  0.00000000000E+00  0.00000000000E+00  0.10264661116E+04  0.10264661116E+04  0.25500000920E-02 0.  1.
        2   -1    0    0  501    0  0.00000000000E+00  0.00000000000E+00 -0.23394911351E+04  0.23394911351E+04  0.25500000920E-02 0. -1.
    10030    2    1    2    0    0  0.00000000000E+00  0.00000000000E+00 -0.13130250235E+04  0.33659572467E+04  0.30992956417E+04 0.  0.
        2    1    3    3  502    0  0.97738400329E+03  0.10739598251E+04 -0.68906797483E+02  0.14537597266E+04  0.25500000920E-02 0.  1.
       -2    1    3    3    0  502 -0.97738400329E+03 -0.10739598251E+04 -0.12441182260E+04  0.19121975202E+04  0.25500000920E-02 0. -1.
</event>
<event>
 5   0  0.3935852E-07  0.3104158E+04  0.7818609E-02  0.8214598E-01
       -1   -1    0    0    0  501  0.00000000000E+00  0.00000000000E+00  0.19211720236E+04  0.19211720236E+04  0.50400001928E-02 0. -1.
        1   -1    0    0  501    0  0.00000000000E+00  0.00000000000E+00 -0.12538954204E+04  0.12538954204E+04  0.50400001928E-02 0.  1.
    10030    2    1    2    0    0  0.00000000000E+00  0.00000000000E+00  0.66727660321E+03  0.31750674440E+04  0.31041577293E+04 0.  0.
        5    1    3    3  502    0  0.62999495248E+03  0.96259099239E+03 -0.73201127446E+03  0.13635753205E+04  0.46999998093E+01 0.  1.
       -5    1    3    3    0  502 -0.62999495248E+03 -0.96259099239E+03  0.13992878777E+04  0.18114921235E+04  0.46999998093E+01 0. -1.
</event>
<event>
 5   0  0.1258262E-06  0.3098461E+04  0.7818609E-02  0.8216160E-01
       -2   -1    0    0    0  501  0.00000000000E+00  0.00000000000E+00  0.12056707974E+04  0.12056707974E+04  0.25500000920E-02 0.  1.
        2   -1    0    0  501    0  0.00000000000E+00  0.00000000000E+00 -0.19906886350E+04  0.19906886350E+04  0.25500000920E-02 0. -1.
    10030    2    1    2    0    0  0.00000000000E+00  0.00000000000E+00 -0.78501783764E+03  0.31963594324E+04  0.30984610076E+04 0.  0.
        1    1    3    3  502    0  0.87901387609E+03 -0.34871110529E+03  0.87339422475E+03  0.12872770879E+04  0.50400001928E-02 0.  1.
       -1    1    3    3    0  502 -0.87901387609E+03  0.34871110529E+03 -0.16584120624E+04  0.19090823445E+04  0.50400001928E-02 0. -1.
</event>
<event>
 5   0  0.1237580E-06  0.3097411E+04  0.7818609E-02  0.8216449E-01
       -2   -1    0    0    0  501  0.00000000000E+00  0.00000000000E+00  0.13150108466E+04  0.13150108466E+04  0.25500000920E-02 0. -1.
        2   -1    0    0  501    0  0.00000000000E+00  0.00000000000E+00 -0.18239304941E+04  0.18239304941E+04  0.25500000920E-02 0.  1.
    10030    2    1    2    0    0  0.00000000000E+00  0.00000000000E+00 -0.50891964746E+03  0.31389413408E+04  0.30974107789E+04 0.  0.
        4    1    3    3  502    0  0.18078827449E+03 -0.17212905739E+03 -0.18034083426E+04  0.18206032175E+04  0.12699999809E+01 0.  1.
       -4    1    3    3    0  502 -0.18078827449E+03  0.17212905739E+03  0.12944886951E+04  0.13183381233E+04  0.12699999809E+01 0. -1.
</event>
<event>
 5   0  0.1258262E-06  0.3054080E+04  0.7818609E-02  0.8228454E-01
        2   -1    0    0  501    0  0.00000000000E+00  0.00000000000E+00  0.10676063439E+04  0.10676063439E+04  0.25500000920E-02 0.  1.
       -2   -1    0    0    0  501  0.00000000000E+00  0.00000000000E+00 -0.21841859818E+04  0.21841859819E+04  0.25500000920E-02 0. -1.
    10030    2    1    2    0    0  0.00000000000E+00  0.00000000000E+00 -0.11165796379E+04  0.32517923258E+04  0.30540797701E+04 0.  0.
        1    1    3    3  502    0  0.33835148998E+03 -0.14859816166E+04 -0.45601010381E+03  0.15907760089E+04  0.50400001928E-02 0. -1.
       -1    1    3    3    0  502 -0.33835148998E+03  0.14859816166E+04 -0.66056953411E+03  0.16610163169E+04  0.50400001928E-02 0.  1.
</event>
<event>
 5   0  0.1176002E-06  0.3164414E+04  0.7818609E-02  0.8198279E-01
        2   -1    0    0  501    0  0.00000000000E+00  0.00000000000E+00  0.17202707265E+04  0.17202707265E+04  0.25500000920E-02 0. -1.
       -2   -1    0    0    0  501  0.00000000000E+00  0.00000000000E+00 -0.14552239072E+04  0.14552239072E+04  0.25500000920E-02 0.  1.
    10030    2    1    2    0    0  0.00000000000E+00  0.00000000000E+00  0.26504681930E+03  0.31754946336E+04  0.31644140614E+04 0.  0.
        2    1    3    3  502    0 -0.88512992344E+02 -0.15497744527E+03 -0.14450904601E+04  0.14560697086E+04  0.25500000920E-02 0.  1.
       -2    1    3    3    0  502  0.88512992344E+02  0.15497744527E+03  0.17101372794E+04  0.17194249250E+04  0.25500000920E-02 0. -1.
</event>
<event>
 5   0  0.4134019E-07  0.3102170E+04  0.7818609E-02  0.8215143E-01
       -1   -1    0    0    0  501  0.00000000000E+00  0.00000000000E+00  0.18186614456E+04  0.18186614456E+04  0.50400001928E-02 0. -1.
        1   -1    0    0  501    0  0.00000000000E+00  0.00000000000E+00 -0.13228763288E+04  0.13228763288E+04  0.50400001928E-02 0.  1.
    10030    2    1    2    0    0  0.00000000000E+00  0.00000000000E+00  0.49578511679E+03  0.31415377744E+04  0.31021696771E+04 0.  0.
        2    1    3    3  502    0  0.39997959710E+03  0.11411695900E+03  0.17611306759E+04  0.18095821661E+04  0.25500000920E-02 0. -1.
       -2    1    3    3    0  502 -0.39997959710E+03 -0.11411695900E+03 -0.12653455591E+04  0.13319556082E+04  0.25500000920E-02 0.  1.
</event>
<event>
 5   0  0.4134019E-07  0.3096018E+04  0.7818609E-02  0.8216832E-01
       -1   -1    0    0    0  501  0.00000000000E+00  0.00000000000E+00  0.10428561101E+04  0.10428561101E+04  0.50400001928E-02 0. -1.
        1   -1    0    0  501    0  0.00000000000E+00  0.00000000000E+00 -0.22978545567E+04  0.22978545567E+04  0.50400001928E-02 0.  1.
    10030    2    1    2    0    0  0.00000000000E+00  0.00000000000E+00 -0.12549984466E+04  0.33407106668E+04  0.30960178712E+04 0.  0.
        2    1    3    3  502    0 -0.73445401665E+03 -0.71862392372E+03 -0.18767998859E+04  0.21396777463E+04  0.25500000920E-02 0.  1.
       -2    1    3    3    0  502  0.73445401665E+03  0.71862392372E+03  0.62180143930E+03  0.12010329205E+04  0.25500000920E-02 0. -1.
</event>
<event>
 5   0  0.1258262E-06  0.3110674E+04  0.7818609E-02  0.8212815E-01
       -2   -1    0    0    0  501  0.00000000000E+00  0.00000000000E+00  0.10938115203E+04  0.10938115203E+04  0.25500000920E-02 0. -1.
        2   -1    0    0  501    0  0.00000000000E+00  0.00000000000E+00 -0.22115994146E+04  0.22115994146E+04  0.25500000920E-02 0.  1.
    10030    2    1    2    0    0  0.00000000000E+00  0.00000000000E+00 -0.11177878943E+04  0.33054109349E+04  0.31106738292E+04 0.  0.
        1    1    3    3  502    0 -0.38446292854E+03 -0.13289760758E+04  0.19628989361E+03  0.13973256155E+04  0.50400001928E-02 0.  1.
       -1    1    3    3    0  502  0.38446292854E+03  0.13289760758E+04 -0.13140777879E+04  0.19080853194E+04  0.50400001928E-02 0. -1.
</event>
<event>
 5   0  0.4173905E-07  0.2987019E+04  0.7818609E-02  0.8247447E-01
        1   -1    0    0  501    0  0.00000000000E+00  0.00000000000E+00  0.13720007886E+04  0.13720007886E+04  0.50400001928E-02 0. -1.
       -1   -1    0    0    0  501  0.00000000000E+00  0.00000000000E+00 -0.16257795087E+04  0.16257795087E+04  0.50400001928E-02 0.  1.
    10030    2    1    2    0    0  0.00000000000E+00  0.00000000000E+00 -0.25377872010E+03  0.29977802972E+04  0.29870190946E+04 0.  0.
        3    1    3    3  502    0 -0.18775193095E+03 -0.14745876893E+04  0.18238373698E+02  0.14866042814E+04  0.10100000352E+00 0.  1.
       -3    1    3    3    0  502  0.18775193095E+03  0.14745876893E+04 -0.27201709380E+03  0.15111760158E+04  0.10100000352E+00 0. -1.
</event>
<event>
 5   0  0.3935852E-07  0.3098310E+04  0.7818609E-02  0.8216202E-01
        1   -1    0    0  501    0  0.00000000000E+00  0.00000000000E+00  0.24201408512E+04  0.24201408512E+04  0.50400001928E-02 0. -1.
       -1   -1    0    0    0  501  0.00000000000E+00  0.00000000000E+00 -0.99162881096E+03  0.99162881097E+03  0.50400001928E-02 0.  1.
    10030    2    1    2    0    0  0.00000000000E+00  0.00000000000E+00  0.14285120402E+04  0.34117696622E+04  0.30983101166E+04 0.  0.
        5    1    3    3  502    0  0.14077591417E+04  0.62156598681E+03  0.51810771109E+03  0.16237572994E+04  0.46999998093E+01 0. -1.
       -5    1    3    3    0  502 -0.14077591417E+04 -0.62156598681E+03  0.91040432916E+03  0.17880123628E+04  0.46999998093E+01 0.  1.
</event>
<event>
 5   0  0.1193123E-06  0.3152957E+04  0.7818609E-02  0.8201353E-01
        2   -1    0    0  501    0  0.00000000000E+00  0.00000000000E+00  0.16297505136E+04  0.16297505136E+04  0.25500000920E-02 0.  1.
       -2   -1    0    0    0  501  0.00000000000E+00  0.00000000000E+00 -0.15249479124E+04  0.15249479124E+04  0.25500000920E-02 0. -1.
    10030    2    1    2    0    0  0.00000000000E+00  0.00000000000E+00  0.10480260114E+03  0.31546984260E+04  0.31529571158E+04 0.  0.
        3    1    3    3  502    0 -0.13050000766E+04  0.24211642980E+03 -0.79873828193E+03  0.15490734065E+04  0.10100000352E+00 0. -1.
       -3    1    3    3    0  502  0.13050000766E+04 -0.24211642980E+03  0.90354088308E+03  0.16056250195E+04  0.10100000352E+00 0.  1.
</event>
<event>
 5   0  0.4219337E-07  0.3087309E+04  0.7818609E-02  0.8219229E-01
        1   -1    0    0  501    0  0.00000000000E+00  0.00000000000E+00  0.23200210347E+04  0.23200210347E+04  0.50400001928E-02 0.  1.
       -1   -1    0    0    0  501  0.00000000000E+00  0.00000000000E+00 -0.10270895984E+04  0.10270895985E+04  0.50400001928E-02 0. -1.
    10030    2    1    2    0    0  0.00000000000E+00  0.00000000000E+00  0.12929314362E+04  0.33471106331E+04  0.30873091668E+04 0.  0.
        4    1    3    3  502    0  0.79386826285E+03  0.11388300464E+04  0.13783339132E+04  0.19562634491E+04  0.12699999809E+01 0.  1.
       -4    1    3    3    0  502 -0.79386826285E+03 -0.11388300464E+04 -0.85402476938E+02  0.13908471840E+04  0.12699999809E+01 0. -1.
</event>
<event>
 5   0  0.1176002E-06  0.3090178E+04  0.7818609E-02  0.8218439E-01
       -2   -1    0    0    0  501  0.00000000000E+00  0.00000000000E+00  0.11431292977E+04  0.11431292977E+04  0.25500000920E-02 0. -1.
        2   -1    0    0  501    0  0.00000000000E+00  0.00000000000E+00 -0.20883904076E+04  0.20883904076E+04  0.25500000920E-02 0.  1.
    10030    2    1    2    0    0  0.00000000000E+00  0.00000000000E+00 -0.94526110991E+03  0.32315197052E+04  0.30901781566E+04 0.  0.
        2    1    3    3  502    0  0.63907558105E+03 -0.43398066111E+03 -0.18719463038E+04  0.20250777211E+04  0.25500000920E-02 0.  1.
       -2    1    3    3    0  502 -0.63907558105E+03  0.43398066111E+03  0.92668519385E+03  0.12064419841E+04  0.25500000920E-02 0. -1.
</event>
<event>
 5   0  0.4330395E-07  0.3101270E+04  0.7818609E-02  0.8215389E-01
        1   -1    0    0  501    0  0.00000000000E+00  0.00000000000E+00  0.29912592771E+04  0.29912592771E+04  0.50400001928E-02 0.  1.
       -1   -1    0    0    0  501  0.00000000000E+00  0.00000000000E+00 -0.80383191549E+03  0.80383191551E+03  0.50400001928E-02 0. -1.
    10030    2    1    2    0    0  0.00000000000E+00  0.00000000000E+00  0.21874273616E+04  0.37950911926E+04  0.31012704974E+04 0.  0.
        1    1    3    3  502    0  0.45061060579E+03  0.13779305564E+03 -0.71409726423E+03  0.85555347409E+03  0.50400001928E-02 0. -1.
       -1    1    3    3    0  502 -0.45061060579E+03 -0.13779305564E+03  0.29015246258E+04  0.29395377185E+04  0.50400001928E-02 0.  1.
</event>
<event>
 5   0  0.4330395E-07  0.3100384E+04  0.7818609E-02  0.8215632E-01
        1   -1    0    0  501    0  0.00000000000E+00  0.00000000000E+00  0.22916185529E+04  0.22916185529E+04  0.50400001928E-02 0. -1.
       -1   -1    0    0    0  501  0.00000000000E+00  0.00000000000E+00 -0.10486454749E+04  0.10486454749E+04  0.50400001928E-02 0.  1.
    10030    2    1    2    0    0  0.00000000000E+00  0.00000000000E+00  0.12429730780E+04  0.33402640278E+04  0.31003841218E+04 0.  0.
        1    1    3    3  502    0 -0.10926033532E+04 -0.98874209849E+03  0.11400842068E+04  0.18631116508E+04  0.50400001928E-02 0. -1.
       -1    1    3    3    0  502  0.10926033532E+04  0.98874209849E+03  0.10288887119E+03  0.14771523769E+04  0.50400001928E-02 0.  1.
</event>
<event>
 5   0  0.1200286E-06  0.3126279E+04  0.7818609E-02  0.8208563E-01
       -2   -1    0    0    0  501  0.00000000000E+00  0.00000000000E+00  0.98682662604E+03  0.98682662604E+03  0.25500000920E-02 0. -1.
        2   -1    0    0  501    0  0.00000000000E+00  0.00000000000E+00 -0.24760233597E+04  0.24760233597E+04  0.25500000920E-02 0.  1.
    10030    2    1    2    0    0  0.00000000000E+00  0.00000000000E+00 -0.14891967337E+04  0.34628499857E+04  0.31262794360E+04 0.  0.
        5    1    3    3  502    0  0.15144930389E+04  0.38407841000E+03 -0.79629527175E+03  0.17536572184E+04  0.46999998093E+01 0. -1.
       -5    1    3    3    0  502 -0.15144930389E+04 -0.38407841000E+03 -0.69290146190E+03  0.17091927673E+04  0.46999998093E+01 0.  1.
</event>
<event>
 5   0  0.4173905E-07  0.3090088E+04  0.7818609E-02  0.8218463E-01
        1   -1    0    0  501    0  0.00000000000E+00  0.00000000000E+00  0.12728748996E+04  0.12728748996E+04  0.50400001928E-02 0. -1.
       -1   -1    0    0    0  501  0.00000000000E+00  0.00000000000E+00 -0.18754095208E+04  0.18754095208E+04  0.50400001928E-02 0.  1.
    10030    2    1    2    0    0  0.00000000000E+00  0.00000000000E+00 -0.60253462125E+03  0.31482844204E+04  0.30900884813E+04 0.  0.
        3    1    3    3  502    0  0.15135114443E+04 -0.87116852416E+02 -0.60496752476E+03  0.16322658957E+04  0.10100000352E+00 0.  1.
       -3    1    3    3    0  502 -0.15135114443E+04  0.87116852416E+02  0.24329035071E+01  0.15160185247E+04  0.10100000352E+00 0. -1.
</event>
<event>
 5   0  0.3935852E-07  0.3095367E+04  0.7818609E-02  0.8217011E-01
        1   -1    0    0  501    0  0.00000000000E+00  0.00000000000E+00  0.85185083896E+03  0.85185083897E+03  0.50400001928E-02 0. -1.
       -1   -1    0    0    0  501  0.00000000000E+00  0.00000000000E+00 -0.28119056474E+04  0.28119056474E+04  0.50400001928E-02 0.  1.
    10030    2    1    2    0    0  0.00000000000E+00  0.00000000000E+00 -0.19600548085E+04  0.36637564864E+04  0.30953669798E+04 0.  0.
        5    1    3    3  502    0 -0.54461943662E+03 -0.66096583364E+03 -0.25058565766E+04  0.26481739816E+04  0.46999998093E+01 0.  1.
       -5    1    3    3    0  502  0.54461943662E+03  0.66096583364E+03  0.54580176817E+03  0.10155825048E+04  0.46999998093E+01 0. -1.
</event>
<event>
 5   0  0.1176002E-06  0.3131726E+04  0.7818609E-02  0.8207085E-01
        2   -1    0    0  501    0  0.00000000000E+00  0.00000000000E+00  0.20565030403E+04  0.20565030403E+04  0.25500000920E-02 0. -1.
       -2   -1    0    0    0  501  0.00000000000E+00  0.00000000000E+00 -0.11922796753E+04  0.11922796753E+04  0.25500000920E-02 0.  1.
    10030    2    1    2    0    0  0.00000000000E+00  0.00000000000E+00  0.86422336505E+03  0.32487827156E+04  0.31317258993E+04 0.  0.
        2    1    3    3  502    0 -0.13058511604E+04 -0.85037450721E+03  0.59128316208E+03  0.16667332821E+04  0.25500000920E-02 0.  1.
       -2    1    3    3    0  502  0.13058511604E+04  0.85037450721E+03  0.27294020297E+03  0.15820494335E+04  0.25500000920E-02 0. -1.
</event>
<event>
 5   0  0.1237580E-06  0.2971879E+04  0.7818609E-02  0.8251807E-01
        2   -1    0    0  501    0  0.00000000000E+00  0.00000000000E+00  0.19783191077E+04  0.19783191077E+04  0.25500000920E-02 0. -1.
       -2   -1    0    0    0  501  0.00000000000E+00  0.00000000000E+00 -0.11161070258E+04  0.11161070258E+04  0.25500000920E-02 0.  1.
    10030    2    1    2    0    0  0.00000000000E+00  0.00000000000E+00  0.86221208193E+03  0.30944261335E+04  0.29718787697E+04 0.  0.
        4    1    3    3  502    0  0.25780138220E+03 -0.90923314222E+03  0.16250577730E+04  0.18798885174E+04  0.12699999809E+01 0. -1.
       -4    1    3    3    0  502 -0.25780138220E+03  0.90923314222E+03 -0.76284569107E+03  0.12145376161E+04  0.12699999809E+01 0.  1.
</event>
<event>
 5   0  0.4173905E-07  0.3110047E+04  0.7818609E-02  0.8212986E-01
        1   -1    0    0  501    0  0.00000000000E+00  0.00000000000E+00  0.12273748911E+04  0.12273748911E+04  0.50400001928E-02 0.  1.
       -1   -1    0    0    0  501  0.00000000000E+00  0.00000000000E+00 -0.19701387526E+04  0.19701387526E+04  0.50400001928E-02 0. -1.
    10030    2    1    2    0    0  0.00000000000E+00  0.00000000000E+00 -0.74276386146E+03  0.31975136437E+04  0.31100474832E+04 0.  0.
        3    1    3    3  502    0 -0.50511449977E+03 -0.54569074812E+03 -0.17755068129E+04  0.19249268826E+04  0.10100000352E+00 0. -1.
       -3    1    3    3    0  502  0.50511449977E+03  0.54569074812E+03  0.10327429515E+04  0.12725867611E+04  0.10100000352E+00 0.  1.
</event>
<event>
 5   0  0.1176002E-06  0.3078723E+04  0.7818609E-02  0.8221602E-01
       -2   -1    0    0    0  501  0.00000000000E+00  0.00000000000E+00  0.87262242660E+03  0.87262242660E+03  0.25500000920E-02 0.  1.
        2   -1    0    0  501    0  0.00000000000E+00  0.00000000000E+00 -0.27155314300E+04  0.27155314300E+04  0.25500000920E-02 0. -1.
    10030    2    1    2    0    0  0.00000000000E+00  0.00000000000E+00 -0.18429090034E+04  0.35881538566E+04  0.30787228690E+04 0.  0.
        2    1    3    3  502    0 -0.66318051232E+03  0.25192620388E+03  0.67074683665E+03  0.97630759651E+03  0.25500000920E-02 0.  1.
       -2    1    3    3    0  502  0.66318051232E+03 -0.25192620388E+03 -0.25136558401E+04  0.26118462601E+04  0.25500000920E-02 0. -1.
</event>
<event>
 5   0  0.1237580E-06  0.2888619E+04  0.7818609E-02  0.8276272E-01
       -2   -1    0    0    0  501  0.00000000000E+00  0.00000000000E+00  0.88611861465E+03  0.88611861466E+03  0.25500000920E-02 0.  1.
        2   -1    0    0  501    0  0.00000000000E+00  0.00000000000E+00 -0.23541208013E+04  0.23541208013E+04  0.25500000920E-02 0. -1.
    10030    2    1    2    0    0  0.00000000000E+00  0.00000000000E+00 -0.14680021866E+04  0.32402394159E+04  0.28886192294E+04 0.  0.
        4    1    3    3  502    0 -0.50302142836E+03 -0.10428261391E+04  0.23453106470E+03  0.11813227108E+04  0.12699999809E+01 0.  1.
       -4    1    3    3    0  502  0.50302142836E+03  0.10428261391E+04 -0.17025332513E+04  0.20589167051E+04  0.12699999809E+01 0. -1.
</event>
<event>
 5   0  0.1193123E-06  0.3096548E+04  0.7818609E-02  0.8216686E-01
       -2   -1    0    0    0  501  0.00000000000E+00  0.00000000000E+00  0.10579859457E+04  0.10579859457E+04  0.25500000920E-02 0. -1.
        2   -1    0    0  501    0  0.00000000000E+00  0.00000000000E+00 -0.22657700855E+04  0.22657700855E+04  0.25500000920E-02 0.  1.
    10030    2    1    2    0    0  0.00000000000E+00  0.00000000000E+00 -0.12077841398E+04  0.33237560311E+04  0.30965483407E+04 0.  0.
        3    1    3    3  502    0 -0.13179712520E+04 -0.68382403351E+03 -0.10748202135E+04  0.18330035547E+04  0.10100000352E+00 0.  1.
       -3    1    3    3    0  502  0.13179712520E+04  0.68382403351E+03 -0.13296392628E+03  0.14907524764E+04  0.10100000352E+00 0. -1.
</event>
<event>
 5   0  0.3935852E-07  0.3131014E+04  0.7818609E-02  0.8207278E-01
        1   -1    0    0  501    0  0.00000000000E+00  0.00000000000E+00  0.16168541636E+04  0.16168541636E+04  0.50400001928E-02 0.  1.
       -1   -1    0    0    0  501  0.00000000000E+00  0.00000000000E+00 -0.15157904710E+04  0.15157904710E+04  0.50400001928E-02 0. -1.
    10030    2    1    2    0    0  0.00000000000E+00  0.00000000000E+00  0.10106369260E+03  0.31326446345E+04  0.31310139789E+04 0.  0.
        5    1    3    3  502    0 -0.80758572524E+03 -0.11464623013E+04  0.74675309976E+03  0.15887834321E+04  0.46999998093E+01 0.  1.
       -5    1    3    3    0  502  0.80758572524E+03  0.11464623013E+04 -0.64568940716E+03  0.15438612025E+04  0.46999998093E+01 0. -1.
</event>
<event>
 5   0  0.1176002E-06  0.3098710E+04  0.7818609E-02  0.8216092E-01
        2   -1    0    0  501    0  0.00000000000E+00  0.00000000000E+00  0.13616436711E+04  0.13616436711E+04  0.25500000920E-02 0.  1.
       -2   -1    0    0    0  501  0.00000000000E+00  0.00000000000E+00 -0.17629439265E+04  0.17629439265E+04  0.25500000920E-02 0. -1.
    10030    2    1    2    0    0  0.00000000000E+00  0.00000000000E+00 -0.40130025538E+03  0.31245875976E+04  0.30987103382E+04 0.  0.
        2    1    3    3  502    0 -0.60365989404E+03 -0.53897711137E+03  0.11315947863E+04  0.13911895466E+04  0.25500000920E-02 0.  1.
       -2    1    3    3    0  502  0.60365989404E+03  0.53897711137E+03 -0.15328950417E+04  0.17333980509E+04  0.25500000920E-02 0. -1.
</event>
<event>
 5   0  0.3902375E-07  0.3117339E+04  0.7818609E-02  0.8210996E-01
        3   -1    0    0  501    0  0.00000000000E+00  0.00000000000E+00  0.14514825599E+04  0.14514825634E+04  0.10100000352E+00 0. -1.
       -3   -1    0    0    0  501  0.00000000000E+00  0.00000000000E+00 -0.16737714328E+04  0.16737714358E+04  0.10100000352E+00 0.  1.
    10030    2    1    2    0    0  0.00000000000E+00  0.00000000000E+00 -0.22228887291E+03  0.31252539992E+04  0.31173386432E+04 0.  0.
        4    1    3    3  502    0 -0.13860685559E+04  0.68597519162E+03 -0.30580345188E+03  0.15764724448E+04  0.12699999809E+01 0. -1.
       -4    1    3    3    0  502  0.13860685559E+04 -0.68597519162E+03  0.83514578964E+02  0.15487815543E+04  0.12699999809E+01 0.  1.
</event>
<event>
 5   0  0.4219337E-07  0.3094802E+04  0.7818609E-02  0.8217166E-01
       -1   -1    0    0    0  501  0.00000000000E+00  0.00000000000E+00  0.14029079129E+04  0.14029079129E+04  0.50400001928E-02 0.  1.
        1   -1    0    0  501    0  0.00000000000E+00  0.00000000000E+00 -0.17067764183E+04  0.17067764184E+04  0.50400001928E-02 0. -1.
    10030    2    1    2    0    0  0.00000000000E+00  0.00000000000E+00 -0.30386850547E+03  0.31096843312E+04  0.30948021861E+04 0.  0.
        4    1    3    3  502    0  0.57087953893E+03  0.10037890860E+04 -0.11869129037E+04  0.16559770019E+04  0.12699999809E+01 0. -1.
       -4    1    3    3    0  502 -0.57087953893E+03 -0.10037890860E+04  0.88304439823E+03  0.14537073293E+04  0.12699999809E+01 0.  1.
</event>
<event>
 5   0  0.1176002E-06  0.3114257E+04  0.7818609E-02  0.8211836E-01
       -2   -1    0    0    0  501  0.00000000000E+00  0.00000000000E+00  0.11237075801E+04  0.11237075801E+04  0.25500000920E-02 0. -1.
        2   -1    0    0  501    0  0.00000000000E+00  0.00000000000E+00 -0.21577223569E+04  0.21577223569E+04  0.25500000920E-02 0.  1.
    10030    2    1    2    0    0  0.00000000000E+00  0.00000000000E+00 -0.10340147768E+04  0.32814299369E+04  0.31142568732E+04 0.  0.
        2    1    3    3  502    0 -0.25713104118E+03 -0.23562488343E+03  0.10820238462E+04  0.11368425845E+04  0.25500000920E-02 0. -1.
       -2    1    3    3    0  502  0.25713104118E+03  0.23562488343E+03 -0.21160386231E+04  0.21445873525E+04  0.25500000920E-02 0.  1.
</event>
<event>
 5   0  0.3935852E-07  0.3116457E+04  0.7818609E-02  0.8211236E-01
        1   -1    0    0  501    0  0.00000000000E+00  0.00000000000E+00  0.13681880401E+04  0.13681880401E+04  0.50400001928E-02 0.  1.
       -1   -1    0    0    0  501  0.00000000000E+00  0.00000000000E+00 -0.17746649481E+04  0.17746649481E+04  0.50400001928E-02 0. -1.
    10030    2    1    2    0    0  0.00000000000E+00  0.00000000000E+00 -0.40647690806E+03  0.31428529882E+04  0.31164565501E+04 0.  0.
        5    1    3    3  502    0 -0.14583307217E+04 -0.20507765927E+03  0.31025792810E+03  0.15050140903E+04  0.46999998093E+01 0.  1.
       -5    1    3    3    0  502  0.14583307217E+04  0.20507765927E+03 -0.71673483617E+03  0.16378388979E+04  0.46999998093E+01 0. -1.
</event>
<event>
 5   0  0.3935852E-07  0.3091761E+04  0.7818609E-02  0.8218003E-01
        1   -1    0    0  501    0  0.00000000000E+00  0.00000000000E+00  0.21740796082E+04  0.21740796082E+04  0.50400001928E-02 0. -1.
       -1   -1    0    0    0  501  0.00000000000E+00  0.00000000000E+00 -0.10991994215E+04  0.10991994215E+04  0.50400001928E-02 0.  1.
    10030    2    1    2    0    0  0.00000000000E+00  0.00000000000E+00  0.10748801867E+04  0.32732790297E+04  0.30917613412E+04 0.  0.
        5    1    3    3  502    0 -0.54004597736E+03  0.79428422606E+02  0.20686462254E+04  0.21394573676E+04  0.46999998093E+01 0. -1.
       -5    1    3    3    0  502  0.54004597736E+03 -0.79428422606E+02 -0.99376603866E+03  0.11338216622E+04  0.46999998093E+01 0.  1.
</event>
<event>
 5   0  0.4173905E-07  0.3114633E+04  0.7818609E-02  0.8211734E-01
       -1   -1    0    0    0  501  0.00000000000E+00  0.00000000000E+00  0.13285148605E+04  0.13285148605E+04  0.50400001928E-02 0. -1.
        1   -1    0    0  501    0  0.00000000000E+00  0.00000000000E+00 -0.18255228197E+04  0.18255228197E+04  0.50400001928E-02 0.  1.
    10030    2    1    2    0    0  0.00000000000E+00  0.00000000000E+00 -0.49700795922E+03  0.31540376802E+04  0.31146326873E+04 0.  0.
        3    1    3    3  502    0  0.11439978944E+04  0.10491656945E+04 -0.12139967903E+03  0.15569899579E+04  0.10100000352E+00 0. -1.
       -3    1    3    3    0  502 -0.11439978944E+04 -0.10491656945E+04 -0.37560828019E+03  0.15970477223E+04  0.10100000352E+00 0.  1.
</event>
<event>
 5   0  0.4134019E-07  0.3100354E+04  0.7818609E-02  0.8215641E-01
        1   -1    0    0  501    0  0.00000000000E+00  0.00000000000E+00  0.17881843510E+04  0.17881843510E+04  0.50400001928E-02 0.  1.
       -1   -1    0    0    0  501  0.00000000000E+00  0.00000000000E+00 -0.13438480497E+04  0.13438480497E+04  0.50400001928E-02 0. -1.
    10030    2    1    2    0    0  0.00000000000E+00  0.00000000000E+00  0.44433630129E+03  0.31320324006E+04  0.31003535621E+04 0.  0.
        2    1    3    3  502    0 -0.10903845066E+04  0.77066846713E+02  0.13325672867E+04  0.17235467051E+04  0.25500000920E-02 0.  1.
       -2    1    3    3    0  502  0.10903845066E+04 -0.77066846713E+02 -0.88823098539E+03  0.14084856955E+04  0.25500000920E-02 0. -1.
</event>
<event>
 5   0  0.1200286E-06  0.3107636E+04  0.7818609E-02  0.8213645E-01
        2   -1    0    0  501    0  0.00000000000E+00  0.00000000000E+00  0.20059411176E+04  0.20059411176E+04  0.25500000920E-02 0. -1.
       -2   -1    0    0    0  501  0.00000000000E+00  0.00000000000E+00 -0.12035997554E+04  0.12035997554E+04  0.25500000920E-02 0.  1.
    10030    2    1    2    0    0  0.00000000000E+00  0.00000000000E+00  0.80234136212E+03  0.32095408730E+04  0.31076359108E+04 0.  0.
        5    1    3    3  502    0  0.13264988313E+04  0.19456446574E+03 -0.40999747902E+03  0.14019894805E+04  0.46999998093E+01 0.  1.
       -5    1    3    3    0  502 -0.13264988313E+04 -0.19456446574E+03  0.12123388411E+04  0.18075513925E+04  0.46999998093E+01 0. -1.
</event>
<event>
 5   0  0.4219337E-07  0.3088844E+04  0.7818609E-02  0.8218806E-01
        1   -1    0    0  501    0  0.00000000000E+00  0.00000000000E+00  0.20606949253E+04  0.20606949253E+04  0.50400001928E-02 0. -1.
       -1   -1    0    0    0  501  0.00000000000E+00  0.00000000000E+00 -0.11574923620E+04  0.11574923620E+04  0.50400001928E-02 0.  1.
    10030    2    1    2    0    0  0.00000000000E+00  0.00000000000E+00  0.90320256333E+03  0.32181872874E+04  0.30888435613E+04 0.  0.
        4    1    3    3  502    0 -0.12192801885E+04  0.57270192287E+03  0.12386168480E+04  0.18299740380E+04  0.12699999809E+01 0. -1.
       -4    1    3    3    0  502  0.12192801885E+04 -0.57270192287E+03 -0.33541428467E+03  0.13882132494E+04  0.12699999809E+01 0.  1.
</event>
<event>
 5   0  0.3935852E-07  0.3091867E+04  0.7818609E-02  0.8217974E-01
       -1   -1    0    0    0  501  0.00000000000E+00  0.00000000000E+00  0.19745992245E+04  0.19745992245E+04  0.50400001928E-02 0. -1.
        1   -1    0    0  501    0  0.00000000000E+00  0.00000000000E+00 -0.12103265199E+04  0.12103265199E+04  0.50400001928E-02 0.  1.
    10030    2    1    2    0    0  0.00000000000E+00  0.00000000000E+00  0.76427270466E+03  0.31849257444E+04  0.30918666256E+04 0.  0.
        5    1    3    3  502    0 -0.12097268300E+04 -0.13177830645E+03 -0.60001942150E+03  0.13567792457E+04  0.46999998093E+01 0.  1.
       -5    1    3    3    0  502  0.12097268300E+04  0.13177830645E+03  0.13642921262E+04  0.18281464987E+04  0.46999998093E+01 0. -1.
</event>
<event>
 5   0  0.1176002E-06  0.3088303E+04  0.7818609E-02  0.8218955E-01
       -2   -1    0    0    0  501  0.00000000000E+00  0.00000000000E+00  0.15051850017E+04  0.15051850017E+04  0.25500000920E-02 0.  1.
        2   -1    0    0  501    0  0.00000000000E+00  0.00000000000E+00 -0.15841265282E+04  0.15841265282E+04  0.25500000920E-02 0. -1.
    10030    2    1    2    0    0  0.00000000000E+00  0.00000000000E+00 -0.78941526514E+02  0.30893115299E+04  0.30883027644E+04 0.  0.
        2    1    3    3  502    0 -0.95420319797E+03 -0.22681487663E+02 -0.12536980858E+04  0.15756830529E+04  0.25500000920E-02 0. -1.
       -2    1    3    3    0  502  0.95420319797E+03  0.22681487663E+02  0.11747565593E+04  0.15136284770E+04  0.25500000920E-02 0.  1.
</event>
<event>
 5   0  0.4134019E-07  0.3104438E+04  0.7818609E-02  0.8214521E-01
       -1   -1    0    0    0  501  0.00000000000E+00  0.00000000000E+00  0.93271522363E+03  0.93271522364E+03  0.50400001928E-02 0.  1.
        1   -1    0    0  501    0  0.00000000000E+00  0.00000000000E+00 -0.25831937432E+04  0.25831937432E+04  0.50400001928E-02 0. -1.
    10030    2    1    2    0    0  0.00000000000E+00  0.00000000000E+00 -0.16504785195E+04  0.35159089668E+04  0.31044381971E+04 0.  0.
        2    1    3    3  502    0  0.59805039281E+03 -0.11056824705E+04 -0.18565288130E+04  0.22420743145E+04  0.25500000920E-02 0. -1.
       -2    1    3    3    0  502 -0.59805039281E+03  0.11056824705E+04  0.20605029351E+03  0.12738346523E+04  0.25500000920E-02 0.  1.
</event>
<event>
 5   0  0.1200286E-06  0.3090342E+04  0.7818609E-02  0.8218394E-01
        2   -1    0    0  501    0  0.00000000000E+00  0.00000000000E+00  0.27383713186E+04  0.27383713186E+04  0.25500000920E-02 0.  1.
       -2   -1    0    0    0  501  0.00000000000E+00  0.00000000000E+00 -0.87188784956E+03  0.87188784956E+03  0.25500000920E-02 0. -1.
    10030    2    1    2    0    0  0.00000000000E+00  0.00000000000E+00  0.18664834691E+04  0.36102591682E+04  0.30903415218E+04 0.  0.
        5    1    3    3  502    0 -0.10515473183E+04  0.33771417369E+03 -0.32917499975E+03  0.11524673081E+04  0.46999998093E+01 0. -1.
       -5    1    3    3    0  502  0.10515473183E+04 -0.33771417369E+03  0.21956584688E+04  0.24577918601E+04  0.46999998093E+01 0.  1.
</event>
<event>
 5   0  0.4330395E-07  0.3112927E+04  0.7818609E-02  0.8212199E-01
        1   -1    0    0  501    0  0.00000000000E+00  0.00000000000E+00  0.15238025137E+04  0.15238025137E+04  0.50400001928E-02 0. -1.
       -1   -1    0    0    0  501  0.00000000000E+00  0.00000000000E+00 -0.15898250015E+04  0.15898250015E+04  0.50400001928E-02 0.  1.
    10030    2    1    2    0    0  0.00000000000E+00  0.00000000000E+00 -0.66022487760E+02  0.31136275152E+04  0.31129274541E+04 0.  0.
        1    1    3    3  502    0 -0.10606078315E+04  0.60945084537E+03 -0.99565171961E+03  0.15772259356E+04  0.50400001928E-02 0.  1.
       -1    1    3    3    0  502  0.10606078315E+04 -0.60945084537E+03  0.92962923185E+03  0.15364015796E+04  0.50400001928E-02 0. -1.
</event>
<event>
 5   0  0.1193123E-06  0.3118006E+04  0.7818609E-02  0.8210814E-01
       -2   -1    0    0    0  501  0.00000000000E+00  0.00000000000E+00  0.10669086815E+04  0.10669086815E+04  0.25500000920E-02 0. -1.
        2   -1    0    0  501    0  0.00000000000E+00  0.00000000000E+00 -0.22780679338E+04  0.22780679338E+04  0.25500000920E-02 0.  1.
    10030    2    1    2    0    0  0.00000000000E+00  0.00000000000E+00 -0.12111592523E+04  0.33449766153E+04  0.31180060652E+04 0.  0.
        3    1    3    3  502    0  0.15556945479E+03 -0.35439611473E+03  0.10145488237E+04  0.10858672973E+04  0.10100000352E+00 0. -1.
       -3    1    3    3    0  502 -0.15556945479E+03  0.35439611473E+03 -0.22257080759E+04  0.22591093181E+04  0.10100000352E+00 0.  1.
</event>
<event>
 5   0  0.1200286E-06  0.3103580E+04  0.7818609E-02  0.8214756E-01
       -2   -1    0    0    0  501  0.00000000000E+00  0.00000000000E+00  0.15691701179E+04  0.15691701179E+04  0.25500000920E-02 0.  1.
        2   -1    0    0  501    0  0.00000000000E+00  0.00000000000E+00 -0.15346020674E+04  0.15346020674E+04  0.25500000920E-02 0. -1.
    10030    2    1    2    0    0  0.00000000000E+00  0.00000000000E+00  0.34568050495E+02  0.31037721853E+04  0.31035796797E+04 0.  0.
        5    1    3    3  502    0 -0.13828311625E+04 -0.12933842157E+03  0.70948240677E+03  0.15595954048E+04  0.46999998093E+01 0. -1.
       -5    1    3    3    0  502  0.13828311625E+04  0.12933842157E+03 -0.67491435628E+03  0.15441767805E+04  0.46999998093E+01 0.  1.
</event>
<event>
 5   0  0.4330395E-07  0.3109919E+04  0.7818609E-02  0.8213021E-01
        1   -1    0    0  501    0  0.00000000000E+00  0.00000000000E+00  0.18117738561E+04  0.18117738561E+04  0.50400001928E-02 0. -1.
       -1   -1    0    0    0  501  0.00000000000E+00  0.00000000000E+00 -0.13345483493E+04  0.13345483493E+04  0.50400001928E-02 0.  1.
    10030    2    1    2    0    0  0.00000000000E+00  0.00000000000E+00  0.47722550680E+03  0.31463222055E+04  0.31099194903E+04 0.  0.
        1    1    3    3  502    0 -0.11399390953E+03  0.98792121219E+03 -0.97075262625E+03  0.13897278850E+04  0.50400001928E-02 0.  1.
       -1    1    3    3    0  502  0.11399390953E+03 -0.98792121219E+03  0.14479781331E+04  0.17565943205E+04  0.50400001928E-02 0. -1.
</event>
<event>
 5   0  0.1176002E-06  0.3084995E+04  0.7818609E-02  0.8219868E-01
       -2   -1    0    0    0  501  0.00000000000E+00  0.00000000000E+00  0.75137865121E+03  0.75137865122E+03  0.25500000920E-02 0.  1.
        2   -1    0    0  501    0  0.00000000000E+00  0.00000000000E+00 -0.31665770692E+04  0.31665770692E+04  0.25500000920E-02 0. -1.
    10030    2    1    2    0    0  0.00000000000E+00  0.00000000000E+00 -0.24151984180E+04  0.39179557204E+04  0.30849949155E+04 0.  0.
        2    1    3    3  502    0  0.87405876818E+02  0.76727149749E+03  0.48820233649E+03  0.91361198522E+03  0.25500000920E-02 0.  1.
       -2    1    3    3    0  502 -0.87405876818E+02 -0.76727149749E+03 -0.29034007545E+04  0.30043437352E+04  0.25500000920E-02 0. -1.
</event>
<event>
 5   0  0.1200286E-06  0.3092950E+04  0.7818609E-02  0.8217675E-01
       -2   -1    0    0    0  501  0.00000000000E+00  0.00000000000E+00  0.10886883028E+04  0.10886883028E+04  0.25500000920E-02 0.  1.
        2   -1    0    0  501    0  0.00000000000E+00  0.00000000000E+00 -0.21967578757E+04  0.21967578757E+04  0.25500000920E-02 0. -1.
    10030    2    1    2    0    0  0.00000000000E+00  0.00000000000E+00 -0.11080695729E+04  0.32854461784E+04  0.30929497915E+04 0.  0.
        5    1    3    3  502    0  0.12540071600E+04  0.70801454822E+02  0.40434551848E+03  0.13194939150E+04  0.46999998093E+01 0.  1.
       -5    1    3    3    0  502 -0.12540071600E+04 -0.70801454822E+02 -0.15124150914E+04  0.19659522634E+04  0.46999998093E+01 0. -1.
</event>
<event>
 5   0  0.4219337E-07  0.3091722E+04  0.7818609E-02  0.8218013E-01
        1   -1    0    0  501    0  0.00000000000E+00  0.00000000000E+00  0.10728988560E+04  0.10728988561E+04  0.50400001928E-02 0. -1.
       -1   -1    0    0    0  501  0.00000000000E+00  0.00000000000E+00 -0.22273173715E+04  0.22273173715E+04  0.50400001928E-02 0.  1.
    10030    2    1    2    0    0  0.00000000000E+00  0.00000000000E+00 -0.11544185155E+04  0.33002162275E+04  0.30917220185E+04 0.  0.
        4    1    3    3  502    0  0.26537781768E+03  0.14676290919E+04 -0.14318894777E+03  0.14982874307E+04  0.12699999809E+01 0. -1.
       -4    1    3    3    0  502 -0.26537781768E+03 -0.14676290919E+04 -0.10112295677E+04  0.18019287968E+04  0.12699999809E+01 0.  1.
</event>
<event>
 5   0  0.1200286E-06  0.3132560E+04  0.7818609E-02  0.8206858E-01
       -2   -1    0    0    0  501  0.00000000000E+00  0.00000000000E+00  0.12366474040E+04  0.12366474040E+04  0.25500000920E-02 0.  1.
        2   -1    0    0  501    0  0.00000000000E+00  0.00000000000E+00 -0.19837773951E+04  0.19837773951E+04  0.25500000920E-02 0. -1.
    10030    2    1    2    0    0  0.00000000000E+00  0.00000000000E+00 -0.74712999111E+03  0.32204247992E+04  0.31325600814E+04 0.  0.
        5    1    3    3  502    0  0.81037250900E+03  0.13402234859E+04 -0.35550875007E+03  0.16060233986E+04  0.46999998093E+01 0. -1.
       -5    1    3    3    0  502 -0.81037250900E+03 -0.13402234859E+04 -0.39162124104E+03  0.16144014005E+04  0.46999998093E+01 0.  1.
</event>
<event>
 5   0  0.4219337E-07  0.3098790E+04  0.7818609E-02  0.8216070E-01
       -1   -1    0    0    0  501  0.00000000000E+00  0.00000000000E+00  0.13495996014E+04  0.13495996014E+04  0.50400001928E-02 0.  1.
        1   -1    0    0  501    0  0.00000000000E+00  0.00000000000E+00 -0.17787686681E+04  0.17787686681E+04  0.50400001928E-02 0. -1.
    10030    2    1    2    0    0  0.00000000000E+00  0.00000000000E+00 -0.42916906670E+03  0.31283682695E+04  0.30987903998E+04 0.  0.
        4    1    3    3  502    0 -0.19997048679E+03 -0.13306072597E+04  0.56094052739E+03  0.14577927710E+04  0.12699999809E+01 0.  1.
       -4    1    3    3    0  502  0.19997048679E+03  0.13306072597E+04 -0.99010959409E+03  0.16705754985E+04  0.12699999809E+01 0. -1.
</event>
<event>
 5   0  0.3935852E-07  0.3043993E+04  0.7818609E-02  0.8231279E-01
        1   -1    0    0  501    0  0.00000000000E+00  0.00000000000E+00  0.23798854443E+04  0.23798854443E+04  0.50400001928E-02 0.  1.
       -1   -1    0    0    0  501  0.00000000000E+00  0.00000000000E+00 -0.97335519008E+03  0.97335519009E+03  0.50400001928E-02 0. -1.
    10030    2    1    2    0    0  0.00000000000E+00  0.00000000000E+00  0.14065302542E+04  0.33532406344E+04  0.30439933305E+04 0.  0.
        5    1    3    3  502    0  0.64112075115E+02 -0.13087922449E+04 -0.14960113832E+03  0.13188821362E+04  0.46999998093E+01 0. -1.
       -5    1    3    3    0  502 -0.64112075115E+02  0.13087922449E+04  0.15561313925E+04  0.20343584982E+04  0.46999998093E+01 0.  1.
</event>
<event>
 5   0  0.3935852E-07  0.3107036E+04  0.7818609E-02  0.8213809E-01
        1   -1    0    0  501    0  0.00000000000E+00  0.00000000000E+00  0.22512362526E+04  0.22512362526E+04  0.50400001928E-02 0. -1.
       -1   -1    0    0    0  501  0.00000000000E+00  0.00000000000E+00 -0.10720415787E+04  0.10720415787E+04  0.50400001928E-02 0.  1.
    10030    2    1    2    0    0  0.00000000000E+00  0.00000000000E+00  0.11791946739E+04  0.33232778313E+04  0.31070364441E+04 0.  0.
        5    1    3    3  502    0 -0.10493170408E+04  0.86233273470E+03 -0.21701859640E+03  0.13754283546E+04  0.46999998093E+01 0. -1.
       -5    1    3    3    0  502  0.10493170408E+04 -0.86233273470E+03  0.13962132703E+04  0.19478494767E+04  0.46999998093E+01 0.  1.
</event>
<event>
 5   0  0.3902375E-07  0.3116442E+04  0.7818609E-02  0.8211240E-01
       -3   -1    0    0    0  501  0.00000000000E+00  0.00000000000E+00  0.23957680314E+04  0.23957680336E+04  0.10100000352E+00 0.  1.
        3   -1    0    0  501    0  0.00000000000E+00  0.00000000000E+00 -0.10134757437E+04  0.10134757487E+04  0.10100000352E+00 0. -1.
    10030    2    1    2    0    0  0.00000000000E+00  0.00000000000E+00  0.13822922878E+04  0.34092437822E+04  0.31164420736E+04 0.  0.
        3    1    3    3  502    0 -0.78757212893E+03  0.10910684754E+04 -0.16839289884E+03  0.13561181567E+04  0.10100000352E+00 0. -1.
       -3    1    3    3    0  502  0.78757212893E+03 -0.10910684754E+04  0.15506851866E+04  0.20531256256E+04  0.10100000352E+00 0.  1.
</event>
<event>
 5   0  0.1193123E-06  0.3091678E+04  0.7818609E-02  0.8218026E-01
       -2   -1    0    0    0  501  0.00000000000E+00  0.00000000000E+00  0.13969722715E+04  0.13969722715E+04  0.25500000920E-02 0. -1.
        2   -1    0    0  501    0  0.00000000000E+00  0.00000000000E+00 -0.17105690757E+04  0.17105690757E+04  0.25500000920E-02 0.  1.
    10030    2    1    2    0    0  0.00000000000E+00  0.00000000000E+00 -0.31359680423E+03  0.31075413473E+04  0.30916775817E+04 0.  0.
        3    1    3    3  502    0  0.13491977060E+03  0.79316818494E+03 -0.14835328127E+04  0.16876577647E+04  0.10100000352E+00 0.  1.
       -3    1    3    3    0  502 -0.13491977060E+03 -0.79316818494E+03  0.11699360084E+04  0.14198835826E+04  0.10100000352E+00 0. -1.
</event>
<event>
 5   0  0.3935852E-07  0.3090032E+04  0.7818609E-02  0.8218479E-01
        1   -1    0    0  501    0  0.00000000000E+00  0.00000000000E+00  0.12079423988E+04  0.12079423988E+04  0.50400001928E-02 0.  1.
       -1   -1    0    0    0  501  0.00000000000E+00  0.00000000000E+00 -0.19761487580E+04  0.19761487580E+04  0.50400001928E-02 0. -1.
    10030    2    1    2    0    0  0.00000000000E+00  0.00000000000E+00 -0.76820635923E+03  0.31840911568E+04  0.30900316317E+04 0.  0.
        5    1    3    3  502    0  0.69085887900E+03 -0.13737774424E+04 -0.53867369480E+03  0.16293378690E+04  0.46999998093E+01 0.  1.
       -5    1    3    3    0  502 -0.69085887900E+03  0.13737774424E+04 -0.22953266442E+03  0.15547532878E+04  0.46999998093E+01 0. -1.
</event>
<event>
 5   0  0.3935852E-07  0.3092742E+04  0.7818609E-02  0.8217733E-01
       -1   -1    0    0    0  501  0.00000000000E+00  0.00000000000E+00  0.13454722996E+04  0.13454722996E+04  0.50400001928E-02 0. -1.
        1   -1    0    0  501    0  0.00000000000E+00  0.00000000000E+00 -0.17772666585E+04  0.17772666585E+04  0.50400001928E-02 0.  1.
    10030    2    1    2    0    0  0.00000000000E+00  0.00000000000E+00 -0.43179435896E+03  0.31227389581E+04  0.30927418632E+04 0.  0.
        5    1    3    3  502    0 -0.78216482482E+03 -0.10517368489E+04  0.61261546214E+03  0.14468075225E+04  0.46999998093E+01 0. -1.
       -5    1    3    3    0  502  0.78216482482E+03  0.10517368489E+04 -0.10444098211E+04  0.16759314357E+04  0.46999998093E+01 0.  1.
</event>
<event>
 5   0  0.1193123E-06  0.3083496E+04  0.7818609E-02  0.8220282E-01
        2   -1    0    0  501    0  0.00000000000E+00  0.00000000000E+00  0.26356491456E+04  0.26356491456E+04  0.25500000920E-02 0. -1.
       -2   -1    0    0    0  501  0.00000000000E+00  0.00000000000E+00 -0.90185996424E+03  0.90185996424E+03  0.25500000920E-02 0.  1.
    10030    2    1    2    0    0  0.00000000000E+00  0.00000000000E+00  0.17337891813E+04  0.35375091098E+04  0.30834957073E+04 0.  0.
        3    1    3    3  502    0  0.33463629441E+03  0.14110493915E+04  0.14673566761E+04  0.20630505228E+04  0.10100000352E+00 0. -1.
       -3    1    3    3    0  502 -0.33463629441E+03 -0.14110493915E+04  0.26643250525E+03  0.14744585870E+04  0.10100000352E+00 0.  1.
</event>
<event>
 5   0  0.1258262E-06  0.3093153E+04  0.7818609E-02  0.8217619E-01
       -2   -1    0    0    0  501  0.00000000000E+00  0.00000000000E+00  0.85829996631E+03  0.85829996631E+03  0.25500000920E-02 0.  1.
        2   -1    0    0  501    0  0.00000000000E+00  0.00000000000E+00 -0.27867871013E+04  0.27867871013E+04  0.25500000920E-02 0. -1.
    10030    2    1    2    0    0  0.00000000000E+00  0.00000000000E+00 -0.19284871349E+04  0.36450870676E+04  0.30931532617E+04 0.  0.
        1    1    3    3  502    0 -0.13220049778E+03 -0.15226925434E+04 -0.68579871175E+03  0.16752281715E+04  0.50400001928E-02 0.  1.
       -1    1    3    3    0  502  0.13220049778E+03  0.15226925434E+04 -0.12426884232E+04  0.19698588961E+04  0.50400001928E-02 0. -1.
</event>
<event>
 5   0  0.1237580E-06  0.3095880E+04  0.7818609E-02  0.8216870E-01
       -2   -1    0    0    0  501  0.00000000000E+00  0.00000000000E+00  0.16209599302E+04  0.16209599302E+04  0.25500000920E-02 0. -1.
        2   -1    0    0  501    0  0.00000000000E+00  0.00000000000E+00 -0.14782090343E+04  0.14782090343E+04  0.25500000920E-02 0.  1.
    10030    2    1    2    0    0  0.00000000000E+00  0.00000000000E+00  0.14275089583E+03  0.30991689645E+04  0.30958795927E+04 0.  0.
        4    1    3    3  502    0 -0.12023851940E+04 -0.19859396735E+03 -0.88407369807E+03  0.15055755163E+04  0.12699999809E+01 0.  1.
       -4    1    3    3    0  502  0.12023851940E+04  0.19859396735E+03  0.10268245939E+04  0.15935934482E+04  0.12699999809E+01 0. -1.
</event>
<event>
 5   0  0.4134019E-07  0.3144498E+04  0.7818609E-02  0.8203631E-01
        1   -1    0    0  501    0  0.00000000000E+00  0.00000000000E+00  0.14340373269E+04  0.14340373269E+04  0.50400001928E-02 0.  1.
       -1   -1    0    0    0  501  0.00000000000E+00  0.00000000000E+00 -0.17237813854E+04  0.17237813854E+04  0.50400001928E-02 0. -1.
    10030    2    1    2    0    0  0.00000000000E+00  0.00000000000E+00 -0.28974405854E+03  0.31578187123E+04  0.31444979568E+04 0.  0.
        2    1    3    3  502    0 -0.12335496352E+04  0.15315196125E+03  0.82194546224E+03  0.14901995063E+04  0.25500000920E-02 0.  1.
       -2    1    3    3    0  502  0.12335496352E+04 -0.15315196125E+03 -0.11116895208E+04  0.16676192060E+04  0.25500000920E-02 0. -1.
</event>
<event>
 5   0  0.1200286E-06  0.3096237E+04  0.7818609E-02  0.8216771E-01
       -2   -1    0    0    0  501  0.00000000000E+00  0.00000000000E+00  0.81808392487E+03  0.81808392487E+03  0.25500000920E-02 0. -1.
        2   -1    0    0  501    0  0.00000000000E+00  0.00000000000E+00 -0.29296150742E+04  0.29296150742E+04  0.25500000920E-02 0.  1.
    10030    2    1    2    0    0  0.00000000000E+00  0.00000000000E+00 -0.21115311493E+04  0.37476989990E+04  0.30962370699E+04 0.  0.
        5    1    3    3  502    0  0.33349875480E+03 -0.73288858082E+03  0.54467186053E+03  0.97212993833E+03  0.46999998093E+01 0. -1.
       -5    1    3    3    0  502 -0.33349875480E+03  0.73288858082E+03 -0.26562030098E+04  0.27755690607E+04  0.46999998093E+01 0.  1.
</event>
<event>
 5   0  0.4219337E-07  0.3093106E+04  0.7818609E-02  0.8217633E-01
       -1   -1    0    0    0  501  0.00000000000E+00  0.00000000000E+00  0.11040568963E+04  0.11040568963E+04  0.50400001928E-02 0. -1.
        1   -1    0    0  501    0  0.00000000000E+00  0.00000000000E+00 -0.21663971978E+04  0.21663971978E+04  0.50400001928E-02 0.  1.
    10030    2    1    2    0    0  0.00000000000E+00  0.00000000000E+00 -0.10623403015E+04  0.32704540941E+04  0.30931057314E+04 0.  0.
        4    1    3    3  502    0 -0.10109301656E+04  0.11672079593E+04 -0.43978583697E+03  0.16055427168E+04  0.12699999809E+01 0.  1.
       -4    1    3    3    0  502  0.10109301656E+04 -0.11672079593E+04 -0.62255446457E+03  0.16649113773E+04  0.12699999809E+01 0. -1.
</event>
<event>
 5   0  0.1258262E-06  0.3097828E+04  0.7818609E-02  0.8216334E-01
       -2   -1    0    0    0  501  0.00000000000E+00  0.00000000000E+00  0.20778554589E+04  0.20778554589E+04  0.25500000920E-02 0. -1.
        2   -1    0    0  501    0  0.00000000000E+00  0.00000000000E+00 -0.11546209033E+04  0.11546209033E+04  0.25500000920E-02 0.  1.
    10030    2    1    2    0    0  0.00000000000E+00  0.00000000000E+00  0.92323455560E+03  0.32324763623E+04  0.30978284956E+04 0.  0.
        1    1    3    3  502    0  0.55075107936E+03 -0.67291885978E+03 -0.87588733769E+03  0.12342305990E+04  0.50400001928E-02 0.  1.
       -1    1    3    3    0  502 -0.55075107936E+03  0.67291885978E+03  0.17991218933E+04  0.19982457632E+04  0.50400001928E-02 0. -1.
</event>
<event>
 5   0  0.3902375E-07  0.3074552E+04  0.7818609E-02  0.8222757E-01
       -4   -1    0    0    0  501  0.00000000000E+00  0.00000000000E+00  0.15097571039E+04  0.15097576381E+04  0.12699999809E+01 0. -1.
        4   -1    0    0  501    0  0.00000000000E+00  0.00000000000E+00 -0.15652956057E+04  0.15652961209E+04  0.12699999809E+01 0.  1.
    10030    2    1    2    0    0  0.00000000000E+00  0.00000000000E+00 -0.55538501769E+02  0.30750537590E+04  0.30745521781E+04 0.  0.
        2    1    3    3  502    0 -0.12761537337E+04  0.82489088579E+03  0.20508721940E+03  0.15333212621E+04  0.25500000920E-02 0. -1.
       -2    1    3    3    0  502  0.12761537337E+04 -0.82489088579E+03 -0.26062572117E+03  0.15417324969E+04  0.25500000920E-02 0.  1.
</event>
<event>
 5   0  0.1176002E-06  0.3129065E+04  0.7818609E-02  0.8207806E-01
        2   -1    0    0  501    0  0.00000000000E+00  0.00000000000E+00  0.18530899714E+04  0.18530899714E+04  0.25500000920E-02 0.  1.
       -2   -1    0    0    0  501  0.00000000000E+00  0.00000000000E+00 -0.13209085501E+04  0.13209085501E+04  0.25500000920E-02 0. -1.
    10030    2    1    2    0    0  0.00000000000E+00  0.00000000000E+00  0.53218142136E+03  0.31739985215E+04  0.31290652836E+04 0.  0.
        2    1    3    3  502    0  0.98508829057E+03 -0.65521059594E+03 -0.77235953046E+03  0.14128832611E+04  0.25500000920E-02 0. -1.
       -2    1    3    3    0  502 -0.98508829057E+03  0.65521059594E+03  0.13045409518E+04  0.17611152603E+04  0.25500000920E-02 0.  1.
</event>
<event>
 5   0  0.4330395E-07  0.3096856E+04  0.7818609E-02  0.8216601E-01
       -1   -1    0    0    0  501  0.00000000000E+00  0.00000000000E+00  0.33135712346E+04  0.33135712346E+04  0.50400001928E-02 0.  1.
        1   -1    0    0  501    0  0.00000000000E+00  0.00000000000E+00 -0.72357873335E+03  0.72357873337E+03  0.50400001928E-02 0. -1.
    10030    2    1    2    0    0  0.00000000000E+00  0.00000000000E+00  0.25899925012E+04  0.40371499679E+04  0.30968562620E+04 0.  0.
        1    1    3    3  502    0  0.15078056712E+04  0.28699647198E+03  0.10285173742E+04  0.18476181711E+04  0.50400001928E-02 0.  1.
       -1    1    3    3    0  502 -0.15078056712E+04 -0.28699647198E+03  0.15614751270E+04  0.21895317969E+04  0.50400001928E-02 0. -1.
</event>
<event>
 5   0  0.4219337E-07  0.3100642E+04  0.7818609E-02  0.8215562E-01
        1   -1    0    0  501    0  0.00000000000E+00  0.00000000000E+00  0.21046458479E+04  0.21046458479E+04  0.50400001928E-02 0. -1.
       -1   -1    0    0    0  501  0.00000000000E+00  0.00000000000E+00 -0.11419949153E+04  0.11419949153E+04  0.50400001928E-02 0.  1.
    10030    2    1    2    0    0  0.00000000000E+00  0.00000000000E+00  0.96265093268E+03  0.32466407632E+04  0.31006417767E+04 0.  0.
        4    1    3    3  502    0  0.12141258652E+04  0.45703145485E+03  0.13701249991E+04  0.18868554511E+04  0.12699999809E+01 0. -1.
       -4    1    3    3    0  502 -0.12141258652E+04 -0.45703145485E+03 -0.40747406643E+03  0.13597853121E+04  0.12699999809E+01 0.  1.
</event>
<event>
 5   0  0.1176002E-06  0.3086327E+04  0.7818609E-02  0.8219500E-01
       -2   -1    0    0    0  501  0.00000000000E+00  0.00000000000E+00  0.95430870424E+03  0.95430870424E+03  0.25500000920E-02 0. -1.
        2   -1    0    0  501    0  0.00000000000E+00  0.00000000000E+00 -0.24953696788E+04  0.24953696788E+04  0.25500000920E-02 0.  1.
    10030    2    1    2    0    0  0.00000000000E+00  0.00000000000E+00 -0.15410609745E+04  0.34496783830E+04  0.30863266222E+04 0.  0.
        2    1    3    3  502    0  0.17820892183E+03  0.44913945773E+03 -0.24086310130E+04  0.24566212629E+04  0.25500000920E-02 0.  1.
       -2    1    3    3    0  502 -0.17820892183E+03 -0.44913945773E+03  0.86757003846E+03  0.99305712018E+03  0.25500000920E-02 0. -1.
</event>
<event>
 5   0  0.1200286E-06  0.3111031E+04  0.7818609E-02  0.8212717E-01
        2   -1    0    0  501    0  0.00000000000E+00  0.00000000000E+00  0.15548696077E+04  0.15548696077E+04  0.25500000920E-02 0.  1.
       -2   -1    0    0    0  501  0.00000000000E+00  0.00000000000E+00 -0.15561615481E+04  0.15561615481E+04  0.25500000920E-02 0. -1.
    10030    2    1    2    0    0  0.00000000000E+00  0.00000000000E+00 -0.12919403662E+01  0.31110311558E+04  0.31110308876E+04 0.  0.
        5    1    3    3  502    0  0.54758403207E+02  0.11619215459E+04 -0.10333832205E+04  0.15559444502E+04  0.46999998093E+01 0. -1.
       -5    1    3    3    0  502 -0.54758403207E+02 -0.11619215459E+04  0.10320912802E+04  0.15550867057E+04  0.46999998093E+01 0.  1.
</event>
<event>
 5   0  0.4330395E-07  0.3111386E+04  0.7818609E-02  0.8212620E-01
        1   -1    0    0  501    0  0.00000000000E+00  0.00000000000E+00  0.20551080177E+04  0.20551080177E+04  0.50400001928E-02 0.  1.
       -1   -1    0    0    0  501  0.00000000000E+00  0.00000000000E+00 -0.11776412906E+04  0.11776412906E+04  0.50400001928E-02 0. -1.
    10030    2    1    2    0    0  0.00000000000E+00  0.00000000000E+00  0.87746672715E+03  0.32327493083E+04  0.31113855809E+04 0.  0.
        1    1    3    3  502    0  0.81576958508E+03  0.12986416697E+04  0.71013059962E+03  0.16900401388E+04  0.50400001928E-02 0.  1.
       -1    1    3    3    0  502 -0.81576958508E+03 -0.12986416697E+04  0.16733612753E+03  0.15427091695E+04  0.50400001928E-02 0. -1.
</event>
<event>
 5   0  0.4134019E-07  0.3094135E+04  0.7818609E-02  0.8217349E-01
       -1   -1    0    0    0  501  0.00000000000E+00  0.00000000000E+00  0.18619607658E+04  0.18619607658E+04  0.50400001928E-02 0. -1.
        1   -1    0    0  501    0  0.00000000000E+00  0.00000000000E+00 -0.12854290078E+04  0.12854290078E+04  0.50400001928E-02 0.  1.
    10030    2    1    2    0    0  0.00000000000E+00  0.00000000000E+00  0.57653175799E+03  0.31473897736E+04  0.30941353427E+04 0.  0.
        2    1    3    3  502    0 -0.94906500547E+03 -0.11199486765E+03  0.15258201563E+04  0.18003872873E+04  0.25500000920E-02 0. -1.
       -2    1    3    3    0  502  0.94906500547E+03  0.11199486765E+03 -0.94928839830E+03  0.13470024863E+04  0.25500000920E-02 0.  1.
</event>
<event>
 5   0  0.1237580E-06  0.3093910E+04  0.7818609E-02  0.8217411E-01
       -2   -1    0    0    0  501  0.00000000000E+00  0.00000000000E+00  0.14753595868E+04  0.14753595868E+04  0.25500000920E-02 0. -1.
        2   -1    0    0  501    0  0.00000000000E+00  0.00000000000E+00 -0.16220249500E+04  0.16220249500E+04  0.25500000920E-02 0.  1.
    10030    2    1    2    0    0  0.00000000000E+00  0.00000000000E+00 -0.14666536319E+03  0.30973845369E+04  0.30939101862E+04 0.  0.
        4    1    3    3  502    0 -0.38071307059E+03 -0.14679497496E+04 -0.37904347148E+03  0.15631680894E+04  0.12699999809E+01 0.  1.
       -4    1    3    3    0  502  0.38071307059E+03  0.14679497496E+04  0.23237810829E+03  0.15342164475E+04  0.12699999809E+01 0. -1.
</event>
<event>
 5   0  0.3902375E-07  0.3109989E+04  0.7818609E-02  0.8213002E-01
       -3   -1    0    0    0  501  0.00000000000E+00  0.00000000000E+00  0.23047496362E+04  0.23047496384E+04  0.10100000352E+00 0.  1.
        3   -1    0    0  501    0  0.00000000000E+00  0.00000000000E+00 -0.10491409223E+04  0.10491409272E+04  0.10100000352E+00 0. -1.
    10030    2    1    2    0    0  0.00000000000E+00  0.00000000000E+00  0.12556087138E+04  0.33538905656E+04  0.31099885343E+04 0.  0.
        2    1    3    3  502    0  0.36436717887E+03  0.14423598858E+04  0.11158936429E+04  0.18596731174E+04  0.25500000920E-02 0.  1.
       -2    1    3    3    0  502 -0.36436717887E+03 -0.14423598858E+04  0.13971507094E+03  0.14942174482E+04  0.25500000920E-02 0. -1.
</event>
<event>
 5   0  0.1237580E-06  0.3090959E+04  0.7818609E-02  0.8218224E-01
        2   -1    0    0  501    0  0.00000000000E+00  0.00000000000E+00  0.21629443980E+04  0.21629443980E+04  0.25500000920E-02 0.  1.
       -2   -1    0    0    0  501  0.00000000000E+00  0.00000000000E+00 -0.11042847311E+04  0.11042847311E+04  0.25500000920E-02 0. -1.
    10030    2    1    2    0    0  0.00000000000E+00  0.00000000000E+00  0.10586596669E+04  0.32672291291E+04  0.30909587334E+04 0.  0.
        4    1    3    3  502    0 -0.90909927159E+03 -0.70944312418E+03  0.16169563325E+04  0.19860313256E+04  0.12699999809E+01 0.  1.
       -4    1    3    3    0  502  0.90909927159E+03  0.70944312418E+03 -0.55829666557E+03  0.12811978035E+04  0.12699999809E+01 0. -1.
</event>
<event>
 5   0  0.1237580E-06  0.3099963E+04  0.7818609E-02  0.8215748E-01
        2   -1    0    0  501    0  0.00000000000E+00  0.00000000000E+00  0.13953704603E+04  0.13953704603E+04  0.25500000920E-02 0. -1.
       -2   -1    0    0    0  501  0.00000000000E+00  0.00000000000E+00 -0.17217238316E+04  0.17217238316E+04  0.25500000920E-02 0.  1.
    10030    2    1    2    0    0  0.00000000000E+00  0.00000000000E+00 -0.32635337125E+03  0.31170942919E+04  0.30999629517E+04 0.  0.
        4    1    3    3  502    0  0.21891032974E+03  0.54529875841E+03 -0.16053862406E+04  0.17095435247E+04  0.12699999809E+01 0.  1.
       -4    1    3    3    0  502 -0.21891032974E+03 -0.54529875841E+03  0.12790328694E+04  0.14075507672E+04  0.12699999809E+01 0. -1.
</event>
<event>
 5   0  0.1200286E-06  0.3109798E+04  0.7818609E-02  0.8213054E-01
       -2   -1    0    0    0  501  0.00000000000E+00  0.00000000000E+00  0.17496536964E+04  0.17496536964E+04  0.25500000920E-02 0. -1.
        2   -1    0    0  501    0  0.00000000000E+00  0.00000000000E+00 -0.13818221185E+04  0.13818221185E+04  0.25500000920E-02 0.  1.
    10030    2    1    2    0    0  0.00000000000E+00  0.00000000000E+00  0.36783157791E+03  0.31314758148E+04  0.31097975351E+04 0.  0.
        5    1    3    3  502    0  0.73811518547E+03 -0.13678040051E+04  0.22879398874E+03  0.15710094216E+04  0.46999998093E+01 0.  1.
       -5    1    3    3    0  502 -0.73811518547E+03  0.13678040051E+04  0.13903758917E+03  0.15604663933E+04  0.46999998093E+01 0. -1.
</event>
<event>
 5   0  0.4134019E-07  0.3076686E+04  0.7818609E-02  0.8222165E-01
       -1   -1    0    0    0  501  0.00000000000E+00  0.00000000000E+00  0.13047335784E+04  0.13047335784E+04  0.50400001928E-02 0.  1.
        1   -1    0    0  501    0  0.00000000000E+00  0.00000000000E+00 -0.18137800819E+04  0.18137800819E+04  0.50400001928E-02 0. -1.
    10030    2    1    2    0    0  0.00000000000E+00  0.00000000000E+00 -0.50904650355E+03  0.31185136603E+04  0.30766863842E+04 0.  0.
        2    1    3    3  502    0  0.11802699126E+04 -0.23765433659E+03  0.71608748983E+03  0.14008204537E+04  0.25500000920E-02 0.  1.
       -2    1    3    3    0  502 -0.11802699126E+04  0.23765433659E+03 -0.12251339934E+04  0.17176932066E+04  0.25500000920E-02 0. -1.
</event>
<event>
 5   0  0.4330395E-07  0.3087708E+04  0.7818609E-02  0.8219119E-01
       -1   -1    0    0    0  501  0.00000000000E+00  0.00000000000E+00  0.15905676008E+04  0.15905676008E+04  0.50400001928E-02 0.  1.
        1   -1    0    0  501    0  0.00000000000E+00  0.00000000000E+00 -0.14985123989E+04  0.14985123989E+04  0.50400001928E-02 0. -1.
    10030    2    1    2    0    0  0.00000000000E+00  0.00000000000E+00  0.92055201956E+02  0.30890799997E+04  0.30877080634E+04 0.  0.
        1    1    3    3  502    0  0.48309244744E+03 -0.12146690910E+04  0.86778525770E+03  0.15690285424E+04  0.50400001928E-02 0.  1.
       -1    1    3    3    0  502 -0.48309244744E+03  0.12146690910E+04 -0.77573005575E+03  0.15200514573E+04  0.50400001928E-02 0. -1.
</event>
<event>
 5   0  0.3935852E-07  0.3086415E+04  0.7818609E-02  0.8219476E-01
       -1   -1    0    0    0  501  0.00000000000E+00  0.00000000000E+00  0.92525106203E+03  0.92525106205E+03  0.50400001928E-02 0. -1.
        1   -1    0    0  501    0  0.00000000000E+00  0.00000000000E+00 -0.25738844645E+04  0.25738844645E+04  0.50400001928E-02 0.  1.
    10030    2    1    2    0    0  0.00000000000E+00  0.00000000000E+00 -0.16486334024E+04  0.34991355265E+04  0.30864149652E+04 0.  0.
        5    1    3    3  502    0 -0.27219424488E+03 -0.99963123657E+03  0.47235310611E+03  0.11386359659E+04  0.46999998093E+01 0. -1.
       -5    1    3    3    0  502  0.27219424488E+03  0.99963123657E+03 -0.21209865085E+04  0.23604995606E+04  0.46999998093E+01 0.  1.
</event>
<event>
 5   0  0.1258262E-06  0.3156746E+04  0.7818609E-02  0.8200335E-01
       -2   -1    0    0    0  501  0.00000000000E+00  0.00000000000E+00  0.95256748113E+03  0.95256748113E+03  0.25500000920E-02 0.  1.
        2   -1    0    0  501    0  0.00000000000E+00  0.00000000000E+00 -0.26153128776E+04  0.26153128776E+04  0.25500000920E-02 0. -1.
    10030    2    1    2    0    0  0.00000000000E+00  0.00000000000E+00 -0.16627453964E+04  0.35678803587E+04  0.31567464264E+04 0.  0.
        1    1    3    3  502    0 -0.57067906174E+03  0.53607343279E+03  0.71759717063E+03  0.10620710975E+04  0.50400001928E-02 0.  1.
       -1    1    3    3    0  502  0.57067906174E+03 -0.53607343279E+03 -0.23803425671E+04  0.25058092612E+04  0.50400001928E-02 0. -1.
</event>
<event>
 5   0  0.1200286E-06  0.3095081E+04  0.7818609E-02  0.8217089E-01
        2   -1    0    0  501    0  0.00000000000E+00  0.00000000000E+00  0.16672292090E+04  0.16672292090E+04  0.25500000920E-02 0.  1.
       -2   -1    0    0    0  501  0.00000000000E+00  0.00000000000E+00 -0.14364440740E+04  0.14364440740E+04  0.25500000920E-02 0. -1.
    10030    2    1    2    0    0  0.00000000000E+00  0.00000000000E+00  0.23078513493E+03  0.31036732830E+04  0.30950809471E+04 0.  0.
        5    1    3    3  502    0  0.86688298158E+03  0.41717791231E+03 -0.11001342160E+04  0.14614516405E+04  0.46999998093E+01 0. -1.
       -5    1    3    3    0  502 -0.86688298158E+03 -0.41717791231E+03  0.13309193510E+04  0.16422216425E+04  0.46999998093E+01 0.  1.
</event>
<event>
 5   0  0.1237580E-06  0.3105241E+04  0.7818609E-02  0.8214301E-01
        2   -1    0    0  501    0  0.00000000000E+00  0.00000000000E+00  0.19825926495E+04  0.19825926495E+04  0.25500000920E-02 0.  1.
       -2   -1    0    0    0  501  0.00000000000E+00  0.00000000000E+00 -0.12158976970E+04  0.12158976970E+04  0.25500000920E-02 0. -1.
    10030    2    1    2    0    0  0.00000000000E+00  0.00000000000E+00  0.76669495241E+03  0.31984903465E+04  0.31052406262E+04 0.  0.
        4    1    3    3  502    0 -0.76727106148E+03 -0.88965032705E+03  0.14289396582E+04  0.18498791166E+04  0.12699999809E+01 0.  1.
       -4    1    3    3    0  502  0.76727106148E+03  0.88965032705E+03 -0.66224470580E+03  0.13486112299E+04  0.12699999809E+01 0. -1.
</event>
<event>
 5   0  0.3935852E-07  0.3104969E+04  0.7818609E-02  0.8214376E-01
       -1   -1    0    0    0  501  0.00000000000E+00  0.00000000000E+00  0.30334453040E+04  0.30334453040E+04  0.50400001928E-02 0.  1.
        1   -1    0    0  501    0  0.00000000000E+00  0.00000000000E+00 -0.79454466720E+03  0.79454466722E+03  0.50400001928E-02 0. -1.
    10030    2    1    2    0    0  0.00000000000E+00  0.00000000000E+00  0.22389006368E+04  0.38279899712E+04  0.31049687854E+04 0.  0.
        5    1    3    3  502    0  0.20308677095E+03  0.50686037052E+03 -0.67224437869E+03  0.86607520829E+03  0.46999998093E+01 0. -1.
       -5    1    3    3    0  502 -0.20308677095E+03 -0.50686037052E+03  0.29111450155E+04  0.29619147629E+04  0.46999998093E+01 0.  1.
</event>
<event>
 5   0  0.4173905E-07  0.3099083E+04  0.7818609E-02  0.8215990E-01
        1   -1    0    0  501    0  0.00000000000E+00  0.00000000000E+00  0.17616610819E+04  0.17616610819E+04  0.50400001928E-02 0. -1.
       -1   -1    0    0    0  501  0.00000000000E+00  0.00000000000E+00 -0.13629625687E+04  0.13629625687E+04  0.50400001928E-02 0.  1.
    10030    2    1    2    0    0  0.00000000000E+00  0.00000000000E+00  0.39869851317E+03  0.31246236506E+04  0.30990825180E+04 0.  0.
        3    1    3    3  502    0  0.11320026634E+04  0.88220230962E+03 -0.38973232458E+03  0.14871456687E+04  0.10100000352E+00 0.  1.
       -3    1    3    3    0  502 -0.11320026634E+04 -0.88220230962E+03  0.78843083776E+03  0.16374779819E+04  0.10100000352E+00 0. -1.
</event>
<event>
 5   0  0.4134019E-07  0.3078308E+04  0.7818609E-02  0.8221716E-01
       -1   -1    0    0    0  501  0.00000000000E+00  0.00000000000E+00  0.12793630291E+04  0.12793630291E+04  0.50400001928E-02 0. -1.
        1   -1    0    0  501    0  0.00000000000E+00  0.00000000000E+00 -0.18516986359E+04  0.18516986360E+04  0.50400001928E-02 0.  1.
    10030    2    1    2    0    0  0.00000000000E+00  0.00000000000E+00 -0.57233560688E+03  0.31310616650E+04  0.30783078311E+04 0.  0.
        2    1    3    3  502    0 -0.51855702515E+03  0.10092698790E+04  0.77159027300E+03  0.13721802456E+04  0.25500000920E-02 0. -1.
       -2    1    3    3    0  502  0.51855702515E+03 -0.10092698790E+04 -0.13439258799E+04  0.17588814194E+04  0.25500000920E-02 0.  1.
</event>
<event>
 5   0  0.4134019E-07  0.3093774E+04  0.7818609E-02  0.8217449E-01
        1   -1    0    0  501    0  0.00000000000E+00  0.00000000000E+00  0.14934034920E+04  0.14934034920E+04  0.50400001928E-02 0. -1.
       -1   -1    0    0    0  501  0.00000000000E+00  0.00000000000E+00 -0.16022854146E+04  0.16022854146E+04  0.50400001928E-02 0.  1.
    10030    2    1    2    0    0  0.00000000000E+00  0.00000000000E+00 -0.10888192263E+03  0.30956889066E+04  0.30937735104E+04 0.  0.
        2    1    3    3  502    0 -0.13559694067E+04  0.70255259227E+03 -0.30081577278E+03  0.15565099762E+04  0.25500000920E-02 0. -1.
       -2    1    3    3    0  502  0.13559694067E+04 -0.70255259227E+03  0.19193385015E+03  0.15391789304E+04  0.25500000920E-02 0.  1.
</event>
<event>
 5   0  0.3935852E-07  0.3109292E+04  0.7818609E-02  0.8213192E-01
       -1   -1    0    0    0  501  0.00000000000E+00  0.00000000000E+00  0.92000305386E+03  0.92000305387E+03  0.50400001928E-02 0. -1.
        1   -1    0    0  501    0  0.00000000000E+00  0.00000000000E+00 -0.26270833374E+04  0.26270833374E+04  0.50400001928E-02 0.  1.
    10030    2    1    2    0    0  0.00000000000E+00  0.00000000000E+00 -0.17070802836E+04  0.35470863913E+04  0.31092923267E+04 0.  0.
        5    1    3    3  502    0 -0.36210047742E+03  0.13067888608E+04  0.13835973457E+02  0.13561074466E+04  0.46999998093E+01 0. -1.
       -5    1    3    3    0  502  0.36210047742E+03 -0.13067888608E+04 -0.17209162570E+04  0.21909789447E+04  0.46999998093E+01 0.  1.
</event>
<event>
 5   0  0.1258262E-06  0.3093073E+04  0.7818609E-02  0.8217642E-01
        2   -1    0    0  501    0  0.00000000000E+00  0.00000000000E+00  0.18123653986E+04  0.18123653986E+04  0.25500000920E-02 0.  1.
       -2   -1    0    0    0  501  0.00000000000E+00  0.00000000000E+00 -0.13196979661E+04  0.13196979661E+04  0.25500000920E-02 0. -1.
    10030    2    1    2    0    0  0.00000000000E+00  0.00000000000E+00  0.49266743255E+03  0.31320633648E+04  0.30930728607E+04 0.  0.
        1    1    3    3  502    0  0.10229807921E+03  0.14761639408E+04 -0.20905756507E+03  0.14943995258E+04  0.50400001928E-02 0. -1.
       -1    1    3    3    0  502 -0.10229807921E+03 -0.14761639408E+04  0.70172499761E+03  0.16376638390E+04  0.50400001928E-02 0.  1.
</event>
<event>
 5   0  0.4219337E-07  0.3104532E+04  0.7818609E-02  0.8214495E-01
       -1   -1    0    0    0  501  0.00000000000E+00  0.00000000000E+00  0.14353193863E+04  0.14353193863E+04  0.50400001928E-02 0. -1.
        1   -1    0    0  501    0  0.00000000000E+00  0.00000000000E+00 -0.16787415029E+04  0.16787415029E+04  0.50400001928E-02 0.  1.
    10030    2    1    2    0    0  0.00000000000E+00  0.00000000000E+00 -0.24342211665E+03  0.31140608892E+04  0.31045323150E+04 0.  0.
        4    1    3    3  502    0 -0.14582808675E+03 -0.96186463483E+03  0.10915795448E+04  0.14621890856E+04  0.12699999809E+01 0. -1.
       -4    1    3    3    0  502  0.14582808675E+03  0.96186463483E+03 -0.13350016614E+04  0.16518718036E+04  0.12699999809E+01 0.  1.
</event>
<event>
 5   0  0.4330395E-07  0.3104974E+04  0.7818609E-02  0.8214374E-01
        1   -1    0    0  501    0  0.00000000000E+00  0.00000000000E+00  0.19390820783E+04  0.19390820783E+04  0.50400001928E-02 0. -1.
       -1   -1    0    0    0  501  0.00000000000E+00  0.00000000000E+00 -0.12429675017E+04  0.12429675017E+04  0.50400001928E-02 0.  1.
    10030    2    1    2    0    0  0.00000000000E+00  0.00000000000E+00  0.69611457665E+03  0.31820495800E+04  0.31049740781E+04 0.  0.
        1    1    3    3  502    0 -0.86291751835E+03 -0.89836674137E+03 -0.60151018825E+03  0.13832946006E+04  0.50400001928E-02 0.  1.
       -1    1    3    3    0  502  0.86291751835E+03  0.89836674137E+03  0.12976247649E+04  0.17987549794E+04  0.50400001928E-02 0. -1.
</event>
<event>
 5   0  0.1237580E-06  0.3096961E+04  0.7818609E-02  0.8216572E-01
       -2   -1    0    0    0  501  0.00000000000E+00  0.00000000000E+00  0.20035805101E+04  0.20035805101E+04  0.25500000920E-02 0.  1.
        2   -1    0    0  501    0  0.00000000000E+00  0.00000000000E+00 -0.11967534637E+04  0.11967534637E+04  0.25500000920E-02 0. -1.
    10030    2    1    2    0    0  0.00000000000E+00  0.00000000000E+00  0.80682704646E+03  0.32003339738E+04  0.30969610364E+04 0.  0.
        4    1    3    3  502    0 -0.11554358580E+04  0.49356618380E+03  0.13386931292E+04  0.18359576538E+04  0.12699999809E+01 0.  1.
       -4    1    3    3    0  502  0.11554358580E+04 -0.49356618380E+03 -0.53186608270E+03  0.13643763200E+04  0.12699999809E+01 0. -1.
</event>
<event>
 5   0  0.3935852E-07  0.3086536E+04  0.7818609E-02  0.8219443E-01
       -1   -1    0    0    0  501  0.00000000000E+00  0.00000000000E+00  0.16729333939E+04  0.16729333939E+04  0.50400001928E-02 0.  1.
        1   -1    0    0  501    0  0.00000000000E+00  0.00000000000E+00 -0.14236522661E+04  0.14236522661E+04  0.50400001928E-02 0. -1.
    10030    2    1    2    0    0  0.00000000000E+00  0.00000000000E+00  0.24928112782E+03  0.30965856599E+04  0.30865355447E+04 0.  0.
        5    1    3    3  502    0  0.21508390384E+03 -0.59247787551E+03 -0.12886201591E+04  0.14345226115E+04  0.46999998093E+01 0. -1.
       -5    1    3    3    0  502 -0.21508390384E+03  0.59247787551E+03  0.15379012869E+04  0.16620630484E+04  0.46999998093E+01 0.  1.
</event>
<event>
 5   0  0.3935852E-07  0.3086202E+04  0.7818609E-02  0.8219535E-01
        1   -1    0    0  501    0  0.00000000000E+00  0.00000000000E+00  0.17467903538E+04  0.17467903538E+04  0.50400001928E-02 0. -1.
       -1   -1    0    0    0  501  0.00000000000E+00  0.00000000000E+00 -0.13631636901E+04  0.13631636901E+04  0.50400001928E-02 0.  1.
    10030    2    1    2    0    0  0.00000000000E+00  0.00000000000E+00  0.38362666371E+03  0.31099540439E+04  0.30862023165E+04 0.  0.
        5    1    3    3  502    0  0.49843419189E+03 -0.93996889641E+03 -0.93444696308E+03  0.14160478052E+04  0.46999998093E+01 0.  1.
       -5    1    3    3    0  502 -0.49843419189E+03  0.93996889641E+03  0.13180736268E+04  0.16939062387E+04  0.46999998093E+01 0. -1.
</event>
<event>
 5   0  0.4219337E-07  0.3056167E+04  0.7818609E-02  0.8227871E-01
       -1   -1    0    0    0  501  0.00000000000E+00  0.00000000000E+00  0.11382482999E+04  0.11382482999E+04  0.50400001928E-02 0. -1.
        1   -1    0    0  501    0  0.00000000000E+00  0.00000000000E+00 -0.20514321103E+04  0.20514321104E+04  0.50400001928E-02 0.  1.
    10030    2    1    2    0    0  0.00000000000E+00  0.00000000000E+00 -0.91318381046E+03  0.31896804103E+04  0.30561669535E+04 0.  0.
        4    1    3    3  502    0  0.66081502097E+02 -0.82800521433E+03 -0.17952305430E+04  0.19780833439E+04  0.12699999809E+01 0.  1.
       -4    1    3    3    0  502 -0.66081502097E+02  0.82800521433E+03  0.88204673257E+03  0.12115970664E+04  0.12699999809E+01 0. -1.
</event>
<event>
 5   0  0.1258262E-06  0.3095758E+04  0.7818609E-02  0.8216903E-01
       -2   -1    0    0    0  501  0.00000000000E+00  0.00000000000E+00  0.12563483118E+04  0.12563483118E+04  0.25500000920E-02 0. -1.
        2   -1    0    0  501    0  0.00000000000E+00  0.00000000000E+00 -0.19070578276E+04  0.19070578276E+04  0.25500000920E-02 0.  1.
    10030    2    1    2    0    0  0.00000000000E+00  0.00000000000E+00 -0.65070951574E+03  0.31634061394E+04  0.30957576664E+04 0.  0.
        1    1    3    3  502    0  0.13320880780E+04  0.73132151559E+03 -0.24577565537E+02  0.15198334986E+04  0.50400001928E-02 0.  1.
       -1    1    3    3    0  502 -0.13320880780E+04 -0.73132151559E+03 -0.62613195021E+03  0.16435726408E+04  0.50400001928E-02 0. -1.
</event>
<event>
 5   0  0.4219337E-07  0.3147406E+04  0.7818609E-02  0.8202847E-01
       -1   -1    0    0    0  501  0.00000000000E+00  0.00000000000E+00  0.14362839124E+04  0.14362839124E+04  0.50400001928E-02 0.  1.
        1   -1    0    0  501    0  0.00000000000E+00  0.00000000000E+00 -0.17242701728E+04  0.17242701728E+04  0.50400001928E-02 0. -1.
    10030    2    1    2    0    0  0.00000000000E+00  0.00000000000E+00 -0.28798626045E+03  0.31605540852E+04  0.31474062399E+04 0.  0.
        4    1    3    3  502    0  0.77254973597E+03  0.13668851685E+04 -0.37097809344E+02  0.15705368569E+04  0.12699999809E+01 0.  1.
       -4    1    3    3    0  502 -0.77254973597E+03 -0.13668851685E+04 -0.25088845111E+03  0.15900172283E+04  0.12699999809E+01 0. -1.
</event>
<event>
 5   0  0.1258262E-06  0.3095785E+04  0.7818609E-02  0.8216896E-01
       -2   -1    0    0    0  501  0.00000000000E+00  0.00000000000E+00  0.19614024864E+04  0.19614024864E+04  0.25500000920E-02 0. -1.
        2   -1    0    0  501    0  0.00000000000E+00  0.00000000000E+00 -0.12215601490E+04  0.12215601490E+04  0.25500000920E-02 0.  1.
    10030    2    1    2    0    0  0.00000000000E+00  0.00000000000E+00  0.73984233735E+03  0.31829626354E+04  0.30957849496E+04 0.  0.
        1    1    3    3  502    0 -0.75490652740E+03  0.26945538087E+03 -0.99155891871E+03  0.12750212377E+04  0.50400001928E-02 0.  1.
       -1    1    3    3    0  502  0.75490652740E+03 -0.26945538087E+03  0.17314012561E+04  0.19079413977E+04  0.50400001928E-02 0. -1.
</event>
<event>
 5   0  0.1193123E-06  0.3103858E+04  0.7818609E-02  0.8214680E-01
        2   -1    0    0  501    0  0.00000000000E+00  0.00000000000E+00  0.10254739879E+04  0.10254739879E+04  0.25500000920E-02 0.  1.
       -2   -1    0    0    0  501  0.00000000000E+00  0.00000000000E+00 -0.23486535642E+04  0.23486535642E+04  0.25500000920E-02 0. -1.
    10030    2    1    2    0    0  0.00000000000E+00  0.00000000000E+00 -0.13231795762E+04  0.33741275521E+04  0.31038576879E+04 0.  0.
        3    1    3    3  502    0  0.35458284013E+03 -0.23255258582E+02  0.98065470531E+03  0.10430500749E+04  0.10100000352E+00 0.  1.
       -3    1    3    3    0  502 -0.35458284013E+03  0.23255258582E+02 -0.23038342815E+04  0.23310774772E+04  0.10100000352E+00 0. -1.
</event>
<event>
 5   0  0.1193123E-06  0.3145370E+04  0.7818609E-02  0.8203396E-01
        2   -1    0    0  501    0  0.00000000000E+00  0.00000000000E+00  0.20615880393E+04  0.20615880393E+04  0.25500000920E-02 0. -1.
       -2   -1    0    0    0  501  0.00000000000E+00  0.00000000000E+00 -0.11997246238E+04  0.11997246238E+04  0.25500000920E-02 0.  1.
    10030    2    1    2    0    0  0.00000000000E+00  0.00000000000E+00  0.86186341555E+03  0.32613126631E+04  0.31453698891E+04 0.  0.
        3    1    3    3  502    0  0.97884113861E+03  0.11495926010E+04  0.88720351351E+03  0.17512347665E+04  0.10100000352E+00 0. -1.
       -3    1    3    3    0  502 -0.97884113861E+03 -0.11495926010E+04 -0.25340097962E+02  0.15100778966E+04  0.10100000352E+00 0.  1.
</event>
<event>
 5   0  0.4330395E-07  0.3126294E+04  0.7818609E-02  0.8208559E-01
        1   -1    0    0  501    0  0.00000000000E+00  0.00000000000E+00  0.22109011571E+04  0.22109011571E+04  0.50400001928E-02 0.  1.
       -1   -1    0    0    0  501  0.00000000000E+00  0.00000000000E+00 -0.11051730412E+04  0.11051730412E+04  0.50400001928E-02 0. -1.
    10030    2    1    2    0    0  0.00000000000E+00  0.00000000000E+00  0.11057281159E+04  0.33160741984E+04  0.31262938798E+04 0.  0.
        1    1    3    3  502    0 -0.10276866303E+04  0.78898674487E+03  0.14804733763E+04  0.19673437198E+04  0.50400001928E-02 0.  1.
       -1    1    3    3    0  502  0.10276866303E+04 -0.78898674487E+03 -0.37474526045E+03  0.13487304786E+04  0.50400001928E-02 0. -1.
</event>
<event>
 5   0  0.3935852E-07  0.3104705E+04  0.7818609E-02  0.8214448E-01
        1   -1    0    0  501    0  0.00000000000E+00  0.00000000000E+00  0.14112623987E+04  0.14112623988E+04  0.50400001928E-02 0.  1.
       -1   -1    0    0    0  501  0.00000000000E+00  0.00000000000E+00 -0.17075479694E+04  0.17075479694E+04  0.50400001928E-02 0. -1.
    10030    2    1    2    0    0  0.00000000000E+00  0.00000000000E+00 -0.29628557065E+03  0.31188103681E+04  0.31047049736E+04 0.  0.
        5    1    3    3  502    0  0.37346522236E+03  0.16065478251E+03 -0.16531114649E+04  0.17023765262E+04  0.46999998093E+01 0. -1.
       -5    1    3    3    0  502 -0.37346522236E+03 -0.16065478251E+03  0.13568258942E+04  0.14164338420E+04  0.46999998093E+01 0.  1.
</event>
<event>
 5   0  0.1193123E-06  0.3096389E+04  0.7818609E-02  0.8216730E-01
       -2   -1    0    0    0  501  0.00000000000E+00  0.00000000000E+00  0.14453324194E+04  0.14453324194E+04  0.25500000920E-02 0. -1.
        2   -1    0    0  501    0  0.00000000000E+00  0.00000000000E+00 -0.16583774825E+04  0.16583774825E+04  0.25500000920E-02 0.  1.
    10030    2    1    2    0    0  0.00000000000E+00  0.00000000000E+00 -0.21304506310E+03  0.31037099018E+04  0.30963893418E+04 0.  0.
        3    1    3    3  502    0 -0.96325442719E+02 -0.11633611378E+04  0.91284738849E+03  0.14818832925E+04  0.10100000352E+00 0. -1.
       -3    1    3    3    0  502  0.96325442719E+02  0.11633611378E+04 -0.11258924516E+04  0.16218266093E+04  0.10100000352E+00 0.  1.
</event>
<event>
 5   0  0.3935852E-07  0.3039665E+04  0.7818609E-02  0.8232494E-01
       -1   -1    0    0    0  501  0.00000000000E+00  0.00000000000E+00  0.12954521931E+04  0.12954521931E+04  0.50400001928E-02 0.  1.
        1   -1    0    0  501    0  0.00000000000E+00  0.00000000000E+00 -0.17830765922E+04  0.17830765922E+04  0.50400001928E-02 0. -1.
    10030    2    1    2    0    0  0.00000000000E+00  0.00000000000E+00 -0.48762439913E+03  0.30785287853E+04  0.30396647722E+04 0.  0.
        5    1    3    3  502    0  0.85656918199E+03  0.57734506612E+03  0.88526450061E+03  0.13604239835E+04  0.46999998093E+01 0.  1.
       -5    1    3    3    0  502 -0.85656918199E+03 -0.57734506612E+03 -0.13728888997E+04  0.17181048018E+04  0.46999998093E+01 0. -1.
</event>
<event>
 5   0  0.1176002E-06  0.3102997E+04  0.7818609E-02  0.8214916E-01
       -2   -1    0    0    0  501  0.00000000000E+00  0.00000000000E+00  0.16772968402E+04  0.16772968402E+04  0.25500000920E-02 0. -1.
        2   -1    0    0  501    0  0.00000000000E+00  0.00000000000E+00 -0.14351351094E+04  0.14351351094E+04  0.25500000920E-02 0.  1.
    10030    2    1    2    0    0  0.00000000000E+00  0.00000000000E+00  0.24216173077E+03  0.31124319496E+04  0.31029969928E+04 0.  0.
        2    1    3    3  502    0 -0.42714555977E+03  0.92739561937E+03  0.12928072927E+04  0.16473817591E+04  0.25500000920E-02 0. -1.
       -2    1    3    3    0  502  0.42714555977E+03 -0.92739561937E+03 -0.10506455619E+04  0.14650501906E+04  0.25500000920E-02 0.  1.
</event>
<event>
 5   0  0.4173905E-07  0.3094789E+04  0.7818609E-02  0.8217169E-01
        1   -1    0    0  501    0  0.00000000000E+00  0.00000000000E+00  0.15690424894E+04  0.15690424894E+04  0.50400001928E-02 0.  1.
       -1   -1    0    0    0  501  0.00000000000E+00  0.00000000000E+00 -0.15260454218E+04  0.15260454218E+04  0.50400001928E-02 0. -1.
    10030    2    1    2    0    0  0.00000000000E+00  0.00000000000E+00  0.42997067605E+02  0.30950879112E+04  0.30947892385E+04 0.  0.
        3    1    3    3  502    0 -0.57320941574E+03 -0.14138734452E+04  0.28002482365E+03  0.15511354117E+04  0.10100000352E+00 0.  1.
       -3    1    3    3    0  502  0.57320941574E+03  0.14138734452E+04 -0.23702775605E+03  0.15439524995E+04  0.10100000352E+00 0. -1.
</event>
<event>
 5   0  0.4173905E-07  0.3096360E+04  0.7818609E-02  0.8216738E-01
       -1   -1    0    0    0  501  0.00000000000E+00  0.00000000000E+00  0.12748273475E+04  0.12748273475E+04  0.50400001928E-02 0.  1.
        1   -1    0    0  501    0  0.00000000000E+00  0.00000000000E+00 -0.18801454548E+04  0.18801454548E+04  0.50400001928E-02 0. -1.
    10030    2    1    2    0    0  0.00000000000E+00  0.00000000000E+00 -0.60531810729E+03  0.31549728022E+04  0.30963596968E+04 0.  0.
        3    1    3    3  502    0 -0.53759186012E+03 -0.12597515002E+04  0.43272444663E+03  0.14363945514E+04  0.10100000352E+00 0.  1.
       -3    1    3    3    0  502  0.53759186012E+03  0.12597515002E+04 -0.10380425539E+04  0.17185782508E+04  0.10100000352E+00 0. -1.
</event>
<event>
 5   0  0.4219337E-07  0.3104402E+04  0.7818609E-02  0.8214531E-01
       -1   -1    0    0    0  501  0.00000000000E+00  0.00000000000E+00  0.12744193205E+04  0.12744193205E+04  0.50400001928E-02 0.  1.
        1   -1    0    0  501    0  0.00000000000E+00  0.00000000000E+00 -0.18905299603E+04  0.18905299603E+04  0.50400001928E-02 0. -1.
    10030    2    1    2    0    0  0.00000000000E+00  0.00000000000E+00 -0.61611063979E+03  0.31649492808E+04  0.31044019762E+04 0.  0.
        4    1    3    3  502    0 -0.93988386585E+03 -0.79605024966E+03  0.65495678092E+03  0.13950081287E+04  0.12699999809E+01 0.  1.
       -4    1    3    3    0  502  0.93988386585E+03  0.79605024966E+03 -0.12710674207E+04  0.17699411522E+04  0.12699999809E+01 0. -1.
</event>
<event>
 5   0  0.1237580E-06  0.3224418E+04  0.7818609E-02  0.8182398E-01
        2   -1    0    0  501    0  0.00000000000E+00  0.00000000000E+00  0.13292009002E+04  0.13292009002E+04  0.25500000920E-02 0.  1.
       -2   -1    0    0    0  501  0.00000000000E+00  0.00000000000E+00 -0.19554741475E+04  0.19554741476E+04  0.25500000920E-02 0. -1.
    10030    2    1    2    0    0  0.00000000000E+00  0.00000000000E+00 -0.62627324735E+03  0.32846750478E+04  0.32244180853E+04 0.  0.
        4    1    3    3  502    0  0.85755580815E+03  0.41150912808E+03  0.10129094134E+04  0.13895066820E+04  0.12699999809E+01 0.  1.
       -4    1    3    3    0  502 -0.85755580815E+03 -0.41150912808E+03 -0.16391826607E+04  0.18951683658E+04  0.12699999809E+01 0. -1.
</event>
<event>
 5   0  0.4173905E-07  0.3109624E+04  0.7818609E-02  0.8213102E-01
       -1   -1    0    0    0  501  0.00000000000E+00  0.00000000000E+00  0.11565114177E+04  0.11565114177E+04  0.50400001928E-02 0.  1.
        1   -1    0    0  501    0  0.00000000000E+00  0.00000000000E+00 -0.20902861280E+04  0.20902861280E+04  0.50400001928E-02 0. -1.
    10030    2    1    2    0    0  0.00000000000E+00  0.00000000000E+00 -0.93377471025E+03  0.32467975457E+04  0.31096236257E+04 0.  0.
        3    1    3    3  502    0  0.11137855111E+04  0.99733122659E+03 -0.21145351880E+02  0.14952039581E+04  0.10100000352E+00 0.  1.
       -3    1    3    3    0  502 -0.11137855111E+04 -0.99733122659E+03 -0.91262935837E+03  0.17515935876E+04  0.10100000352E+00 0. -1.
</event>
<event>
 5   0  0.3935852E-07  0.3102438E+04  0.7818609E-02  0.8215069E-01
       -1   -1    0    0    0  501  0.00000000000E+00  0.00000000000E+00  0.12787691411E+04  0.12787691411E+04  0.50400001928E-02 0.  1.
        1   -1    0    0  501    0  0.00000000000E+00  0.00000000000E+00 -0.18817158999E+04  0.18817158999E+04  0.50400001928E-02 0. -1.
    10030    2    1    2    0    0  0.00000000000E+00  0.00000000000E+00 -0.60294675882E+03  0.31604850409E+04  0.31024378962E+04 0.  0.
        5    1    3    3  502    0 -0.99085642065E+02  0.55661229159E+03  0.11700685118E+04  0.12995066833E+04  0.46999998093E+01 0.  1.
       -5    1    3    3    0  502  0.99085642065E+02 -0.55661229159E+03 -0.17730152706E+04  0.18609783576E+04  0.46999998093E+01 0. -1.
</event>
<event>
 5   0  0.4219337E-07  0.3319733E+04  0.7818609E-02  0.8157892E-01
        1   -1    0    0  501    0  0.00000000000E+00  0.00000000000E+00  0.95095311355E+03  0.95095311356E+03  0.50400001928E-02 0. -1.
       -1   -1    0    0    0  501  0.00000000000E+00  0.00000000000E+00 -0.28972581091E+04  0.28972581091E+04  0.50400001928E-02 0.  1.
    10030    2    1    2    0    0  0.00000000000E+00  0.00000000000E+00 -0.19463049955E+04  0.38482112226E+04  0.33197328926E+04 0.  0.
        4    1    3    3  502    0 -0.11015704987E+04  0.12206758106E+04 -0.70971199254E+03  0.17908656352E+04  0.12699999809E+01 0.  1.
       -4    1    3    3    0  502  0.11015704987E+04 -0.12206758106E+04 -0.12365930030E+04  0.20573455874E+04  0.12699999809E+01 0. -1.
</event>
<event>
 5   0  0.1176002E-06  0.3091344E+04  0.7818609E-02  0.8218117E-01
       -2   -1    0    0    0  501  0.00000000000E+00  0.00000000000E+00  0.11689566507E+04  0.11689566507E+04  0.25500000920E-02 0.  1.
        2   -1    0    0  501    0  0.00000000000E+00  0.00000000000E+00 -0.20437905048E+04  0.20437905048E+04  0.25500000920E-02 0. -1.
    10030    2    1    2    0    0  0.00000000000E+00  0.00000000000E+00 -0.87483385413E+03  0.32127471555E+04  0.30913443698E+04 0.  0.
        2    1    3    3  502    0 -0.44205470701E+03  0.11861679581E+04 -0.13592081161E+04  0.18573781229E+04  0.25500000920E-02 0. -1.
       -2    1    3    3    0  502  0.44205470701E+03 -0.11861679581E+04  0.48437426193E+03  0.13553690326E+04  0.25500000920E-02 0.  1.
</event>
<event>
 5   0  0.1237580E-06  0.3109657E+04  0.7818609E-02  0.8213093E-01
       -2   -1    0    0    0  501  0.00000000000E+00  0.00000000000E+00  0.14653453236E+04  0.14653453236E+04  0.25500000920E-02 0.  1.
        2   -1    0    0  501    0  0.00000000000E+00  0.00000000000E+00 -0.16497760375E+04  0.16497760375E+04  0.25500000920E-02 0. -1.
    10030    2    1    2    0    0  0.00000000000E+00  0.00000000000E+00 -0.18443071397E+03  0.31151213611E+04  0.31096569596E+04 0.  0.
        4    1    3    3  502    0  0.12910616847E+03 -0.22069665875E+03  0.14441401602E+04  0.14666007749E+04  0.12699999809E+01 0.  1.
       -4    1    3    3    0  502 -0.12910616847E+03  0.22069665875E+03 -0.16285708742E+04  0.16485205862E+04  0.12699999809E+01 0. -1.
</event>
<event>
 5   0  0.1237580E-06  0.3126869E+04  0.7818609E-02  0.8208402E-01
        2   -1    0    0  501    0  0.00000000000E+00  0.00000000000E+00  0.14400761235E+04  0.14400761235E+04  0.25500000920E-02 0. -1.
       -2   -1    0    0    0  501  0.00000000000E+00  0.00000000000E+00 -0.16973600735E+04  0.16973600735E+04  0.25500000920E-02 0.  1.
    10030    2    1    2    0    0  0.00000000000E+00  0.00000000000E+00 -0.25728395000E+03  0.31374361970E+04  0.31268691785E+04 0.  0.
        4    1    3    3  502    0 -0.34252320254E+03 -0.15053432291E+04  0.11906418019E+03  0.15484050741E+04  0.12699999809E+01 0.  1.
       -4    1    3    3    0  502  0.34252320254E+03  0.15053432291E+04 -0.37634813018E+03  0.15890311229E+04  0.12699999809E+01 0. -1.
</event>
<event>
 5   0  0.4219337E-07  0.3119534E+04  0.7818609E-02  0.8210397E-01
        1   -1    0    0  501    0  0.00000000000E+00  0.00000000000E+00  0.13546696392E+04  0.13546696393E+04  0.50400001928E-02 0. -1.
       -1   -1    0    0    0  501  0.00000000000E+00  0.00000000000E+00 -0.17959162560E+04  0.17959162560E+04  0.50400001928E-02 0.  1.
    10030    2    1    2    0    0  0.00000000000E+00  0.00000000000E+00 -0.44124661675E+03  0.31505858952E+04  0.31195340848E+04 0.  0.
        4    1    3    3  502    0  0.47014009863E+03 -0.70937914005E+03 -0.15407769453E+04  0.17601834236E+04  0.12699999809E+01 0.  1.
       -4    1    3    3    0  502 -0.47014009863E+03  0.70937914005E+03  0.10995303286E+04  0.13904024716E+04  0.12699999809E+01 0. -1.
</event>
<event>
 5   0  0.1176002E-06  0.3074912E+04  0.7818609E-02  0.8222657E-01
       -2   -1    0    0    0  501  0.00000000000E+00  0.00000000000E+00  0.10709578589E+04  0.10709578589E+04  0.25500000920E-02 0.  1.
        2   -1    0    0  501    0  0.00000000000E+00  0.00000000000E+00 -0.22071556251E+04  0.22071556251E+04  0.25500000920E-02 0. -1.
    10030    2    1    2    0    0  0.00000000000E+00  0.00000000000E+00 -0.11361977662E+04  0.32781134840E+04  0.30749118118E+04 0.  0.
        2    1    3    3  502    0  0.13194055796E+04  0.54888278995E+03 -0.11727359262E+04  0.18486246112E+04  0.25500000920E-02 0.  1.
       -2    1    3    3    0  502 -0.13194055796E+04 -0.54888278995E+03  0.36538160004E+02  0.14294888729E+04  0.25500000920E-02 0. -1.
</event>
<event>
 5   0  0.1237580E-06  0.3002065E+04  0.7818609E-02  0.8243141E-01
       -2   -1    0    0    0  501  0.00000000000E+00  0.00000000000E+00  0.14986066713E+04  0.14986066713E+04  0.25500000920E-02 0. -1.
        2   -1    0    0  501    0  0.00000000000E+00  0.00000000000E+00 -0.15034622934E+04  0.15034622934E+04  0.25500000920E-02 0.  1.
    10030    2    1    2    0    0  0.00000000000E+00  0.00000000000E+00 -0.48556220739E+01  0.30020689646E+04  0.30020650378E+04 0.  0.
        4    1    3    3  502    0  0.85079684800E+03 -0.14215673669E+02  0.12341172339E+04  0.14990344632E+04  0.12699999809E+01 0. -1.
       -4    1    3    3    0  502 -0.85079684800E+03  0.14215673669E+02 -0.12389728559E+04  0.15030345015E+04  0.12699999809E+01 0.  1.
</event>
<event>
 5   0  0.1200286E-06  0.3099262E+04  0.7818609E-02  0.8215940E-01
       -2   -1    0    0    0  501  0.00000000000E+00  0.00000000000E+00  0.14303106661E+04  0.14303106661E+04  0.25500000920E-02 0.  1.
        2   -1    0    0  501    0  0.00000000000E+00  0.00000000000E+00 -0.16789053856E+04  0.16789053856E+04  0.25500000920E-02 0. -1.
    10030    2    1    2    0    0  0.00000000000E+00  0.00000000000E+00 -0.24859471951E+03  0.31092160518E+04  0.30992620286E+04 0.  0.
        5    1    3    3  502    0  0.98416455971E+03 -0.76655285959E+03 -0.10465709372E+04  0.16283476237E+04  0.46999998093E+01 0.  1.
       -5    1    3    3    0  502 -0.98416455971E+03  0.76655285959E+03  0.79797621770E+03  0.14808684280E+04  0.46999998093E+01 0. -1.
</event>
<event>
 5   0  0.4134019E-07  0.3110080E+04  0.7818609E-02  0.8212977E-01
        1   -1    0    0  501    0  0.00000000000E+00  0.00000000000E+00  0.15020183338E+04  0.15020183338E+04  0.50400001928E-02 0. -1.
       -1   -1    0    0    0  501  0.00000000000E+00  0.00000000000E+00 -0.16099329318E+04  0.16099329318E+04  0.50400001928E-02 0.  1.
    10030    2    1    2    0    0  0.00000000000E+00  0.00000000000E+00 -0.10791459795E+03  0.31119512656E+04  0.31100796001E+04 0.  0.
        2    1    3    3  502    0 -0.18969443168E+03  0.10569595651E+04  0.10714423232E+04  0.15169496207E+04  0.25500000920E-02 0. -1.
       -2    1    3    3    0  502  0.18969443168E+03 -0.10569595651E+04 -0.11793569212E+04  0.15950016449E+04  0.25500000920E-02 0.  1.
</event>
<event>
 5   0  0.1200286E-06  0.3057642E+04  0.7818609E-02  0.8227460E-01
        2   -1    0    0  501    0  0.00000000000E+00  0.00000000000E+00  0.32206217222E+04  0.32206217222E+04  0.25500000920E-02 0. -1.
       -2   -1    0    0    0  501  0.00000000000E+00  0.00000000000E+00 -0.72572748459E+03  0.72572748459E+03  0.25500000920E-02 0.  1.
    10030    2    1    2    0    0  0.00000000000E+00  0.00000000000E+00  0.24948942376E+04  0.39463492068E+04  0.30576420335E+04 0.  0.
        5    1    3    3  502    0 -0.10740944019E+04 -0.25506198493E+03  0.26124510334E+04  0.28361343219E+04  0.46999998093E+01 0. -1.
       -5    1    3    3    0  502  0.10740944019E+04  0.25506198493E+03 -0.11755679574E+03  0.11102148849E+04  0.46999998093E+01 0.  1.
</event>
<event>
 5   0  0.3935852E-07  0.3108660E+04  0.7818609E-02  0.8213365E-01
        1   -1    0    0  501    0  0.00000000000E+00  0.00000000000E+00  0.14299484953E+04  0.14299484953E+04  0.50400001928E-02 0. -1.
       -1   -1    0    0    0  501  0.00000000000E+00  0.00000000000E+00 -0.16895304460E+04  0.16895304460E+04  0.50400001928E-02 0.  1.
    10030    2    1    2    0    0  0.00000000000E+00  0.00000000000E+00 -0.25958195076E+03  0.31194789413E+04  0.31086598521E+04 0.  0.
        5    1    3    3  502    0  0.81915445547E+03 -0.12215979289E+04 -0.63413732968E+03  0.16017077650E+04  0.46999998093E+01 0.  1.
       -5    1    3    3    0  502 -0.81915445547E+03  0.12215979289E+04  0.37455537893E+03  0.15177711763E+04  0.46999998093E+01 0. -1.
</event>
<event>
 5   0  0.4134019E-07  0.3092463E+04  0.7818609E-02  0.8217809E-01
        1   -1    0    0  501    0  0.00000000000E+00  0.00000000000E+00  0.22893807155E+04  0.22893807155E+04  0.50400001928E-02 0. -1.
       -1   -1    0    0    0  501  0.00000000000E+00  0.00000000000E+00 -0.10443139543E+04  0.10443139543E+04  0.50400001928E-02 0.  1.
    10030    2    1    2    0    0  0.00000000000E+00  0.00000000000E+00  0.12450667612E+04  0.33336946699E+04  0.30924632434E+04 0.  0.
        2    1    3    3  502    0 -0.41702907932E+03  0.37113236949E+03 -0.93188273977E+03  0.10863047129E+04  0.25500000920E-02 0.  1.
       -2    1    3    3    0  502  0.41702907932E+03 -0.37113236949E+03  0.21769495010E+04  0.22473899569E+04  0.25500000920E-02 0. -1.
</event>
<event>
 5   0  0.1258262E-06  0.3115856E+04  0.7818609E-02  0.8211400E-01
        2   -1    0    0  501    0  0.00000000000E+00  0.00000000000E+00  0.16096012499E+04  0.16096012499E+04  0.25500000920E-02 0. -1.
       -2   -1    0    0    0  501  0.00000000000E+00  0.00000000000E+00 -0.15079132223E+04  0.15079132223E+04  0.25500000920E-02 0.  1.
    10030    2    1    2    0    0  0.00000000000E+00  0.00000000000E+00  0.10168802764E+03  0.31175144722E+04  0.31158555855E+04 0.  0.
        1    1    3    3  502    0  0.10856988713E+04 -0.10538961079E+04 -0.32043300458E+03  0.15466468103E+04  0.50400001928E-02 0.  1.
       -1    1    3    3    0  502 -0.10856988713E+04  0.10538961079E+04  0.42212103222E+03  0.15708676619E+04  0.50400001928E-02 0. -1.
</event>
<event>
 5   0  0.4219337E-07  0.3087285E+04  0.7818609E-02  0.8219236E-01
        1   -1    0    0  501    0  0.00000000000E+00  0.00000000000E+00  0.22264992365E+04  0.22264992365E+04  0.50400001928E-02 0. -1.
       -1   -1    0    0    0  501  0.00000000000E+00  0.00000000000E+00 -0.10702149146E+04  0.10702149146E+04  0.50400001928E-02 0.  1.
    10030    2    1    2    0    0  0.00000000000E+00  0.00000000000E+00  0.11562843219E+04  0.32967141510E+04  0.30872853384E+04 0.  0.
        4    1    3    3  502    0  0.26012771425E+03  0.26008212939E+03 -0.10227294067E+04  0.10868699067E+04  0.12699999809E+01 0.  1.
       -4    1    3    3    0  502 -0.26012771425E+03 -0.26008212939E+03  0.21790137287E+04  0.22098442444E+04  0.12699999809E+01 0. -1.
</event>
<event>
 5   0  0.1193123E-06  0.3103564E+04  0.7818609E-02  0.8214761E-01
        2   -1    0    0  501    0  0.00000000000E+00  0.00000000000E+00  0.23942972429E+04  0.23942972429E+04  0.25500000920E-02 0. -1.
       -2   -1    0    0    0  501  0.00000000000E+00  0.00000000000E+00 -0.10057344373E+04  0.10057344373E+04  0.25500000920E-02 0.  1.
    10030    2    1    2    0    0  0.00000000000E+00  0.00000000000E+00  0.13885628056E+04  0.34000316802E+04  0.31035638807E+04 0.  0.
        3    1    3    3  502    0 -0.14919966861E+04 -0.34296939680E+03  0.41638694476E+03  0.15865245716E+04  0.10100000352E+00 0.  1.
       -3    1    3    3    0  502  0.14919966861E+04  0.34296939680E+03  0.97217586088E+03  0.18135071086E+04  0.10100000352E+00 0. -1.
</event>
<event>
 5   0  0.3935852E-07  0.3096580E+04  0.7818609E-02  0.8216677E-01
        1   -1    0    0  501    0  0.00000000000E+00  0.00000000000E+00  0.15370696223E+04  0.15370696223E+04  0.50400001928E-02 0.  1.
       -1   -1    0    0    0  501  0.00000000000E+00  0.00000000000E+00 -0.15595921336E+04  0.15595921336E+04  0.50400001928E-02 0. -1.
    10030    2    1    2    0    0  0.00000000000E+00  0.00000000000E+00 -0.22522511297E+02  0.30966617558E+04  0.30965798499E+04 0.  0.
        5    1    3    3  502    0  0.14902488411E+04 -0.41195818129E+03 -0.92678703754E+02  0.15489230399E+04  0.46999998093E+01 0. -1.
       -5    1    3    3    0  502 -0.14902488411E+04  0.41195818129E+03  0.70156192456E+02  0.15477387159E+04  0.46999998093E+01 0.  1.
</event>
<event>
 5   0  0.4173905E-07  0.3096941E+04  0.7818609E-02  0.8216578E-01
        1   -1    0    0  501    0  0.00000000000E+00  0.00000000000E+00  0.17313135530E+04  0.17313135530E+04  0.50400001928E-02 0.  1.
       -1   -1    0    0    0  501  0.00000000000E+00  0.00000000000E+00 -0.13849378458E+04  0.13849378458E+04  0.50400001928E-02 0. -1.
    10030    2    1    2    0    0  0.00000000000E+00  0.00000000000E+00  0.34637570722E+03  0.31162513988E+04  0.30969414993E+04 0.  0.
        3    1    3    3  502    0 -0.99739141097E+03 -0.11577979809E+04  0.42469805806E+03  0.15860814109E+04  0.10100000352E+00 0.  1.
       -3    1    3    3    0  502  0.99739141097E+03  0.11577979809E+04 -0.78322350848E+02  0.15301699880E+04  0.10100000352E+00 0. -1.
</event>
<event>
 5   0  0.3902375E-07  0.3100520E+04  0.7818609E-02  0.8215595E-01
        3   -1    0    0  501    0  0.00000000000E+00  0.00000000000E+00  0.12636864994E+04  0.12636865034E+04  0.10100000352E+00 0. -1.
       -3   -1    0    0    0  501  0.00000000000E+00  0.00000000000E+00 -0.19018214612E+04  0.19018214639E+04  0.10100000352E+00 0.  1.
    10030    2    1    2    0    0  0.00000000000E+00  0.00000000000E+00 -0.63813496187E+03  0.31655079673E+04  0.31005200308E+04 0.  0.
        3    1    3    3  502    0  0.60985931261E+03 -0.14243223150E+04 -0.37195743463E+03  0.15934160729E+04  0.10100000352E+00 0. -1.
       -3    1    3    3    0  502 -0.60985931261E+03  0.14243223150E+04 -0.26617752723E+03  0.15720918944E+04  0.10100000352E+00 0.  1.
</event>
<event>
 5   0  0.1176002E-06  0.3105116E+04  0.7818609E-02  0.8214335E-01
       -2   -1    0    0    0  501  0.00000000000E+00  0.00000000000E+00  0.25324627191E+04  0.25324627191E+04  0.25500000920E-02 0.  1.
        2   -1    0    0  501    0  0.00000000000E+00  0.00000000000E+00 -0.95181543232E+03  0.95181543232E+03  0.25500000920E-02 0. -1.
    10030    2    1    2    0    0  0.00000000000E+00  0.00000000000E+00  0.15806472868E+04  0.34842781514E+04  0.31051164860E+04 0.  0.
        2    1    3    3  502    0 -0.22638344057E+03  0.13181127248E+04 -0.94483404449E+02  0.13407452149E+04  0.25500000920E-02 0. -1.
       -2    1    3    3    0  502  0.22638344057E+03 -0.13181127248E+04  0.16751306912E+04  0.21435329366E+04  0.25500000920E-02 0.  1.
</event>
<event>
 5   0  0.1200286E-06  0.3136553E+04  0.7818609E-02  0.8205777E-01
        2   -1    0    0  501    0  0.00000000000E+00  0.00000000000E+00  0.22714458812E+04  0.22714458812E+04  0.25500000920E-02 0.  1.
       -2   -1    0    0    0  501  0.00000000000E+00  0.00000000000E+00 -0.10827863429E+04  0.10827863429E+04  0.25500000920E-02 0. -1.
    10030    2    1    2    0    0  0.00000000000E+00  0.00000000000E+00  0.11886595383E+04  0.33542322241E+04  0.31365526163E+04 0.  0.
        5    1    3    3  502    0  0.66569234541E+03  0.87100188448E+03  0.17936226774E+04  0.21021167856E+04  0.46999998093E+01 0.  1.
       -5    1    3    3    0  502 -0.66569234541E+03 -0.87100188448E+03 -0.60496313913E+03  0.12521154385E+04  0.46999998093E+01 0. -1.
</event>
<event>
 5   0  0.4219337E-07  0.3139195E+04  0.7818609E-02  0.8205063E-01
       -1   -1    0    0    0  501  0.00000000000E+00  0.00000000000E+00  0.21225958890E+04  0.21225958890E+04  0.50400001928E-02 0.  1.
        1   -1    0    0  501    0  0.00000000000E+00  0.00000000000E+00 -0.11606713602E+04  0.11606713602E+04  0.50400001928E-02 0. -1.
    10030    2    1    2    0    0  0.00000000000E+00  0.00000000000E+00  0.96192452885E+03  0.32832672492E+04  0.31391949654E+04 0.  0.
        4    1    3    3  502    0  0.54484708599E+02  0.69052436012E+03 -0.99216919503E+03  0.12100387596E+04  0.12699999809E+01 0. -1.
       -4    1    3    3    0  502 -0.54484708599E+02 -0.69052436012E+03  0.19540937239E+04  0.20732284896E+04  0.12699999809E+01 0.  1.
</event>
<event>
 5   0  0.1237580E-06  0.3109240E+04  0.7818609E-02  0.8213207E-01
       -2   -1    0    0    0  501  0.00000000000E+00  0.00000000000E+00  0.18280659048E+04  0.18280659048E+04  0.25500000920E-02 0. -1.
        2   -1    0    0  501    0  0.00000000000E+00  0.00000000000E+00 -0.13220764565E+04  0.13220764565E+04  0.25500000920E-02 0.  1.
    10030    2    1    2    0    0  0.00000000000E+00  0.00000000000E+00  0.50598944830E+03  0.31501423612E+04  0.31092397100E+04 0.  0.
        4    1    3    3  502    0 -0.80326590500E+03 -0.84390381024E+03  0.12958220944E+04  0.17425746091E+04  0.12699999809E+01 0. -1.
       -4    1    3    3    0  502  0.80326590500E+03  0.84390381024E+03 -0.78983264611E+03  0.14075677521E+04  0.12699999809E+01 0.  1.
</event>
<event>
 5   0  0.3935852E-07  0.3088762E+04  0.7818609E-02  0.8218829E-01
       -1   -1    0    0    0  501  0.00000000000E+00  0.00000000000E+00  0.13706561249E+04  0.13706561249E+04  0.50400001928E-02 0.  1.
        1   -1    0    0  501    0  0.00000000000E+00  0.00000000000E+00 -0.17401243236E+04  0.17401243237E+04  0.50400001928E-02 0. -1.
    10030    2    1    2    0    0  0.00000000000E+00  0.00000000000E+00 -0.36946819879E+03  0.31107804485E+04  0.30887616044E+04 0.  0.
        5    1    3    3  502    0 -0.30663614053E+03 -0.14468298646E+04 -0.63259234360E+03  0.16085824638E+04  0.46999998093E+01 0.  1.
       -5    1    3    3    0  502  0.30663614053E+03  0.14468298646E+04  0.26312414481E+03  0.15021979847E+04  0.46999998093E+01 0. -1.
</event>
<event>
 5   0  0.1176002E-06  0.3021485E+04  0.7818609E-02  0.8237622E-01
        2   -1    0    0  501    0  0.00000000000E+00  0.00000000000E+00  0.20948185361E+04  0.20948185361E+04  0.25500000920E-02 0. -1.
       -2   -1    0    0    0  501  0.00000000000E+00  0.00000000000E+00 -0.10895184902E+04  0.10895184902E+04  0.25500000920E-02 0.  1.
    10030    2    1    2    0    0  0.00000000000E+00  0.00000000000E+00  0.10053000459E+04  0.31843370263E+04  0.30214854153E+04 0.  0.
        2    1    3    3  502    0 -0.83829086918E+03  0.12030385145E+04  0.88599989151E+03  0.17131926501E+04  0.25500000920E-02 0.  1.
       -2    1    3    3    0  502  0.83829086918E+03 -0.12030385145E+04  0.11930015440E+03  0.14711443762E+04  0.25500000920E-02 0. -1.
</event>
<event>
 5   0  0.1193123E-06  0.3114079E+04  0.7818609E-02  0.8211885E-01
        2   -1    0    0  501    0  0.00000000000E+00  0.00000000000E+00  0.21464354002E+04  0.21464354002E+04  0.25500000920E-02 0. -1.
       -2   -1    0    0    0  501  0.00000000000E+00  0.00000000000E+00 -0.11294876187E+04  0.11294876187E+04  0.25500000920E-02 0.  1.
    10030    2    1    2    0    0  0.00000000000E+00  0.00000000000E+00  0.10169477815E+04  0.32759230189E+04  0.31140791312E+04 0.  0.
        3    1    3    3  502    0 -0.12831795196E+03  0.68227534985E+03 -0.95766180061E+03  0.11828276647E+04  0.10100000352E+00 0.  1.
       -3    1    3    3    0  502  0.12831795196E+03 -0.68227534985E+03  0.19746095821E+04  0.20930953542E+04  0.10100000352E+00 0. -1.
</event>
<event>
 5   0  0.4134019E-07  0.2998656E+04  0.7818609E-02  0.8244115E-01
       -1   -1    0    0    0  501  0.00000000000E+00  0.00000000000E+00  0.11507861368E+04  0.11507861368E+04  0.50400001928E-02 0.  1.
        1   -1    0    0  501    0  0.00000000000E+00  0.00000000000E+00 -0.19534337087E+04  0.19534337087E+04  0.50400001928E-02 0. -1.
    10030    2    1    2    0    0  0.00000000000E+00  0.00000000000E+00 -0.80264757196E+03  0.31042198455E+04  0.29986559864E+04 0.  0.
        2    1    3    3  502    0  0.99194467850E+03  0.30836708611E+03 -0.15205604339E+04  0.18415071377E+04  0.25500000920E-02 0. -1.
       -2    1    3    3    0  502 -0.99194467850E+03 -0.30836708611E+03  0.71791286199E+03  0.12627127078E+04  0.25500000920E-02 0.  1.
</event>
<event>
 5   0  0.3935852E-07  0.3108684E+04  0.7818609E-02  0.8213359E-01
       -1   -1    0    0    0  501  0.00000000000E+00  0.00000000000E+00  0.12256719667E+04  0.12256719667E+04  0.50400001928E-02 0. -1.
        1   -1    0    0  501    0  0.00000000000E+00  0.00000000000E+00 -0.19711462699E+04  0.19711462699E+04  0.50400001928E-02 0.  1.
    10030    2    1    2    0    0  0.00000000000E+00  0.00000000000E+00 -0.74547430322E+03  0.31968182365E+04  0.31086837891E+04 0.  0.
        5    1    3    3  502    0  0.15311805798E+04  0.25119557141E+03 -0.27880499758E+03  0.15765048366E+04  0.46999998093E+01 0. -1.
       -5    1    3    3    0  502 -0.15311805798E+04 -0.25119557141E+03 -0.46666930564E+03  0.16203133999E+04  0.46999998093E+01 0.  1.
</event>
<event>
 5   0  0.1193123E-06  0.3106231E+04  0.7818609E-02  0.8214030E-01
       -2   -1    0    0    0  501  0.00000000000E+00  0.00000000000E+00  0.16671421147E+04  0.16671421147E+04  0.25500000920E-02 0. -1.
        2   -1    0    0  501    0  0.00000000000E+00  0.00000000000E+00 -0.14468877594E+04  0.14468877594E+04  0.25500000920E-02 0.  1.
    10030    2    1    2    0    0  0.00000000000E+00  0.00000000000E+00  0.22025435529E+03  0.31140298742E+04  0.31062308472E+04 0.  0.
        3    1    3    3  502    0 -0.12331646430E+04  0.46268523987E+03  0.93523364021E+03  0.16153744581E+04  0.10100000352E+00 0. -1.
       -3    1    3    3    0  502  0.12331646430E+04 -0.46268523987E+03 -0.71497928493E+03  0.14986554160E+04  0.10100000352E+00 0.  1.
</event>
<event>
 5   0  0.1193123E-06  0.3065170E+04  0.7818609E-02  0.8225362E-01
       -2   -1    0    0    0  501  0.00000000000E+00  0.00000000000E+00  0.25085454347E+04  0.25085454347E+04  0.25500000920E-02 0.  1.
        2   -1    0    0  501    0  0.00000000000E+00  0.00000000000E+00 -0.93632619403E+03  0.93632619403E+03  0.25500000920E-02 0. -1.
    10030    2    1    2    0    0  0.00000000000E+00  0.00000000000E+00  0.15722192407E+04  0.34448716287E+04  0.30651700112E+04 0.  0.
        3    1    3    3  502    0  0.55296968308E+03 -0.50099522562E+03  0.22906122213E+04  0.24090819922E+04  0.10100000352E+00 0.  1.
       -3    1    3    3    0  502 -0.55296968308E+03  0.50099522562E+03 -0.71839298059E+03  0.10357896366E+04  0.10100000352E+00 0. -1.
</event>
<event>
 5   0  0.1176002E-06  0.3097157E+04  0.7818609E-02  0.8216518E-01
       -2   -1    0    0    0  501  0.00000000000E+00  0.00000000000E+00  0.22801212654E+04  0.22801212654E+04  0.25500000920E-02 0. -1.
        2   -1    0    0  501    0  0.00000000000E+00  0.00000000000E+00 -0.10517405574E+04  0.10517405574E+04  0.25500000920E-02 0.  1.
    10030    2    1    2    0    0  0.00000000000E+00  0.00000000000E+00  0.12283807080E+04  0.33318618229E+04  0.30971574133E+04 0.  0.
        2    1    3    3  502    0  0.24713654601E+01 -0.11743744715E+04 -0.47172716022E+03  0.12655781370E+04  0.25500000920E-02 0.  1.
       -2    1    3    3    0  502 -0.24713654601E+01  0.11743744715E+04  0.17001078682E+04  0.20662836859E+04  0.25500000920E-02 0. -1.
</event>
<event>
 5   0  0.4330395E-07  0.2981233E+04  0.7818609E-02  0.8249110E-01
        1   -1    0    0  501    0  0.00000000000E+00  0.00000000000E+00  0.10704877810E+04  0.10704877810E+04  0.50400001928E-02 0. -1.
       -1   -1    0    0    0  501  0.00000000000E+00  0.00000000000E+00 -0.20756307408E+04  0.20756307408E+04  0.50400001928E-02 0.  1.
    10030    2    1    2    0    0  0.00000000000E+00  0.00000000000E+00 -0.10051429598E+04  0.31461185218E+04  0.29812328630E+04 0.  0.
        1    1    3    3  502    0 -0.13307284779E+04  0.17839911996E+03  0.18075387137E+03  0.13547459134E+04  0.50400001928E-02 0. -1.
       -1    1    3    3    0  502  0.13307284779E+04 -0.17839911996E+03 -0.11858968312E+04  0.17913726084E+04  0.50400001928E-02 0.  1.
</event>
<event>
 5   0  0.1237580E-06  0.3096989E+04  0.7818609E-02  0.8216565E-01
       -2   -1    0    0    0  501  0.00000000000E+00  0.00000000000E+00  0.11869005673E+04  0.11869005673E+04  0.25500000920E-02 0. -1.
        2   -1    0    0  501    0  0.00000000000E+00  0.00000000000E+00 -0.20202489845E+04  0.20202489845E+04  0.25500000920E-02 0.  1.
    10030    2    1    2    0    0  0.00000000000E+00  0.00000000000E+00 -0.83334841724E+03  0.32071495518E+04  0.30969886443E+04 0.  0.
        4    1    3    3  502    0 -0.17759101910E+03 -0.39687759292E+03  0.11223877047E+04  0.12036636434E+04  0.12699999809E+01 0. -1.
       -4    1    3    3    0  502  0.17759101910E+03  0.39687759292E+03 -0.19557361219E+04  0.20034859084E+04  0.12699999809E+01 0.  1.
</event>
<event>
 5   0  0.1193123E-06  0.3097997E+04  0.7818609E-02  0.8216288E-01
       -2   -1    0    0    0  501  0.00000000000E+00  0.00000000000E+00  0.11559093039E+04  0.11559093039E+04  0.25500000920E-02 0.  1.
        2   -1    0    0  501    0  0.00000000000E+00  0.00000000000E+00 -0.20757648670E+04  0.20757648670E+04  0.25500000920E-02 0. -1.
    10030    2    1    2    0    0  0.00000000000E+00  0.00000000000E+00 -0.91985556310E+03  0.32316741709E+04  0.30979967220E+04 0.  0.
        3    1    3    3  502    0 -0.36635978762E+03 -0.60526059963E+03  0.97751426603E+03  0.12066872163E+04  0.10100000352E+00 0.  1.
       -3    1    3    3    0  502  0.36635978762E+03  0.60526059963E+03 -0.18973698291E+04  0.20249869546E+04  0.10100000352E+00 0. -1.
</event>
<event>
 5   0  0.4134019E-07  0.3075647E+04  0.7818609E-02  0.8222453E-01
        1   -1    0    0  501    0  0.00000000000E+00  0.00000000000E+00  0.20558434617E+04  0.20558434617E+04  0.50400001928E-02 0. -1.
       -1   -1    0    0    0  501  0.00000000000E+00  0.00000000000E+00 -0.11503315477E+04  0.11503315477E+04  0.50400001928E-02 0.  1.
    10030    2    1    2    0    0  0.00000000000E+00  0.00000000000E+00  0.90551191403E+03  0.32061750094E+04  0.30756473082E+04 0.  0.
        2    1    3    3  502    0 -0.48202176504E+03 -0.24941590061E+03  0.19526908256E+04  0.20267103231E+04  0.25500000920E-02 0. -1.
       -2    1    3    3    0  502  0.48202176504E+03  0.24941590061E+03 -0.10471789115E+04  0.11794646863E+04  0.25500000920E-02 0.  1.
</event>
<event>
 5   0  0.4330395E-07  0.3097425E+04  0.7818609E-02  0.8216445E-01
       -1   -1    0    0    0  501  0.00000000000E+00  0.00000000000E+00  0.10057285166E+04  0.10057285166E+04  0.50400001928E-02 0.  1.
        1   -1    0    0  501    0  0.00000000000E+00  0.00000000000E+00 -0.23848485636E+04  0.23848485636E+04  0.50400001928E-02 0. -1.
    10030    2    1    2    0    0  0.00000000000E+00  0.00000000000E+00 -0.13791200470E+04  0.33905770802E+04  0.30974248713E+04 0.  0.
        1    1    3    3  502    0 -0.12847420844E+04 -0.85115517126E+03 -0.52181550830E+03  0.16270583191E+04  0.50400001928E-02 0.  1.
       -1    1    3    3    0  502  0.12847420844E+04  0.85115517126E+03 -0.85730453870E+03  0.17635187612E+04  0.50400001928E-02 0. -1.
</event>
<event>
 5   0  0.1258262E-06  0.3110662E+04  0.7818609E-02  0.8212818E-01
       -2   -1    0    0    0  501  0.00000000000E+00  0.00000000000E+00  0.16996670667E+04  0.16996670667E+04  0.25500000920E-02 0. -1.
        2   -1    0    0  501    0  0.00000000000E+00  0.00000000000E+00 -0.14232522220E+04  0.14232522220E+04  0.25500000920E-02 0.  1.
    10030    2    1    2    0    0  0.00000000000E+00  0.00000000000E+00  0.27641484478E+03  0.31229192887E+04  0.31106622635E+04 0.  0.
        1    1    3    3  502    0  0.78913466350E+03  0.10093587837E+04  0.10234507030E+04  0.16398140177E+04  0.50400001928E-02 0.  1.
       -1    1    3    3    0  502 -0.78913466350E+03 -0.10093587837E+04 -0.74703585821E+03  0.14831052710E+04  0.50400001928E-02 0. -1.
</event>
<event>
 5   0  0.3935852E-07  0.3121189E+04  0.7818609E-02  0.8209947E-01
       -1   -1    0    0    0  501  0.00000000000E+00  0.00000000000E+00  0.14442069193E+04  0.14442069193E+04  0.50400001928E-02 0.  1.
        1   -1    0    0  501    0  0.00000000000E+00  0.00000000000E+00 -0.16863616674E+04  0.16863616674E+04  0.50400001928E-02 0. -1.
    10030    2    1    2    0    0  0.00000000000E+00  0.00000000000E+00 -0.24215474812E+03  0.31305685867E+04  0.31211889968E+04 0.  0.
        5    1    3    3  502    0  0.99587891047E+03  0.11467895278E+04  0.23851370755E+03  0.15374693181E+04  0.46999998093E+01 0.  1.
       -5    1    3    3    0  502 -0.99587891047E+03 -0.11467895278E+04 -0.48066845567E+03  0.15930992686E+04  0.46999998093E+01 0. -1.
</event>
<event>
 5   0  0.4330395E-07  0.3103599E+04  0.7818609E-02  0.8214751E-01
        1   -1    0    0  501    0  0.00000000000E+00  0.00000000000E+00  0.19063246947E+04  0.19063246947E+04  0.50400001928E-02 0.  1.
       -1   -1    0    0    0  501  0.00000000000E+00  0.00000000000E+00 -0.12632065630E+04  0.12632065630E+04  0.50400001928E-02 0. -1.
    10030    2    1    2    0    0  0.00000000000E+00  0.00000000000E+00  0.64311813171E+03  0.31695312578E+04  0.31035991144E+04 0.  0.
        1    1    3    3  502    0  0.16356457693E+02  0.13705640311E+04 -0.42147460702E+03  0.14339993519E+04  0.50400001928E-02 0. -1.
       -1    1    3    3    0  502 -0.16356457693E+02 -0.13705640311E+04  0.10645927387E+04  0.17355319059E+04  0.50400001928E-02 0.  1.
</event>
<event>
 5   0  0.1193123E-06  0.3110552E+04  0.7818609E-02  0.8212848E-01
        2   -1    0    0  501    0  0.00000000000E+00  0.00000000000E+00  0.22763005907E+04  0.22763005907E+04  0.25500000920E-02 0.  1.
       -2   -1    0    0    0  501  0.00000000000E+00  0.00000000000E+00 -0.10626377541E+04  0.10626377541E+04  0.25500000920E-02 0. -1.
    10030    2    1    2    0    0  0.00000000000E+00  0.00000000000E+00  0.12136628365E+04  0.33389383448E+04  0.31105516857E+04 0.  0.
        3    1    3    3  502    0  0.17210030401E+02  0.71196216607E+03 -0.87732769935E+03  0.11299956696E+04  0.10100000352E+00 0. -1.
       -3    1    3    3    0  502 -0.17210030401E+02 -0.71196216607E+03  0.20909905359E+04  0.22089426752E+04  0.10100000352E+00 0.  1.
</event>
<event>
 5   0  0.4330395E-07  0.3101109E+04  0.7818609E-02  0.8215434E-01
        1   -1    0    0  501    0  0.00000000000E+00  0.00000000000E+00  0.16831576369E+04  0.16831576369E+04  0.50400001928E-02 0. -1.
       -1   -1    0    0    0  501  0.00000000000E+00  0.00000000000E+00 -0.14283978453E+04  0.14283978453E+04  0.50400001928E-02 0.  1.
    10030    2    1    2    0    0  0.00000000000E+00  0.00000000000E+00  0.25475979159E+03  0.31115554822E+04  0.31011086675E+04 0.  0.
        1    1    3    3  502    0  0.30069164055E+03 -0.12259867000E+04 -0.77607545042E+03  0.14818069901E+04  0.50400001928E-02 0.  1.
       -1    1    3    3    0  502 -0.30069164055E+03  0.12259867000E+04  0.10308352420E+04  0.16297484921E+04  0.50400001928E-02 0. -1.
</event>
<event>
 5   0  0.4330395E-07  0.3149843E+04  0.7818609E-02  0.8202191E-01
        1   -1    0    0  501    0  0.00000000000E+00  0.00000000000E+00  0.26635339919E+04  0.26635339919E+04  0.50400001928E-02 0. -1.
       -1   -1    0    0    0  501  0.00000000000E+00  0.00000000000E+00 -0.93123541330E+03  0.93123541331E+03  0.50400001928E-02 0.  1.
    10030    2    1    2    0    0  0.00000000000E+00  0.00000000000E+00  0.17322985786E+04  0.35947694052E+04  0.31498426487E+04 0.  0.
        1    1    3    3  502    0 -0.51148507822E+03  0.84517464521E+03  0.22659609773E+04  0.24719458564E+04  0.50400001928E-02 0. -1.
       -1    1    3    3    0  502  0.51148507822E+03 -0.84517464521E+03 -0.53366239867E+03  0.11228235489E+04  0.50400001928E-02 0.  1.
</event>
<event>
 5   0  0.4134019E-07  0.3108986E+04  0.7818609E-02  0.8213276E-01
       -1   -1    0    0    0  501  0.00000000000E+00  0.00000000000E+00  0.22711350477E+04  0.22711350477E+04  0.50400001928E-02 0.  1.
        1   -1    0    0  501    0  0.00000000000E+00  0.00000000000E+00 -0.10639824347E+04  0.10639824347E+04  0.50400001928E-02 0. -1.
    10030    2    1    2    0    0  0.00000000000E+00  0.00000000000E+00  0.12071526130E+04  0.33351174824E+04  0.31089855565E+04 0.  0.
        2    1    3    3  502    0  0.31962262897E+03 -0.27120772774E+03 -0.10022099399E+04  0.10863411159E+04  0.25500000920E-02 0. -1.
       -2    1    3    3    0  502 -0.31962262897E+03  0.27120772774E+03  0.22093625529E+04  0.22487763665E+04  0.25500000920E-02 0.  1.
</event>
<event>
 5   0  0.1258262E-06  0.3106417E+04  0.7818609E-02  0.8213979E-01
        2   -1    0    0  501    0  0.00000000000E+00  0.00000000000E+00  0.16566079983E+04  0.16566079983E+04  0.25500000920E-02 0. -1.
       -2   -1    0    0    0  501  0.00000000000E+00  0.00000000000E+00 -0.14562625174E+04  0.14562625174E+04  0.25500000920E-02 0.  1.
    10030    2    1    2    0    0  0.00000000000E+00  0.00000000000E+00  0.20034548092E+03  0.31128705158E+04  0.31064166714E+04 0.  0.
        1    1    3    3  502    0 -0.61434009106E+03  0.44599161342E+03 -0.12576826424E+04  0.14690431906E+04  0.50400001928E-02 0.  1.
       -1    1    3    3    0  502  0.61434009106E+03 -0.44599161342E+03  0.14580281233E+04  0.16438273252E+04  0.50400001928E-02 0. -1.
</event>
<event>
 5   0  0.3902375E-07  0.3112561E+04  0.7818609E-02  0.8212299E-01
       -3   -1    0    0    0  501  0.00000000000E+00  0.00000000000E+00  0.14073221137E+04  0.14073221173E+04  0.10100000352E+00 0.  1.
        3   -1    0    0  501    0  0.00000000000E+00  0.00000000000E+00 -0.17210051570E+04  0.17210051599E+04  0.10100000352E+00 0. -1.
    10030    2    1    2    0    0  0.00000000000E+00  0.00000000000E+00 -0.31368304326E+03  0.31283272773E+04  0.31125607628E+04 0.  0.
        3    1    3    3  502    0 -0.73596998237E+03 -0.19153663709E+03 -0.15215377726E+04  0.17010042040E+04  0.10100000352E+00 0. -1.
       -3    1    3    3    0  502  0.73596998237E+03  0.19153663709E+03  0.12078547293E+04  0.14273230733E+04  0.10100000352E+00 0.  1.
</event>
<event>
 5   0  0.1193123E-06  0.3121325E+04  0.7818609E-02  0.8209910E-01
        2   -1    0    0  501    0  0.00000000000E+00  0.00000000000E+00  0.21731052723E+04  0.21731052723E+04  0.25500000920E-02 0.  1.
       -2   -1    0    0    0  501  0.00000000000E+00  0.00000000000E+00 -0.11208236372E+04  0.11208236372E+04  0.25500000920E-02 0. -1.
    10030    2    1    2    0    0  0.00000000000E+00  0.00000000000E+00  0.10522816352E+04  0.32939289095E+04  0.31213252027E+04 0.  0.
        3    1    3    3  502    0 -0.47290327101E+02 -0.15165494504E+04  0.14054643955E+03  0.15237821112E+04  0.10100000352E+00 0. -1.
       -3    1    3    3    0  502  0.47290327101E+02  0.15165494504E+04  0.91173519560E+03  0.17701467983E+04  0.10100000352E+00 0.  1.
</event>
<event>
 5   0  0.1176002E-06  0.3070559E+04  0.7818609E-02  0.8223864E-01
       -2   -1    0    0    0  501  0.00000000000E+00  0.00000000000E+00  0.21409577263E+04  0.21409577263E+04  0.25500000920E-02 0. -1.
        2   -1    0    0  501    0  0.00000000000E+00  0.00000000000E+00 -0.11009482051E+04  0.11009482051E+04  0.25500000920E-02 0.  1.
    10030    2    1    2    0    0  0.00000000000E+00  0.00000000000E+00  0.10400095212E+04  0.32419059314E+04  0.30705592754E+04 0.  0.
        2    1    3    3  502    0 -0.21588774799E+02 -0.73036821784E+03 -0.90559517970E+03  0.11636178231E+04  0.25500000920E-02 0.  1.
       -2    1    3    3    0  502  0.21588774799E+02  0.73036821784E+03  0.19456047009E+04  0.20782881083E+04  0.25500000920E-02 0. -1.
</event>
<event>
 5   0  0.1258262E-06  0.3098137E+04  0.7818609E-02  0.8216249E-01
        2   -1    0    0  501    0  0.00000000000E+00  0.00000000000E+00  0.28824344837E+04  0.28824344838E+04  0.25500000920E-02 0. -1.
       -2   -1    0    0    0  501  0.00000000000E+00  0.00000000000E+00 -0.83249557334E+03  0.83249557335E+03  0.25500000920E-02 0.  1.
    10030    2    1    2    0    0  0.00000000000E+00  0.00000000000E+00  0.20499389104E+04  0.37149300571E+04  0.30981374716E+04 0.  0.
        1    1    3    3  502    0 -0.72818639307E+02  0.15076593046E+04  0.14425452031E+04  0.20878878792E+04  0.50400001928E-02 0. -1.
       -1    1    3    3    0  502  0.72818639307E+02 -0.15076593046E+04  0.60739370732E+03  0.16270421779E+04  0.50400001928E-02 0.  1.
</event>
<event>
 5   0  0.1193123E-06  0.3102347E+04  0.7818609E-02  0.8215094E-01
       -2   -1    0    0    0  501  0.00000000000E+00  0.00000000000E+00  0.10280777315E+04  0.10280777315E+04  0.25500000920E-02 0. -1.
        2   -1    0    0  501    0  0.00000000000E+00  0.00000000000E+00 -0.23404260325E+04  0.23404260325E+04  0.25500000920E-02 0.  1.
    10030    2    1    2    0    0  0.00000000000E+00  0.00000000000E+00 -0.13123483010E+04  0.33685037640E+04  0.31023474249E+04 0.  0.
        3    1    3    3  502    0 -0.58986840579E+03 -0.11695468398E+04  0.24598455864E+03  0.13327764104E+04  0.10100000352E+00 0. -1.
       -3    1    3    3    0  502  0.58986840579E+03  0.11695468398E+04 -0.15583328597E+04  0.20357273536E+04  0.10100000352E+00 0.  1.
</event>
<event>
 5   0  0.4173905E-07  0.3080769E+04  0.7818609E-02  0.8221036E-01
        1   -1    0    0  501    0  0.00000000000E+00  0.00000000000E+00  0.19681354983E+04  0.19681354983E+04  0.50400001928E-02 0. -1.
       -1   -1    0    0    0  501  0.00000000000E+00  0.00000000000E+00 -0.12056002056E+04  0.12056002056E+04  0.50400001928E-02 0.  1.
    10030    2    1    2    0    0  0.00000000000E+00  0.00000000000E+00  0.76253529272E+03  0.31737357040E+04  0.30807690998E+04 0.  0.
        3    1    3    3  502    0  0.71611526110E+03 -0.13197825979E+04  0.27184486388E+02  0.15017943200E+04  0.10100000352E+00 0.  1.
       -3    1    3    3    0  502 -0.71611526110E+03  0.13197825979E+04  0.73535080633E+03  0.16719413840E+04  0.10100000352E+00 0. -1.
</event>
<event>
 5   0  0.3902375E-07  0.3172123E+04  0.7818609E-02  0.8196218E-01
       -3   -1    0    0    0  501  0.00000000000E+00  0.00000000000E+00  0.12000861812E+04  0.12000861855E+04  0.10100000352E+00 0.  1.
        3   -1    0    0  501    0  0.00000000000E+00  0.00000000000E+00 -0.20961753905E+04  0.20961753930E+04  0.10100000352E+00 0. -1.
    10030    2    1    2    0    0  0.00000000000E+00  0.00000000000E+00 -0.89608920929E+03  0.32962615785E+04  0.31721230308E+04 0.  0.
        1    1    3    3  502    0 -0.75431699547E+03  0.29722255751E+03 -0.18645700757E+04  0.20332134531E+04  0.50400001928E-02 0. -1.
       -1    1    3    3    0  502  0.75431699547E+03 -0.29722255751E+03  0.96848086645E+03  0.12630481254E+04  0.50400001928E-02 0.  1.
</event>
<event>
 5   0  0.1237580E-06  0.3103132E+04  0.7818609E-02  0.8214879E-01
        2   -1    0    0  501    0  0.00000000000E+00  0.00000000000E+00  0.11506147288E+04  0.11506147288E+04  0.25500000920E-02 0.  1.
       -2   -1    0    0    0  501  0.00000000000E+00  0.00000000000E+00 -0.20922352245E+04  0.20922352245E+04  0.25500000920E-02 0. -1.
    10030    2    1    2    0    0  0.00000000000E+00  0.00000000000E+00 -0.94162049565E+03  0.32428499533E+04  0.31031317506E+04 0.  0.
        4    1    3    3  502    0  0.12306544871E+04  0.71092322479E+03 -0.11212765558E+04  0.18102997060E+04  0.12699999809E+01 0. -1.
       -4    1    3    3    0  502 -0.12306544871E+04 -0.71092322479E+03  0.17965606016E+03  0.14325502473E+04  0.12699999809E+01 0.  1.
</event>
<event>
 5   0  0.1176002E-06  0.3086660E+04  0.7818609E-02  0.8219409E-01
        2   -1    0    0  501    0  0.00000000000E+00  0.00000000000E+00  0.15162427161E+04  0.15162427161E+04  0.25500000920E-02 0. -1.
       -2   -1    0    0    0  501  0.00000000000E+00  0.00000000000E+00 -0.15709009535E+04  0.15709009535E+04  0.25500000920E-02 0.  1.
    10030    2    1    2    0    0  0.00000000000E+00  0.00000000000E+00 -0.54658237478E+02  0.30871436696E+04  0.30866597665E+04 0.  0.
        2    1    3    3  502    0  0.80421936343E+02  0.66921760298E+03 -0.14159081264E+04  0.15681567875E+04  0.25500000920E-02 0.  1.
       -2    1    3    3    0  502 -0.80421936343E+02 -0.66921760298E+03  0.13612498889E+04  0.15189868821E+04  0.25500000920E-02 0. -1.
</event>
<event>
 5   0  0.4134019E-07  0.3096039E+04  0.7818609E-02  0.8216826E-01
       -1   -1    0    0    0  501  0.00000000000E+00  0.00000000000E+00  0.17694698186E+04  0.17694698186E+04  0.50400001928E-02 0. -1.
        1   -1    0    0  501    0  0.00000000000E+00  0.00000000000E+00 -0.13542837330E+04  0.13542837330E+04  0.50400001928E-02 0.  1.
    10030    2    1    2    0    0  0.00000000000E+00  0.00000000000E+00  0.41518608558E+03  0.31237535516E+04  0.30960388830E+04 0.  0.
        2    1    3    3  502    0  0.81778150914E+03  0.61061971803E+03  0.13819456562E+04  0.17179629896E+04  0.25500000920E-02 0. -1.
       -2    1    3    3    0  502 -0.81778150914E+03 -0.61061971803E+03 -0.96675957064E+03  0.14057905620E+04  0.25500000920E-02 0.  1.
</event>
<event>
 5   0  0.4134019E-07  0.3055721E+04  0.7818609E-02  0.8227996E-01
       -1   -1    0    0    0  501  0.00000000000E+00  0.00000000000E+00  0.16390456600E+04  0.16390456600E+04  0.50400001928E-02 0. -1.
        1   -1    0    0  501    0  0.00000000000E+00  0.00000000000E+00 -0.14242178740E+04  0.14242178740E+04  0.50400001928E-02 0.  1.
    10030    2    1    2    0    0  0.00000000000E+00  0.00000000000E+00  0.21482778600E+03  0.30632635340E+04  0.30557212735E+04 0.  0.
        2    1    3    3  502    0 -0.11336551195E+04 -0.70485814897E+03  0.85245702118E+03  0.15838819126E+04  0.25500000920E-02 0. -1.
       -2    1    3    3    0  502  0.11336551195E+04  0.70485814897E+03 -0.63762923518E+03  0.14793816214E+04  0.25500000920E-02 0.  1.
</event>
<event>
 5   0  0.1258262E-06  0.3095449E+04  0.7818609E-02  0.8216988E-01
       -2   -1    0    0    0  501  0.00000000000E+00  0.00000000000E+00  0.17720730057E+04  0.17720730057E+04  0.25500000920E-02 0. -1.
        2   -1    0    0  501    0  0.00000000000E+00  0.00000000000E+00 -0.13517788698E+04  0.13517788698E+04  0.25500000920E-02 0.  1.
    10030    2    1    2    0    0  0.00000000000E+00  0.00000000000E+00  0.42029413590E+03  0.31238518755E+04  0.30954488172E+04 0.  0.
        1    1    3    3  502    0  0.93017249292E+03  0.10339125267E+04  0.89553631308E+03  0.16541406432E+04  0.50400001928E-02 0. -1.
       -1    1    3    3    0  502 -0.93017249292E+03 -0.10339125267E+04 -0.47524217718E+03  0.14697112323E+04  0.50400001928E-02 0.  1.
</event>
<event>
 5   0  0.4330395E-07  0.3096747E+04  0.7818609E-02  0.8216631E-01
        1   -1    0    0  501    0  0.00000000000E+00  0.00000000000E+00  0.15576253973E+04  0.15576253973E+04  0.50400001928E-02 0. -1.
       -1   -1    0    0    0  501  0.00000000000E+00  0.00000000000E+00 -0.15391767268E+04  0.15391767268E+04  0.50400001928E-02 0.  1.
    10030    2    1    2    0    0  0.00000000000E+00  0.00000000000E+00  0.18448670542E+02  0.30968021242E+04  0.30967471713E+04 0.  0.
        1    1    3    3  502    0 -0.13112244957E+04  0.58931429933E+03 -0.56598995674E+03  0.15449743210E+04  0.50400001928E-02 0. -1.
       -1    1    3    3    0  502  0.13112244957E+04 -0.58931429933E+03  0.58443862728E+03  0.15518278031E+04  0.50400001928E-02 0.  1.
</event>
<event>
 5   0  0.3935852E-07  0.3101860E+04  0.7818609E-02  0.8215228E-01
       -1   -1    0    0    0  501  0.00000000000E+00  0.00000000000E+00  0.22026712458E+04  0.22026712458E+04  0.50400001928E-02 0. -1.
        1   -1    0    0  501    0  0.00000000000E+00  0.00000000000E+00 -0.10920304109E+04  0.10920304109E+04  0.50400001928E-02 0.  1.
    10030    2    1    2    0    0  0.00000000000E+00  0.00000000000E+00  0.11106408349E+04  0.32947016568E+04  0.31018600779E+04 0.  0.
        5    1    3    3  502    0 -0.15171679200E+04  0.31510643695E+03  0.48590186823E+03  0.16239499006E+04  0.46999998093E+01 0.  1.
       -5    1    3    3    0  502  0.15171679200E+04 -0.31510643695E+03  0.62473896666E+03  0.16707517561E+04  0.46999998093E+01 0. -1.
</event>
<event>
 5   0  0.4330395E-07  0.3095889E+04  0.7818609E-02  0.8216867E-01
       -1   -1    0    0    0  501  0.00000000000E+00  0.00000000000E+00  0.17023174343E+04  0.17023174343E+04  0.50400001928E-02 0. -1.
        1   -1    0    0  501    0  0.00000000000E+00  0.00000000000E+00 -0.14075708464E+04  0.14075708464E+04  0.50400001928E-02 0.  1.
    10030    2    1    2    0    0  0.00000000000E+00  0.00000000000E+00  0.29474658788E+03  0.31098882807E+04  0.30958891400E+04 0.  0.
        1    1    3    3  502    0  0.38664737275E+02 -0.58746452694E+03  0.15854623137E+04  0.16912422300E+04  0.50400001928E-02 0. -1.
       -1    1    3    3    0  502 -0.38664737275E+02  0.58746452694E+03 -0.12907157258E+04  0.14186460507E+04  0.50400001928E-02 0.  1.
</event>
<event>
 5   0  0.4173905E-07  0.3109353E+04  0.7818609E-02  0.8213176E-01
        1   -1    0    0  501    0  0.00000000000E+00  0.00000000000E+00  0.16215749849E+04  0.16215749849E+04  0.50400001928E-02 0. -1.
       -1   -1    0    0    0  501  0.00000000000E+00  0.00000000000E+00 -0.14905378572E+04  0.14905378572E+04  0.50400001928E-02 0.  1.
    10030    2    1    2    0    0  0.00000000000E+00  0.00000000000E+00  0.13103712775E+03  0.31121128421E+04  0.31093529251E+04 0.  0.
        3    1    3    3  502    0  0.99691833118E+03  0.45395493545E+03  0.11697192904E+04  0.16025493662E+04  0.10100000352E+00 0. -1.
       -3    1    3    3    0  502 -0.99691833118E+03 -0.45395493545E+03 -0.10386821627E+04  0.15095634759E+04  0.10100000352E+00 0.  1.
</event>
<event>
 5   0  0.1193123E-06  0.3088561E+04  0.7818609E-02  0.8218884E-01
       -2   -1    0    0    0  501  0.00000000000E+00  0.00000000000E+00  0.14656882356E+04  0.14656882356E+04  0.25500000920E-02 0. -1.
        2   -1    0    0  501    0  0.00000000000E+00  0.00000000000E+00 -0.16270866894E+04  0.16270866894E+04  0.25500000920E-02 0.  1.
    10030    2    1    2    0    0  0.00000000000E+00  0.00000000000E+00 -0.16139845380E+03  0.30927749250E+04  0.30885607127E+04 0.  0.
        3    1    3    3  502    0  0.27281185937E+03 -0.96074138155E+03  0.10987667732E+04  0.14848362687E+04  0.10100000352E+00 0. -1.
       -3    1    3    3    0  502 -0.27281185937E+03  0.96074138155E+03 -0.12601652270E+04  0.16079386563E+04  0.10100000352E+00 0.  1.
</event>
<event>
 5   0  0.1258262E-06  0.3099602E+04  0.7818609E-02  0.8215847E-01
       -2   -1    0    0    0  501  0.00000000000E+00  0.00000000000E+00  0.14405015812E+04  0.14405015812E+04  0.25500000920E-02 0. -1.
        2   -1    0    0  501    0  0.00000000000E+00  0.00000000000E+00 -0.16673936284E+04  0.16673936284E+04  0.25500000920E-02 0.  1.
    10030    2    1    2    0    0  0.00000000000E+00  0.00000000000E+00 -0.22689204722E+03  0.31078952096E+04  0.30996020120E+04 0.  0.
        1    1    3    3  502    0 -0.13011534787E+04  0.38206920128E+03 -0.86572398078E+03  0.16088676952E+04  0.50400001928E-02 0.  1.
       -1    1    3    3    0  502  0.13011534787E+04 -0.38206920128E+03  0.63883193356E+03  0.14990275144E+04  0.50400001928E-02 0. -1.
</event>
<event>
 5   0  0.3902375E-07  0.3104613E+04  0.7818609E-02  0.8214473E-01
        3   -1    0    0  501    0  0.00000000000E+00  0.00000000000E+00  0.19760882642E+04  0.19760882668E+04  0.10100000352E+00 0. -1.
       -3   -1    0    0    0  501  0.00000000000E+00  0.00000000000E+00 -0.12194071025E+04  0.12194071067E+04  0.10100000352E+00 0.  1.
    10030    2    1    2    0    0  0.00000000000E+00  0.00000000000E+00  0.75668116172E+03  0.31954953735E+04  0.31046133900E+04 0.  0.
        5    1    3    3  502    0  0.14833943490E+04  0.24006161050E+03 -0.22343743837E+02  0.15028671612E+04  0.46999998093E+01 0. -1.
       -5    1    3    3    0  502 -0.14833943490E+04 -0.24006161050E+03  0.77902490555E+03  0.16926282122E+04  0.46999998093E+01 0.  1.
</event>
<event>
 5   0  0.1237580E-06  0.3100230E+04  0.7818609E-02  0.8215675E-01
        2   -1    0    0  501    0  0.00000000000E+00  0.00000000000E+00  0.16073944767E+04  0.16073944767E+04  0.25500000920E-02 0. -1.
       -2   -1    0    0    0  501  0.00000000000E+00  0.00000000000E+00 -0.14948771083E+04  0.14948771083E+04  0.25500000920E-02 0.  1.
    10030    2    1    2    0    0  0.00000000000E+00  0.00000000000E+00  0.11251736836E+03  0.31022715850E+04  0.31002304477E+04 0.  0.
        4    1    3    3  502    0 -0.19172929782E+03  0.18645205742E+03  0.15841336550E+04  0.16065508218E+04  0.12699999809E+01 0. -1.
       -4    1    3    3    0  502  0.19172929782E+03 -0.18645205742E+03 -0.14716162866E+04  0.14957207632E+04  0.12699999809E+01 0.  1.
</event>
<event>
 5   0  0.4134019E-07  0.3094833E+04  0.7818609E-02  0.8217157E-01
       -1   -1    0    0    0  501  0.00000000000E+00  0.00000000000E+00  0.12608584353E+04  0.12608584353E+04  0.50400001928E-02 0.  1.
        1   -1    0    0  501    0  0.00000000000E+00  0.00000000000E+00 -0.18991008941E+04  0.18991008941E+04  0.50400001928E-02 0. -1.
    10030    2    1    2    0    0  0.00000000000E+00  0.00000000000E+00 -0.63824245884E+03  0.31599593294E+04  0.30948327139E+04 0.  0.
        2    1    3    3  502    0 -0.44849540316E+02  0.34816982225E+03 -0.18579067522E+04  0.18907805812E+04  0.25500000920E-02 0. -1.
       -2    1    3    3    0  502  0.44849540316E+02 -0.34816982225E+03  0.12196642934E+04  0.12691787482E+04  0.25500000920E-02 0.  1.
</event>
<event>
 5   0  0.1200286E-06  0.3108277E+04  0.7818609E-02  0.8213470E-01
        2   -1    0    0  501    0  0.00000000000E+00  0.00000000000E+00  0.17678025981E+04  0.17678025981E+04  0.25500000920E-02 0. -1.
       -2   -1    0    0    0  501  0.00000000000E+00  0.00000000000E+00 -0.13662983860E+04  0.13662983860E+04  0.25500000920E-02 0.  1.
    10030    2    1    2    0    0  0.00000000000E+00  0.00000000000E+00  0.40150421209E+03  0.31341009841E+04  0.31082765878E+04 0.  0.
        5    1    3    3  502    0 -0.12306539376E+04  0.70895239064E+03 -0.43552248161E+03  0.14855384641E+04  0.46999998093E+01 0.  1.
       -5    1    3    3    0  502  0.12306539376E+04 -0.70895239064E+03  0.83702669370E+03  0.16485625200E+04  0.46999998093E+01 0. -1.
</event>
<event>
 5   0  0.1200286E-06  0.3182775E+04  0.7818609E-02  0.8193381E-01
        2   -1    0    0  501    0  0.00000000000E+00  0.00000000000E+00  0.22351822788E+04  0.22351822788E+04  0.25500000920E-02 0. -1.
       -2   -1    0    0    0  501  0.00000000000E+00  0.00000000000E+00 -0.11330234038E+04  0.11330234038E+04  0.25500000920E-02 0.  1.
    10030    2    1    2    0    0  0.00000000000E+00  0.00000000000E+00  0.11021588750E+04  0.33682056825E+04  0.31827747853E+04 0.  0.
        5    1    3    3  502    0 -0.10840829338E+04 -0.11335258236E+04  0.26637947231E+03  0.15909420836E+04  0.46999998093E+01 0.  1.
       -5    1    3    3    0  502  0.10840829338E+04  0.11335258236E+04  0.83577940268E+03  0.17772635989E+04  0.46999998093E+01 0. -1.
</event>
<event>
 5   0  0.1193123E-06  0.3089034E+04  0.7818609E-02  0.8218754E-01
       -2   -1    0    0    0  501  0.00000000000E+00  0.00000000000E+00  0.93701817254E+03  0.93701817255E+03  0.25500000920E-02 0. -1.
        2   -1    0    0  501    0  0.00000000000E+00  0.00000000000E+00 -0.25458764731E+04  0.25458764731E+04  0.25500000920E-02 0.  1.
    10030    2    1    2    0    0  0.00000000000E+00  0.00000000000E+00 -0.16088583006E+04  0.34828946457E+04  0.30890338427E+04 0.  0.
        3    1    3    3  502    0 -0.12184946564E+04 -0.59187143029E+03  0.32122917609E+02  0.13550176788E+04  0.10100000352E+00 0. -1.
       -3    1    3    3    0  502  0.12184946564E+04  0.59187143029E+03 -0.16409812182E+04  0.21278769669E+04  0.10100000352E+00 0.  1.
</event>
<event>
 5   0  0.1200286E-06  0.3102839E+04  0.7818609E-02  0.8214959E-01
       -2   -1    0    0    0  501  0.00000000000E+00  0.00000000000E+00  0.12607521959E+04  0.12607521959E+04  0.25500000920E-02 0.  1.
        2   -1    0    0  501    0  0.00000000000E+00  0.00000000000E+00 -0.19091003234E+04  0.19091003234E+04  0.25500000920E-02 0. -1.
    10030    2    1    2    0    0  0.00000000000E+00  0.00000000000E+00 -0.64834812750E+03  0.31698525194E+04  0.31028389743E+04 0.  0.
        5    1    3    3  502    0 -0.75917680473E+03  0.43292617479E+03 -0.16336954294E+04  0.18527701799E+04  0.46999998093E+01 0. -1.
       -5    1    3    3    0  502  0.75917680473E+03 -0.43292617479E+03  0.98534730186E+03  0.13170823395E+04  0.46999998093E+01 0.  1.
</event>
<event>
 5   0  0.1176002E-06  0.3102779E+04  0.7818609E-02  0.8214976E-01
        2   -1    0    0  501    0  0.00000000000E+00  0.00000000000E+00  0.27794885809E+04  0.27794885809E+04  0.25500000920E-02 0.  1.
       -2   -1    0    0    0  501  0.00000000000E+00  0.00000000000E+00 -0.86591798110E+03  0.86591798110E+03  0.25500000920E-02 0. -1.
    10030    2    1    2    0    0  0.00000000000E+00  0.00000000000E+00  0.19135705998E+04  0.36454065621E+04  0.31027788452E+04 0.  0.
        2    1    3    3  502    0  0.15107053469E+04  0.55289641121E+02  0.54722127612E+03  0.16077122611E+04  0.25500000920E-02 0. -1.
       -2    1    3    3    0  502 -0.15107053469E+04 -0.55289641121E+02  0.13663493237E+04  0.20376943009E+04  0.25500000920E-02 0.  1.
</event>
<event>
 5   0  0.1200286E-06  0.3095673E+04  0.7818609E-02  0.8216926E-01
       -2   -1    0    0    0  501  0.00000000000E+00  0.00000000000E+00  0.11718634438E+04  0.11718634438E+04  0.25500000920E-02 0. -1.
        2   -1    0    0  501    0  0.00000000000E+00  0.00000000000E+00 -0.20444346732E+04  0.20444346732E+04  0.25500000920E-02 0.  1.
    10030    2    1    2    0    0  0.00000000000E+00  0.00000000000E+00 -0.87257122939E+03  0.32162981170E+04  0.30956732752E+04 0.  0.
        5    1    3    3  502    0  0.98688909328E+03 -0.27608126339E+03 -0.16414880767E+04  0.19351165707E+04  0.46999998093E+01 0.  1.
       -5    1    3    3    0  502 -0.98688909328E+03  0.27608126339E+03  0.76891684730E+03  0.12811815463E+04  0.46999998093E+01 0. -1.
</event>
<event>
 5   0  0.1176002E-06  0.3106312E+04  0.7818609E-02  0.8214008E-01
       -2   -1    0    0    0  501  0.00000000000E+00  0.00000000000E+00  0.11543496401E+04  0.11543496401E+04  0.25500000920E-02 0. -1.
        2   -1    0    0  501    0  0.00000000000E+00  0.00000000000E+00 -0.20897422080E+04  0.20897422080E+04  0.25500000920E-02 0.  1.
    10030    2    1    2    0    0  0.00000000000E+00  0.00000000000E+00 -0.93539256789E+03  0.32440918482E+04  0.31063117460E+04 0.  0.
        2    1    3    3  502    0 -0.53239768973E+03 -0.14560467766E+04 -0.36987389611E+03  0.15938400844E+04  0.25500000920E-02 0.  1.
       -2    1    3    3    0  502  0.53239768973E+03  0.14560467766E+04 -0.56551867178E+03  0.16502517638E+04  0.25500000920E-02 0. -1.
</event>
<event>
 5   0  0.1237580E-06  0.3071708E+04  0.7818609E-02  0.8223545E-01
        2   -1    0    0  501    0  0.00000000000E+00  0.00000000000E+00  0.21084206471E+04  0.21084206471E+04  0.25500000920E-02 0. -1.
       -2   -1    0    0    0  501  0.00000000000E+00  0.00000000000E+00 -0.11187749304E+04  0.11187749304E+04  0.25500000920E-02 0.  1.
    10030    2    1    2    0    0  0.00000000000E+00  0.00000000000E+00  0.98964571668E+03  0.32271955775E+04  0.30717084254E+04 0.  0.
        4    1    3    3  502    0 -0.91125754550E+03  0.96543197067E+03  0.13061820260E+04  0.18624076627E+04  0.12699999809E+01 0. -1.
       -4    1    3    3    0  502  0.91125754550E+03 -0.96543197067E+03 -0.31653630934E+03  0.13647879148E+04  0.12699999809E+01 0.  1.
</event>
<event>
 5   0  0.1258262E-06  0.3090060E+04  0.7818609E-02  0.8218471E-01
        2   -1    0    0  501    0  0.00000000000E+00  0.00000000000E+00  0.14334686560E+04  0.14334686560E+04  0.25500000920E-02 0. -1.
       -2   -1    0    0    0  501  0.00000000000E+00  0.00000000000E+00 -0.16652737283E+04  0.16652737283E+04  0.25500000920E-02 0.  1.
    10030    2    1    2    0    0  0.00000000000E+00  0.00000000000E+00 -0.23180507230E+03  0.30987423842E+04  0.30900599949E+04 0.  0.
        1    1    3    3  502    0  0.20491287911E+03 -0.54641625085E+02 -0.16506086973E+04  0.16641766934E+04  0.50400001928E-02 0.  1.
       -1    1    3    3    0  502 -0.20491287911E+03  0.54641625085E+02  0.14188036250E+04  0.14345656909E+04  0.50400001928E-02 0. -1.
</event>
<event>
 5   0  0.4330395E-07  0.3016042E+04  0.7818609E-02  0.8239165E-01
       -1   -1    0    0    0  501  0.00000000000E+00  0.00000000000E+00  0.99848091689E+03  0.99848091690E+03  0.50400001928E-02 0.  1.
        1   -1    0    0  501    0  0.00000000000E+00  0.00000000000E+00 -0.22775877919E+04  0.22775877919E+04  0.50400001928E-02 0. -1.
    10030    2    1    2    0    0  0.00000000000E+00  0.00000000000E+00 -0.12791068750E+04  0.32760687088E+04  0.30160424047E+04 0.  0.
        1    1    3    3  502    0 -0.10137866072E+04  0.84402058176E+03  0.15419651847E+03  0.13281229588E+04  0.50400001928E-02 0.  1.
       -1    1    3    3    0  502  0.10137866072E+04 -0.84402058176E+03 -0.14333033935E+04  0.19479457500E+04  0.50400001928E-02 0. -1.
</event>
<event>
 5   0  0.3935852E-07  0.3080428E+04  0.7818609E-02  0.8221130E-01
        1   -1    0    0  501    0  0.00000000000E+00  0.00000000000E+00  0.18369966010E+04  0.18369966010E+04  0.50400001928E-02 0.  1.
       -1   -1    0    0    0  501  0.00000000000E+00  0.00000000000E+00 -0.12913789439E+04  0.12913789439E+04  0.50400001928E-02 0. -1.
    10030    2    1    2    0    0  0.00000000000E+00  0.00000000000E+00  0.54561765707E+03  0.31283755449E+04  0.30804277174E+04 0.  0.
        5    1    3    3  502    0  0.11460301096E+04  0.72722135649E+03 -0.46653438787E+03  0.14352394708E+04  0.46999998093E+01 0. -1.
       -5    1    3    3    0  502 -0.11460301096E+04 -0.72722135649E+03  0.10121520449E+04  0.16931360741E+04  0.46999998093E+01 0.  1.
</event>
<event>
 5   0  0.4134019E-07  0.3097507E+04  0.7818609E-02  0.8216422E-01
       -1   -1    0    0    0  501  0.00000000000E+00  0.00000000000E+00  0.13903388753E+04  0.13903388753E+04  0.50400001928E-02 0.  1.
        1   -1    0    0  501    0  0.00000000000E+00  0.00000000000E+00 -0.17252183609E+04  0.17252183609E+04  0.50400001928E-02 0. -1.
    10030    2    1    2    0    0  0.00000000000E+00  0.00000000000E+00 -0.33487948566E+03  0.31155572362E+04  0.30975074854E+04 0.  0.
        2    1    3    3  502    0 -0.97240790948E+03  0.64332375078E+03  0.85790996461E+03  0.14475676489E+04  0.25500000920E-02 0.  1.
       -2    1    3    3    0  502  0.97240790948E+03 -0.64332375078E+03 -0.11927894503E+04  0.16679895873E+04  0.25500000920E-02 0. -1.
</event>
<event>
 5   0  0.3935852E-07  0.3093177E+04  0.7818609E-02  0.8217613E-01
       -1   -1    0    0    0  501  0.00000000000E+00  0.00000000000E+00  0.20772944961E+04  0.20772944961E+04  0.50400001928E-02 0. -1.
        1   -1    0    0  501    0  0.00000000000E+00  0.00000000000E+00 -0.11514668814E+04  0.11514668814E+04  0.50400001928E-02 0.  1.
    10030    2    1    2    0    0  0.00000000000E+00  0.00000000000E+00  0.92582761465E+03  0.32287613775E+04  0.30931768880E+04 0.  0.
        5    1    3    3  502    0 -0.87225578304E+03 -0.12103907046E+04  0.37575174963E+02  0.14924174324E+04  0.46999998093E+01 0. -1.
       -5    1    3    3    0  502  0.87225578304E+03  0.12103907046E+04  0.88825243968E+03  0.17363439450E+04  0.46999998093E+01 0.  1.
</event>
<event>
 5   0  0.1193123E-06  0.3089013E+04  0.7818609E-02  0.8218760E-01
       -2   -1    0    0    0  501  0.00000000000E+00  0.00000000000E+00  0.72473813252E+03  0.72473813252E+03  0.25500000920E-02 0. -1.
        2   -1    0    0  501    0  0.00000000000E+00  0.00000000000E+00 -0.32915351282E+04  0.32915351282E+04  0.25500000920E-02 0.  1.
    10030    2    1    2    0    0  0.00000000000E+00  0.00000000000E+00 -0.25667969957E+04  0.40162732607E+04  0.30890134490E+04 0.  0.
        3    1    3    3  502    0 -0.75398575079E+03  0.11234298122E+04 -0.31486310428E+03  0.13891464429E+04  0.10100000352E+00 0. -1.
       -3    1    3    3    0  502  0.75398575079E+03 -0.11234298122E+04 -0.22519338914E+04  0.26271268178E+04  0.10100000352E+00 0.  1.
</event>
<event>
 5   0  0.1237580E-06  0.3090491E+04  0.7818609E-02  0.8218352E-01
       -2   -1    0    0    0  501  0.00000000000E+00  0.00000000000E+00  0.87212290910E+03  0.87212290911E+03  0.25500000920E-02 0.  1.
        2   -1    0    0  501    0  0.00000000000E+00  0.00000000000E+00 -0.27378981777E+04  0.27378981777E+04  0.25500000920E-02 0. -1.
    10030    2    1    2    0    0  0.00000000000E+00  0.00000000000E+00 -0.18657752686E+04  0.36100210868E+04  0.30904910442E+04 0.  0.
        4    1    3    3  502    0 -0.69394051985E+03  0.70759858272E+03  0.45196244097E+03  0.10892753831E+04  0.12699999809E+01 0. -1.
       -4    1    3    3    0  502  0.69394051985E+03 -0.70759858272E+03 -0.23177377096E+04  0.25207457037E+04  0.12699999809E+01 0.  1.
</event>
<event>
 5   0  0.4219337E-07  0.3101038E+04  0.7818609E-02  0.8215453E-01
        1   -1    0    0  501    0  0.00000000000E+00  0.00000000000E+00  0.17866068822E+04  0.17866068822E+04  0.50400001928E-02 0. -1.
       -1   -1    0    0    0  501  0.00000000000E+00  0.00000000000E+00 -0.13456284538E+04  0.13456284538E+04  0.50400001928E-02 0.  1.
    10030    2    1    2    0    0  0.00000000000E+00  0.00000000000E+00  0.44097842840E+03  0.31322353360E+04  0.31010379272E+04 0.  0.
        4    1    3    3  502    0  0.28698391068E+03  0.15145773766E+04  0.38890915780E+03  0.15898290288E+04  0.12699999809E+01 0.  1.
       -4    1    3    3    0  502 -0.28698391068E+03 -0.15145773766E+04  0.52069270593E+02  0.15424063072E+04  0.12699999809E+01 0. -1.
</event>
<event>
 5   0  0.4134019E-07  0.3101456E+04  0.7818609E-02  0.8215339E-01
        1   -1    0    0  501    0  0.00000000000E+00  0.00000000000E+00  0.17199986107E+04  0.17199986107E+04  0.50400001928E-02 0.  1.
       -1   -1    0    0    0  501  0.00000000000E+00  0.00000000000E+00 -0.13981154549E+04  0.13981154549E+04  0.50400001928E-02 0. -1.
    10030    2    1    2    0    0  0.00000000000E+00  0.00000000000E+00  0.32188315577E+03  0.31181140656E+04  0.31014555551E+04 0.  0.
        2    1    3    3  502    0 -0.87422407233E+03  0.12004952829E+04 -0.28788655572E+03  0.15127244699E+04  0.25500000920E-02 0. -1.
       -2    1    3    3    0  502  0.87422407233E+03 -0.12004952829E+04  0.60976971149E+03  0.16053895957E+04  0.25500000920E-02 0.  1.
</event>
<event>
 5   0  0.4134019E-07  0.3094178E+04  0.7818609E-02  0.8217338E-01
        1   -1    0    0  501    0  0.00000000000E+00  0.00000000000E+00  0.16463187655E+04  0.16463187655E+04  0.50400001928E-02 0.  1.
       -1   -1    0    0    0  501  0.00000000000E+00  0.00000000000E+00 -0.14538397624E+04  0.14538397624E+04  0.50400001928E-02 0. -1.
    10030    2    1    2    0    0  0.00000000000E+00  0.00000000000E+00  0.19247900311E+03  0.31001585279E+04  0.30941775534E+04 0.  0.
        2    1    3    3  502    0 -0.74132783180E+03 -0.76850595560E+03 -0.10254401620E+04  0.14804377339E+04  0.25500000920E-02 0. -1.
       -2    1    3    3    0  502  0.74132783180E+03  0.76850595560E+03  0.12179191651E+04  0.16197207941E+04  0.25500000920E-02 0.  1.
</event>
<event>
 5   0  0.1176002E-06  0.3068048E+04  0.7818609E-02  0.8224562E-01
        2   -1    0    0  501    0  0.00000000000E+00  0.00000000000E+00  0.23732569413E+04  0.23732569413E+04  0.25500000920E-02 0.  1.
       -2   -1    0    0    0  501  0.00000000000E+00  0.00000000000E+00 -0.99156153337E+03  0.99156153338E+03  0.25500000920E-02 0. -1.
    10030    2    1    2    0    0  0.00000000000E+00  0.00000000000E+00  0.13816954079E+04  0.33648184747E+04  0.30680484297E+04 0.  0.
        2    1    3    3  502    0  0.12493023361E+04 -0.86601549905E+03  0.91692061129E+03  0.17752415551E+04  0.25500000920E-02 0.  1.
       -2    1    3    3    0  502 -0.12493023361E+04  0.86601549905E+03  0.46477479662E+03  0.15895769196E+04  0.25500000920E-02 0. -1.
</event>
<event>
 5   0  0.4330395E-07  0.3104071E+04  0.7818609E-02  0.8214622E-01
       -1   -1    0    0    0  501  0.00000000000E+00  0.00000000000E+00  0.15786976332E+04  0.15786976332E+04  0.50400001928E-02 0. -1.
        1   -1    0    0  501    0  0.00000000000E+00  0.00000000000E+00 -0.15258237401E+04  0.15258237401E+04  0.50400001928E-02 0.  1.
    10030    2    1    2    0    0  0.00000000000E+00  0.00000000000E+00  0.52873893174E+02  0.31045213733E+04  0.31040710863E+04 0.  0.
        1    1    3    3  502    0 -0.33761105815E+03 -0.35334439174E+03  0.14997361207E+04  0.15773528196E+04  0.50400001928E-02 0. -1.
       -1    1    3    3    0  502  0.33761105815E+03  0.35334439174E+03 -0.14468622276E+04  0.15271685537E+04  0.50400001928E-02 0.  1.
</event>
<event>
 5   0  0.4219337E-07  0.3100377E+04  0.7818609E-02  0.8215634E-01
        1   -1    0    0  501    0  0.00000000000E+00  0.00000000000E+00  0.23102900067E+04  0.23102900067E+04  0.50400001928E-02 0.  1.
       -1   -1    0    0    0  501  0.00000000000E+00  0.00000000000E+00 -0.10401658895E+04  0.10401658895E+04  0.50400001928E-02 0. -1.
    10030    2    1    2    0    0  0.00000000000E+00  0.00000000000E+00  0.12701241172E+04  0.33504558962E+04  0.31003773060E+04 0.  0.
        4    1    3    3  502    0 -0.96322164913E+03  0.10949966068E+04  0.12030720956E+04  0.18905548377E+04  0.12699999809E+01 0.  1.
       -4    1    3    3    0  502  0.96322164913E+03 -0.10949966068E+04  0.67052021586E+02  0.14599010585E+04  0.12699999809E+01 0. -1.
</event>
<event>
 5   0  0.4173905E-07  0.3081546E+04  0.7818609E-02  0.8220821E-01
       -1   -1    0    0    0  501  0.00000000000E+00  0.00000000000E+00  0.20350315600E+04  0.20350315600E+04  0.50400001928E-02 0.  1.
        1   -1    0    0  501    0  0.00000000000E+00  0.00000000000E+00 -0.11665574190E+04  0.11665574190E+04  0.50400001928E-02 0. -1.
    10030    2    1    2    0    0  0.00000000000E+00  0.00000000000E+00  0.86847414097E+03  0.32015889790E+04  0.30815458226E+04 0.  0.
        3    1    3    3  502    0  0.76384063654E+03  0.86153282643E+03 -0.62950817365E+03  0.13122392617E+04  0.10100000352E+00 0. -1.
       -3    1    3    3    0  502 -0.76384063654E+03 -0.86153282643E+03  0.14979823146E+04  0.18893497173E+04  0.10100000352E+00 0.  1.
</event>
<event>
 5   0  0.4219337E-07  0.3107459E+04  0.7818609E-02  0.8213694E-01
       -1   -1    0    0    0  501  0.00000000000E+00  0.00000000000E+00  0.18094931517E+04  0.18094931517E+04  0.50400001928E-02 0.  1.
        1   -1    0    0  501    0  0.00000000000E+00  0.00000000000E+00 -0.13341165770E+04  0.13341165770E+04  0.50400001928E-02 0. -1.
    10030    2    1    2    0    0  0.00000000000E+00  0.00000000000E+00  0.47537657469E+03  0.31436097288E+04  0.31074586464E+04 0.  0.
        4    1    3    3  502    0 -0.14436012707E+04  0.17091093263E+03 -0.31721653419E+03  0.14878921729E+04  0.12699999809E+01 0. -1.
       -4    1    3    3    0  502  0.14436012707E+04 -0.17091093263E+03  0.79259310889E+03  0.16557175559E+04  0.12699999809E+01 0.  1.
</event>
<event>
 5   0  0.1237580E-06  0.3099182E+04  0.7818609E-02  0.8215963E-01
        2   -1    0    0  501    0  0.00000000000E+00  0.00000000000E+00  0.10268447335E+04  0.10268447335E+04  0.25500000920E-02 0. -1.
       -2   -1    0    0    0  501  0.00000000000E+00  0.00000000000E+00 -0.23384563541E+04  0.23384563541E+04  0.25500000920E-02 0.  1.
    10030    2    1    2    0    0  0.00000000000E+00  0.00000000000E+00 -0.13116116206E+04  0.33653010876E+04  0.30991815641E+04 0.  0.
        4    1    3    3  502    0  0.15428344156E+04  0.11899978636E+03 -0.74489326758E+03  0.17173719970E+04  0.12699999809E+01 0. -1.
       -4    1    3    3    0  502 -0.15428344156E+04 -0.11899978636E+03 -0.56671835301E+03  0.16479290906E+04  0.12699999809E+01 0.  1.
</event>
<event>
 5   0  0.1176002E-06  0.3084635E+04  0.7818609E-02  0.8219967E-01
       -2   -1    0    0    0  501  0.00000000000E+00  0.00000000000E+00  0.23021790994E+04  0.23021790994E+04  0.25500000920E-02 0. -1.
        2   -1    0    0  501    0  0.00000000000E+00  0.00000000000E+00 -0.10332570127E+04  0.10332570127E+04  0.25500000920E-02 0.  1.
    10030    2    1    2    0    0  0.00000000000E+00  0.00000000000E+00  0.12689220867E+04  0.33354361121E+04  0.30846346292E+04 0.  0.
        2    1    3    3  502    0 -0.88830354112E+03 -0.11291396163E+04  0.12410569943E+04  0.18984893777E+04  0.25500000920E-02 0. -1.
       -2    1    3    3    0  502  0.88830354112E+03  0.11291396163E+04  0.27865092396E+02  0.14369467344E+04  0.25500000920E-02 0.  1.
</event>
<event>
 5   0  0.1200286E-06  0.3102771E+04  0.7818609E-02  0.8214978E-01
       -2   -1    0    0    0  501  0.00000000000E+00  0.00000000000E+00  0.11266349575E+04  0.11266349575E+04  0.25500000920E-02 0. -1.
        2   -1    0    0  501    0  0.00000000000E+00  0.00000000000E+00 -0.21362698230E+04  0.21362698230E+04  0.25500000920E-02 0.  1.
    10030    2    1    2    0    0  0.00000000000E+00  0.00000000000E+00 -0.10096348654E+04  0.32629047805E+04  0.31027705434E+04 0.  0.
        5    1    3    3  502    0  0.26366561104E+03  0.38207532399E+03 -0.20615104973E+04  0.21131371768E+04  0.46999998093E+01 0.  1.
       -5    1    3    3    0  502 -0.26366561104E+03 -0.38207532399E+03  0.10518756318E+04  0.11497676037E+04  0.46999998093E+01 0. -1.
</event>
<event>
 5   0  0.1193123E-06  0.3096823E+04  0.7818609E-02  0.8216610E-01
        2   -1    0    0  501    0  0.00000000000E+00  0.00000000000E+00  0.19841595173E+04  0.19841595173E+04  0.25500000920E-02 0. -1.
       -2   -1    0    0    0  501  0.00000000000E+00  0.00000000000E+00 -0.12083592904E+04  0.12083592904E+04  0.25500000920E-02 0.  1.
    10030    2    1    2    0    0  0.00000000000E+00  0.00000000000E+00  0.77580022688E+03  0.31925188077E+04  0.30968226210E+04 0.  0.
        3    1    3    3  502    0  0.64039149476E+03  0.81576037676E+03  0.15732176788E+04  0.18842983134E+04  0.10100000352E+00 0. -1.
       -3    1    3    3    0  502 -0.64039149476E+03 -0.81576037676E+03 -0.79741745193E+03  0.13082204943E+04  0.10100000352E+00 0.  1.
</event>
<event>
 5   0  0.1258262E-06  0.3116886E+04  0.7818609E-02  0.8211119E-01
       -2   -1    0    0    0  501  0.00000000000E+00  0.00000000000E+00  0.23350597485E+04  0.23350597485E+04  0.25500000920E-02 0. -1.
        2   -1    0    0  501    0  0.00000000000E+00  0.00000000000E+00 -0.10401210881E+04  0.10401210881E+04  0.25500000920E-02 0.  1.
    10030    2    1    2    0    0  0.00000000000E+00  0.00000000000E+00  0.12949386604E+04  0.33751808366E+04  0.31168861939E+04 0.  0.
        1    1    3    3  502    0 -0.52037421393E+03  0.90492611080E+03  0.19005436127E+04  0.21683511275E+04  0.50400001928E-02 0. -1.
       -1    1    3    3    0  502  0.52037421393E+03 -0.90492611080E+03 -0.60560495226E+03  0.12068297091E+04  0.50400001928E-02 0.  1.
</event>
<event>
 5   0  0.4173905E-07  0.3011346E+04  0.7818609E-02  0.8240498E-01
        1   -1    0    0  501    0  0.00000000000E+00  0.00000000000E+00  0.15044673413E+04  0.15044673413E+04  0.50400001928E-02 0. -1.
       -1   -1    0    0    0  501  0.00000000000E+00  0.00000000000E+00 -0.15068792594E+04  0.15068792594E+04  0.50400001928E-02 0.  1.
    10030    2    1    2    0    0  0.00000000000E+00  0.00000000000E+00 -0.24119181111E+01  0.30113466006E+04  0.30113456347E+04 0.  0.
        3    1    3    3  502    0  0.13376635065E+04  0.29852517245E+03 -0.62457578254E+03  0.15061725843E+04  0.10100000352E+00 0.  1.
       -3    1    3    3    0  502 -0.13376635065E+04 -0.29852517245E+03  0.62216386443E+03  0.15051740164E+04  0.10100000352E+00 0. -1.
</event>
<event>
 5   0  0.4173905E-07  0.3102920E+04  0.7818609E-02  0.8214937E-01
       -1   -1    0    0    0  501  0.00000000000E+00  0.00000000000E+00  0.21911100897E+04  0.21911100897E+04  0.50400001928E-02 0. -1.
        1   -1    0    0  501    0  0.00000000000E+00  0.00000000000E+00 -0.10985428108E+04  0.10985428108E+04  0.50400001928E-02 0.  1.
    10030    2    1    2    0    0  0.00000000000E+00  0.00000000000E+00  0.10925672789E+04  0.32896529006E+04  0.31029200678E+04 0.  0.
        3    1    3    3  502    0 -0.94842174935E+03  0.19758710722E+03 -0.73845285459E+03  0.12181367363E+04  0.10100000352E+00 0.  1.
       -3    1    3    3    0  502  0.94842174935E+03 -0.19758710722E+03  0.18310201335E+04  0.20715161643E+04  0.10100000352E+00 0. -1.
</event>
<event>
 5   0  0.1200286E-06  0.3103992E+04  0.7818609E-02  0.8214643E-01
        2   -1    0    0  501    0  0.00000000000E+00  0.00000000000E+00  0.24331614426E+04  0.24331614426E+04  0.25500000920E-02 0.  1.
       -2   -1    0    0    0  501  0.00000000000E+00  0.00000000000E+00 -0.98994291031E+03  0.98994291031E+03  0.25500000920E-02 0. -1.
    10030    2    1    2    0    0  0.00000000000E+00  0.00000000000E+00  0.14432185323E+04  0.34231043529E+04  0.31039915720E+04 0.  0.
        5    1    3    3  502    0  0.58493131314E+03 -0.60653218269E+02 -0.86230964218E+03  0.10437545032E+04  0.46999998093E+01 0. -1.
       -5    1    3    3    0  502 -0.58493131314E+03  0.60653218269E+02  0.23055281745E+04  0.23793498497E+04  0.46999998093E+01 0.  1.
</event>
<event>
 5   0  0.4219337E-07  0.3110520E+04  0.7818609E-02  0.8212857E-01
       -1   -1    0    0    0  501  0.00000000000E+00  0.00000000000E+00  0.18000637581E+04  0.18000637581E+04  0.50400001928E-02 0.  1.
        1   -1    0    0  501    0  0.00000000000E+00  0.00000000000E+00 -0.13437489193E+04  0.13437489193E+04  0.50400001928E-02 0. -1.
    10030    2    1    2    0    0  0.00000000000E+00  0.00000000000E+00  0.45631483879E+03  0.31438126773E+04  0.31105200398E+04 0.  0.
        4    1    3    3  502    0  0.45953678876E+03  0.84997066934E+03  0.14598924278E+04  0.17506889251E+04  0.12699999809E+01 0.  1.
       -4    1    3    3    0  502 -0.45953678876E+03 -0.84997066934E+03 -0.10035775890E+04  0.13931237522E+04  0.12699999809E+01 0. -1.
</event>
<event>
 5   0  0.1258262E-06  0.3099070E+04  0.7818609E-02  0.8215993E-01
       -2   -1    0    0    0  501  0.00000000000E+00  0.00000000000E+00  0.14186965893E+04  0.14186965893E+04  0.25500000920E-02 0. -1.
        2   -1    0    0  501    0  0.00000000000E+00  0.00000000000E+00 -0.16924404133E+04  0.16924404133E+04  0.25500000920E-02 0.  1.
    10030    2    1    2    0    0  0.00000000000E+00  0.00000000000E+00 -0.27374382400E+03  0.31111370027E+04  0.30990704684E+04 0.  0.
        1    1    3    3  502    0  0.10028638437E+04  0.49144480966E+03  0.94146382126E+03  0.14606875151E+04  0.50400001928E-02 0. -1.
       -1    1    3    3    0  502 -0.10028638437E+04 -0.49144480966E+03 -0.12152076453E+04  0.16504494876E+04  0.50400001928E-02 0.  1.
</event>
<event>
 5   0  0.1193123E-06  0.3097983E+04  0.7818609E-02  0.8216292E-01
       -2   -1    0    0    0  501  0.00000000000E+00  0.00000000000E+00  0.27890109495E+04  0.27890109495E+04  0.25500000920E-02 0. -1.
        2   -1    0    0  501    0  0.00000000000E+00  0.00000000000E+00 -0.86029579067E+03  0.86029579067E+03  0.25500000920E-02 0.  1.
    10030    2    1    2    0    0  0.00000000000E+00  0.00000000000E+00  0.19287151589E+04  0.36493067402E+04  0.30979828147E+04 0.  0.
        3    1    3    3  502    0  0.79529557599E+03 -0.12928498680E+04  0.60048633326E+03  0.16323417783E+04  0.10100000352E+00 0.  1.
       -3    1    3    3    0  502 -0.79529557599E+03  0.12928498680E+04  0.13282288256E+04  0.20169649620E+04  0.10100000352E+00 0. -1.
</event>
<event>
 5   0  0.4173905E-07  0.3138526E+04  0.7818609E-02  0.8205243E-01
        1   -1    0    0  501    0  0.00000000000E+00  0.00000000000E+00  0.14610795950E+04  0.14610795950E+04  0.50400001928E-02 0. -1.
       -1   -1    0    0    0  501  0.00000000000E+00  0.00000000000E+00 -0.16854572150E+04  0.16854572151E+04  0.50400001928E-02 0.  1.
    10030    2    1    2    0    0  0.00000000000E+00  0.00000000000E+00 -0.22437762005E+03  0.31465368101E+04  0.31385264983E+04 0.  0.
        3    1    3    3  502    0  0.43160132724E+03  0.47928120421E+03 -0.15464332634E+04  0.16755435019E+04  0.10100000352E+00 0.  1.
       -3    1    3    3    0  502 -0.43160132724E+03 -0.47928120421E+03  0.13220556433E+04  0.14709933082E+04  0.10100000352E+00 0. -1.
</event>
<event>
 5   0  0.1193123E-06  0.3106163E+04  0.7818609E-02  0.8214049E-01
        2   -1    0    0  501    0  0.00000000000E+00  0.00000000000E+00  0.14389143776E+04  0.14389143776E+04  0.25500000920E-02 0. -1.
       -2   -1    0    0    0  501  0.00000000000E+00  0.00000000000E+00 -0.16763066022E+04  0.16763066022E+04  0.25500000920E-02 0.  1.
    10030    2    1    2    0    0  0.00000000000E+00  0.00000000000E+00 -0.23739222460E+03  0.31152209797E+04  0.31061626944E+04 0.  0.
        3    1    3    3  502    0  0.12817402952E+04  0.13208860923E+03 -0.98826327857E+03  0.16238749653E+04  0.10100000352E+00 0.  1.
       -3    1    3    3    0  502 -0.12817402952E+04 -0.13208860923E+03  0.75087105398E+03  0.14913460144E+04  0.10100000352E+00 0. -1.
</event>
<event>
 5   0  0.1258262E-06  0.3087597E+04  0.7818609E-02  0.8219150E-01
       -2   -1    0    0    0  501  0.00000000000E+00  0.00000000000E+00  0.11876080106E+04  0.11876080106E+04  0.25500000920E-02 0.  1.
        2   -1    0    0  501    0  0.00000000000E+00  0.00000000000E+00 -0.20068181517E+04  0.20068181517E+04  0.25500000920E-02 0. -1.
    10030    2    1    2    0    0  0.00000000000E+00  0.00000000000E+00 -0.81921014116E+03  0.31944261623E+04  0.30875966788E+04 0.  0.
        1    1    3    3  502    0  0.15749297680E+02  0.16630663725E+03  0.11782296863E+04  0.11900130805E+04  0.50400001928E-02 0.  1.
       -1    1    3    3    0  502 -0.15749297680E+02 -0.16630663725E+03 -0.19974398275E+04  0.20044130818E+04  0.50400001928E-02 0. -1.
</event>
<event>
 5   0  0.4134019E-07  0.3156687E+04  0.7818609E-02  0.8200351E-01
        1   -1    0    0  501    0  0.00000000000E+00  0.00000000000E+00  0.15726359219E+04  0.15726359219E+04  0.50400001928E-02 0. -1.
       -1   -1    0    0    0  501  0.00000000000E+00  0.00000000000E+00 -0.15840715794E+04  0.15840715794E+04  0.50400001928E-02 0.  1.
    10030    2    1    2    0    0  0.00000000000E+00  0.00000000000E+00 -0.11435657536E+02  0.31567075013E+04  0.31566867875E+04 0.  0.
        2    1    3    3  502    0  0.10565173753E+04  0.87532092309E+03  0.77451301848E+03  0.15755272446E+04  0.25500000920E-02 0. -1.
       -2    1    3    3    0  502 -0.10565173753E+04 -0.87532092309E+03 -0.78594867602E+03  0.15811802567E+04  0.25500000920E-02 0.  1.
</event>
<event>
 5   0  0.1237580E-06  0.3104224E+04  0.7818609E-02  0.8214580E-01
       -2   -1    0    0    0  501  0.00000000000E+00  0.00000000000E+00  0.15421798123E+04  0.15421798123E+04  0.25500000920E-02 0.  1.
        2   -1    0    0  501    0  0.00000000000E+00  0.00000000000E+00 -0.15621082306E+04  0.15621082306E+04  0.25500000920E-02 0. -1.
    10030    2    1    2    0    0  0.00000000000E+00  0.00000000000E+00 -0.19928418281E+02  0.31042880429E+04  0.31042240756E+04 0.  0.
        4    1    3    3  502    0 -0.11925110788E+03  0.11191661719E+04 -0.10787689135E+04  0.15590053652E+04  0.12699999809E+01 0. -1.
       -4    1    3    3    0  502  0.11925110788E+03 -0.11191661719E+04  0.10588404952E+04  0.15452826778E+04  0.12699999809E+01 0.  1.
</event>
<event>
 5   0  0.1176002E-06  0.3095077E+04  0.7818609E-02  0.8217090E-01
        2   -1    0    0  501    0  0.00000000000E+00  0.00000000000E+00  0.28062346414E+04  0.28062346414E+04  0.25500000920E-02 0.  1.
       -2   -1    0    0    0  501  0.00000000000E+00  0.00000000000E+00 -0.85341223044E+03  0.85341223045E+03  0.25500000920E-02 0. -1.
    10030    2    1    2    0    0  0.00000000000E+00  0.00000000000E+00  0.19528224109E+04  0.36596468718E+04  0.30950767127E+04 0.  0.
        2    1    3    3  502    0  0.85215181867E+03  0.10410804153E+04  0.18806749916E+04  0.23123472009E+04  0.25500000920E-02 0.  1.
       -2    1    3    3    0  502 -0.85215181867E+03 -0.10410804153E+04  0.72147419281E+02  0.13472996709E+04  0.25500000920E-02 0. -1.
</event>
<event>
 5   0  0.4173905E-07  0.3126329E+04  0.7818609E-02  0.8208549E-01
       -1   -1    0    0    0  501  0.00000000000E+00  0.00000000000E+00  0.11133878038E+04  0.11133878038E+04  0.50400001928E-02 0.  1.
        1   -1    0    0  501    0  0.00000000000E+00  0.00000000000E+00 -0.21946374984E+04  0.21946374984E+04  0.50400001928E-02 0. -1.
    10030    2    1    2    0    0  0.00000000000E+00  0.00000000000E+00 -0.10812496946E+04  0.33080253022E+04  0.31263285972E+04 0.  0.
        3    1    3    3  502    0 -0.32874518546E+03  0.15139284918E+04 -0.32011509059E+03  0.15819375956E+04  0.10100000352E+00 0.  1.
       -3    1    3    3    0  502  0.32874518546E+03 -0.15139284918E+04 -0.76113460401E+03  0.17260877066E+04  0.10100000352E+00 0. -1.
</event>
<event>
 5   0  0.4219337E-07  0.3072833E+04  0.7818609E-02  0.8223234E-01
       -1   -1    0    0    0  501  0.00000000000E+00  0.00000000000E+00  0.10602340541E+04  0.10602340541E+04  0.50400001928E-02 0. -1.
        1   -1    0    0  501    0  0.00000000000E+00  0.00000000000E+00 -0.22264659809E+04  0.22264659809E+04  0.50400001928E-02 0.  1.
    10030    2    1    2    0    0  0.00000000000E+00  0.00000000000E+00 -0.11662319268E+04  0.32867000351E+04  0.30728326042E+04 0.  0.
        4    1    3    3  502    0 -0.43862608528E+03 -0.12119695521E+03  0.98649776325E+03  0.10863981749E+04  0.12699999809E+01 0. -1.
       -4    1    3    3    0  502  0.43862608528E+03  0.12119695521E+03 -0.21527296900E+04  0.22003018601E+04  0.12699999809E+01 0.  1.
</event>
<event>
 5   0  0.3935852E-07  0.3098443E+04  0.7818609E-02  0.8216165E-01
       -1   -1    0    0    0  501  0.00000000000E+00  0.00000000000E+00  0.12059264050E+04  0.12059264050E+04  0.50400001928E-02 0.  1.
        1   -1    0    0  501    0  0.00000000000E+00  0.00000000000E+00 -0.19902435891E+04  0.19902435891E+04  0.50400001928E-02 0. -1.
    10030    2    1    2    0    0  0.00000000000E+00  0.00000000000E+00 -0.78431718411E+03  0.31961699940E+04  0.30984430260E+04 0.  0.
        5    1    3    3  502    0  0.73156849246E+03 -0.42796624997E+02  0.10158249694E+04  0.12525759333E+04  0.46999998093E+01 0.  1.
       -5    1    3    3    0  502 -0.73156849246E+03  0.42796624997E+02 -0.18001421535E+04  0.19435940607E+04  0.46999998093E+01 0. -1.
</event>
<event>
 5   0  0.4219337E-07  0.3096707E+04  0.7818609E-02  0.8216642E-01
        1   -1    0    0  501    0  0.00000000000E+00  0.00000000000E+00  0.21322373647E+04  0.21322373647E+04  0.50400001928E-02 0. -1.
       -1   -1    0    0    0  501  0.00000000000E+00  0.00000000000E+00 -0.11243583021E+04  0.11243583022E+04  0.50400001928E-02 0.  1.
    10030    2    1    2    0    0  0.00000000000E+00  0.00000000000E+00  0.10078790626E+04  0.32565956669E+04  0.30967071435E+04 0.  0.
        4    1    3    3  502    0 -0.12858291714E+04  0.70469475427E+02 -0.40014249038E+03  0.13484948018E+04  0.12699999809E+01 0.  1.
       -4    1    3    3    0  502  0.12858291714E+04 -0.70469475427E+02  0.14080215530E+04  0.19081008651E+04  0.12699999809E+01 0. -1.
</event>
<event>
 5   0  0.4330395E-07  0.3090533E+04  0.7818609E-02  0.8218341E-01
        1   -1    0    0  501    0  0.00000000000E+00  0.00000000000E+00  0.24304322166E+04  0.24304322166E+04  0.50400001928E-02 0. -1.
       -1   -1    0    0    0  501  0.00000000000E+00  0.00000000000E+00 -0.98247924544E+03  0.98247924545E+03  0.50400001928E-02 0.  1.
    10030    2    1    2    0    0  0.00000000000E+00  0.00000000000E+00  0.14479529712E+04  0.34129114621E+04  0.30905334234E+04 0.  0.
        1    1    3    3  502    0 -0.83921573111E+03 -0.10444481875E+04  0.15741486817E+04  0.20671475835E+04  0.50400001928E-02 0.  1.
       -1    1    3    3    0  502  0.83921573111E+03  0.10444481875E+04 -0.12619571054E+03  0.13457638786E+04  0.50400001928E-02 0. -1.
</event>
<event>
 5   0  0.1200286E-06  0.3101127E+04  0.7818609E-02  0.8215429E-01
        2   -1    0    0  501    0  0.00000000000E+00  0.00000000000E+00  0.15063055104E+04  0.15063055104E+04  0.25500000920E-02 0.  1.
       -2   -1    0    0    0  501  0.00000000000E+00  0.00000000000E+00 -0.15961219462E+04  0.15961219462E+04  0.25500000920E-02 0. -1.
    10030    2    1    2    0    0  0.00000000000E+00  0.00000000000E+00 -0.89816435842E+02  0.31024274566E+04  0.31011270743E+04 0.  0.
        5    1    3    3  502    0  0.13915694436E+04 -0.42578478789E+02  0.63798093733E+03  0.15314438317E+04  0.46999998093E+01 0.  1.
       -5    1    3    3    0  502 -0.13915694436E+04  0.42578478789E+02 -0.72779737317E+03  0.15709836249E+04  0.46999998093E+01 0. -1.
</event>
<event>
 5   0  0.4219337E-07  0.3101032E+04  0.7818609E-02  0.8215455E-01
        1   -1    0    0  501    0  0.00000000000E+00  0.00000000000E+00  0.14817200666E+04  0.14817200666E+04  0.50400001928E-02 0.  1.
       -1   -1    0    0    0  501  0.00000000000E+00  0.00000000000E+00 -0.16225059553E+04  0.16225059553E+04  0.50400001928E-02 0. -1.
    10030    2    1    2    0    0  0.00000000000E+00  0.00000000000E+00 -0.14078588866E+03  0.31042260219E+04  0.31010318490E+04 0.  0.
        4    1    3    3  502    0 -0.96134649948E+03  0.42151793131E+03 -0.12127228599E+04  0.16039210723E+04  0.12699999809E+01 0. -1.
       -4    1    3    3    0  502  0.96134649948E+03 -0.42151793131E+03  0.10719369712E+04  0.15003049496E+04  0.12699999809E+01 0.  1.
</event>
<event>
 5   0  0.4134019E-07  0.3103039E+04  0.7818609E-02  0.8214904E-01
       -1   -1    0    0    0  501  0.00000000000E+00  0.00000000000E+00  0.16030320936E+04  0.16030320936E+04  0.50400001928E-02 0. -1.
        1   -1    0    0  501    0  0.00000000000E+00  0.00000000000E+00 -0.15016620929E+04  0.15016620929E+04  0.50400001928E-02 0.  1.
    10030    2    1    2    0    0  0.00000000000E+00  0.00000000000E+00  0.10137000065E+03  0.31046941865E+04  0.31030388516E+04 0.  0.
        2    1    3    3  502    0  0.11908003396E+04  0.34454708260E+03  0.98418560368E+03  0.15828264098E+04  0.25500000920E-02 0. -1.
       -2    1    3    3    0  502 -0.11908003396E+04 -0.34454708260E+03 -0.88281560302E+03  0.15218677767E+04  0.25500000920E-02 0.  1.
</event>
<event>
 5   0  0.1193123E-06  0.3113905E+04  0.7818609E-02  0.8211932E-01
       -2   -1    0    0    0  501  0.00000000000E+00  0.00000000000E+00  0.15956211295E+04  0.15956211295E+04  0.25500000920E-02 0.  1.
        2   -1    0    0  501    0  0.00000000000E+00  0.00000000000E+00 -0.15192210396E+04  0.15192210396E+04  0.25500000920E-02 0. -1.
    10030    2    1    2    0    0  0.00000000000E+00  0.00000000000E+00  0.76400089911E+02  0.31148421691E+04  0.31139050667E+04 0.  0.
        3    1    3    3  502    0  0.15174307253E+03  0.50861521612E+03  0.15023296298E+04  0.15933328983E+04  0.10100000352E+00 0.  1.
       -3    1    3    3    0  502 -0.15174307253E+03 -0.50861521612E+03 -0.14259295399E+04  0.15215092708E+04  0.10100000352E+00 0. -1.
</event>
<event>
 5   0  0.1193123E-06  0.3118060E+04  0.7818609E-02  0.8210799E-01
        2   -1    0    0  501    0  0.00000000000E+00  0.00000000000E+00  0.18514365991E+04  0.18514365991E+04  0.25500000920E-02 0.  1.
       -2   -1    0    0    0  501  0.00000000000E+00  0.00000000000E+00 -0.13128045127E+04  0.13128045127E+04  0.25500000920E-02 0. -1.
    10030    2    1    2    0    0  0.00000000000E+00  0.00000000000E+00  0.53863208635E+03  0.31642411118E+04  0.31180598598E+04 0.  0.
        3    1    3    3  502    0  0.34786689173E+03  0.58894332428E+03  0.16910326752E+04  0.18241318846E+04  0.10100000352E+00 0.  1.
       -3    1    3    3    0  502 -0.34786689173E+03 -0.58894332428E+03 -0.11524005888E+04  0.13401092272E+04  0.10100000352E+00 0. -1.
</event>
<event>
 5   0  0.3935852E-07  0.3097603E+04  0.7818609E-02  0.8216396E-01
       -1   -1    0    0    0  501  0.00000000000E+00  0.00000000000E+00  0.17139742654E+04  0.17139742654E+04  0.50400001928E-02 0. -1.
        1   -1    0    0  501    0  0.00000000000E+00  0.00000000000E+00 -0.13995465777E+04  0.13995465777E+04  0.50400001928E-02 0.  1.
    10030    2    1    2    0    0  0.00000000000E+00  0.00000000000E+00  0.31442768768E+03  0.31135208431E+04  0.30976034720E+04 0.  0.
        5    1    3    3  502    0 -0.16224015804E+03 -0.12295169219E+04 -0.77530942355E+03  0.14625869281E+04  0.46999998093E+01 0.  1.
       -5    1    3    3    0  502  0.16224015804E+03  0.12295169219E+04  0.10897371112E+04  0.16509339150E+04  0.46999998093E+01 0. -1.
</event>
<event>
 5   0  0.1200286E-06  0.3102514E+04  0.7818609E-02  0.8215048E-01
       -2   -1    0    0    0  501  0.00000000000E+00  0.00000000000E+00  0.17405773294E+04  0.17405773294E+04  0.25500000920E-02 0.  1.
        2   -1    0    0  501    0  0.00000000000E+00  0.00000000000E+00 -0.13825284676E+04  0.13825284676E+04  0.25500000920E-02 0. -1.
    10030    2    1    2    0    0  0.00000000000E+00  0.00000000000E+00  0.35804886176E+03  0.31231057970E+04  0.31025136312E+04 0.  0.
        5    1    3    3  502    0  0.11756781712E+04  0.67339414353E+03  0.93948326685E+03  0.16487357986E+04  0.46999998093E+01 0.  1.
       -5    1    3    3    0  502 -0.11756781712E+04 -0.67339414353E+03 -0.58143440510E+03  0.14743699984E+04  0.46999998093E+01 0. -1.
</event>
<event>
 5   0  0.1193123E-06  0.3103371E+04  0.7818609E-02  0.8214813E-01
       -2   -1    0    0    0  501  0.00000000000E+00  0.00000000000E+00  0.23706439972E+04  0.23706439972E+04  0.25500000920E-02 0. -1.
        2   -1    0    0  501    0  0.00000000000E+00  0.00000000000E+00 -0.10156428986E+04  0.10156428986E+04  0.25500000920E-02 0.  1.
    10030    2    1    2    0    0  0.00000000000E+00  0.00000000000E+00  0.13550010986E+04  0.33862868958E+04  0.31033709033E+04 0.  0.
        3    1    3    3  502    0 -0.81479457099E+03 -0.76052546921E+03  0.18554719741E+04  0.21645011987E+04  0.10100000352E+00 0. -1.
       -3    1    3    3    0  502  0.81479457099E+03  0.76052546921E+03 -0.50047087552E+03  0.12217856971E+04  0.10100000352E+00 0.  1.
</event>
<event>
 5   0  0.4173905E-07  0.3100616E+04  0.7818609E-02  0.8215569E-01
       -1   -1    0    0    0  501  0.00000000000E+00  0.00000000000E+00  0.10297027376E+04  0.10297027376E+04  0.50400001928E-02 0. -1.
        1   -1    0    0  501    0  0.00000000000E+00  0.00000000000E+00 -0.23341242817E+04  0.23341242817E+04  0.50400001928E-02 0.  1.
    10030    2    1    2    0    0  0.00000000000E+00  0.00000000000E+00 -0.13044215441E+04  0.33638270192E+04  0.31006155277E+04 0.  0.
        3    1    3    3  502    0  0.49622985760E+03  0.33032548453E+03 -0.22048151346E+04  0.22839809074E+04  0.10100000352E+00 0.  1.
       -3    1    3    3    0  502 -0.49622985760E+03 -0.33032548453E+03  0.90039359049E+03  0.10798461119E+04  0.10100000352E+00 0. -1.
</event>
<event>
 5   0  0.4173905E-07  0.3111043E+04  0.7818609E-02  0.8212714E-01
       -1   -1    0    0    0  501  0.00000000000E+00  0.00000000000E+00  0.10052950244E+04  0.10052950244E+04  0.50400001928E-02 0.  1.
        1   -1    0    0  501    0  0.00000000000E+00  0.00000000000E+00 -0.24069023531E+04  0.24069023531E+04  0.50400001928E-02 0. -1.
    10030    2    1    2    0    0  0.00000000000E+00  0.00000000000E+00 -0.14016073287E+04  0.34121973775E+04  0.31110428861E+04 0.  0.
        3    1    3    3  502    0 -0.64289728674E+02  0.15326176444E+04 -0.41775880392E+03  0.15898340924E+04  0.10100000352E+00 0.  1.
       -3    1    3    3    0  502  0.64289728674E+02 -0.15326176444E+04 -0.98384852475E+03  0.18223632851E+04  0.10100000352E+00 0. -1.
</event>
<event>
 5   0  0.4219337E-07  0.3097521E+04  0.7818609E-02  0.8216419E-01
        1   -1    0    0  501    0  0.00000000000E+00  0.00000000000E+00  0.20075615792E+04  0.20075615792E+04  0.50400001928E-02 0.  1.
       -1   -1    0    0    0  501  0.00000000000E+00  0.00000000000E+00 -0.11948122439E+04  0.11948122439E+04  0.50400001928E-02 0. -1.
    10030    2    1    2    0    0  0.00000000000E+00  0.00000000000E+00  0.81274933526E+03  0.32023738231E+04  0.30975210444E+04 0.  0.
        4    1    3    3  502    0  0.95625861089E+03  0.12180951354E+04  0.38393147532E+03  0.15954909214E+04  0.12699999809E+01 0. -1.
       -4    1    3    3    0  502 -0.95625861089E+03 -0.12180951354E+04  0.42881785995E+03  0.16068829017E+04  0.12699999809E+01 0.  1.
</event>
<event>
 5   0  0.1258262E-06  0.3095386E+04  0.7818609E-02  0.8217005E-01
        2   -1    0    0  501    0  0.00000000000E+00  0.00000000000E+00  0.22245175429E+04  0.22245175429E+04  0.25500000920E-02 0.  1.
       -2   -1    0    0    0  501  0.00000000000E+00  0.00000000000E+00 -0.10767966202E+04  0.10767966202E+04  0.25500000920E-02 0. -1.
    10030    2    1    2    0    0  0.00000000000E+00  0.00000000000E+00  0.11477209227E+04  0.33013141630E+04  0.30953855797E+04 0.  0.
        1    1    3    3  502    0 -0.30803417726E+02  0.27161896190E+03  0.21985665008E+04  0.22154955133E+04  0.50400001928E-02 0.  1.
       -1    1    3    3    0  502  0.30803417726E+02 -0.27161896190E+03 -0.10508455781E+04  0.10858186497E+04  0.50400001928E-02 0. -1.
</event>
<event>
 5   0  0.4134019E-07  0.3102687E+04  0.7818609E-02  0.8215001E-01
        1   -1    0    0  501    0  0.00000000000E+00  0.00000000000E+00  0.16676627134E+04  0.16676627134E+04  0.50400001928E-02 0. -1.
       -1   -1    0    0    0  501  0.00000000000E+00  0.00000000000E+00 -0.14431374728E+04  0.14431374728E+04  0.50400001928E-02 0.  1.
    10030    2    1    2    0    0  0.00000000000E+00  0.00000000000E+00  0.22452524058E+03  0.31108001863E+04  0.31026869348E+04 0.  0.
        2    1    3    3  502    0 -0.66397121450E+03 -0.71117807433E+03  0.13237411517E+04  0.16428398168E+04  0.25500000920E-02 0. -1.
       -2    1    3    3    0  502  0.66397121450E+03  0.71117807433E+03 -0.10992159111E+04  0.14679603694E+04  0.25500000920E-02 0.  1.
</event>
<event>
 5   0  0.1176002E-06  0.3097463E+04  0.7818609E-02  0.8216434E-01
        2   -1    0    0  501    0  0.00000000000E+00  0.00000000000E+00  0.13462632303E+04  0.13462632303E+04  0.25500000920E-02 0. -1.
       -2   -1    0    0    0  501  0.00000000000E+00  0.00000000000E+00 -0.17816496609E+04  0.17816496609E+04  0.25500000920E-02 0.  1.
    10030    2    1    2    0    0  0.00000000000E+00  0.00000000000E+00 -0.43538643065E+03  0.31279128912E+04  0.30974631089E+04 0.  0.
        2    1    3    3  502    0  0.10168223866E+04  0.57113183758E+03  0.81136826165E+03  0.14207173533E+04  0.25500000920E-02 0. -1.
       -2    1    3    3    0  502 -0.10168223866E+04 -0.57113183758E+03 -0.12467546923E+04  0.17071955379E+04  0.25500000920E-02 0.  1.
</event>
<event>
 5   0  0.1193123E-06  0.3113069E+04  0.7818609E-02  0.8212160E-01
       -2   -1    0    0    0  501  0.00000000000E+00  0.00000000000E+00  0.14339337469E+04  0.14339337469E+04  0.25500000920E-02 0. -1.
        2   -1    0    0  501    0  0.00000000000E+00  0.00000000000E+00 -0.16896176347E+04  0.16896176347E+04  0.25500000920E-02 0.  1.
    10030    2    1    2    0    0  0.00000000000E+00  0.00000000000E+00 -0.25568388780E+03  0.31235513816E+04  0.31130690617E+04 0.  0.
        3    1    3    3  502    0 -0.51052991146E+03 -0.14906858875E+03  0.13399362921E+04  0.14416280768E+04  0.10100000352E+00 0. -1.
       -3    1    3    3    0  502  0.51052991146E+03  0.14906858875E+03 -0.15956201799E+04  0.16819233048E+04  0.10100000352E+00 0.  1.
</event>
<event>
 5   0  0.4219337E-07  0.3100069E+04  0.7818609E-02  0.8215719E-01
        1   -1    0    0  501    0  0.00000000000E+00  0.00000000000E+00  0.26090130298E+04  0.26090130298E+04  0.50400001928E-02 0. -1.
       -1   -1    0    0    0  501  0.00000000000E+00  0.00000000000E+00 -0.92088719704E+03  0.92088719705E+03  0.50400001928E-02 0.  1.
    10030    2    1    2    0    0  0.00000000000E+00  0.00000000000E+00  0.16881258327E+04  0.35299002268E+04  0.31000688354E+04 0.  0.
        4    1    3    3  502    0  0.57506652239E+03 -0.14314644400E+04  0.67208068503E+03  0.16827019962E+04  0.12699999809E+01 0.  1.
       -4    1    3    3    0  502 -0.57506652239E+03  0.14314644400E+04  0.10160451477E+04  0.18471982306E+04  0.12699999809E+01 0. -1.
</event>
<event>
 5   0  0.4330395E-07  0.3094790E+04  0.7818609E-02  0.8217169E-01
       -1   -1    0    0    0  501  0.00000000000E+00  0.00000000000E+00  0.14177923829E+04  0.14177923829E+04  0.50400001928E-02 0. -1.
        1   -1    0    0  501    0  0.00000000000E+00  0.00000000000E+00 -0.16888449393E+04  0.16888449393E+04  0.50400001928E-02 0.  1.
    10030    2    1    2    0    0  0.00000000000E+00  0.00000000000E+00 -0.27105255641E+03  0.31066373223E+04  0.30947901324E+04 0.  0.
        1    1    3    3  502    0  0.10062651580E+04 -0.11743857200E+04 -0.83558382842E+02  0.15487844882E+04  0.50400001928E-02 0.  1.
       -1    1    3    3    0  502 -0.10062651580E+04  0.11743857200E+04 -0.18749417357E+03  0.15578528341E+04  0.50400001928E-02 0. -1.
</event>
<event>
 5   0  0.1193123E-06  0.3090082E+04  0.7818609E-02  0.8218465E-01
       -2   -1    0    0    0  501  0.00000000000E+00  0.00000000000E+00  0.16015316689E+04  0.16015316689E+04  0.25500000920E-02 0.  1.
        2   -1    0    0  501    0  0.00000000000E+00  0.00000000000E+00 -0.14905428251E+04  0.14905428251E+04  0.25500000920E-02 0. -1.
    10030    2    1    2    0    0  0.00000000000E+00  0.00000000000E+00  0.11098884372E+03  0.30920744940E+04  0.30900819007E+04 0.  0.
        3    1    3    3  502    0 -0.15039380987E+04 -0.14189221880E+03 -0.26904220691E+03  0.15343881275E+04  0.10100000352E+00 0. -1.
       -3    1    3    3    0  502  0.15039380987E+04  0.14189221880E+03  0.38003105062E+03  0.15576863665E+04  0.10100000352E+00 0.  1.
</event>
<event>
 5   0  0.1200286E-06  0.3107080E+04  0.7818609E-02  0.8213797E-01
       -2   -1    0    0    0  501  0.00000000000E+00  0.00000000000E+00  0.12413942351E+04  0.12413942351E+04  0.25500000920E-02 0.  1.
        2   -1    0    0  501    0  0.00000000000E+00  0.00000000000E+00 -0.19441744924E+04  0.19441744924E+04  0.25500000920E-02 0. -1.
    10030    2    1    2    0    0  0.00000000000E+00  0.00000000000E+00 -0.70278025723E+03  0.31855687275E+04  0.31070803060E+04 0.  0.
        5    1    3    3  502    0 -0.10992772944E+04  0.10708725772E+04 -0.59891431074E+03  0.16473916014E+04  0.46999998093E+01 0. -1.
       -5    1    3    3    0  502  0.10992772944E+04 -0.10708725772E+04 -0.10386594649E+03  0.15381771262E+04  0.46999998093E+01 0.  1.
</event>
<event>
 5   0  0.4173905E-07  0.3097262E+04  0.7818609E-02  0.8216490E-01
        1   -1    0    0  501    0  0.00000000000E+00  0.00000000000E+00  0.28223588524E+04  0.28223588524E+04  0.50400001928E-02 0. -1.
       -1   -1    0    0    0  501  0.00000000000E+00  0.00000000000E+00 -0.84973521012E+03  0.84973521013E+03  0.50400001928E-02 0.  1.
    10030    2    1    2    0    0  0.00000000000E+00  0.00000000000E+00  0.19726236423E+04  0.36720940626E+04  0.30972618181E+04 0.  0.
        3    1    3    3  502    0 -0.68788642535E+02  0.81879217376E+03  0.25426062857E+04  0.26720777001E+04  0.10100000352E+00 0. -1.
       -3    1    3    3    0  502  0.68788642535E+02 -0.81879217376E+03 -0.56998264341E+03  0.10000163624E+04  0.10100000352E+00 0.  1.
</event>
<event>
 5   0  0.4219337E-07  0.3072136E+04  0.7818609E-02  0.8223427E-01
        1   -1    0    0  501    0  0.00000000000E+00  0.00000000000E+00  0.13555428069E+04  0.13555428069E+04  0.50400001928E-02 0. -1.
       -1   -1    0    0    0  501  0.00000000000E+00  0.00000000000E+00 -0.17406347337E+04  0.17406347337E+04  0.50400001928E-02 0.  1.
    10030    2    1    2    0    0  0.00000000000E+00  0.00000000000E+00 -0.38509192676E+03  0.30961775406E+04  0.30721359948E+04 0.  0.
        4    1    3    3  502    0  0.14844486747E+03  0.14210798853E+04  0.37578136857E+03  0.14774021690E+04  0.12699999809E+01 0. -1.
       -4    1    3    3    0  502 -0.14844486747E+03 -0.14210798853E+04 -0.76087329534E+03  0.16187753716E+04  0.12699999809E+01 0.  1.
</event>
<event>
 5   0  0.4134019E-07  0.3092443E+04  0.7818609E-02  0.8217815E-01
        1   -1    0    0  501    0  0.00000000000E+00  0.00000000000E+00  0.15364489731E+04  0.15364489731E+04  0.50400001928E-02 0. -1.
       -1   -1    0    0    0  501  0.00000000000E+00  0.00000000000E+00 -0.15560559487E+04  0.15560559487E+04  0.50400001928E-02 0.  1.
    10030    2    1    2    0    0  0.00000000000E+00  0.00000000000E+00 -0.19606975600E+02  0.30925049219E+04  0.30924427656E+04 0.  0.
        2    1    3    3  502    0 -0.59478417834E+03  0.69894741463E+03  0.12346108749E+04  0.15383626749E+04  0.25500000920E-02 0. -1.
       -2    1    3    3    0  502  0.59478417834E+03 -0.69894741463E+03 -0.12542178505E+04  0.15541422469E+04  0.25500000920E-02 0.  1.
</event>
<event>
 5   0  0.1237580E-06  0.3189012E+04  0.7818609E-02  0.8191725E-01
        2   -1    0    0  501    0  0.00000000000E+00  0.00000000000E+00  0.16599680252E+04  0.16599680252E+04  0.25500000920E-02 0. -1.
       -2   -1    0    0    0  501  0.00000000000E+00  0.00000000000E+00 -0.15316253014E+04  0.15316253014E+04  0.25500000920E-02 0.  1.
    10030    2    1    2    0    0  0.00000000000E+00  0.00000000000E+00  0.12834272372E+03  0.31915933266E+04  0.31890117760E+04 0.  0.
        4    1    3    3  502    0  0.10518477579E+04 -0.80175844568E+03 -0.82719383413E+03  0.15599524233E+04  0.12699999809E+01 0.  1.
       -4    1    3    3    0  502 -0.10518477579E+04  0.80175844568E+03  0.95553655785E+03  0.16316409033E+04  0.12699999809E+01 0. -1.
</event>
<event>
 5   0  0.3935852E-07  0.3119301E+04  0.7818609E-02  0.8210461E-01
       -1   -1    0    0    0  501  0.00000000000E+00  0.00000000000E+00  0.19423466034E+04  0.19423466034E+04  0.50400001928E-02 0. -1.
        1   -1    0    0  501    0  0.00000000000E+00  0.00000000000E+00 -0.12523561078E+04  0.12523561078E+04  0.50400001928E-02 0.  1.
    10030    2    1    2    0    0  0.00000000000E+00  0.00000000000E+00  0.68999049563E+03  0.31947027113E+04  0.31193009681E+04 0.  0.
        5    1    3    3  502    0  0.27948143278E+03  0.54596761683E+03  0.18136377577E+04  0.19145481232E+04  0.46999998093E+01 0. -1.
       -5    1    3    3    0  502 -0.27948143278E+03 -0.54596761683E+03 -0.11236472621E+04  0.12801545881E+04  0.46999998093E+01 0.  1.
</event>
<event>
 5   0  0.1200286E-06  0.3095259E+04  0.7818609E-02  0.8217040E-01
        2   -1    0    0  501    0  0.00000000000E+00  0.00000000000E+00  0.17842932108E+04  0.17842932108E+04  0.25500000920E-02 0.  1.
       -2   -1    0    0    0  501  0.00000000000E+00  0.00000000000E+00 -0.13423566391E+04  0.13423566391E+04  0.25500000920E-02 0. -1.
    10030    2    1    2    0    0  0.00000000000E+00  0.00000000000E+00  0.44193657171E+03  0.31266498499E+04  0.30952594965E+04 0.  0.
        5    1    3    3  502    0  0.18975106678E+03  0.50855298941E+03  0.16849779842E+04  0.17702554922E+04  0.46999998093E+01 0.  1.
       -5    1    3    3    0  502 -0.18975106678E+03 -0.50855298941E+03 -0.12430414125E+04  0.13563943577E+04  0.46999998093E+01 0. -1.
</event>
<event>
 5   0  0.4134019E-07  0.3094654E+04  0.7818609E-02  0.8217207E-01
       -1   -1    0    0    0  501  0.00000000000E+00  0.00000000000E+00  0.24449820832E+04  0.24449820832E+04  0.50400001928E-02 0. -1.
        1   -1    0    0  501    0  0.00000000000E+00  0.00000000000E+00 -0.97923875741E+03  0.97923875742E+03  0.50400001928E-02 0.  1.
    10030    2    1    2    0    0  0.00000000000E+00  0.00000000000E+00  0.14657433258E+04  0.34242208406E+04  0.30946542405E+04 0.  0.
        2    1    3    3  502    0  0.76544986594E+02  0.42762826169E+03  0.23761184247E+04  0.24155048816E+04  0.25500000920E-02 0. -1.
       -2    1    3    3    0  502 -0.76544986594E+02 -0.42762826169E+03 -0.91037509890E+03  0.10087159590E+04  0.25500000920E-02 0.  1.
</event>
<event>
 5   0  0.1258262E-06  0.3084680E+04  0.7818609E-02  0.8219955E-01
       -2   -1    0    0    0  501  0.00000000000E+00  0.00000000000E+00  0.18178057027E+04  0.18178057027E+04  0.25500000920E-02 0. -1.
        2   -1    0    0  501    0  0.00000000000E+00  0.00000000000E+00 -0.13086176099E+04  0.13086176099E+04  0.25500000920E-02 0.  1.
    10030    2    1    2    0    0  0.00000000000E+00  0.00000000000E+00  0.50918809285E+03  0.31264233126E+04  0.30846799211E+04 0.  0.
        1    1    3    3  502    0  0.87758013940E+03 -0.41698802451E+03  0.14686294058E+04  0.17609367522E+04  0.50400001928E-02 0. -1.
       -1    1    3    3    0  502 -0.87758013940E+03  0.41698802451E+03 -0.95944131295E+03  0.13654865604E+04  0.50400001928E-02 0.  1.
</event>
<event>
 5   0  0.3935852E-07  0.3099503E+04  0.7818609E-02  0.8215874E-01
       -1   -1    0    0    0  501  0.00000000000E+00  0.00000000000E+00  0.70513671717E+03  0.70513671719E+03  0.50400001928E-02 0. -1.
        1   -1    0    0  501    0  0.00000000000E+00  0.00000000000E+00 -0.34060489934E+04  0.34060489934E+04  0.50400001928E-02 0.  1.
    10030    2    1    2    0    0  0.00000000000E+00  0.00000000000E+00 -0.27009122762E+04  0.41111857106E+04  0.30995033188E+04 0.  0.
        5    1    3    3  502    0  0.10340435137E+04 -0.11460138185E+04 -0.11670744558E+04  0.19351171892E+04  0.46999998093E+01 0.  1.
       -5    1    3    3    0  502 -0.10340435137E+04  0.11460138185E+04 -0.15338378204E+04  0.21760685214E+04  0.46999998093E+01 0. -1.
</event>
<event>
 5   0  0.4134019E-07  0.3105421E+04  0.7818609E-02  0.8214252E-01
       -1   -1    0    0    0  501  0.00000000000E+00  0.00000000000E+00  0.97863026997E+03  0.97863026999E+03  0.50400001928E-02 0. -1.
        1   -1    0    0  501    0  0.00000000000E+00  0.00000000000E+00 -0.24635554558E+04  0.24635554558E+04  0.50400001928E-02 0.  1.
    10030    2    1    2    0    0  0.00000000000E+00  0.00000000000E+00 -0.14849251858E+04  0.34421857258E+04  0.31054210283E+04 0.  0.
        2    1    3    3  502    0  0.73151340250E+03 -0.13609111105E+04 -0.91317390162E+03  0.17947360483E+04  0.25500000920E-02 0. -1.
       -2    1    3    3    0  502 -0.73151340250E+03  0.13609111105E+04 -0.57175128417E+03  0.16474496774E+04  0.25500000920E-02 0.  1.
</event>
<event>
 5   0  0.1176002E-06  0.3104987E+04  0.7818609E-02  0.8214371E-01
       -2   -1    0    0    0  501  0.00000000000E+00  0.00000000000E+00  0.18618555251E+04  0.18618555251E+04  0.25500000920E-02 0.  1.
        2   -1    0    0  501    0  0.00000000000E+00  0.00000000000E+00 -0.12945345907E+04  0.12945345907E+04  0.25500000920E-02 0. -1.
    10030    2    1    2    0    0  0.00000000000E+00  0.00000000000E+00  0.56732093447E+03  0.31563901158E+04  0.31049872013E+04 0.  0.
        2    1    3    3  502    0  0.96123003230E+03 -0.12144640152E+04  0.39196227261E+03  0.15976609285E+04  0.25500000920E-02 0.  1.
       -2    1    3    3    0  502 -0.96123003230E+03  0.12144640152E+04  0.17535866187E+03  0.15587291873E+04  0.25500000920E-02 0. -1.
</event>
<event>
 5   0  0.1176002E-06  0.3126588E+04  0.7818609E-02  0.8208479E-01
       -2   -1    0    0    0  501  0.00000000000E+00  0.00000000000E+00  0.14296520267E+04  0.14296520267E+04  0.25500000920E-02 0.  1.
        2   -1    0    0  501    0  0.00000000000E+00  0.00000000000E+00 -0.17094284392E+04  0.17094284392E+04  0.25500000920E-02 0. -1.
    10030    2    1    2    0    0  0.00000000000E+00  0.00000000000E+00 -0.27977641248E+03  0.31390804660E+04  0.31265878096E+04 0.  0.
        2    1    3    3  502    0  0.10109464094E+03 -0.38184504188E+03  0.13787234789E+04  0.14341911287E+04  0.25500000920E-02 0.  1.
       -2    1    3    3    0  502 -0.10109464094E+03  0.38184504188E+03 -0.16584998914E+04  0.17048893372E+04  0.25500000920E-02 0. -1.
</event>
<event>
 5   0  0.1237580E-06  0.3092298E+04  0.7818609E-02  0.8217855E-01
        2   -1    0    0  501    0  0.00000000000E+00  0.00000000000E+00  0.16464387796E+04  0.16464387797E+04  0.25500000920E-02 0.  1.
       -2   -1    0    0    0  501  0.00000000000E+00  0.00000000000E+00 -0.14519680308E+04  0.14519680308E+04  0.25500000920E-02 0. -1.
    10030    2    1    2    0    0  0.00000000000E+00  0.00000000000E+00  0.19447074884E+03  0.30984068105E+04  0.30922978335E+04 0.  0.
        4    1    3    3  502    0  0.14899534292E+04 -0.21295372928E+03  0.45186161092E+03  0.15714614346E+04  0.12699999809E+01 0.  1.
       -4    1    3    3    0  502 -0.14899534292E+04  0.21295372928E+03 -0.25739086208E+03  0.15269453759E+04  0.12699999809E+01 0. -1.
</event>
<event>
 5   0  0.1176002E-06  0.3099624E+04  0.7818609E-02  0.8215841E-01
       -2   -1    0    0    0  501  0.00000000000E+00  0.00000000000E+00  0.16468948657E+04  0.16468948657E+04  0.25500000920E-02 0. -1.
        2   -1    0    0  501    0  0.00000000000E+00  0.00000000000E+00 -0.14584520937E+04  0.14584520937E+04  0.25500000920E-02 0.  1.
    10030    2    1    2    0    0  0.00000000000E+00  0.00000000000E+00  0.18844277202E+03  0.31053469593E+04  0.30996240191E+04 0.  0.
        2    1    3    3  502    0 -0.70520294079E+03  0.13170229891E+04 -0.31891910508E+03  0.15276027419E+04  0.25500000920E-02 0.  1.
       -2    1    3    3    0  502  0.70520294079E+03 -0.13170229891E+04  0.50736187710E+03  0.15777442175E+04  0.25500000920E-02 0. -1.
</event>
<event>
 5   0  0.1176002E-06  0.3101914E+04  0.7818609E-02  0.8215213E-01
        2   -1    0    0  501    0  0.00000000000E+00  0.00000000000E+00  0.17787068974E+04  0.17787068974E+04  0.25500000920E-02 0.  1.
       -2   -1    0    0    0  501  0.00000000000E+00  0.00000000000E+00 -0.13523684425E+04  0.13523684425E+04  0.25500000920E-02 0. -1.
    10030    2    1    2    0    0  0.00000000000E+00  0.00000000000E+00  0.42633845486E+03  0.31310753399E+04  0.31019136523E+04 0.  0.
        2    1    3    3  502    0  0.26907028719E+03  0.12743035699E+03 -0.13232540390E+04  0.13563327642E+04  0.25500000920E-02 0. -1.
       -2    1    3    3    0  502 -0.26907028719E+03 -0.12743035699E+03  0.17495924939E+04  0.17747425757E+04  0.25500000920E-02 0.  1.
</event>
<event>
 5   0  0.1193123E-06  0.3091542E+04  0.7818609E-02  0.8218063E-01
        2   -1    0    0  501    0  0.00000000000E+00  0.00000000000E+00  0.16603537860E+04  0.16603537860E+04  0.25500000920E-02 0.  1.
       -2   -1    0    0    0  501  0.00000000000E+00  0.00000000000E+00 -0.14390960757E+04  0.14390960757E+04  0.25500000920E-02 0. -1.
    10030    2    1    2    0    0  0.00000000000E+00  0.00000000000E+00  0.22125771025E+03  0.30994498617E+04  0.30915424097E+04 0.  0.
        3    1    3    3  502    0  0.10150383007E+03 -0.46297992971E+02 -0.14350545107E+04  0.14393845874E+04  0.10100000352E+00 0. -1.
       -3    1    3    3    0  502 -0.10150383007E+03  0.46297992971E+02  0.16563122209E+04  0.16600652743E+04  0.10100000352E+00 0.  1.
</event>
<event>
 5   0  0.4219337E-07  0.3069669E+04  0.7818609E-02  0.8224112E-01
       -1   -1    0    0    0  501  0.00000000000E+00  0.00000000000E+00  0.11828861819E+04  0.11828861819E+04  0.50400001928E-02 0.  1.
        1   -1    0    0  501    0  0.00000000000E+00  0.00000000000E+00 -0.19914992445E+04  0.19914992445E+04  0.50400001928E-02 0. -1.
    10030    2    1    2    0    0  0.00000000000E+00  0.00000000000E+00 -0.80861306259E+03  0.31743854264E+04  0.30696689969E+04 0.  0.
        4    1    3    3  502    0  0.90918183155E+03  0.17263854090E+03  0.86192268329E+03  0.12646454023E+04  0.12699999809E+01 0.  1.
       -4    1    3    3    0  502 -0.90918183155E+03 -0.17263854090E+03 -0.16705357459E+04  0.19097400241E+04  0.12699999809E+01 0. -1.
</event>
<event>
 5   0  0.4330395E-07  0.3100494E+04  0.7818609E-02  0.8215602E-01
       -1   -1    0    0    0  501  0.00000000000E+00  0.00000000000E+00  0.12514987506E+04  0.12514987506E+04  0.50400001928E-02 0.  1.
        1   -1    0    0  501    0  0.00000000000E+00  0.00000000000E+00 -0.19203096594E+04  0.19203096594E+04  0.50400001928E-02 0. -1.
    10030    2    1    2    0    0  0.00000000000E+00  0.00000000000E+00 -0.66881090878E+03  0.31718084100E+04  0.31004935991E+04 0.  0.
        1    1    3    3  502    0 -0.48626209273E+03  0.27691732831E+03  0.11445764894E+04  0.12740444928E+04  0.50400001928E-02 0.  1.
       -1    1    3    3    0  502  0.48626209273E+03 -0.27691732831E+03 -0.18133873982E+04  0.18977639172E+04  0.50400001928E-02 0. -1.
</event>
<event>
 5   0  0.4173905E-07  0.3115573E+04  0.7818609E-02  0.8211477E-01
        1   -1    0    0  501    0  0.00000000000E+00  0.00000000000E+00  0.17777102870E+04  0.17777102871E+04  0.50400001928E-02 0. -1.
       -1   -1    0    0    0  501  0.00000000000E+00  0.00000000000E+00 -0.13650698686E+04  0.13650698686E+04  0.50400001928E-02 0.  1.
    10030    2    1    2    0    0  0.00000000000E+00  0.00000000000E+00  0.41264041848E+03  0.31427801556E+04  0.31155729797E+04 0.  0.
        3    1    3    3  502    0  0.15141989823E+04  0.32421966471E+03  0.35186736556E+02  0.15489206131E+04  0.10100000352E+00 0. -1.
       -3    1    3    3    0  502 -0.15141989823E+04 -0.32421966471E+03  0.37745368192E+03  0.15938595425E+04  0.10100000352E+00 0.  1.
</event>
<event>
 5   0  0.4134019E-07  0.3101022E+04  0.7818609E-02  0.8215458E-01
       -1   -1    0    0    0  501  0.00000000000E+00  0.00000000000E+00  0.16461231160E+04  0.16461231160E+04  0.50400001928E-02 0.  1.
        1   -1    0    0  501    0  0.00000000000E+00  0.00000000000E+00 -0.14604520151E+04  0.14604520151E+04  0.50400001928E-02 0. -1.
    10030    2    1    2    0    0  0.00000000000E+00  0.00000000000E+00  0.18567110087E+03  0.31065751311E+04  0.31010216522E+04 0.  0.
        2    1    3    3  502    0  0.63861766975E+03 -0.11638374038E+04 -0.70968195911E+03  0.15053233918E+04  0.25500000920E-02 0. -1.
       -2    1    3    3    0  502 -0.63861766975E+03  0.11638374038E+04  0.89535305997E+03  0.16012517393E+04  0.25500000920E-02 0.  1.
</event>
<event>
 5   0  0.4173905E-07  0.3115298E+04  0.7818609E-02  0.8211552E-01
        1   -1    0    0  501    0  0.00000000000E+00  0.00000000000E+00  0.93481630954E+03  0.93481630956E+03  0.50400001928E-02 0.  1.
       -1   -1    0    0    0  501  0.00000000000E+00  0.00000000000E+00 -0.25954517833E+04  0.25954517833E+04  0.50400001928E-02 0. -1.
    10030    2    1    2    0    0  0.00000000000E+00  0.00000000000E+00 -0.16606354737E+04  0.35302680929E+04  0.31152981608E+04 0.  0.
        3    1    3    3  502    0 -0.13662124055E+04  0.56737130053E+03 -0.27768575346E+03  0.15051763742E+04  0.10100000352E+00 0.  1.
       -3    1    3    3    0  502  0.13662124055E+04 -0.56737130053E+03 -0.13829497203E+04  0.20250917186E+04  0.10100000352E+00 0. -1.
</event>
<event>
 5   0  0.1237580E-06  0.3095119E+04  0.7818609E-02  0.8217079E-01
       -2   -1    0    0    0  501  0.00000000000E+00  0.00000000000E+00  0.20057918964E+04  0.20057918964E+04  0.25500000920E-02 0.  1.
        2   -1    0    0  501    0  0.00000000000E+00  0.00000000000E+00 -0.11940126964E+04  0.11940126964E+04  0.25500000920E-02 0. -1.
    10030    2    1    2    0    0  0.00000000000E+00  0.00000000000E+00  0.81177920007E+03  0.31998045928E+04  0.30951193778E+04 0.  0.
        4    1    3    3  502    0  0.51377275656E+03 -0.81747683822E+03  0.16562204687E+04  0.19171068516E+04  0.12699999809E+01 0.  1.
       -4    1    3    3    0  502 -0.51377275656E+03  0.81747683822E+03 -0.84444126864E+03  0.12826977413E+04  0.12699999809E+01 0. -1.
</event>
<event>
 5   0  0.1237580E-06  0.3059163E+04  0.7818609E-02  0.8227036E-01
       -2   -1    0    0    0  501  0.00000000000E+00  0.00000000000E+00  0.11099287896E+04  0.11099287896E+04  0.25500000920E-02 0. -1.
        2   -1    0    0  501    0  0.00000000000E+00  0.00000000000E+00 -0.21079001021E+04  0.21079001021E+04  0.25500000920E-02 0.  1.
    10030    2    1    2    0    0  0.00000000000E+00  0.00000000000E+00 -0.99797131245E+03  0.32178288917E+04  0.30591626363E+04 0.  0.
        4    1    3    3  502    0  0.64048630185E+03  0.13874188840E+04 -0.42871082982E+03  0.15871195453E+04  0.12699999809E+01 0. -1.
       -4    1    3    3    0  502 -0.64048630185E+03 -0.13874188840E+04 -0.56926048263E+03  0.16307093464E+04  0.12699999809E+01 0.  1.
</event>
<event>
 5   0  0.1176002E-06  0.3101981E+04  0.7818609E-02  0.8215194E-01
       -2   -1    0    0    0  501  0.00000000000E+00  0.00000000000E+00  0.16499401015E+04  0.16499401015E+04  0.25500000920E-02 0.  1.
        2   -1    0    0  501    0  0.00000000000E+00  0.00000000000E+00 -0.14579749621E+04  0.14579749621E+04  0.25500000920E-02 0. -1.
    10030    2    1    2    0    0  0.00000000000E+00  0.00000000000E+00  0.19196513939E+03  0.31079150635E+04  0.31019808877E+04 0.  0.
        2    1    3    3  502    0  0.82201390548E+03  0.90796077674E+03  0.10493657156E+04  0.16128447036E+04  0.25500000920E-02 0.  1.
       -2    1    3    3    0  502 -0.82201390548E+03 -0.90796077674E+03 -0.85740057624E+03  0.14950703599E+04  0.25500000920E-02 0. -1.
</event>
<event>
 5   0  0.3902375E-07  0.3101336E+04  0.7818609E-02  0.8215371E-01
       -3   -1    0    0    0  501  0.00000000000E+00  0.00000000000E+00  0.12323177901E+04  0.12323177942E+04  0.10100000352E+00 0. -1.
        3   -1    0    0  501    0  0.00000000000E+00  0.00000000000E+00 -0.19512590548E+04  0.19512590574E+04  0.10100000352E+00 0.  1.
    10030    2    1    2    0    0  0.00000000000E+00  0.00000000000E+00 -0.71894126469E+03  0.31835768516E+04  0.31013360070E+04 0.  0.
        1    1    3    3  502    0  0.44375421869E+02  0.88420347521E+03  0.94739035781E+03  0.12966624286E+04  0.50400001928E-02 0. -1.
       -1    1    3    3    0  502 -0.44375421869E+02 -0.88420347521E+03 -0.16663316225E+04  0.18869144230E+04  0.50400001928E-02 0.  1.
</event>
<event>
 5   0  0.4219337E-07  0.3043616E+04  0.7818609E-02  0.8231385E-01
       -1   -1    0    0    0  501  0.00000000000E+00  0.00000000000E+00  0.20961756060E+04  0.20961756060E+04  0.50400001928E-02 0. -1.
        1   -1    0    0  501    0  0.00000000000E+00  0.00000000000E+00 -0.11048215921E+04  0.11048215921E+04  0.50400001928E-02 0.  1.
    10030    2    1    2    0    0  0.00000000000E+00  0.00000000000E+00  0.99135401391E+03  0.32009971982E+04  0.30436163165E+04 0.  0.
        4    1    3    3  502    0  0.41179066900E+03 -0.15391453561E+03 -0.10365858630E+04  0.11259543079E+04  0.12699999809E+01 0.  1.
       -4    1    3    3    0  502 -0.41179066900E+03  0.15391453561E+03  0.20279398769E+04  0.20750428903E+04  0.12699999809E+01 0. -1.
</event>
<event>
 5   0  0.4173905E-07  0.3127516E+04  0.7818609E-02  0.8208227E-01
       -1   -1    0    0    0  501  0.00000000000E+00  0.00000000000E+00  0.20368881880E+04  0.20368881880E+04  0.50400001928E-02 0. -1.
        1   -1    0    0  501    0  0.00000000000E+00  0.00000000000E+00 -0.12005268678E+04  0.12005268678E+04  0.50400001928E-02 0.  1.
    10030    2    1    2    0    0  0.00000000000E+00  0.00000000000E+00  0.83636132016E+03  0.32374150558E+04  0.31275159449E+04 0.  0.
        3    1    3    3  502    0  0.51992671545E+03 -0.12943386870E+04 -0.31355570188E+03  0.14296690577E+04  0.10100000352E+00 0. -1.
       -3    1    3    3    0  502 -0.51992671545E+03  0.12943386870E+04  0.11499170220E+04  0.18077459982E+04  0.10100000352E+00 0.  1.
</event>
<event>
 5   0  0.4219337E-07  0.3099474E+04  0.7818609E-02  0.8215882E-01
        1   -1    0    0  501    0  0.00000000000E+00  0.00000000000E+00  0.17900937050E+04  0.17900937050E+04  0.50400001928E-02 0. -1.
       -1   -1    0    0    0  501  0.00000000000E+00  0.00000000000E+00 -0.13416529317E+04  0.13416529317E+04  0.50400001928E-02 0.  1.
    10030    2    1    2    0    0  0.00000000000E+00  0.00000000000E+00  0.44844077334E+03  0.31317466367E+04  0.30994738052E+04 0.  0.
        4    1    3    3  502    0  0.87252817391E+03 -0.85626622182E+03  0.11866006830E+04  0.17036783883E+04  0.12699999809E+01 0. -1.
       -4    1    3    3    0  502 -0.87252817391E+03  0.85626622182E+03 -0.73815990970E+03  0.14280682484E+04  0.12699999809E+01 0.  1.
</event>
<event>
 5   0  0.4219337E-07  0.3095519E+04  0.7818609E-02  0.8216969E-01
       -1   -1    0    0    0  501  0.00000000000E+00  0.00000000000E+00  0.12726424106E+04  0.12726424106E+04  0.50400001928E-02 0. -1.
        1   -1    0    0  501    0  0.00000000000E+00  0.00000000000E+00 -0.18823505082E+04  0.18823505083E+04  0.50400001928E-02 0.  1.
    10030    2    1    2    0    0  0.00000000000E+00  0.00000000000E+00 -0.60970809768E+03  0.31549929188E+04  0.30955187535E+04 0.  0.
        4    1    3    3  502    0 -0.11407745783E+04 -0.79364310942E+03 -0.99935736490E+03  0.17117104835E+04  0.12699999809E+01 0.  1.
       -4    1    3    3    0  502  0.11407745783E+04  0.79364310942E+03  0.38964926723E+03  0.14432824353E+04  0.12699999809E+01 0. -1.
</event>
<event>
 5   0  0.1258262E-06  0.3097074E+04  0.7818609E-02  0.8216541E-01
       -2   -1    0    0    0  501  0.00000000000E+00  0.00000000000E+00  0.12377996738E+04  0.12377996738E+04  0.25500000920E-02 0. -1.
        2   -1    0    0  501    0  0.00000000000E+00  0.00000000000E+00 -0.19372819906E+04  0.19372819906E+04  0.25500000920E-02 0.  1.
    10030    2    1    2    0    0  0.00000000000E+00  0.00000000000E+00 -0.69948231684E+03  0.31750816644E+04  0.30970741134E+04 0.  0.
        1    1    3    3  502    0  0.38204820186E+03 -0.14965641094E+04 -0.46344944421E+03  0.16125911911E+04  0.50400001928E-02 0.  1.
       -1    1    3    3    0  502 -0.38204820186E+03  0.14965641094E+04 -0.23603287263E+03  0.15624904733E+04  0.50400001928E-02 0. -1.
</event>
<event>
 5   0  0.1176002E-06  0.3095137E+04  0.7818609E-02  0.8217074E-01
        2   -1    0    0  501    0  0.00000000000E+00  0.00000000000E+00  0.18084844672E+04  0.18084844672E+04  0.25500000920E-02 0. -1.
       -2   -1    0    0    0  501  0.00000000000E+00  0.00000000000E+00 -0.13242958326E+04  0.13242958326E+04  0.25500000920E-02 0.  1.
    10030    2    1    2    0    0  0.00000000000E+00  0.00000000000E+00  0.48418863456E+03  0.31327802998E+04  0.30951371170E+04 0.  0.
        2    1    3    3  502    0 -0.60616888407E+03  0.14148316712E+04  0.40460565441E+03  0.15915071817E+04  0.25500000920E-02 0. -1.
       -2    1    3    3    0  502  0.60616888407E+03 -0.14148316712E+04  0.79582980157E+02  0.15412731181E+04  0.25500000920E-02 0.  1.
</event>
<event>
 5   0  0.1193123E-06  0.3085769E+04  0.7818609E-02  0.8219654E-01
        2   -1    0    0  501    0  0.00000000000E+00  0.00000000000E+00  0.17466081501E+04  0.17466081501E+04  0.25500000920E-02 0.  1.
       -2   -1    0    0    0  501  0.00000000000E+00  0.00000000000E+00 -0.13629233344E+04  0.13629233344E+04  0.25500000920E-02 0. -1.
    10030    2    1    2    0    0  0.00000000000E+00  0.00000000000E+00  0.38368481570E+03  0.31095314845E+04  0.30857692745E+04 0.  0.
        3    1    3    3  502    0  0.37290658341E+01 -0.10142885078E+03 -0.13595555153E+04  0.13633388893E+04  0.10100000352E+00 0. -1.
       -3    1    3    3    0  502 -0.37290658341E+01  0.10142885078E+03  0.17432403310E+04  0.17461925952E+04  0.10100000352E+00 0.  1.
</event>
<event>
 5   0  0.1200286E-06  0.3102861E+04  0.7818609E-02  0.8214953E-01
        2   -1    0    0  501    0  0.00000000000E+00  0.00000000000E+00  0.23026475455E+04  0.23026475455E+04  0.25500000920E-02 0. -1.
       -2   -1    0    0    0  501  0.00000000000E+00  0.00000000000E+00 -0.10452908375E+04  0.10452908375E+04  0.25500000920E-02 0.  1.
    10030    2    1    2    0    0  0.00000000000E+00  0.00000000000E+00  0.12573567080E+04  0.33479383829E+04  0.31028608613E+04 0.  0.
        5    1    3    3  502    0  0.68644645592E+03  0.13537974810E+04  0.97485907671E+03  0.18039813375E+04  0.46999998093E+01 0. -1.
       -5    1    3    3    0  502 -0.68644645592E+03 -0.13537974810E+04  0.28249763130E+03  0.15439570455E+04  0.46999998093E+01 0.  1.
</event>
<event>
 5   0  0.3935852E-07  0.3076062E+04  0.7818609E-02  0.8222338E-01
       -1   -1    0    0    0  501  0.00000000000E+00  0.00000000000E+00  0.92216145764E+03  0.92216145766E+03  0.50400001928E-02 0.  1.
        1   -1    0    0  501    0  0.00000000000E+00  0.00000000000E+00 -0.25652114336E+04  0.25652114336E+04  0.50400001928E-02 0. -1.
    10030    2    1    2    0    0  0.00000000000E+00  0.00000000000E+00 -0.16430499759E+04  0.34873728912E+04  0.30760618425E+04 0.  0.
        5    1    3    3  502    0  0.52624308408E+03 -0.13141855277E+04 -0.13987966250E+03  0.14225342859E+04  0.46999998093E+01 0.  1.
       -5    1    3    3    0  502 -0.52624308408E+03  0.13141855277E+04 -0.15031703134E+04  0.20648386053E+04  0.46999998093E+01 0. -1.
</event>
<event>
 5   0  0.4134019E-07  0.3100372E+04  0.7818609E-02  0.8215636E-01
        1   -1    0    0  501    0  0.00000000000E+00  0.00000000000E+00  0.18248191311E+04  0.18248191311E+04  0.50400001928E-02 0.  1.
       -1   -1    0    0    0  501  0.00000000000E+00  0.00000000000E+00 -0.13168844978E+04  0.13168844978E+04  0.50400001928E-02 0. -1.
    10030    2    1    2    0    0  0.00000000000E+00  0.00000000000E+00  0.50793463333E+03  0.31417036289E+04  0.31003716068E+04 0.  0.
        2    1    3    3  502    0  0.94714755575E+02 -0.15373993966E+04  0.76972720236E+02  0.15422362300E+04  0.25500000920E-02 0.  1.
       -2    1    3    3    0  502 -0.94714755575E+02  0.15373993966E+04  0.43096191310E+03  0.15994673989E+04  0.25500000920E-02 0. -1.
</event>
<event>
 5   0  0.3935852E-07  0.3096174E+04  0.7818609E-02  0.8216789E-01
        1   -1    0    0  501    0  0.00000000000E+00  0.00000000000E+00  0.17879768608E+04  0.17879768608E+04  0.50400001928E-02 0. -1.
       -1   -1    0    0    0  501  0.00000000000E+00  0.00000000000E+00 -0.13403828843E+04  0.13403828843E+04  0.50400001928E-02 0.  1.
    10030    2    1    2    0    0  0.00000000000E+00  0.00000000000E+00  0.44759397649E+03  0.31283597450E+04  0.30961741435E+04 0.  0.
        5    1    3    3  502    0  0.62742588237E+03  0.10133690648E+04  0.12219792623E+04  0.17069960477E+04  0.46999998093E+01 0. -1.
       -5    1    3    3    0  502 -0.62742588237E+03 -0.10133690648E+04 -0.77438528577E+03  0.14213636974E+04  0.46999998093E+01 0.  1.
</event>
<event>
 5   0  0.1176002E-06  0.3100909E+04  0.7818609E-02  0.8215488E-01
       -2   -1    0    0    0  501  0.00000000000E+00  0.00000000000E+00  0.14099482141E+04  0.14099482141E+04  0.25500000920E-02 0. -1.
        2   -1    0    0  501    0  0.00000000000E+00  0.00000000000E+00 -0.17049628216E+04  0.17049628216E+04  0.25500000920E-02 0.  1.
    10030    2    1    2    0    0  0.00000000000E+00  0.00000000000E+00 -0.29501460754E+03  0.31149110357E+04  0.31009090831E+04 0.  0.
        2    1    3    3  502    0 -0.12383340550E+04  0.85623102486E+03  0.22471478354E+03  0.15222021987E+04  0.25500000920E-02 0. -1.
       -2    1    3    3    0  502  0.12383340550E+04 -0.85623102486E+03 -0.51972939108E+03  0.15927088371E+04  0.25500000920E-02 0.  1.
</event>
<event>
 5   0  0.1258262E-06  0.3102604E+04  0.7818609E-02  0.8215024E-01
       -2   -1    0    0    0  501  0.00000000000E+00  0.00000000000E+00  0.15145003744E+04  0.15145003744E+04  0.25500000920E-02 0. -1.
        2   -1    0    0  501    0  0.00000000000E+00  0.00000000000E+00 -0.15889979358E+04  0.15889979358E+04  0.25500000920E-02 0.  1.
    10030    2    1    2    0    0  0.00000000000E+00  0.00000000000E+00 -0.74497561434E+02  0.31034983102E+04  0.31026040474E+04 0.  0.
        1    1    3    3  502    0 -0.54093120452E+03 -0.14085139918E+04  0.32343764450E+03  0.15430911001E+04  0.50400001928E-02 0.  1.
       -1    1    3    3    0  502  0.54093120452E+03  0.14085139918E+04 -0.39793520593E+03  0.15604072101E+04  0.50400001928E-02 0. -1.
</event>
<event>
 5   0  0.1258262E-06  0.3107887E+04  0.7818609E-02  0.8213577E-01
        2   -1    0    0  501    0  0.00000000000E+00  0.00000000000E+00  0.20377002729E+04  0.20377002729E+04  0.25500000920E-02 0.  1.
       -2   -1    0    0    0  501  0.00000000000E+00  0.00000000000E+00 -0.11850323226E+04  0.11850323226E+04  0.25500000920E-02 0. -1.
    10030    2    1    2    0    0  0.00000000000E+00  0.00000000000E+00  0.85266795036E+03  0.32227325955E+04  0.31078871840E+04 0.  0.
        1    1    3    3  502    0  0.64000753297E+03 -0.66965631513E+03 -0.86744562226E+03  0.12690591516E+04  0.50400001928E-02 0. -1.
       -1    1    3    3    0  502 -0.64000753297E+03  0.66965631513E+03  0.17201135726E+04  0.19536734439E+04  0.50400001928E-02 0.  1.
</event>
<event>
 5   0  0.1193123E-06  0.3103646E+04  0.7818609E-02  0.8214738E-01
       -2   -1    0    0    0  501  0.00000000000E+00  0.00000000000E+00  0.22079252774E+04  0.22079252774E+04  0.25500000920E-02 0.  1.
        2   -1    0    0  501    0  0.00000000000E+00  0.00000000000E+00 -0.10906866126E+04  0.10906866126E+04  0.25500000920E-02 0. -1.
    10030    2    1    2    0    0  0.00000000000E+00  0.00000000000E+00  0.11172386648E+04  0.32986118899E+04  0.31036459473E+04 0.  0.
        3    1    3    3  502    0  0.14585539030E+04 -0.24472250821E+03  0.59110604238E+02  0.14801225178E+04  0.10100000352E+00 0. -1.
       -3    1    3    3    0  502 -0.14585539030E+04  0.24472250821E+03  0.10581280606E+04  0.18184893722E+04  0.10100000352E+00 0.  1.
</event>
<event>
 5   0  0.4219337E-07  0.3115564E+04  0.7818609E-02  0.8211480E-01
       -1   -1    0    0    0  501  0.00000000000E+00  0.00000000000E+00  0.90233445735E+03  0.90233445736E+03  0.50400001928E-02 0. -1.
        1   -1    0    0  501    0  0.00000000000E+00  0.00000000000E+00 -0.26893402189E+04  0.26893402189E+04  0.50400001928E-02 0.  1.
    10030    2    1    2    0    0  0.00000000000E+00  0.00000000000E+00 -0.17870057616E+04  0.35916746763E+04  0.31155637352E+04 0.  0.
        4    1    3    3  502    0  0.15236211101E+04  0.13696447022E+03 -0.55444497019E+03  0.16271420931E+04  0.12699999809E+01 0.  1.
       -4    1    3    3    0  502 -0.15236211101E+04 -0.13696447022E+03 -0.12325607914E+04  0.19645325832E+04  0.12699999809E+01 0. -1.
</event>
<event>
 5   0  0.1193123E-06  0.3096079E+04  0.7818609E-02  0.8216815E-01
        2   -1    0    0  501    0  0.00000000000E+00  0.00000000000E+00  0.23572155799E+04  0.23572155799E+04  0.25500000920E-02 0. -1.
       -2   -1    0    0    0  501  0.00000000000E+00  0.00000000000E+00 -0.10166343527E+04  0.10166343527E+04  0.25500000920E-02 0.  1.
    10030    2    1    2    0    0  0.00000000000E+00  0.00000000000E+00  0.13405812273E+04  0.33738499326E+04  0.30960790269E+04 0.  0.
        3    1    3    3  502    0  0.62139892051E+03 -0.12908665758E+04  0.13093826339E+04  0.19408647626E+04  0.10100000352E+00 0. -1.
       -3    1    3    3    0  502 -0.62139892051E+03  0.12908665758E+04  0.31198593428E+02  0.14329851699E+04  0.10100000352E+00 0.  1.
</event>
<event>
 5   0  0.4134019E-07  0.3099911E+04  0.7818609E-02  0.8215762E-01
        1   -1    0    0  501    0  0.00000000000E+00  0.00000000000E+00  0.10111660641E+04  0.10111660641E+04  0.50400001928E-02 0.  1.
       -1   -1    0    0    0  501  0.00000000000E+00  0.00000000000E+00 -0.23758337144E+04  0.23758337144E+04  0.50400001928E-02 0. -1.
    10030    2    1    2    0    0  0.00000000000E+00  0.00000000000E+00 -0.13646676503E+04  0.33869997785E+04  0.30999112413E+04 0.  0.
        2    1    3    3  502    0 -0.82595484870E+03 -0.13079914611E+04 -0.57685658588E+03  0.16510016945E+04  0.25500000920E-02 0.  1.
       -2    1    3    3    0  502  0.82595484870E+03  0.13079914611E+04 -0.78781106441E+03  0.17359980840E+04  0.25500000920E-02 0. -1.
</event>
<event>
 5   0  0.3902375E-07  0.3100136E+04  0.7818609E-02  0.8215701E-01
        4   -1    0    0  501    0  0.00000000000E+00  0.00000000000E+00  0.13493103370E+04  0.13493109347E+04  0.12699999809E+01 0. -1.
       -4   -1    0    0    0  501  0.00000000000E+00  0.00000000000E+00 -0.17806937203E+04  0.17806941731E+04  0.12699999809E+01 0.  1.
    10030    2    1    2    0    0  0.00000000000E+00  0.00000000000E+00 -0.43138338328E+03  0.31300051078E+04  0.31001355376E+04 0.  0.
        5    1    3    3  502    0 -0.10439814475E+04 -0.33697689799E+03 -0.13213398062E+04  0.17173851245E+04  0.46999998093E+01 0.  1.
       -5    1    3    3    0  502  0.10439814475E+04  0.33697689799E+03  0.88995642288E+03  0.14126199833E+04  0.46999998093E+01 0. -1.
</event>
<event>
 5   0  0.1193123E-06  0.3034308E+04  0.7818609E-02  0.8234001E-01
       -2   -1    0    0    0  501  0.00000000000E+00  0.00000000000E+00  0.17353306464E+04  0.17353306464E+04  0.25500000920E-02 0. -1.
        2   -1    0    0  501    0  0.00000000000E+00  0.00000000000E+00 -0.13264079951E+04  0.13264079951E+04  0.25500000920E-02 0.  1.
    10030    2    1    2    0    0  0.00000000000E+00  0.00000000000E+00  0.40892265127E+03  0.30617386416E+04  0.30343081212E+04 0.  0.
        3    1    3    3  502    0  0.12668167383E+04  0.79912879037E+03  0.44815017998E+03  0.15634161525E+04  0.10100000352E+00 0.  1.
       -3    1    3    3    0  502 -0.12668167383E+04 -0.79912879037E+03 -0.39227528709E+02  0.14983224890E+04  0.10100000352E+00 0. -1.
</event>
<event>
 5   0  0.4134019E-07  0.3100566E+04  0.7818609E-02  0.8215583E-01
        1   -1    0    0  501    0  0.00000000000E+00  0.00000000000E+00  0.15999581608E+04  0.15999581608E+04  0.50400001928E-02 0. -1.
       -1   -1    0    0    0  501  0.00000000000E+00  0.00000000000E+00 -0.15021499954E+04  0.15021499954E+04  0.50400001928E-02 0.  1.
    10030    2    1    2    0    0  0.00000000000E+00  0.00000000000E+00  0.97808165408E+02  0.31021081562E+04  0.31005658476E+04 0.  0.
        2    1    3    3  502    0 -0.88887965112E+03 -0.76856701039E+03  0.10606315303E+04  0.15829534190E+04  0.25500000920E-02 0. -1.
       -2    1    3    3    0  502  0.88887965112E+03  0.76856701039E+03 -0.96282336485E+03  0.15191547372E+04  0.25500000920E-02 0.  1.
</event>
<event>
 5   0  0.4134019E-07  0.3114061E+04  0.7818609E-02  0.8211890E-01
        1   -1    0    0  501    0  0.00000000000E+00  0.00000000000E+00  0.15014137155E+04  0.15014137155E+04  0.50400001928E-02 0. -1.
       -1   -1    0    0    0  501  0.00000000000E+00  0.00000000000E+00 -0.16147070555E+04  0.16147070555E+04  0.50400001928E-02 0.  1.
    10030    2    1    2    0    0  0.00000000000E+00  0.00000000000E+00 -0.11329333999E+03  0.31161207710E+04  0.31140605772E+04 0.  0.
        2    1    3    3  502    0  0.15503649511E+04 -0.14088289087E+03 -0.86057427088E+02  0.15591296775E+04  0.25500000920E-02 0.  1.
       -2    1    3    3    0  502 -0.15503649511E+04  0.14088289087E+03 -0.27235912905E+02  0.15569910935E+04  0.25500000920E-02 0. -1.
</event>
<event>
 5   0  0.3935852E-07  0.3105626E+04  0.7818609E-02  0.8214196E-01
        1   -1    0    0  501    0  0.00000000000E+00  0.00000000000E+00  0.24848204702E+04  0.24848204702E+04  0.50400001928E-02 0.  1.
       -1   -1    0    0    0  501  0.00000000000E+00  0.00000000000E+00 -0.97038303031E+03  0.97038303032E+03  0.50400001928E-02 0. -1.
    10030    2    1    2    0    0  0.00000000000E+00  0.00000000000E+00  0.15144374399E+04  0.34552035006E+04  0.31056256167E+04 0.  0.
        5    1    3    3  502    0 -0.15001415372E+04  0.33816644624E+03  0.99693495584E+03  0.18326708851E+04  0.46999998093E+01 0.  1.
       -5    1    3    3    0  502  0.15001415372E+04 -0.33816644624E+03  0.51750248409E+03  0.16225326154E+04  0.46999998093E+01 0. -1.
</event>
<event>
 5   0  0.1176002E-06  0.3148166E+04  0.7818609E-02  0.8202642E-01
       -2   -1    0    0    0  501  0.00000000000E+00  0.00000000000E+00  0.25914420884E+04  0.25914420884E+04  0.25500000920E-02 0.  1.
        2   -1    0    0  501    0  0.00000000000E+00  0.00000000000E+00 -0.95612286152E+03  0.95612286153E+03  0.25500000920E-02 0. -1.
    10030    2    1    2    0    0  0.00000000000E+00  0.00000000000E+00  0.16353192269E+04  0.35475649499E+04  0.31481658311E+04 0.  0.
        2    1    3    3  502    0 -0.84403758606E+03 -0.12098974902E+04  0.19892263635E+03  0.14885636025E+04  0.25500000920E-02 0. -1.
       -2    1    3    3    0  502  0.84403758606E+03  0.12098974902E+04  0.14363965905E+04  0.20590013474E+04  0.25500000920E-02 0.  1.
</event>
<event>
 5   0  0.1176002E-06  0.3137735E+04  0.7818609E-02  0.8205457E-01
        2   -1    0    0  501    0  0.00000000000E+00  0.00000000000E+00  0.28679572735E+04  0.28679572735E+04  0.25500000920E-02 0. -1.
       -2   -1    0    0    0  501  0.00000000000E+00  0.00000000000E+00 -0.85822250601E+03  0.85822250602E+03  0.25500000920E-02 0.  1.
    10030    2    1    2    0    0  0.00000000000E+00  0.00000000000E+00  0.20097347675E+04  0.37261797795E+04  0.31377351567E+04 0.  0.
        2    1    3    3  502    0  0.41936543291E+03 -0.11904475477E+03  0.27945886099E+04  0.28283854969E+04  0.25500000920E-02 0. -1.
       -2    1    3    3    0  502 -0.41936543291E+03  0.11904475477E+03 -0.78485384246E+03  0.89779428266E+03  0.25500000920E-02 0.  1.
</event>
<event>
 5   0  0.4173905E-07  0.3106097E+04  0.7818609E-02  0.8214067E-01
       -1   -1    0    0    0  501  0.00000000000E+00  0.00000000000E+00  0.17708554461E+04  0.17708554461E+04  0.50400001928E-02 0.  1.
        1   -1    0    0  501    0  0.00000000000E+00  0.00000000000E+00 -0.13620305347E+04  0.13620305347E+04  0.50400001928E-02 0. -1.
    10030    2    1    2    0    0  0.00000000000E+00  0.00000000000E+00  0.40882491145E+03  0.31328859808E+04  0.31060967082E+04 0.  0.
        3    1    3    3  502    0  0.12142733440E+04  0.74996075285E+03  0.82211445025E+03  0.16470498062E+04  0.10100000352E+00 0.  1.
       -3    1    3    3    0  502 -0.12142733440E+04 -0.74996075285E+03 -0.41328953879E+03  0.14858361746E+04  0.10100000352E+00 0. -1.
</event>
<event>
 5   0  0.1237580E-06  0.3098214E+04  0.7818609E-02  0.8216228E-01
       -2   -1    0    0    0  501  0.00000000000E+00  0.00000000000E+00  0.11305308710E+04  0.11305308710E+04  0.25500000920E-02 0. -1.
        2   -1    0    0  501    0  0.00000000000E+00  0.00000000000E+00 -0.21226597284E+04  0.21226597284E+04  0.25500000920E-02 0.  1.
    10030    2    1    2    0    0  0.00000000000E+00  0.00000000000E+00 -0.99212885739E+03  0.32531905994E+04  0.30982139059E+04 0.  0.
        4    1    3    3  502    0 -0.12325580479E+04  0.88907128653E+03 -0.18091169062E+03  0.15304828475E+04  0.12699999809E+01 0. -1.
       -4    1    3    3    0  502  0.12325580479E+04 -0.88907128653E+03 -0.81121716677E+03  0.17227077519E+04  0.12699999809E+01 0.  1.
</event>
<event>
 5   0  0.4330395E-07  0.3044218E+04  0.7818609E-02  0.8231216E-01
        1   -1    0    0  501    0  0.00000000000E+00  0.00000000000E+00  0.15193837000E+04  0.15193837000E+04  0.50400001928E-02 0. -1.
       -1   -1    0    0    0  501  0.00000000000E+00  0.00000000000E+00 -0.15248388230E+04  0.15248388231E+04  0.50400001928E-02 0.  1.
    10030    2    1    2    0    0  0.00000000000E+00  0.00000000000E+00 -0.54551230306E+01  0.30442225231E+04  0.30442176354E+04 0.  0.
        1    1    3    3  502    0  0.60782740262E+03  0.12516244273E+04  0.61436126302E+03  0.15210054634E+04  0.50400001928E-02 0. -1.
       -1    1    3    3    0  502 -0.60782740262E+03 -0.12516244273E+04 -0.61981638605E+03  0.15232170596E+04  0.50400001928E-02 0.  1.
</event>
<event>
 5   0  0.1176002E-06  0.3112121E+04  0.7818609E-02  0.8212419E-01
        2   -1    0    0  501    0  0.00000000000E+00  0.00000000000E+00  0.20329349858E+04  0.20329349858E+04  0.25500000920E-02 0.  1.
       -2   -1    0    0    0  501  0.00000000000E+00  0.00000000000E+00 -0.11910484813E+04  0.11910484813E+04  0.25500000920E-02 0. -1.
    10030    2    1    2    0    0  0.00000000000E+00  0.00000000000E+00  0.84188650454E+03  0.32239834671E+04  0.31121209022E+04 0.  0.
        2    1    3    3  502    0 -0.10504182232E+04  0.53887215633E+03  0.14710669649E+04  0.18862130473E+04  0.25500000920E-02 0.  1.
       -2    1    3    3    0  502  0.10504182232E+04 -0.53887215633E+03 -0.62918046037E+03  0.13377704198E+04  0.25500000920E-02 0. -1.
</event>
<event>
 5   0  0.3935852E-07  0.3101883E+04  0.7818609E-02  0.8215221E-01
       -1   -1    0    0    0  501  0.00000000000E+00  0.00000000000E+00  0.16318726657E+04  0.16318726657E+04  0.50400001928E-02 0. -1.
        1   -1    0    0  501    0  0.00000000000E+00  0.00000000000E+00 -0.14740240815E+04  0.14740240815E+04  0.50400001928E-02 0.  1.
    10030    2    1    2    0    0  0.00000000000E+00  0.00000000000E+00  0.15784858418E+03  0.31058967472E+04  0.31018830457E+04 0.  0.
        5    1    3    3  502    0  0.72561257504E+03 -0.18903632080E+03 -0.12804587199E+04  0.14838615039E+04  0.46999998093E+01 0.  1.
       -5    1    3    3    0  502 -0.72561257504E+03  0.18903632080E+03  0.14383073040E+04  0.16220352433E+04  0.46999998093E+01 0. -1.
</event>
<event>
 5   0  0.1258262E-06  0.3143086E+04  0.7818609E-02  0.8204012E-01
        2   -1    0    0  501    0  0.00000000000E+00  0.00000000000E+00  0.21602735831E+04  0.21602735831E+04  0.25500000920E-02 0.  1.
       -2   -1    0    0    0  501  0.00000000000E+00  0.00000000000E+00 -0.11432564153E+04  0.11432564153E+04  0.25500000920E-02 0. -1.
    10030    2    1    2    0    0  0.00000000000E+00  0.00000000000E+00  0.10170171678E+04  0.33035299984E+04  0.31430855112E+04 0.  0.
        1    1    3    3  502    0  0.10383792213E+04 -0.34845574518E+03  0.16930219331E+04  0.20164265619E+04  0.50400001928E-02 0.  1.
       -1    1    3    3    0  502 -0.10383792213E+04  0.34845574518E+03 -0.67600476532E+03  0.12871034365E+04  0.50400001928E-02 0. -1.
</event>
<event>
 5   0  0.4134019E-07  0.3264400E+04  0.7818609E-02  0.8172013E-01
        1   -1    0    0  501    0  0.00000000000E+00  0.00000000000E+00  0.15705829146E+04  0.15705829146E+04  0.50400001928E-02 0. -1.
       -1   -1    0    0    0  501  0.00000000000E+00  0.00000000000E+00 -0.16962341435E+04  0.16962341435E+04  0.50400001928E-02 0.  1.
    10030    2    1    2    0    0  0.00000000000E+00  0.00000000000E+00 -0.12565122893E+03  0.32668170581E+04  0.32643997090E+04 0.  0.
        2    1    3    3  502    0  0.75248578316E+03  0.13715283457E+04 -0.52873616824E+03  0.16513287960E+04  0.25500000920E-02 0.  1.
       -2    1    3    3    0  502 -0.75248578316E+03 -0.13715283457E+04  0.40308493931E+03  0.16154882621E+04  0.25500000920E-02 0. -1.
</event>
<event>
 5   0  0.4330395E-07  0.3099412E+04  0.7818609E-02  0.8215899E-01
       -1   -1    0    0    0  501  0.00000000000E+00  0.00000000000E+00  0.21009887897E+04  0.21009887897E+04  0.50400001928E-02 0.  1.
        1   -1    0    0  501    0  0.00000000000E+00  0.00000000000E+00 -0.11430751273E+04  0.11430751273E+04  0.50400001928E-02 0. -1.
    10030    2    1    2    0    0  0.00000000000E+00  0.00000000000E+00  0.95791366243E+03  0.32440639171E+04  0.30994115753E+04 0.  0.
        1    1    3    3  502    0  0.86515836271E+03 -0.59997259413E+03 -0.71127041819E+03  0.12705792829E+04  0.50400001928E-02 0. -1.
       -1    1    3    3    0  502 -0.86515836271E+03  0.59997259413E+03  0.16691840806E+04  0.19734846342E+04  0.50400001928E-02 0.  1.
</event>
<event>
 5   0  0.4219337E-07  0.3111279E+04  0.7818609E-02  0.8212649E-01
       -1   -1    0    0    0  501  0.00000000000E+00  0.00000000000E+00  0.11074013681E+04  0.11074013681E+04  0.50400001928E-02 0. -1.
        1   -1    0    0  501    0  0.00000000000E+00  0.00000000000E+00 -0.21853085934E+04  0.21853085934E+04  0.50400001928E-02 0.  1.
    10030    2    1    2    0    0  0.00000000000E+00  0.00000000000E+00 -0.10779072253E+04  0.32927099614E+04  0.31112786606E+04 0.  0.
        4    1    3    3  502    0 -0.11545412042E+04 -0.74925764322E+03 -0.13062566383E+04  0.18975406257E+04  0.12699999809E+01 0.  1.
       -4    1    3    3    0  502  0.11545412042E+04  0.74925764322E+03  0.22834941300E+03  0.13951693358E+04  0.12699999809E+01 0. -1.
</event>
<event>
 5   0  0.4219337E-07  0.3114439E+04  0.7818609E-02  0.8211786E-01
        1   -1    0    0  501    0  0.00000000000E+00  0.00000000000E+00  0.21651310967E+04  0.21651310967E+04  0.50400001928E-02 0.  1.
       -1   -1    0    0    0  501  0.00000000000E+00  0.00000000000E+00 -0.11199936818E+04  0.11199936818E+04  0.50400001928E-02 0. -1.
    10030    2    1    2    0    0  0.00000000000E+00  0.00000000000E+00  0.10451374149E+04  0.32851247785E+04  0.31144393708E+04 0.  0.
        4    1    3    3  502    0 -0.29064337367E+03  0.14779514134E+04  0.93934009978E+03  0.17751550318E+04  0.12699999809E+01 0.  1.
       -4    1    3    3    0  502  0.29064337367E+03 -0.14779514134E+04  0.10579731508E+03  0.15099697467E+04  0.12699999809E+01 0. -1.
</event>
<event>
 5   0  0.1176002E-06  0.3086563E+04  0.7818609E-02  0.8219435E-01
       -2   -1    0    0    0  501  0.00000000000E+00  0.00000000000E+00  0.11654196665E+04  0.11654196665E+04  0.25500000920E-02 0. -1.
        2   -1    0    0  501    0  0.00000000000E+00  0.00000000000E+00 -0.20436563687E+04  0.20436563687E+04  0.25500000920E-02 0.  1.
    10030    2    1    2    0    0  0.00000000000E+00  0.00000000000E+00 -0.87823670221E+03  0.32090760352E+04  0.30865626989E+04 0.  0.
        2    1    3    3  502    0  0.13945026235E+04 -0.12413977180E+03  0.23601689104E+03  0.14197718911E+04  0.25500000920E-02 0.  1.
       -2    1    3    3    0  502 -0.13945026235E+04  0.12413977180E+03 -0.11142535932E+04  0.17893041441E+04  0.25500000920E-02 0. -1.
</event>
<event>
 5   0  0.1176002E-06  0.3098873E+04  0.7818609E-02  0.8216047E-01
       -2   -1    0    0    0  501  0.00000000000E+00  0.00000000000E+00  0.14109413244E+04  0.14109413244E+04  0.25500000920E-02 0. -1.
        2   -1    0    0  501    0  0.00000000000E+00  0.00000000000E+00 -0.17015260192E+04  0.17015260192E+04  0.25500000920E-02 0.  1.
    10030    2    1    2    0    0  0.00000000000E+00  0.00000000000E+00 -0.29058469484E+03  0.31124673436E+04  0.30988729403E+04 0.  0.
        2    1    3    3  502    0  0.17779848050E+03 -0.88882245966E+02  0.13980817016E+04  0.14121419184E+04  0.25500000920E-02 0. -1.
       -2    1    3    3    0  502 -0.17779848050E+03  0.88882245966E+02 -0.16886663964E+04  0.17003254253E+04  0.25500000920E-02 0.  1.
</event>
<event>
 5   0  0.1237580E-06  0.3107856E+04  0.7818609E-02  0.8213585E-01
       -2   -1    0    0    0  501  0.00000000000E+00  0.00000000000E+00  0.11875213595E+04  0.11875213595E+04  0.25500000920E-02 0. -1.
        2   -1    0    0  501    0  0.00000000000E+00  0.00000000000E+00 -0.20333882874E+04  0.20333882874E+04  0.25500000920E-02 0.  1.
    10030    2    1    2    0    0  0.00000000000E+00  0.00000000000E+00 -0.84586692787E+03  0.32209096469E+04  0.31078558676E+04 0.  0.
        4    1    3    3  502    0  0.56460007498E+03  0.34942193471E+03  0.10331008429E+04  0.12280748746E+04  0.12699999809E+01 0. -1.
       -4    1    3    3    0  502 -0.56460007498E+03 -0.34942193471E+03 -0.18789677708E+04  0.19928347723E+04  0.12699999809E+01 0.  1.
</event>
<event>
 5   0  0.1200286E-06  0.2986982E+04  0.7818609E-02  0.8247458E-01
       -2   -1    0    0    0  501  0.00000000000E+00  0.00000000000E+00  0.19587656918E+04  0.19587656918E+04  0.25500000920E-02 0.  1.
        2   -1    0    0  501    0  0.00000000000E+00  0.00000000000E+00 -0.11387348152E+04  0.11387348152E+04  0.25500000920E-02 0. -1.
    10030    2    1    2    0    0  0.00000000000E+00  0.00000000000E+00  0.82003087664E+03  0.30975005070E+04  0.29869815454E+04 0.  0.
        5    1    3    3  502    0 -0.73059923548E+03  0.34159637031E+03  0.17135165731E+04  0.18938385516E+04  0.46999998093E+01 0.  1.
       -5    1    3    3    0  502  0.73059923548E+03 -0.34159637031E+03 -0.89348569650E+03  0.12036619554E+04  0.46999998093E+01 0. -1.
</event>
<event>
 5   0  0.1176002E-06  0.3083232E+04  0.7818609E-02  0.8220355E-01
       -2   -1    0    0    0  501  0.00000000000E+00  0.00000000000E+00  0.15133482111E+04  0.15133482111E+04  0.25500000920E-02 0. -1.
        2   -1    0    0  501    0  0.00000000000E+00  0.00000000000E+00 -0.15704119148E+04  0.15704119148E+04  0.25500000920E-02 0.  1.
    10030    2    1    2    0    0  0.00000000000E+00  0.00000000000E+00 -0.57063703744E+02  0.30837601259E+04  0.30832321106E+04 0.  0.
        2    1    3    3  502    0  0.14512043736E+04  0.66749182701E+02 -0.54449855061E+03  0.15514278130E+04  0.25500000920E-02 0. -1.
       -2    1    3    3    0  502 -0.14512043736E+04 -0.66749182701E+02  0.48743484686E+03  0.15323323129E+04  0.25500000920E-02 0.  1.
</event>
<event>
 5   0  0.1258262E-06  0.3096573E+04  0.7818609E-02  0.8216679E-01
       -2   -1    0    0    0  501  0.00000000000E+00  0.00000000000E+00  0.81452923779E+03  0.81452923779E+03  0.25500000920E-02 0.  1.
        2   -1    0    0  501    0  0.00000000000E+00  0.00000000000E+00 -0.29430377815E+04  0.29430377815E+04  0.25500000920E-02 0. -1.
    10030    2    1    2    0    0  0.00000000000E+00  0.00000000000E+00 -0.21285085438E+04  0.37575670193E+04  0.30965725058E+04 0.  0.
        1    1    3    3  502    0  0.11335460870E+04  0.34274920961E+03  0.14603849681E+03  0.11932019923E+04  0.50400001928E-02 0.  1.
       -1    1    3    3    0  502 -0.11335460870E+04 -0.34274920961E+03 -0.22745470406E+04  0.25643650270E+04  0.50400001928E-02 0. -1.
</event>
<event>
 5   0  0.1237580E-06  0.3104261E+04  0.7818609E-02  0.8214570E-01
       -2   -1    0    0    0  501  0.00000000000E+00  0.00000000000E+00  0.14957322329E+04  0.14957322329E+04  0.25500000920E-02 0.  1.
        2   -1    0    0  501    0  0.00000000000E+00  0.00000000000E+00 -0.16106549766E+04  0.16106549766E+04  0.25500000920E-02 0. -1.
    10030    2    1    2    0    0  0.00000000000E+00  0.00000000000E+00 -0.11492274371E+03  0.31063872094E+04  0.31042606620E+04 0.  0.
        4    1    3    3  502    0  0.13617025502E+04 -0.13116230842E+03 -0.79122323339E+03  0.15803395851E+04  0.12699999809E+01 0. -1.
       -4    1    3    3    0  502 -0.13617025502E+04  0.13116230842E+03  0.67630048968E+03  0.15260476243E+04  0.12699999809E+01 0.  1.
</event>
<event>
 5   0  0.1237580E-06  0.3147986E+04  0.7818609E-02  0.8202691E-01
        2   -1    0    0  501    0  0.00000000000E+00  0.00000000000E+00  0.13273716125E+04  0.13273716125E+04  0.25500000920E-02 0.  1.
       -2   -1    0    0    0  501  0.00000000000E+00  0.00000000000E+00 -0.18664356076E+04  0.18664356076E+04  0.25500000920E-02 0. -1.
    10030    2    1    2    0    0  0.00000000000E+00  0.00000000000E+00 -0.53906399508E+03  0.31938072201E+04  0.31479857955E+04 0.  0.
        4    1    3    3  502    0  0.77912529021E+01 -0.41034815199E+02  0.13268087441E+04  0.13274666158E+04  0.12699999809E+01 0.  1.
       -4    1    3    3    0  502 -0.77912529021E+01  0.41034815199E+02 -0.18658727392E+04  0.18663406043E+04  0.12699999809E+01 0. -1.
</event>
<event>
 5   0  0.1200286E-06  0.3103019E+04  0.7818609E-02  0.8214910E-01
        2   -1    0    0  501    0  0.00000000000E+00  0.00000000000E+00  0.12483258129E+04  0.12483258129E+04  0.25500000920E-02 0. -1.
       -2   -1    0    0    0  501  0.00000000000E+00  0.00000000000E+00 -0.19283275593E+04  0.19283275593E+04  0.25500000920E-02 0.  1.
    10030    2    1    2    0    0  0.00000000000E+00  0.00000000000E+00 -0.68000174646E+03  0.31766533722E+04  0.31030185742E+04 0.  0.
        5    1    3    3  502    0  0.17442687305E+03 -0.10036411554E+04 -0.15380006789E+04  0.18447732872E+04  0.46999998093E+01 0.  1.
       -5    1    3    3    0  502 -0.17442687305E+03  0.10036411554E+04  0.85799893245E+03  0.13318800850E+04  0.46999998093E+01 0. -1.
</event>
<event>
 5   0  0.4219337E-07  0.3085154E+04  0.7818609E-02  0.8219824E-01
       -1   -1    0    0    0  501  0.00000000000E+00  0.00000000000E+00  0.12769503933E+04  0.12769503933E+04  0.50400001928E-02 0. -1.
        1   -1    0    0  501    0  0.00000000000E+00  0.00000000000E+00 -0.18634581038E+04  0.18634581038E+04  0.50400001928E-02 0.  1.
    10030    2    1    2    0    0  0.00000000000E+00  0.00000000000E+00 -0.58650771046E+03  0.31404084971E+04  0.30851538429E+04 0.  0.
        4    1    3    3  502    0  0.36344765919E+03 -0.13908056708E+04 -0.86283543594E+03  0.16765802150E+04  0.12699999809E+01 0.  1.
       -4    1    3    3    0  502 -0.36344765919E+03  0.13908056708E+04  0.27632772548E+03  0.14638282821E+04  0.12699999809E+01 0. -1.
</event>
<event>
 5   0  0.1200286E-06  0.3106419E+04  0.7818609E-02  0.8213978E-01
        2   -1    0    0  501    0  0.00000000000E+00  0.00000000000E+00  0.15658927204E+04  0.15658927204E+04  0.25500000920E-02 0. -1.
       -2   -1    0    0    0  501  0.00000000000E+00  0.00000000000E+00 -0.15406290237E+04  0.15406290237E+04  0.25500000920E-02 0.  1.
    10030    2    1    2    0    0  0.00000000000E+00  0.00000000000E+00  0.25263696674E+02  0.31065217441E+04  0.31064190142E+04 0.  0.
        5    1    3    3  502    0 -0.11538156866E+04  0.71520572729E+03 -0.74213002678E+03  0.15471227933E+04  0.46999998093E+01 0.  1.
       -5    1    3    3    0  502  0.11538156866E+04 -0.71520572729E+03  0.76739372345E+03  0.15593989508E+04  0.46999998093E+01 0. -1.
</event>
<event>
 5   0  0.1193123E-06  0.3085660E+04  0.7818609E-02  0.8219684E-01
       -2   -1    0    0    0  501  0.00000000000E+00  0.00000000000E+00  0.80128338577E+03  0.80128338577E+03  0.25500000920E-02 0.  1.
        2   -1    0    0  501    0  0.00000000000E+00  0.00000000000E+00 -0.29706405883E+04  0.29706405883E+04  0.25500000920E-02 0. -1.
    10030    2    1    2    0    0  0.00000000000E+00  0.00000000000E+00 -0.21693572025E+04  0.37719239741E+04  0.30856603497E+04 0.  0.
        3    1    3    3  502    0  0.95063449846E+03  0.45401457351E+03 -0.24625236961E+04  0.26784058966E+04  0.10100000352E+00 0. -1.
       -3    1    3    3    0  502 -0.95063449846E+03 -0.45401457351E+03  0.29316649361E+03  0.10935180775E+04  0.10100000352E+00 0.  1.
</event>
<event>
 5   0  0.4134019E-07  0.3108698E+04  0.7818609E-02  0.8213355E-01
       -1   -1    0    0    0  501  0.00000000000E+00  0.00000000000E+00  0.16850585153E+04  0.16850585153E+04  0.50400001928E-02 0.  1.
        1   -1    0    0  501    0  0.00000000000E+00  0.00000000000E+00 -0.14337781255E+04  0.14337781255E+04  0.50400001928E-02 0. -1.
    10030    2    1    2    0    0  0.00000000000E+00  0.00000000000E+00  0.25128038979E+03  0.31188366408E+04  0.31086975018E+04 0.  0.
        2    1    3    3  502    0 -0.11689046813E+03 -0.84492117090E+03 -0.11779995914E+04  0.14543858511E+04  0.25500000920E-02 0. -1.
       -2    1    3    3    0  502  0.11689046813E+03  0.84492117090E+03  0.14292799812E+04  0.16644507897E+04  0.25500000920E-02 0.  1.
</event>
<event>
 5   0  0.4330395E-07  0.3115535E+04  0.7818609E-02  0.8211487E-01
        1   -1    0    0  501    0  0.00000000000E+00  0.00000000000E+00  0.22617196250E+04  0.22617196250E+04  0.50400001928E-02 0. -1.
       -1   -1    0    0    0  501  0.00000000000E+00  0.00000000000E+00 -0.10729180291E+04  0.10729180291E+04  0.50400001928E-02 0.  1.
    10030    2    1    2    0    0  0.00000000000E+00  0.00000000000E+00  0.11888015959E+04  0.33346376541E+04  0.31155351145E+04 0.  0.
        1    1    3    3  502    0 -0.10849441384E+04 -0.48048976559E+03 -0.48586794940E+03  0.12822019585E+04  0.50400001928E-02 0.  1.
       -1    1    3    3    0  502  0.10849441384E+04  0.48048976559E+03  0.16746695453E+04  0.20524356955E+04  0.50400001928E-02 0. -1.
</event>
<event>
 5   0  0.3935852E-07  0.3097642E+04  0.7818609E-02  0.8216385E-01
       -1   -1    0    0    0  501  0.00000000000E+00  0.00000000000E+00  0.14215397520E+04  0.14215397520E+04  0.50400001928E-02 0. -1.
        1   -1    0    0  501    0  0.00000000000E+00  0.00000000000E+00 -0.16874987858E+04  0.16874987858E+04  0.50400001928E-02 0.  1.
    10030    2    1    2    0    0  0.00000000000E+00  0.00000000000E+00 -0.26595903376E+03  0.31090385379E+04  0.30976420746E+04 0.  0.
        5    1    3    3  502    0 -0.83073444432E+03 -0.99895725065E+03  0.71320540805E+03  0.14821333778E+04  0.46999998093E+01 0. -1.
       -5    1    3    3    0  502  0.83073444432E+03  0.99895725065E+03 -0.97916444181E+03  0.16269051600E+04  0.46999998093E+01 0.  1.
</event>
<event>
 5   0  0.3935852E-07  0.3068600E+04  0.7818609E-02  0.8224409E-01
       -1   -1    0    0    0  501  0.00000000000E+00  0.00000000000E+00  0.13863943529E+04  0.13863943529E+04  0.50400001928E-02 0. -1.
        1   -1    0    0  501    0  0.00000000000E+00  0.00000000000E+00 -0.16979843875E+04  0.16979843875E+04  0.50400001928E-02 0.  1.
    10030    2    1    2    0    0  0.00000000000E+00  0.00000000000E+00 -0.31159003457E+03  0.30843787405E+04  0.30685996586E+04 0.  0.
        5    1    3    3  502    0  0.19220966497E+03  0.98942256253E+03  0.10069386380E+04  0.14247277190E+04  0.46999998093E+01 0. -1.
       -5    1    3    3    0  502 -0.19220966497E+03 -0.98942256253E+03 -0.13185286726E+04  0.16596510215E+04  0.46999998093E+01 0.  1.
</event>
<event>
 5   0  0.1258262E-06  0.3027547E+04  0.7818609E-02  0.8235908E-01
       -2   -1    0    0    0  501  0.00000000000E+00  0.00000000000E+00  0.73654676188E+03  0.73654676188E+03  0.25500000920E-02 0.  1.
        2   -1    0    0  501    0  0.00000000000E+00  0.00000000000E+00 -0.31111530464E+04  0.31111530464E+04  0.25500000920E-02 0. -1.
    10030    2    1    2    0    0  0.00000000000E+00  0.00000000000E+00 -0.23746062845E+04  0.38476998083E+04  0.30275466649E+04 0.  0.
        1    1    3    3  502    0  0.86670895467E+03  0.53486484704E+03  0.23601342719E+03  0.10454506945E+04  0.50400001928E-02 0.  1.
       -1    1    3    3    0  502 -0.86670895467E+03 -0.53486484704E+03 -0.26106197117E+04  0.28022491138E+04  0.50400001928E-02 0. -1.
</event>
<event>
 5   0  0.1258262E-06  0.3102240E+04  0.7818609E-02  0.8215123E-01
        2   -1    0    0  501    0  0.00000000000E+00  0.00000000000E+00  0.25727033513E+04  0.25727033513E+04  0.25500000920E-02 0. -1.
       -2   -1    0    0    0  501  0.00000000000E+00  0.00000000000E+00 -0.93519250247E+03  0.93519250248E+03  0.25500000920E-02 0.  1.
    10030    2    1    2    0    0  0.00000000000E+00  0.00000000000E+00  0.16375108488E+04  0.35078958537E+04  0.31022397620E+04 0.  0.
        1    1    3    3  502    0  0.33324056173E+03 -0.13011208772E+04  0.16961046353E+04  0.21635008073E+04  0.50400001928E-02 0. -1.
       -1    1    3    3    0  502 -0.33324056173E+03  0.13011208772E+04 -0.58593786515E+02  0.13443950465E+04  0.50400001928E-02 0.  1.
</event>
<event>
 5   0  0.4219337E-07  0.2974854E+04  0.7818609E-02  0.8250948E-01
       -1   -1    0    0    0  501  0.00000000000E+00  0.00000000000E+00  0.20756349619E+04  0.20756349619E+04  0.50400001928E-02 0.  1.
        1   -1    0    0  501    0  0.00000000000E+00  0.00000000000E+00 -0.10659092576E+04  0.10659092576E+04  0.50400001928E-02 0. -1.
    10030    2    1    2    0    0  0.00000000000E+00  0.00000000000E+00  0.10097257043E+04  0.31415442196E+04  0.29748536242E+04 0.  0.
        4    1    3    3  502    0  0.43829863580E+03  0.25623447622E+02 -0.99592146674E+03  0.10884040776E+04  0.12699999809E+01 0. -1.
       -4    1    3    3    0  502 -0.43829863580E+03 -0.25623447622E+02  0.20056471710E+04  0.20531401420E+04  0.12699999809E+01 0.  1.
</event>
<event>
 5   0  0.1176002E-06  0.3083875E+04  0.7818609E-02  0.8220177E-01
       -2   -1    0    0    0  501  0.00000000000E+00  0.00000000000E+00  0.89316515862E+03  0.89316515863E+03  0.25500000920E-02 0.  1.
        2   -1    0    0  501    0  0.00000000000E+00  0.00000000000E+00 -0.26619612431E+04  0.26619612431E+04  0.25500000920E-02 0. -1.
    10030    2    1    2    0    0  0.00000000000E+00  0.00000000000E+00 -0.17687960845E+04  0.35551264018E+04  0.30838748587E+04 0.  0.
        2    1    3    3  502    0 -0.90228567176E+03 -0.37214732379E+03 -0.22605276150E+04  0.24622343841E+04  0.25500000920E-02 0. -1.
       -2    1    3    3    0  502  0.90228567176E+03  0.37214732379E+03  0.49173153053E+03  0.10928920176E+04  0.25500000920E-02 0.  1.
</event>
<event>
 5   0  0.3902375E-07  0.3079409E+04  0.7818609E-02  0.8221412E-01
        3   -1    0    0  501    0  0.00000000000E+00  0.00000000000E+00  0.21927833441E+04  0.21927833464E+04  0.10100000352E+00 0.  1.
       -3   -1    0    0    0  501  0.00000000000E+00  0.00000000000E+00 -0.10811331122E+04  0.10811331170E+04  0.10100000352E+00 0. -1.
    10030    2    1    2    0    0  0.00000000000E+00  0.00000000000E+00  0.11116502318E+04  0.32739164634E+04  0.30794094842E+04 0.  0.
        5    1    3    3  502    0 -0.12396549676E+04  0.15027288495E+03 -0.40181469006E+03  0.13117940058E+04  0.46999998093E+01 0. -1.
       -5    1    3    3    0  502  0.12396549676E+04 -0.15027288495E+03  0.15134649219E+04  0.19621224575E+04  0.46999998093E+01 0.  1.
</event>
<event>
 5   0  0.1200286E-06  0.3265851E+04  0.7818609E-02  0.8171639E-01
       -2   -1    0    0    0  501  0.00000000000E+00  0.00000000000E+00  0.24088827630E+04  0.24088827630E+04  0.25500000920E-02 0.  1.
        2   -1    0    0  501    0  0.00000000000E+00  0.00000000000E+00 -0.11069222725E+04  0.11069222725E+04  0.25500000920E-02 0. -1.
    10030    2    1    2    0    0  0.00000000000E+00  0.00000000000E+00  0.13019604905E+04  0.35158050355E+04  0.32658511799E+04 0.  0.
        5    1    3    3  502    0  0.48836102754E+03 -0.53051729011E+03  0.22281981380E+04  0.23419722715E+04  0.46999998093E+01 0.  1.
       -5    1    3    3    0  502 -0.48836102754E+03  0.53051729011E+03 -0.92623764747E+03  0.11738327640E+04  0.46999998093E+01 0. -1.
</event>
<event>
 5   0  0.1200286E-06  0.3103151E+04  0.7818609E-02  0.8214874E-01
        2   -1    0    0  501    0  0.00000000000E+00  0.00000000000E+00  0.15518097511E+04  0.15518097511E+04  0.25500000920E-02 0. -1.
       -2   -1    0    0    0  501  0.00000000000E+00  0.00000000000E+00 -0.15513409721E+04  0.15513409721E+04  0.25500000920E-02 0.  1.
    10030    2    1    2    0    0  0.00000000000E+00  0.00000000000E+00  0.46877892298E+00  0.31031507232E+04  0.31031506878E+04 0.  0.
        5    1    3    3  502    0 -0.45063822105E+03  0.11668576981E+04  0.91823890102E+03  0.15517140404E+04  0.46999998093E+01 0. -1.
       -5    1    3    3    0  502  0.45063822105E+03 -0.11668576981E+04 -0.91777012210E+03  0.15514366828E+04  0.46999998093E+01 0.  1.
</event>
<event>
 5   0  0.4330395E-07  0.3105153E+04  0.7818609E-02  0.8214325E-01
        1   -1    0    0  501    0  0.00000000000E+00  0.00000000000E+00  0.20509376599E+04  0.20509376599E+04  0.50400001928E-02 0. -1.
       -1   -1    0    0    0  501  0.00000000000E+00  0.00000000000E+00 -0.11753129468E+04  0.11753129468E+04  0.50400001928E-02 0.  1.
    10030    2    1    2    0    0  0.00000000000E+00  0.00000000000E+00  0.87562471314E+03  0.32262506067E+04  0.31051528689E+04 0.  0.
        1    1    3    3  502    0 -0.61094712017E+03  0.12167152505E+04 -0.33750729886E+03  0.14026986708E+04  0.50400001928E-02 0.  1.
       -1    1    3    3    0  502  0.61094712017E+03 -0.12167152505E+04  0.12131320120E+04  0.18235519359E+04  0.50400001928E-02 0. -1.
</event>
<event>
 5   0  0.4219337E-07  0.3107997E+04  0.7818609E-02  0.8213547E-01
        1   -1    0    0  501    0  0.00000000000E+00  0.00000000000E+00  0.23520408785E+04  0.23520408785E+04  0.50400001928E-02 0. -1.
       -1   -1    0    0    0  501  0.00000000000E+00  0.00000000000E+00 -0.10267302659E+04  0.10267302659E+04  0.50400001928E-02 0.  1.
    10030    2    1    2    0    0  0.00000000000E+00  0.00000000000E+00  0.13253106126E+04  0.33787711443E+04  0.31079971406E+04 0.  0.
        4    1    3    3  502    0 -0.10968567795E+04 -0.10615668040E+04  0.34591074394E+03  0.15651436771E+04  0.12699999809E+01 0. -1.
       -4    1    3    3    0  502  0.10968567795E+04  0.10615668040E+04  0.97939986865E+03  0.18136274672E+04  0.12699999809E+01 0.  1.
</event>
<event>
 5   0  0.1193123E-06  0.3101398E+04  0.7818609E-02  0.8215354E-01
        2   -1    0    0  501    0  0.00000000000E+00  0.00000000000E+00  0.27145324622E+04  0.27145324622E+04  0.25500000920E-02 0. -1.
       -2   -1    0    0    0  501  0.00000000000E+00  0.00000000000E+00 -0.88584970723E+03  0.88584970724E+03  0.25500000920E-02 0.  1.
    10030    2    1    2    0    0  0.00000000000E+00  0.00000000000E+00  0.18286827550E+04  0.36003821695E+04  0.31013982569E+04 0.  0.
        3    1    3    3  502    0 -0.27870813227E+03 -0.12449986314E+04  0.19376169793E+04  0.23199265902E+04  0.10100000352E+00 0. -1.
       -3    1    3    3    0  502  0.27870813227E+03  0.12449986314E+04 -0.10893422428E+03  0.12804555793E+04  0.10100000352E+00 0.  1.
</event>
<event>
 5   0  0.1258262E-06  0.3115422E+04  0.7818609E-02  0.8211518E-01
       -2   -1    0    0    0  501  0.00000000000E+00  0.00000000000E+00  0.13087557491E+04  0.13087557491E+04  0.25500000920E-02 0.  1.
        2   -1    0    0  501    0  0.00000000000E+00  0.00000000000E+00 -0.18540237414E+04  0.18540237414E+04  0.25500000920E-02 0. -1.
    10030    2    1    2    0    0  0.00000000000E+00  0.00000000000E+00 -0.54526799227E+03  0.31627794905E+04  0.31154224307E+04 0.  0.
        1    1    3    3  502    0  0.12909061583E+03  0.15383131292E+04 -0.61158716801E+02  0.15449310856E+04  0.50400001928E-02 0.  1.
       -1    1    3    3    0  502 -0.12909061583E+03 -0.15383131292E+04 -0.48410927547E+03  0.16178484049E+04  0.50400001928E-02 0. -1.
</event>
<event>
 5   0  0.1200286E-06  0.3107014E+04  0.7818609E-02  0.8213816E-01
       -2   -1    0    0    0  501  0.00000000000E+00  0.00000000000E+00  0.11001997467E+04  0.11001997467E+04  0.25500000920E-02 0. -1.
        2   -1    0    0  501    0  0.00000000000E+00  0.00000000000E+00 -0.21935870957E+04  0.21935870957E+04  0.25500000920E-02 0.  1.
    10030    2    1    2    0    0  0.00000000000E+00  0.00000000000E+00 -0.10933873490E+04  0.32937868425E+04  0.31070139795E+04 0.  0.
        5    1    3    3  502    0  0.91136818995E+03 -0.19657860075E+02 -0.18802401366E+04  0.20895701641E+04  0.46999998093E+01 0.  1.
       -5    1    3    3    0  502 -0.91136818995E+03  0.19657860075E+02  0.78685278766E+03  0.12042166784E+04  0.46999998093E+01 0. -1.
</event>
<event>
 5   0  0.4134019E-07  0.3093841E+04  0.7818609E-02  0.8217430E-01
        1   -1    0    0  501    0  0.00000000000E+00  0.00000000000E+00  0.24277354282E+04  0.24277354282E+04  0.50400001928E-02 0.  1.
       -1   -1    0    0    0  501  0.00000000000E+00  0.00000000000E+00 -0.98567675979E+03  0.98567675980E+03  0.50400001928E-02 0. -1.
    10030    2    1    2    0    0  0.00000000000E+00  0.00000000000E+00  0.14420586684E+04  0.34134121880E+04  0.30938405844E+04 0.  0.
        2    1    3    3  502    0 -0.10969715681E+04 -0.10906483896E+04  0.73216436124E+03  0.17114102907E+04  0.25500000920E-02 0.  1.
       -2    1    3    3    0  502  0.10969715681E+04  0.10906483896E+04  0.70989430713E+03  0.17020018973E+04  0.25500000920E-02 0. -1.
</event>
<event>
 5   0  0.1193123E-06  0.3094338E+04  0.7818609E-02  0.8217293E-01
       -2   -1    0    0    0  501  0.00000000000E+00  0.00000000000E+00  0.12310578102E+04  0.12310578102E+04  0.25500000920E-02 0. -1.
        2   -1    0    0  501    0  0.00000000000E+00  0.00000000000E+00 -0.19444518569E+04  0.19444518569E+04  0.25500000920E-02 0.  1.
    10030    2    1    2    0    0  0.00000000000E+00  0.00000000000E+00 -0.71339404664E+03  0.31755096671E+04  0.30943384721E+04 0.  0.
        3    1    3    3  502    0 -0.15219279685E+04 -0.39812403581E+02 -0.74002441551E+02  0.15242460892E+04  0.10100000352E+00 0.  1.
       -3    1    3    3    0  502  0.15219279685E+04  0.39812403581E+02 -0.63939160509E+03  0.16512635779E+04  0.10100000352E+00 0. -1.
</event>
<event>
 5   0  0.1237580E-06  0.3092828E+04  0.7818609E-02  0.8217709E-01
       -2   -1    0    0    0  501  0.00000000000E+00  0.00000000000E+00  0.92170678195E+03  0.92170678195E+03  0.25500000920E-02 0.  1.
        2   -1    0    0  501    0  0.00000000000E+00  0.00000000000E+00 -0.25945297654E+04  0.25945297654E+04  0.25500000920E-02 0. -1.
    10030    2    1    2    0    0  0.00000000000E+00  0.00000000000E+00 -0.16728229834E+04  0.35162365474E+04  0.30928276258E+04 0.  0.
        4    1    3    3  502    0 -0.10403905405E+04  0.69675431650E+03 -0.18681226517E+04  0.22489470668E+04  0.12699999809E+01 0. -1.
       -4    1    3    3    0  502  0.10403905405E+04 -0.69675431650E+03  0.19529966830E+03  0.12672894806E+04  0.12699999809E+01 0.  1.
</event>
<event>
 5   0  0.3902375E-07  0.3107011E+04  0.7818609E-02  0.8213816E-01
        3   -1    0    0  501    0  0.00000000000E+00  0.00000000000E+00  0.13548609949E+04  0.13548609986E+04  0.10100000352E+00 0.  1.
       -3   -1    0    0    0  501  0.00000000000E+00  0.00000000000E+00 -0.17812743306E+04  0.17812743335E+04  0.10100000352E+00 0. -1.
    10030    2    1    2    0    0  0.00000000000E+00  0.00000000000E+00 -0.42641333573E+03  0.31361353321E+04  0.31070108607E+04 0.  0.
        4    1    3    3  502    0 -0.14337281943E+04  0.20209861870E+03  0.35506012907E+03  0.14908016954E+04  0.12699999809E+01 0.  1.
       -4    1    3    3    0  502  0.14337281943E+04 -0.20209861870E+03 -0.78147346479E+03  0.16453336367E+04  0.12699999809E+01 0. -1.
</event>
<event>
 5   0  0.1193123E-06  0.3096193E+04  0.7818609E-02  0.8216783E-01
       -2   -1    0    0    0  501  0.00000000000E+00  0.00000000000E+00  0.93703137714E+03  0.93703137715E+03  0.25500000920E-02 0.  1.
        2   -1    0    0  501    0  0.00000000000E+00  0.00000000000E+00 -0.25576553335E+04  0.25576553335E+04  0.25500000920E-02 0. -1.
    10030    2    1    2    0    0  0.00000000000E+00  0.00000000000E+00 -0.16206239564E+04  0.34946867107E+04  0.30961933399E+04 0.  0.
        3    1    3    3  502    0  0.66739006986E+03  0.53070558791E+03 -0.22687208186E+04  0.24236650118E+04  0.10100000352E+00 0. -1.
       -3    1    3    3    0  502 -0.66739006986E+03 -0.53070558791E+03  0.64809686224E+03  0.10710216989E+04  0.10100000352E+00 0.  1.
</event>
<event>
 5   0  0.1237580E-06  0.3103595E+04  0.7818609E-02  0.8214752E-01
        2   -1    0    0  501    0  0.00000000000E+00  0.00000000000E+00  0.98271935376E+03  0.98271935376E+03  0.25500000920E-02 0. -1.
       -2   -1    0    0    0  501  0.00000000000E+00  0.00000000000E+00 -0.24504196665E+04  0.24504196665E+04  0.25500000920E-02 0.  1.
    10030    2    1    2    0    0  0.00000000000E+00  0.00000000000E+00 -0.14677003128E+04  0.34331390203E+04  0.31035945812E+04 0.  0.
        4    1    3    3  502    0  0.66734496874E+03  0.59718929820E+03 -0.21357312832E+04  0.23158873228E+04  0.12699999809E+01 0.  1.
       -4    1    3    3    0  502 -0.66734496874E+03 -0.59718929820E+03  0.66803097040E+03  0.11172516975E+04  0.12699999809E+01 0. -1.
</event>
<event>
 5   0  0.1258262E-06  0.3098375E+04  0.7818609E-02  0.8216184E-01
       -2   -1    0    0    0  501  0.00000000000E+00  0.00000000000E+00  0.11518456139E+04  0.11518456139E+04  0.25500000920E-02 0. -1.
        2   -1    0    0  501    0  0.00000000000E+00  0.00000000000E+00 -0.20835970713E+04  0.20835970713E+04  0.25500000920E-02 0.  1.
    10030    2    1    2    0    0  0.00000000000E+00  0.00000000000E+00 -0.93175145738E+03  0.32354426852E+04  0.30983751534E+04 0.  0.
        1    1    3    3  502    0 -0.44697117674E+03  0.39558038651E+03  0.10269526538E+04  0.11878126234E+04  0.50400001928E-02 0. -1.
       -1    1    3    3    0  502  0.44697117674E+03 -0.39558038651E+03 -0.19587041112E+04  0.20476300619E+04  0.50400001928E-02 0.  1.
</event>
<event>
 5   0  0.4219337E-07  0.3058580E+04  0.7818609E-02  0.8227198E-01
        1   -1    0    0  501    0  0.00000000000E+00  0.00000000000E+00  0.25547540843E+04  0.25547540843E+04  0.50400001928E-02 0.  1.
       -1   -1    0    0    0  501  0.00000000000E+00  0.00000000000E+00 -0.91544151457E+03  0.91544151459E+03  0.50400001928E-02 0. -1.
    10030    2    1    2    0    0  0.00000000000E+00  0.00000000000E+00  0.16393125697E+04  0.34701955989E+04  0.30585800289E+04 0.  0.
        4    1    3    3  502    0 -0.90017410695E+03  0.27679113566E+02  0.22219712882E+04  0.23975482424E+04  0.12699999809E+01 0.  1.
       -4    1    3    3    0  502  0.90017410695E+03 -0.27679113566E+02 -0.58265871851E+03  0.10726473565E+04  0.12699999809E+01 0. -1.
</event>
<event>
 5   0  0.1193123E-06  0.3091962E+04  0.7818609E-02  0.8217947E-01
       -2   -1    0    0    0  501  0.00000000000E+00  0.00000000000E+00  0.90415950325E+03  0.90415950325E+03  0.25500000920E-02 0. -1.
        2   -1    0    0  501    0  0.00000000000E+00  0.00000000000E+00 -0.26434024964E+04  0.26434024964E+04  0.25500000920E-02 0.  1.
    10030    2    1    2    0    0  0.00000000000E+00  0.00000000000E+00 -0.17392429932E+04  0.35475619997E+04  0.30919621525E+04 0.  0.
        3    1    3    3  502    0 -0.14116926551E+04 -0.62829917819E+03 -0.81316223363E+03  0.17461010389E+04  0.10100000352E+00 0.  1.
       -3    1    3    3    0  502  0.14116926551E+04  0.62829917819E+03 -0.92608075954E+03  0.18014609607E+04  0.10100000352E+00 0. -1.
</event>
<event>
 5   0  0.1200286E-06  0.3120603E+04  0.7818609E-02  0.8210106E-01
        2   -1    0    0  501    0  0.00000000000E+00  0.00000000000E+00  0.11017278966E+04  0.11017278966E+04  0.25500000920E-02 0. -1.
       -2   -1    0    0    0  501  0.00000000000E+00  0.00000000000E+00 -0.22097483415E+04  0.22097483415E+04  0.25500000920E-02 0.  1.
    10030    2    1    2    0    0  0.00000000000E+00  0.00000000000E+00 -0.11080204449E+04  0.33114762381E+04  0.31206033983E+04 0.  0.
        5    1    3    3  502    0 -0.13487119884E+04 -0.58325345636E+03 -0.11108042855E+04  0.18420414959E+04  0.46999998093E+01 0.  1.
       -5    1    3    3    0  502  0.13487119884E+04  0.58325345636E+03  0.27838405947E+01  0.14694347422E+04  0.46999998093E+01 0. -1.
</event>
<event>
 5   0  0.4173905E-07  0.3085017E+04  0.7818609E-02  0.8219862E-01
       -1   -1    0    0    0  501  0.00000000000E+00  0.00000000000E+00  0.14774503695E+04  0.14774503695E+04  0.50400001928E-02 0. -1.
        1   -1    0    0  501    0  0.00000000000E+00  0.00000000000E+00 -0.16104314621E+04  0.16104314621E+04  0.50400001928E-02 0.  1.
    10030    2    1    2    0    0  0.00000000000E+00  0.00000000000E+00 -0.13298109268E+03  0.30878818316E+04  0.30850170559E+04 0.  0.
        3    1    3    3  502    0 -0.62100432209E+02 -0.13958036207E+04 -0.72070925982E+03  0.15721151544E+04  0.10100000352E+00 0. -1.
       -3    1    3    3    0  502  0.62100432209E+02  0.13958036207E+04  0.58772816714E+03  0.15157666772E+04  0.10100000352E+00 0.  1.
</event>
<event>
 5   0  0.4219337E-07  0.3097657E+04  0.7818609E-02  0.8216381E-01
       -1   -1    0    0    0  501  0.00000000000E+00  0.00000000000E+00  0.22071481696E+04  0.22071481696E+04  0.50400001928E-02 0. -1.
        1   -1    0    0  501    0  0.00000000000E+00  0.00000000000E+00 -0.10868639453E+04  0.10868639453E+04  0.50400001928E-02 0.  1.
    10030    2    1    2    0    0  0.00000000000E+00  0.00000000000E+00  0.11202842243E+04  0.32940121149E+04  0.30976570291E+04 0.  0.
        4    1    3    3  502    0 -0.94571529628E+03 -0.84170018582E+03  0.15089034874E+04  0.19696771237E+04  0.12699999809E+01 0. -1.
       -4    1    3    3    0  502  0.94571529628E+03  0.84170018582E+03 -0.38861926308E+03  0.13243349912E+04  0.12699999809E+01 0.  1.
</event>
<event>
 5   0  0.1237580E-06  0.3100534E+04  0.7818609E-02  0.8215591E-01
        2   -1    0    0  501    0  0.00000000000E+00  0.00000000000E+00  0.12190559738E+04  0.12190559738E+04  0.25500000920E-02 0.  1.
       -2   -1    0    0    0  501  0.00000000000E+00  0.00000000000E+00 -0.19714660077E+04  0.19714660077E+04  0.25500000920E-02 0. -1.
    10030    2    1    2    0    0  0.00000000000E+00  0.00000000000E+00 -0.75241003392E+03  0.31905219815E+04  0.31005337694E+04 0.  0.
        4    1    3    3  502    0 -0.11481355282E+04  0.82437635005E+03  0.27907712377E+03  0.14407280144E+04  0.12699999809E+01 0.  1.
       -4    1    3    3    0  502  0.11481355282E+04 -0.82437635005E+03 -0.10314871577E+04  0.17497939670E+04  0.12699999809E+01 0. -1.
</event>
<event>
 5   0  0.4173905E-07  0.3088345E+04  0.7818609E-02  0.8218944E-01
        1   -1    0    0  501    0  0.00000000000E+00  0.00000000000E+00  0.19037326128E+04  0.19037326128E+04  0.50400001928E-02 0. -1.
       -1   -1    0    0    0  501  0.00000000000E+00  0.00000000000E+00 -0.12525229449E+04  0.12525229449E+04  0.50400001928E-02 0.  1.
    10030    2    1    2    0    0  0.00000000000E+00  0.00000000000E+00  0.65120966788E+03  0.31562555577E+04  0.30883450445E+04 0.  0.
        3    1    3    3  502    0  0.13889292344E+04 -0.11014227646E+03 -0.35477683449E+03  0.14377490572E+04  0.10100000352E+00 0.  1.
       -3    1    3    3    0  502 -0.13889292344E+04  0.11014227646E+03  0.10059865024E+04  0.17185065005E+04  0.10100000352E+00 0. -1.
</event>
<event>
 5   0  0.1200286E-06  0.3095053E+04  0.7818609E-02  0.8217097E-01
        2   -1    0    0  501    0  0.00000000000E+00  0.00000000000E+00  0.15820599192E+04  0.15820599192E+04  0.25500000920E-02 0. -1.
       -2   -1    0    0    0  501  0.00000000000E+00  0.00000000000E+00 -0.15137472067E+04  0.15137472067E+04  0.25500000920E-02 0.  1.
    10030    2    1    2    0    0  0.00000000000E+00  0.00000000000E+00  0.68312712453E+02  0.30958071259E+04  0.30950533330E+04 0.  0.
        5    1    3    3  502    0 -0.13719220187E+04 -0.48991749302E+03 -0.48810826046E+03  0.15363791652E+04  0.46999998093E+01 0.  1.
       -5    1    3    3    0  502  0.13719220187E+04  0.48991749302E+03  0.55642097291E+03  0.15594279607E+04  0.46999998093E+01 0. -1.
</event>
<event>
 5   0  0.1176002E-06  0.3090515E+04  0.7818609E-02  0.8218346E-01
       -2   -1    0    0    0  501  0.00000000000E+00  0.00000000000E+00  0.10986388797E+04  0.10986388797E+04  0.25500000920E-02 0.  1.
        2   -1    0    0  501    0  0.00000000000E+00  0.00000000000E+00 -0.21734361066E+04  0.21734361066E+04  0.25500000920E-02 0. -1.
    10030    2    1    2    0    0  0.00000000000E+00  0.00000000000E+00 -0.10747972269E+04  0.32720749863E+04  0.30905154323E+04 0.  0.
        2    1    3    3  502    0 -0.77833047878E+02  0.12779556352E+04  0.37864290947E+03  0.13351400832E+04  0.25500000920E-02 0.  1.
       -2    1    3    3    0  502  0.77833047878E+02 -0.12779556352E+04 -0.14534401364E+04  0.19369349031E+04  0.25500000920E-02 0. -1.
</event>
<event>
 5   0  0.1200286E-06  0.3089298E+04  0.7818609E-02  0.8218681E-01
        2   -1    0    0  501    0  0.00000000000E+00  0.00000000000E+00  0.12770418070E+04  0.12770418070E+04  0.25500000920E-02 0.  1.
       -2   -1    0    0    0  501  0.00000000000E+00  0.00000000000E+00 -0.18683337948E+04  0.18683337948E+04  0.25500000920E-02 0. -1.
    10030    2    1    2    0    0  0.00000000000E+00  0.00000000000E+00 -0.59129198772E+03  0.31453756018E+04  0.30892978914E+04 0.  0.
        5    1    3    3  502    0 -0.21654707152E+03 -0.67258818786E+03  0.11028411696E+04  0.13097893877E+04  0.46999998093E+01 0.  1.
       -5    1    3    3    0  502  0.21654707152E+03  0.67258818786E+03 -0.16941331574E+04  0.18355862141E+04  0.46999998093E+01 0. -1.
</event>
<event>
 5   0  0.3935852E-07  0.3014943E+04  0.7818609E-02  0.8239477E-01
       -1   -1    0    0    0  501  0.00000000000E+00  0.00000000000E+00  0.10454081336E+04  0.10454081336E+04  0.50400001928E-02 0. -1.
        1   -1    0    0  501    0  0.00000000000E+00  0.00000000000E+00 -0.21737633309E+04  0.21737633309E+04  0.50400001928E-02 0.  1.
    10030    2    1    2    0    0  0.00000000000E+00  0.00000000000E+00 -0.11283551972E+04  0.32191714645E+04  0.30149426971E+04 0.  0.
        5    1    3    3  502    0 -0.49297322023E+03 -0.12953669194E+04  0.68812112712E+02  0.13877158386E+04  0.46999998093E+01 0. -1.
       -5    1    3    3    0  502  0.49297322023E+03  0.12953669194E+04 -0.11971673099E+04  0.18314556259E+04  0.46999998093E+01 0.  1.
</event>
<event>
 5   0  0.4219337E-07  0.3096905E+04  0.7818609E-02  0.8216588E-01
       -1   -1    0    0    0  501  0.00000000000E+00  0.00000000000E+00  0.15010312003E+04  0.15010312003E+04  0.50400001928E-02 0. -1.
        1   -1    0    0  501    0  0.00000000000E+00  0.00000000000E+00 -0.15973723687E+04  0.15973723687E+04  0.50400001928E-02 0.  1.
    10030    2    1    2    0    0  0.00000000000E+00  0.00000000000E+00 -0.96341168374E+02  0.30984035690E+04  0.30969053999E+04 0.  0.
        4    1    3    3  502    0 -0.55353502200E+03 -0.13578105595E+03 -0.14886124171E+04  0.15939906075E+04  0.12699999809E+01 0.  1.
       -4    1    3    3    0  502  0.55353502200E+03  0.13578105595E+03  0.13922712487E+04  0.15044129615E+04  0.12699999809E+01 0. -1.
</event>
<event>
 5   0  0.1193123E-06  0.3095351E+04  0.7818609E-02  0.8217015E-01
        2   -1    0    0  501    0  0.00000000000E+00  0.00000000000E+00  0.15697231802E+04  0.15697231802E+04  0.25500000920E-02 0. -1.
       -2   -1    0    0    0  501  0.00000000000E+00  0.00000000000E+00 -0.15259378124E+04  0.15259378124E+04  0.25500000920E-02 0.  1.
    10030    2    1    2    0    0  0.00000000000E+00  0.00000000000E+00  0.43785367776E+02  0.30956609925E+04  0.30953513245E+04 0.  0.
        3    1    3    3  502    0  0.50881784280E+03 -0.70331674112E+03  0.13033287600E+04  0.15659552683E+04  0.10100000352E+00 0. -1.
       -3    1    3    3    0  502 -0.50881784280E+03  0.70331674112E+03 -0.12595433923E+04  0.15297057242E+04  0.10100000352E+00 0.  1.
</event>
<event>
 5   0  0.4134019E-07  0.3099429E+04  0.7818609E-02  0.8215895E-01
       -1   -1    0    0    0  501  0.00000000000E+00  0.00000000000E+00  0.13457940914E+04  0.13457940914E+04  0.50400001928E-02 0. -1.
        1   -1    0    0  501    0  0.00000000000E+00  0.00000000000E+00 -0.17845334035E+04  0.17845334035E+04  0.50400001928E-02 0.  1.
    10030    2    1    2    0    0  0.00000000000E+00  0.00000000000E+00 -0.43873931208E+03  0.31303274949E+04  0.30994286637E+04 0.  0.
        2    1    3    3  502    0 -0.93111168474E+03 -0.15936661881E+02  0.10316848507E+04  0.13898189011E+04  0.25500000920E-02 0. -1.
       -2    1    3    3    0  502  0.93111168474E+03  0.15936661881E+02 -0.14704241628E+04  0.17405085938E+04  0.25500000920E-02 0.  1.
</event>
<event>
 5   0  0.1237580E-06  0.3103241E+04  0.7818609E-02  0.8214849E-01
       -2   -1    0    0    0  501  0.00000000000E+00  0.00000000000E+00  0.15245768822E+04  0.15245768822E+04  0.25500000920E-02 0. -1.
        2   -1    0    0  501    0  0.00000000000E+00  0.00000000000E+00 -0.15791439947E+04  0.15791439947E+04  0.25500000920E-02 0.  1.
    10030    2    1    2    0    0  0.00000000000E+00  0.00000000000E+00 -0.54567112508E+02  0.31037208768E+04  0.31032411623E+04 0.  0.
        4    1    3    3  502    0  0.41583557336E+03  0.69133958507E+03  0.12983100150E+04  0.15285549234E+04  0.12699999809E+01 0. -1.
       -4    1    3    3    0  502 -0.41583557336E+03 -0.69133958507E+03 -0.13528771275E+04  0.15751659534E+04  0.12699999809E+01 0.  1.
</event>
<event>
 5   0  0.4219337E-07  0.3102336E+04  0.7818609E-02  0.8215097E-01
       -1   -1    0    0    0  501  0.00000000000E+00  0.00000000000E+00  0.10260229847E+04  0.10260229847E+04  0.50400001928E-02 0. -1.
        1   -1    0    0  501    0  0.00000000000E+00  0.00000000000E+00 -0.23450960774E+04  0.23450960774E+04  0.50400001928E-02 0.  1.
    10030    2    1    2    0    0  0.00000000000E+00  0.00000000000E+00 -0.13190730927E+04  0.33711190621E+04  0.31023362015E+04 0.  0.
        4    1    3    3  502    0  0.12356801021E+04  0.74395863600E+03 -0.39351189355E+02  0.14428894260E+04  0.12699999809E+01 0. -1.
       -4    1    3    3    0  502 -0.12356801021E+04 -0.74395863600E+03 -0.12797219033E+04  0.19282296361E+04  0.12699999809E+01 0.  1.
</event>
<event>
 5   0  0.4330395E-07  0.3108651E+04  0.7818609E-02  0.8213368E-01
       -1   -1    0    0    0  501  0.00000000000E+00  0.00000000000E+00  0.11674288109E+04  0.11674288109E+04  0.50400001928E-02 0. -1.
        1   -1    0    0  501    0  0.00000000000E+00  0.00000000000E+00 -0.20694432810E+04  0.20694432810E+04  0.50400001928E-02 0.  1.
    10030    2    1    2    0    0  0.00000000000E+00  0.00000000000E+00 -0.90201447009E+03  0.32368720919E+04  0.31086509670E+04 0.  0.
        1    1    3    3  502    0 -0.61636285980E+03 -0.13673984613E+03  0.10279026051E+04  0.12063103771E+04  0.50400001928E-02 0. -1.
       -1    1    3    3    0  502  0.61636285980E+03  0.13673984613E+03 -0.19299170751E+04  0.20305617147E+04  0.50400001928E-02 0.  1.
</event>
<event>
 5   0  0.3935852E-07  0.3083683E+04  0.7818609E-02  0.8220230E-01
       -1   -1    0    0    0  501  0.00000000000E+00  0.00000000000E+00  0.13318621238E+04  0.13318621238E+04  0.50400001928E-02 0.  1.
        1   -1    0    0  501    0  0.00000000000E+00  0.00000000000E+00 -0.17849254382E+04  0.17849254382E+04  0.50400001928E-02 0. -1.
    10030    2    1    2    0    0  0.00000000000E+00  0.00000000000E+00 -0.45306331440E+03  0.31167875620E+04  0.30836825939E+04 0.  0.
        5    1    3    3  502    0  0.26215433656E+03 -0.34381048135E+02 -0.17618337851E+04  0.17815687831E+04  0.46999998093E+01 0. -1.
       -5    1    3    3    0  502 -0.26215433656E+03  0.34381048135E+02  0.13087704707E+04  0.13352187789E+04  0.46999998093E+01 0.  1.
</event>
<event>
 5   0  0.4173905E-07  0.3089096E+04  0.7818609E-02  0.8218737E-01
        1   -1    0    0  501    0  0.00000000000E+00  0.00000000000E+00  0.19979352572E+04  0.19979352572E+04  0.50400001928E-02 0.  1.
       -1   -1    0    0    0  501  0.00000000000E+00  0.00000000000E+00 -0.11940470755E+04  0.11940470755E+04  0.50400001928E-02 0. -1.
    10030    2    1    2    0    0  0.00000000000E+00  0.00000000000E+00  0.80388818174E+03  0.31919823327E+04  0.30890961467E+04 0.  0.
        3    1    3    3  502    0  0.96411680891E+03 -0.15252999223E+03 -0.83493777731E+03  0.12844873382E+04  0.10100000352E+00 0. -1.
       -3    1    3    3    0  502 -0.96411680891E+03  0.15252999223E+03  0.16388259590E+04  0.19074949945E+04  0.10100000352E+00 0.  1.
</event>
<event>
 5   0  0.1176002E-06  0.3102568E+04  0.7818609E-02  0.8215033E-01
        2   -1    0    0  501    0  0.00000000000E+00  0.00000000000E+00  0.18505337605E+04  0.18505337605E+04  0.25500000920E-02 0. -1.
       -2   -1    0    0    0  501  0.00000000000E+00  0.00000000000E+00 -0.13004262025E+04  0.13004262025E+04  0.25500000920E-02 0.  1.
    10030    2    1    2    0    0  0.00000000000E+00  0.00000000000E+00  0.55010755808E+03  0.31509599630E+04  0.31025683494E+04 0.  0.
        2    1    3    3  502    0  0.63027332145E+03 -0.13117679372E+04  0.82055622403E+03  0.16707160434E+04  0.25500000920E-02 0. -1.
       -2    1    3    3    0  502 -0.63027332145E+03  0.13117679372E+04 -0.27044866596E+03  0.14802439196E+04  0.25500000920E-02 0.  1.
</event>
<event>
 5   0  0.4219337E-07  0.3094105E+04  0.7818609E-02  0.8217358E-01
        1   -1    0    0  501    0  0.00000000000E+00  0.00000000000E+00  0.12688603334E+04  0.12688603334E+04  0.50400001928E-02 0. -1.
       -1   -1    0    0    0  501  0.00000000000E+00  0.00000000000E+00 -0.18862374598E+04  0.18862374598E+04  0.50400001928E-02 0.  1.
    10030    2    1    2    0    0  0.00000000000E+00  0.00000000000E+00 -0.61737712638E+03  0.31550977933E+04  0.30941052938E+04 0.  0.
        4    1    3    3  502    0  0.10829559800E+04  0.67062635014E+03  0.58659165933E+03  0.14023639841E+04  0.12699999809E+01 0. -1.
       -4    1    3    3    0  502 -0.10829559800E+04 -0.67062635014E+03 -0.12039687857E+04  0.17527338092E+04  0.12699999809E+01 0.  1.
</event>
<event>
 5   0  0.1200286E-06  0.3119024E+04  0.7818609E-02  0.8210536E-01
        2   -1    0    0  501    0  0.00000000000E+00  0.00000000000E+00  0.26856341752E+04  0.26856341752E+04  0.25500000920E-02 0.  1.
       -2   -1    0    0    0  501  0.00000000000E+00  0.00000000000E+00 -0.90558761016E+03  0.90558761017E+03  0.25500000920E-02 0. -1.
    10030    2    1    2    0    0  0.00000000000E+00  0.00000000000E+00  0.17800465650E+04  0.35912217854E+04  0.31190235873E+04 0.  0.
        5    1    3    3  502    0  0.94207758215E+03 -0.52817324044E+03  0.21853162041E+04  0.24376435639E+04  0.46999998093E+01 0.  1.
       -5    1    3    3    0  502 -0.94207758215E+03  0.52817324044E+03 -0.40526963907E+03  0.11535782215E+04  0.46999998093E+01 0. -1.
</event>
<event>
 5   0  0.1237580E-06  0.3075378E+04  0.7818609E-02  0.8222528E-01
        2   -1    0    0  501    0  0.00000000000E+00  0.00000000000E+00  0.20143452749E+04  0.20143452749E+04  0.25500000920E-02 0.  1.
       -2   -1    0    0    0  501  0.00000000000E+00  0.00000000000E+00 -0.11738245654E+04  0.11738245654E+04  0.25500000920E-02 0. -1.
    10030    2    1    2    0    0  0.00000000000E+00  0.00000000000E+00  0.84052070950E+03  0.31881698404E+04  0.30753783292E+04 0.  0.
        4    1    3    3  502    0 -0.53487168642E+03 -0.14238191264E+04  0.18583012344E+03  0.15322803507E+04  0.12699999809E+01 0. -1.
       -4    1    3    3    0  502  0.53487168642E+03  0.14238191264E+04  0.65469058606E+03  0.16558894896E+04  0.12699999809E+01 0.  1.
</event>
<event>
 5   0  0.4330395E-07  0.3093538E+04  0.7818609E-02  0.8217514E-01
       -1   -1    0    0    0  501  0.00000000000E+00  0.00000000000E+00  0.30852575036E+04  0.30852575036E+04  0.50400001928E-02 0.  1.
        1   -1    0    0  501    0  0.00000000000E+00  0.00000000000E+00 -0.77545993184E+03  0.77545993185E+03  0.50400001928E-02 0. -1.
    10030    2    1    2    0    0  0.00000000000E+00  0.00000000000E+00  0.23097975718E+04  0.38607174355E+04  0.30935375049E+04 0.  0.
        1    1    3    3  502    0 -0.52157091605E+03 -0.12132813496E+04  0.21598293381E+04  0.25315905323E+04  0.50400001928E-02 0.  1.
       -1    1    3    3    0  502  0.52157091605E+03  0.12132813496E+04  0.14996823375E+03  0.13291269032E+04  0.50400001928E-02 0. -1.
</event>
<event>
 5   0  0.1200286E-06  0.3043538E+04  0.7818609E-02  0.8231407E-01
       -2   -1    0    0    0  501  0.00000000000E+00  0.00000000000E+00  0.11169838035E+04  0.11169838035E+04  0.25500000920E-02 0. -1.
        2   -1    0    0  501    0  0.00000000000E+00  0.00000000000E+00 -0.20732443836E+04  0.20732443836E+04  0.25500000920E-02 0.  1.
    10030    2    1    2    0    0  0.00000000000E+00  0.00000000000E+00 -0.95626058013E+03  0.31902281870E+04  0.30435376765E+04 0.  0.
        5    1    3    3  502    0 -0.90061268801E+03 -0.72774958164E+03 -0.15131611788E+04  0.19053612546E+04  0.46999998093E+01 0.  1.
       -5    1    3    3    0  502  0.90061268801E+03  0.72774958164E+03  0.55690059866E+03  0.12848669325E+04  0.46999998093E+01 0. -1.
</event>
<event>
 5   0  0.1258262E-06  0.3111303E+04  0.7818609E-02  0.8212643E-01
        2   -1    0    0  501    0  0.00000000000E+00  0.00000000000E+00  0.19227974188E+04  0.19227974188E+04  0.25500000920E-02 0. -1.
       -2   -1    0    0    0  501  0.00000000000E+00  0.00000000000E+00 -0.12586097602E+04  0.12586097602E+04  0.25500000920E-02 0.  1.
    10030    2    1    2    0    0  0.00000000000E+00  0.00000000000E+00  0.66418765864E+03  0.31814071790E+04  0.31113030057E+04 0.  0.
        1    1    3    3  502    0 -0.99359482033E+03  0.46850294952E+03 -0.79423625813E+03  0.13555577872E+04  0.50400001928E-02 0.  1.
       -1    1    3    3    0  502  0.99359482033E+03 -0.46850294952E+03  0.14584239168E+04  0.18258493918E+04  0.50400001928E-02 0. -1.
</event>
<event>
 5   0  0.1193123E-06  0.3099371E+04  0.7818609E-02  0.8215911E-01
        2   -1    0    0  501    0  0.00000000000E+00  0.00000000000E+00  0.24108236540E+04  0.24108236540E+04  0.25500000920E-02 0.  1.
       -2   -1    0    0    0  501  0.00000000000E+00  0.00000000000E+00 -0.99614274517E+03  0.99614274517E+03  0.25500000920E-02 0. -1.
    10030    2    1    2    0    0  0.00000000000E+00  0.00000000000E+00  0.14146809088E+04  0.34069663991E+04  0.30993705766E+04 0.  0.
        3    1    3    3  502    0  0.70292320912E+03 -0.95185536815E+03  0.18073514115E+04  0.21602427675E+04  0.10100000352E+00 0.  1.
       -3    1    3    3    0  502 -0.70292320912E+03  0.95185536815E+03 -0.39267050269E+03  0.12467236316E+04  0.10100000352E+00 0. -1.
</event>
<event>
 5   0  0.4330395E-07  0.3112637E+04  0.7818609E-02  0.8212278E-01
       -1   -1    0    0    0  501  0.00000000000E+00  0.00000000000E+00  0.13514956399E+04  0.13514956399E+04  0.50400001928E-02 0. -1.
        1   -1    0    0  501    0  0.00000000000E+00  0.00000000000E+00 -0.17921831801E+04  0.17921831801E+04  0.50400001928E-02 0.  1.
    10030    2    1    2    0    0  0.00000000000E+00  0.00000000000E+00 -0.44068754023E+03  0.31436788200E+04  0.31126373086E+04 0.  0.
        1    1    3    3  502    0  0.42699848495E+02 -0.49460109256E+03 -0.17100704128E+04  0.17806724389E+04  0.50400001928E-02 0.  1.
       -1    1    3    3    0  502 -0.42699848495E+02  0.49460109256E+03  0.12693828725E+04  0.13630063811E+04  0.50400001928E-02 0. -1.
</event>
<event>
 5   0  0.4134019E-07  0.3125056E+04  0.7818609E-02  0.8208895E-01
        1   -1    0    0  501    0  0.00000000000E+00  0.00000000000E+00  0.19166102626E+04  0.19166102626E+04  0.50400001928E-02 0. -1.
       -1   -1    0    0    0  501  0.00000000000E+00  0.00000000000E+00 -0.12738602993E+04  0.12738602994E+04  0.50400001928E-02 0.  1.
    10030    2    1    2    0    0  0.00000000000E+00  0.00000000000E+00  0.64274996325E+03  0.31904705619E+04  0.31250559821E+04 0.  0.
        2    1    3    3  502    0  0.48442297027E+03  0.11093600818E+04  0.13300583154E+04  0.17984439184E+04  0.25500000920E-02 0.  1.
       -2    1    3    3    0  502 -0.48442297027E+03 -0.11093600818E+04 -0.68730835220E+03  0.13920266435E+04  0.25500000920E-02 0. -1.
</event>
<event>
 5   0  0.1258262E-06  0.3079191E+04  0.7818609E-02  0.8221472E-01
        2   -1    0    0  501    0  0.00000000000E+00  0.00000000000E+00  0.94723894581E+03  0.94723894581E+03  0.25500000920E-02 0.  1.
       -2   -1    0    0    0  501  0.00000000000E+00  0.00000000000E+00 -0.25023831866E+04  0.25023831866E+04  0.25500000920E-02 0. -1.
    10030    2    1    2    0    0  0.00000000000E+00  0.00000000000E+00 -0.15551442408E+04  0.34496221324E+04  0.30791913300E+04 0.  0.
        1    1    3    3  502    0  0.10665057485E+04  0.10994070443E+04 -0.60320611363E+03  0.16462041114E+04  0.50400001928E-02 0.  1.
       -1    1    3    3    0  502 -0.10665057485E+04 -0.10994070443E+04 -0.95193812713E+03  0.18034180210E+04  0.50400001928E-02 0. -1.
</event>
<event>
 5   0  0.1193123E-06  0.3062765E+04  0.7818609E-02  0.8226032E-01
       -2   -1    0    0    0  501  0.00000000000E+00  0.00000000000E+00  0.10420060395E+04  0.10420060396E+04  0.25500000920E-02 0.  1.
        2   -1    0    0  501    0  0.00000000000E+00  0.00000000000E+00 -0.22505940596E+04  0.22505940596E+04  0.25500000920E-02 0. -1.
    10030    2    1    2    0    0  0.00000000000E+00  0.00000000000E+00 -0.12085880201E+04  0.32926000992E+04  0.30627651576E+04 0.  0.
        3    1    3    3  502    0 -0.10785195772E+03 -0.85821853383E+02 -0.22439123282E+04  0.22481414506E+04  0.10100000352E+00 0. -1.
       -3    1    3    3    0  502  0.10785195772E+03  0.85821853383E+02  0.10353243081E+04  0.10444586485E+04  0.10100000352E+00 0.  1.
</event>
<event>
 5   0  0.3935852E-07  0.3031369E+04  0.7818609E-02  0.8234830E-01
       -1   -1    0    0    0  501  0.00000000000E+00  0.00000000000E+00  0.12186437199E+04  0.12186437199E+04  0.50400001928E-02 0. -1.
        1   -1    0    0  501    0  0.00000000000E+00  0.00000000000E+00 -0.18851282075E+04  0.18851282075E+04  0.50400001928E-02 0.  1.
    10030    2    1    2    0    0  0.00000000000E+00  0.00000000000E+00 -0.66648448756E+03  0.31037719274E+04  0.30313690975E+04 0.  0.
        5    1    3    3  502    0  0.53613459612E+03  0.11660923935E+04 -0.11587661155E+04  0.17291537744E+04  0.46999998093E+01 0.  1.
       -5    1    3    3    0  502 -0.53613459612E+03 -0.11660923935E+04  0.49228162793E+03  0.13746181530E+04  0.46999998093E+01 0. -1.
</event>
<event>
 5   0  0.1193123E-06  0.3102959E+04  0.7818609E-02  0.8214926E-01
       -2   -1    0    0    0  501  0.00000000000E+00  0.00000000000E+00  0.20055700360E+04  0.20055700360E+04  0.25500000920E-02 0.  1.
        2   -1    0    0  501    0  0.00000000000E+00  0.00000000000E+00 -0.12002018155E+04  0.12002018155E+04  0.25500000920E-02 0. -1.
    10030    2    1    2    0    0  0.00000000000E+00  0.00000000000E+00  0.80536822050E+03  0.32057718514E+04  0.31029591027E+04 0.  0.
        3    1    3    3  502    0  0.26031055536E+03  0.11020311260E+04 -0.69304892147E+03  0.13276110145E+04  0.10100000352E+00 0. -1.
       -3    1    3    3    0  502 -0.26031055536E+03 -0.11020311260E+04  0.14984171420E+04  0.18781608370E+04  0.10100000352E+00 0.  1.
</event>
<event>
 5   0  0.4219337E-07  0.3091289E+04  0.7818609E-02  0.8218133E-01
        1   -1    0    0  501    0  0.00000000000E+00  0.00000000000E+00  0.14641300378E+04  0.14641300378E+04  0.50400001928E-02 0.  1.
       -1   -1    0    0    0  501  0.00000000000E+00  0.00000000000E+00 -0.16316976539E+04  0.16316976539E+04  0.50400001928E-02 0. -1.
    10030    2    1    2    0    0  0.00000000000E+00  0.00000000000E+00 -0.16756761609E+03  0.30958276917E+04  0.30912894058E+04 0.  0.
        4    1    3    3  502    0 -0.11117370173E+04 -0.13466240441E+03 -0.11506753469E+04  0.16056613982E+04  0.12699999809E+01 0. -1.
       -4    1    3    3    0  502  0.11117370173E+04  0.13466240441E+03  0.98310773085E+03  0.14901662934E+04  0.12699999809E+01 0.  1.
</event>
<event>
 5   0  0.4219337E-07  0.3084273E+04  0.7818609E-02  0.8220067E-01
       -1   -1    0    0    0  501  0.00000000000E+00  0.00000000000E+00  0.16069345834E+04  0.16069345835E+04  0.50400001928E-02 0. -1.
        1   -1    0    0  501    0  0.00000000000E+00  0.00000000000E+00 -0.14799517964E+04  0.14799517964E+04  0.50400001928E-02 0.  1.
    10030    2    1    2    0    0  0.00000000000E+00  0.00000000000E+00  0.12698278704E+03  0.30868863799E+04  0.30842734791E+04 0.  0.
        4    1    3    3  502    0  0.91840051692E+03  0.72875251501E+03  0.10661606341E+04  0.15846891961E+04  0.12699999809E+01 0. -1.
       -4    1    3    3    0  502 -0.91840051692E+03 -0.72875251501E+03 -0.93917784707E+03  0.15021971838E+04  0.12699999809E+01 0.  1.
</event>
<event>
 5   0  0.1193123E-06  0.3092443E+04  0.7818609E-02  0.8217815E-01
       -2   -1    0    0    0  501  0.00000000000E+00  0.00000000000E+00  0.17195537669E+04  0.17195537669E+04  0.25500000920E-02 0.  1.
        2   -1    0    0  501    0  0.00000000000E+00  0.00000000000E+00 -0.13903613068E+04  0.13903613068E+04  0.25500000920E-02 0. -1.
    10030    2    1    2    0    0  0.00000000000E+00  0.00000000000E+00  0.32919246013E+03  0.31099150737E+04  0.30924430617E+04 0.  0.
        3    1    3    3  502    0  0.41116970333E+03  0.79834325420E+03  0.14304328719E+04  0.16889495811E+04  0.10100000352E+00 0.  1.
       -3    1    3    3    0  502 -0.41116970333E+03 -0.79834325420E+03 -0.11012404117E+04  0.14209654926E+04  0.10100000352E+00 0. -1.
</event>
<event>
 5   0  0.3935852E-07  0.2987566E+04  0.7818609E-02  0.8247290E-01
       -1   -1    0    0    0  501  0.00000000000E+00  0.00000000000E+00  0.14173364684E+04  0.14173364685E+04  0.50400001928E-02 0.  1.
        1   -1    0    0  501    0  0.00000000000E+00  0.00000000000E+00 -0.15743526719E+04  0.15743526719E+04  0.50400001928E-02 0. -1.
    10030    2    1    2    0    0  0.00000000000E+00  0.00000000000E+00 -0.15701620347E+03  0.29916891404E+04  0.29875658695E+04 0.  0.
        5    1    3    3  502    0  0.79921800426E+03  0.12366658774E+04  0.17338121697E+03  0.14826243783E+04  0.46999998093E+01 0. -1.
       -5    1    3    3    0  502 -0.79921800426E+03 -0.12366658774E+04 -0.33039742044E+03  0.15090647621E+04  0.46999998093E+01 0.  1.
</event>
<event>
 5   0  0.4330395E-07  0.3107952E+04  0.7818609E-02  0.8213559E-01
        1   -1    0    0  501    0  0.00000000000E+00  0.00000000000E+00  0.21458047758E+04  0.21458047758E+04  0.50400001928E-02 0.  1.
       -1   -1    0    0    0  501  0.00000000000E+00  0.00000000000E+00 -0.11253778112E+04  0.11253778112E+04  0.50400001928E-02 0. -1.
    10030    2    1    2    0    0  0.00000000000E+00  0.00000000000E+00  0.10204269646E+04  0.32711825870E+04  0.31079517898E+04 0.  0.
        1    1    3    3  502    0 -0.12043779913E+04  0.38198126431E+02  0.15430012878E+04  0.19577636264E+04  0.50400001928E-02 0.  1.
       -1    1    3    3    0  502  0.12043779913E+04 -0.38198126431E+02 -0.52257432324E+03  0.13134189606E+04  0.50400001928E-02 0. -1.
</event>
<event>
 5   0  0.4219337E-07  0.3145077E+04  0.7818609E-02  0.8203475E-01
       -1   -1    0    0    0  501  0.00000000000E+00  0.00000000000E+00  0.10478340356E+04  0.10478340356E+04  0.50400001928E-02 0.  1.
        1   -1    0    0  501    0  0.00000000000E+00  0.00000000000E+00 -0.23599896048E+04  0.23599896048E+04  0.50400001928E-02 0. -1.
    10030    2    1    2    0    0  0.00000000000E+00  0.00000000000E+00 -0.13121555692E+04  0.34078236405E+04  0.31450770621E+04 0.  0.
        4    1    3    3  502    0  0.11446377767E+04 -0.30814971990E+02  0.51180306629E+03  0.12542285254E+04  0.12699999809E+01 0.  1.
       -4    1    3    3    0  502 -0.11446377767E+04  0.30814971990E+02 -0.18239586355E+04  0.21535951150E+04  0.12699999809E+01 0. -1.
</event>
<event>
 5   0  0.1176002E-06  0.3104046E+04  0.7818609E-02  0.8214628E-01
       -2   -1    0    0    0  501  0.00000000000E+00  0.00000000000E+00  0.13802586232E+04  0.13802586232E+04  0.25500000920E-02 0.  1.
        2   -1    0    0  501    0  0.00000000000E+00  0.00000000000E+00 -0.17451628420E+04  0.17451628420E+04  0.25500000920E-02 0. -1.
    10030    2    1    2    0    0  0.00000000000E+00  0.00000000000E+00 -0.36490421882E+03  0.31254214652E+04  0.31040464311E+04 0.  0.
        2    1    3    3  502    0 -0.87549106685E+03 -0.75208959326E+03  0.86231188695E+03  0.14407307711E+04  0.25500000920E-02 0.  1.
       -2    1    3    3    0  502  0.87549106685E+03  0.75208959326E+03 -0.12272161058E+04  0.16846906941E+04  0.25500000920E-02 0. -1.
</event>
<event>
 5   0  0.1176002E-06  0.3076831E+04  0.7818609E-02  0.8222125E-01
        2   -1    0    0  501    0  0.00000000000E+00  0.00000000000E+00  0.18277678815E+04  0.18277678815E+04  0.25500000920E-02 0.  1.
       -2   -1    0    0    0  501  0.00000000000E+00  0.00000000000E+00 -0.12948698408E+04  0.12948698408E+04  0.25500000920E-02 0. -1.
    10030    2    1    2    0    0  0.00000000000E+00  0.00000000000E+00  0.53289804067E+03  0.31226377223E+04  0.30768305158E+04 0.  0.
        2    1    3    3  502    0 -0.15072158326E+04  0.23541833845E+03  0.64488528672E+02  0.15268530153E+04  0.25500000920E-02 0.  1.
       -2    1    3    3    0  502  0.15072158326E+04 -0.23541833845E+03  0.46840951200E+03  0.15957847070E+04  0.25500000920E-02 0. -1.
</event>
<event>
 5   0  0.1176002E-06  0.3288831E+04  0.7818609E-02  0.8165743E-01
        2   -1    0    0  501    0  0.00000000000E+00  0.00000000000E+00  0.22085292512E+04  0.22085292512E+04  0.25500000920E-02 0.  1.
       -2   -1    0    0    0  501  0.00000000000E+00  0.00000000000E+00 -0.12243906649E+04  0.12243906649E+04  0.25500000920E-02 0. -1.
    10030    2    1    2    0    0  0.00000000000E+00  0.00000000000E+00  0.98413858632E+03  0.34329199160E+04  0.32888311591E+04 0.  0.
        2    1    3    3  502    0 -0.20229276244E+03 -0.32810657346E+02  0.21951474472E+04  0.22046929981E+04  0.25500000920E-02 0.  1.
       -2    1    3    3    0  502  0.20229276244E+03  0.32810657346E+02 -0.12110088608E+04  0.12282269180E+04  0.25500000920E-02 0. -1.
</event>
<event>
 5   0  0.4134019E-07  0.3082017E+04  0.7818609E-02  0.8220691E-01
       -1   -1    0    0    0  501  0.00000000000E+00  0.00000000000E+00  0.10086895758E+04  0.10086895758E+04  0.50400001928E-02 0. -1.
        1   -1    0    0  501    0  0.00000000000E+00  0.00000000000E+00 -0.23542496553E+04  0.23542496554E+04  0.50400001928E-02 0.  1.
    10030    2    1    2    0    0  0.00000000000E+00  0.00000000000E+00 -0.13455600796E+04  0.33629392312E+04  0.30820169280E+04 0.  0.
        2    1    3    3  502    0  0.12480367496E+04 -0.16042754288E+03  0.29789751597E+03  0.12930876439E+04  0.25500000920E-02 0. -1.
       -2    1    3    3    0  502 -0.12480367496E+04  0.16042754288E+03 -0.16434575955E+04  0.20698515872E+04  0.25500000920E-02 0.  1.
</event>
<event>
 5   0  0.4219337E-07  0.3100854E+04  0.7818609E-02  0.8215504E-01
        1   -1    0    0  501    0  0.00000000000E+00  0.00000000000E+00  0.18512587795E+04  0.18512587795E+04  0.50400001928E-02 0. -1.
       -1   -1    0    0    0  501  0.00000000000E+00  0.00000000000E+00 -0.12984803571E+04  0.12984803571E+04  0.50400001928E-02 0.  1.
    10030    2    1    2    0    0  0.00000000000E+00  0.00000000000E+00  0.55277842240E+03  0.31497391367E+04  0.31008535349E+04 0.  0.
        4    1    3    3  502    0 -0.10865135132E+04 -0.93521178430E+03  0.87619736459E+03  0.16801357476E+04  0.12699999809E+01 0. -1.
       -4    1    3    3    0  502  0.10865135132E+04  0.93521178430E+03 -0.32341894219E+03  0.14696033890E+04  0.12699999809E+01 0.  1.
</event>
<event>
 5   0  0.4173905E-07  0.3096214E+04  0.7818609E-02  0.8216778E-01
       -1   -1    0    0    0  501  0.00000000000E+00  0.00000000000E+00  0.23359412422E+04  0.23359412422E+04  0.50400001928E-02 0. -1.
        1   -1    0    0  501    0  0.00000000000E+00  0.00000000000E+00 -0.10259826443E+04  0.10259826443E+04  0.50400001928E-02 0.  1.
    10030    2    1    2    0    0  0.00000000000E+00  0.00000000000E+00  0.13099585979E+04  0.33619238865E+04  0.30962139284E+04 0.  0.
        3    1    3    3  502    0  0.14859274353E+04 -0.80910707513E+02  0.19161586427E+03  0.15004144544E+04  0.10100000352E+00 0.  1.
       -3    1    3    3    0  502 -0.14859274353E+04  0.80910707513E+02  0.11183427336E+04  0.18615094320E+04  0.10100000352E+00 0. -1.
</event>
<event>
 5   0  0.1200286E-06  0.3113571E+04  0.7818609E-02  0.8212023E-01
        2   -1    0    0  501    0  0.00000000000E+00  0.00000000000E+00  0.14953525802E+04  0.14953525802E+04  0.25500000920E-02 0. -1.
       -2   -1    0    0    0  501  0.00000000000E+00  0.00000000000E+00 -0.16207422971E+04  0.16207422971E+04  0.25500000920E-02 0.  1.
    10030    2    1    2    0    0  0.00000000000E+00  0.00000000000E+00 -0.12538971685E+03  0.31160948773E+04  0.31135710531E+04 0.  0.
        5    1    3    3  502    0 -0.17505483777E+03 -0.13921747854E+04  0.61221388240E+03  0.15308895313E+04  0.46999998093E+01 0. -1.
       -5    1    3    3    0  502  0.17505483777E+03  0.13921747854E+04 -0.73760359925E+03  0.15852053460E+04  0.46999998093E+01 0.  1.
</event>
<event>
 5   0  0.4219337E-07  0.3092036E+04  0.7818609E-02  0.8217927E-01
        1   -1    0    0  501    0  0.00000000000E+00  0.00000000000E+00  0.10794220261E+04  0.10794220261E+04  0.50400001928E-02 0. -1.
       -1   -1    0    0    0  501  0.00000000000E+00  0.00000000000E+00 -0.22143064054E+04  0.22143064054E+04  0.50400001928E-02 0.  1.
    10030    2    1    2    0    0  0.00000000000E+00  0.00000000000E+00 -0.11348843793E+04  0.32937284315E+04  0.30920356443E+04 0.  0.
        4    1    3    3  502    0  0.12635150085E+03 -0.28219195416E+03 -0.21810358853E+04  0.22028427422E+04  0.12699999809E+01 0.  1.
       -4    1    3    3    0  502 -0.12635150085E+03  0.28219195416E+03  0.10461515060E+04  0.10908856893E+04  0.12699999809E+01 0. -1.
</event>
<event>
 5   0  0.1200286E-06  0.3085712E+04  0.7818609E-02  0.8219670E-01
        2   -1    0    0  501    0  0.00000000000E+00  0.00000000000E+00  0.23617012698E+04  0.23617012698E+04  0.25500000920E-02 0.  1.
       -2   -1    0    0    0  501  0.00000000000E+00  0.00000000000E+00 -0.10079193114E+04  0.10079193114E+04  0.25500000920E-02 0. -1.
    10030    2    1    2    0    0  0.00000000000E+00  0.00000000000E+00  0.13537819584E+04  0.33696205811E+04  0.30857117931E+04 0.  0.
        5    1    3    3  502    0 -0.59237796257E+03  0.13386057697E+04  0.14459451043E+03  0.14709543568E+04  0.46999998093E+01 0. -1.
       -5    1    3    3    0  502  0.59237796257E+03 -0.13386057697E+04  0.12091874480E+04  0.18986662244E+04  0.46999998093E+01 0.  1.
</event>
<event>
 5   0  0.4219337E-07  0.3100409E+04  0.7818609E-02  0.8215626E-01
        1   -1    0    0  501    0  0.00000000000E+00  0.00000000000E+00  0.16179235608E+04  0.16179235608E+04  0.50400001928E-02 0.  1.
       -1   -1    0    0    0  501  0.00000000000E+00  0.00000000000E+00 -0.14853198435E+04  0.14853198435E+04  0.50400001928E-02 0. -1.
    10030    2    1    2    0    0  0.00000000000E+00  0.00000000000E+00  0.13260371736E+03  0.31032434043E+04  0.31004089860E+04 0.  0.
        4    1    3    3  502    0  0.11844828288E+04  0.75464540792E+03  0.72313581670E+03  0.15796886673E+04  0.12699999809E+01 0.  1.
       -4    1    3    3    0  502 -0.11844828288E+04 -0.75464540792E+03 -0.59053209934E+03  0.15235547370E+04  0.12699999809E+01 0. -1.
</event>
<event>
 5   0  0.3935852E-07  0.3092212E+04  0.7818609E-02  0.8217878E-01
        1   -1    0    0  501    0  0.00000000000E+00  0.00000000000E+00  0.15973611116E+04  0.15973611116E+04  0.50400001928E-02 0. -1.
       -1   -1    0    0    0  501  0.00000000000E+00  0.00000000000E+00 -0.14964957984E+04  0.14964957984E+04  0.50400001928E-02 0.  1.
    10030    2    1    2    0    0  0.00000000000E+00  0.00000000000E+00  0.10086531319E+03  0.30938569101E+04  0.30922122774E+04 0.  0.
        5    1    3    3  502    0 -0.49883665479E+03 -0.14066787823E+04  0.45418029991E+03  0.15600913561E+04  0.46999998093E+01 0.  1.
       -5    1    3    3    0  502  0.49883665479E+03  0.14066787823E+04 -0.35331498671E+03  0.15337655540E+04  0.46999998093E+01 0. -1.
</event>
<event>
 5   0  0.4173905E-07  0.3098453E+04  0.7818609E-02  0.8216163E-01
       -1   -1    0    0    0  501  0.00000000000E+00  0.00000000000E+00  0.10953645320E+04  0.10953645320E+04  0.50400001928E-02 0. -1.
        1   -1    0    0  501    0  0.00000000000E+00  0.00000000000E+00 -0.21911449334E+04  0.21911449334E+04  0.50400001928E-02 0.  1.
    10030    2    1    2    0    0  0.00000000000E+00  0.00000000000E+00 -0.10957804014E+04  0.32865094654E+04  0.30984528039E+04 0.  0.
        3    1    3    3  502    0 -0.26584724264E+03  0.43654327304E+03 -0.20991371581E+04  0.21604679133E+04  0.10100000352E+00 0.  1.
       -3    1    3    3    0  502  0.26584724264E+03 -0.43654327304E+03  0.10033567567E+04  0.11260415521E+04  0.10100000352E+00 0. -1.
</event>
<event>
 5   0  0.4173905E-07  0.3098902E+04  0.7818609E-02  0.8216039E-01
       -1   -1    0    0    0  501  0.00000000000E+00  0.00000000000E+00  0.12338033986E+04  0.12338033986E+04  0.50400001928E-02 0. -1.
        1   -1    0    0  501    0  0.00000000000E+00  0.00000000000E+00 -0.19458513171E+04  0.19458513171E+04  0.50400001928E-02 0.  1.
    10030    2    1    2    0    0  0.00000000000E+00  0.00000000000E+00 -0.71204791854E+03  0.31796547157E+04  0.30989017204E+04 0.  0.
        3    1    3    3  502    0 -0.12332288620E+04  0.66231199396E+03 -0.10376291669E+04  0.17424651795E+04  0.10100000352E+00 0.  1.
       -3    1    3    3    0  502  0.12332288620E+04 -0.66231199396E+03  0.32558124839E+03  0.14371895362E+04  0.10100000352E+00 0. -1.
</event>
<event>
 5   0  0.1237580E-06  0.3046877E+04  0.7818609E-02  0.8230470E-01
       -2   -1    0    0    0  501  0.00000000000E+00  0.00000000000E+00  0.94767394250E+03  0.94767394250E+03  0.25500000920E-02 0.  1.
        2   -1    0    0  501    0  0.00000000000E+00  0.00000000000E+00 -0.24490127950E+04  0.24490127950E+04  0.25500000920E-02 0. -1.
    10030    2    1    2    0    0  0.00000000000E+00  0.00000000000E+00 -0.15013388525E+04  0.33966867375E+04  0.30468774906E+04 0.  0.
        4    1    3    3  502    0 -0.13547284684E+04 -0.69570632596E+03 -0.70653252266E+03  0.16788348143E+04  0.12699999809E+01 0.  1.
       -4    1    3    3    0  502  0.13547284684E+04  0.69570632596E+03 -0.79480632982E+03  0.17178519232E+04  0.12699999809E+01 0. -1.
</event>
<event>
 5   0  0.1176002E-06  0.3234336E+04  0.7818609E-02  0.8179807E-01
        2   -1    0    0  501    0  0.00000000000E+00  0.00000000000E+00  0.30671291160E+04  0.30671291160E+04  0.25500000920E-02 0. -1.
       -2   -1    0    0    0  501  0.00000000000E+00  0.00000000000E+00 -0.85266473625E+03  0.85266473625E+03  0.25500000920E-02 0.  1.
    10030    2    1    2    0    0  0.00000000000E+00  0.00000000000E+00  0.22144643797E+04  0.39197938522E+04  0.32343363082E+04 0.  0.
        2    1    3    3  502    0  0.50703779217E+02 -0.44556010254E+03  0.29902703095E+04  0.30237081873E+04  0.25500000920E-02 0. -1.
       -2    1    3    3    0  502 -0.50703779217E+02  0.44556010254E+03 -0.77580592976E+03  0.89608566491E+03  0.25500000920E-02 0.  1.
</event>
<event>
 5   0  0.4173905E-07  0.3108057E+04  0.7818609E-02  0.8213530E-01
        1   -1    0    0  501    0  0.00000000000E+00  0.00000000000E+00  0.12008530278E+04  0.12008530278E+04  0.50400001928E-02 0.  1.
       -1   -1    0    0    0  501  0.00000000000E+00  0.00000000000E+00 -0.20110744645E+04  0.20110744645E+04  0.50400001928E-02 0. -1.
    10030    2    1    2    0    0  0.00000000000E+00  0.00000000000E+00 -0.81022143676E+03  0.32119274923E+04  0.31080571808E+04 0.  0.
        3    1    3    3  502    0  0.10785278224E+04 -0.96220307538E+03  0.18488760581E+03  0.14571343311E+04  0.10100000352E+00 0.  1.
       -3    1    3    3    0  502 -0.10785278224E+04  0.96220307538E+03 -0.99510904257E+03  0.17547931612E+04  0.10100000352E+00 0. -1.
</event>
<event>
 5   0  0.1193123E-06  0.3118923E+04  0.7818609E-02  0.8210564E-01
        2   -1    0    0  501    0  0.00000000000E+00  0.00000000000E+00  0.25790527665E+04  0.25790527665E+04  0.25500000920E-02 0.  1.
       -2   -1    0    0    0  501  0.00000000000E+00  0.00000000000E+00 -0.94295084985E+03  0.94295084985E+03  0.25500000920E-02 0. -1.
    10030    2    1    2    0    0  0.00000000000E+00  0.00000000000E+00  0.16361019167E+04  0.35220036164E+04  0.31189228897E+04 0.  0.
        3    1    3    3  502    0 -0.37770984904E+03 -0.84846958732E+03  0.22326902114E+04  0.24181544535E+04  0.10100000352E+00 0.  1.
       -3    1    3    3    0  502  0.37770984904E+03  0.84846958732E+03 -0.59658829477E+03  0.11038491628E+04  0.10100000352E+00 0. -1.
</event>
<event>
 5   0  0.4330395E-07  0.3120787E+04  0.7818609E-02  0.8210056E-01
        1   -1    0    0  501    0  0.00000000000E+00  0.00000000000E+00  0.24644738748E+04  0.24644738748E+04  0.50400001928E-02 0. -1.
       -1   -1    0    0    0  501  0.00000000000E+00  0.00000000000E+00 -0.98797049745E+03  0.98797049747E+03  0.50400001928E-02 0.  1.
    10030    2    1    2    0    0  0.00000000000E+00  0.00000000000E+00  0.14765033773E+04  0.34524443722E+04  0.31207867470E+04 0.  0.
        1    1    3    3  502    0  0.84186605537E+03  0.67848181793E+03 -0.50636841917E+03  0.11939367690E+04  0.50400001928E-02 0.  1.
       -1    1    3    3    0  502 -0.84186605537E+03 -0.67848181793E+03  0.19828717965E+04  0.22585076032E+04  0.50400001928E-02 0. -1.
</event>
<event>
 5   0  0.4219337E-07  0.3062087E+04  0.7818609E-02  0.8226220E-01
       -1   -1    0    0    0  501  0.00000000000E+00  0.00000000000E+00  0.16833105099E+04  0.16833105099E+04  0.50400001928E-02 0. -1.
        1   -1    0    0  501    0  0.00000000000E+00  0.00000000000E+00 -0.13925501748E+04  0.13925501748E+04  0.50400001928E-02 0.  1.
    10030    2    1    2    0    0  0.00000000000E+00  0.00000000000E+00  0.29076033507E+03  0.30758606847E+04  0.30620870954E+04 0.  0.
        4    1    3    3  502    0 -0.94488414848E+03  0.94241222997E+02 -0.10610238422E+04  0.14238892755E+04  0.12699999809E+01 0.  1.
       -4    1    3    3    0  502  0.94488414848E+03 -0.94241222997E+02  0.13517841773E+04  0.16519714093E+04  0.12699999809E+01 0. -1.
</event>
<event>
 5   0  0.3935852E-07  0.3089020E+04  0.7818609E-02  0.8218758E-01
       -1   -1    0    0    0  501  0.00000000000E+00  0.00000000000E+00  0.10010733484E+04  0.10010733485E+04  0.50400001928E-02 0.  1.
        1   -1    0    0  501    0  0.00000000000E+00  0.00000000000E+00 -0.23829526389E+04  0.23829526389E+04  0.50400001928E-02 0. -1.
    10030    2    1    2    0    0  0.00000000000E+00  0.00000000000E+00 -0.13818792905E+04  0.33840259874E+04  0.30890195062E+04 0.  0.
        5    1    3    3  502    0  0.15391004301E+04 -0.16154121267E+02 -0.83122032315E+03  0.17492971175E+04  0.46999998093E+01 0. -1.
       -5    1    3    3    0  502 -0.15391004301E+04  0.16154121267E+02 -0.55065896734E+03  0.16347288699E+04  0.46999998093E+01 0.  1.
</event>
<event>
 5   0  0.1193123E-06  0.3089103E+04  0.7818609E-02  0.8218735E-01
        2   -1    0    0  501    0  0.00000000000E+00  0.00000000000E+00  0.18179967568E+04  0.18179967568E+04  0.25500000920E-02 0. -1.
       -2   -1    0    0    0  501  0.00000000000E+00  0.00000000000E+00 -0.13122356238E+04  0.13122356238E+04  0.25500000920E-02 0.  1.
    10030    2    1    2    0    0  0.00000000000E+00  0.00000000000E+00  0.50576113294E+03  0.31302323806E+04  0.30891034999E+04 0.  0.
        3    1    3    3  502    0 -0.10231363599E+03  0.13317233500E+04 -0.53313055275E+03  0.14381179915E+04  0.10100000352E+00 0. -1.
       -3    1    3    3    0  502  0.10231363599E+03 -0.13317233500E+04  0.10388916857E+04  0.16921143891E+04  0.10100000352E+00 0.  1.
</event>
<event>
 5   0  0.4330395E-07  0.3105340E+04  0.7818609E-02  0.8214274E-01
       -1   -1    0    0    0  501  0.00000000000E+00  0.00000000000E+00  0.92306622965E+03  0.92306622966E+03  0.50400001928E-02 0.  1.
        1   -1    0    0  501    0  0.00000000000E+00  0.00000000000E+00 -0.26117126575E+04  0.26117126575E+04  0.50400001928E-02 0. -1.
    10030    2    1    2    0    0  0.00000000000E+00  0.00000000000E+00 -0.16886464278E+04  0.35347788872E+04  0.31053397596E+04 0.  0.
        1    1    3    3  502    0  0.10999972777E+04  0.97133858450E+03 -0.26693819736E+03  0.14915591366E+04  0.50400001928E-02 0. -1.
       -1    1    3    3    0  502 -0.10999972777E+04 -0.97133858450E+03 -0.14217082305E+04  0.20432197506E+04  0.50400001928E-02 0.  1.
</event>
<event>
 5   0  0.1258262E-06  0.3108368E+04  0.7818609E-02  0.8213445E-01
       -2   -1    0    0    0  501  0.00000000000E+00  0.00000000000E+00  0.17699431103E+04  0.17699431103E+04  0.25500000920E-02 0. -1.
        2   -1    0    0  501    0  0.00000000000E+00  0.00000000000E+00 -0.13647259375E+04  0.13647259375E+04  0.25500000920E-02 0.  1.
    10030    2    1    2    0    0  0.00000000000E+00  0.00000000000E+00  0.40521717285E+03  0.31346690478E+04  0.31083675912E+04 0.  0.
        1    1    3    3  502    0 -0.82348018495E+03 -0.11487418608E+04 -0.44920385068E+03  0.14830750410E+04  0.50400001928E-02 0.  1.
       -1    1    3    3    0  502  0.82348018495E+03  0.11487418608E+04  0.85442102353E+03  0.16515940068E+04  0.50400001928E-02 0. -1.
</event>
<event>
 5   0  0.4219337E-07  0.3081028E+04  0.7818609E-02  0.8220964E-01
        1   -1    0    0  501    0  0.00000000000E+00  0.00000000000E+00  0.31266065276E+04  0.31266065276E+04  0.50400001928E-02 0. -1.
       -1   -1    0    0    0  501  0.00000000000E+00  0.00000000000E+00 -0.75902839166E+03  0.75902839168E+03  0.50400001928E-02 0.  1.
    10030    2    1    2    0    0  0.00000000000E+00  0.00000000000E+00  0.23675781359E+04  0.38856349192E+04  0.30810278311E+04 0.  0.
        4    1    3    3  502    0 -0.10255425320E+04  0.18961366839E+03 -0.24609503780E+03  0.10715667076E+04  0.12699999809E+01 0.  1.
       -4    1    3    3    0  502  0.10255425320E+04 -0.18961366839E+03  0.26136731737E+04  0.28140682117E+04  0.12699999809E+01 0. -1.
</event>
<event>
 5   0  0.3935852E-07  0.3071546E+04  0.7818609E-02  0.8223590E-01
       -1   -1    0    0    0  501  0.00000000000E+00  0.00000000000E+00  0.14260059367E+04  0.14260059367E+04  0.50400001928E-02 0. -1.
        1   -1    0    0  501    0  0.00000000000E+00  0.00000000000E+00 -0.16539897605E+04  0.16539897605E+04  0.50400001928E-02 0.  1.
    10030    2    1    2    0    0  0.00000000000E+00  0.00000000000E+00 -0.22798382387E+03  0.30799956972E+04  0.30715463322E+04 0.  0.
        5    1    3    3  502    0 -0.53375824091E+03 -0.13029591805E+04 -0.72884799105E+03  0.15855100031E+04  0.46999998093E+01 0.  1.
       -5    1    3    3    0  502  0.53375824091E+03  0.13029591805E+04  0.50086416718E+03  0.14944856941E+04  0.46999998093E+01 0. -1.
</event>
<event>
 5   0  0.4134019E-07  0.3094783E+04  0.7818609E-02  0.8217171E-01
        1   -1    0    0  501    0  0.00000000000E+00  0.00000000000E+00  0.18438344030E+04  0.18438344030E+04  0.50400001928E-02 0. -1.
       -1   -1    0    0    0  501  0.00000000000E+00  0.00000000000E+00 -0.12986091522E+04  0.12986091522E+04  0.50400001928E-02 0.  1.
    10030    2    1    2    0    0  0.00000000000E+00  0.00000000000E+00  0.54522525083E+03  0.31424435552E+04  0.30947828556E+04 0.  0.
        2    1    3    3  502    0 -0.14748105623E+04 -0.39259684892E+02  0.74650412195E+03  0.16534436554E+04  0.25500000920E-02 0.  1.
       -2    1    3    3    0  502  0.14748105623E+04  0.39259684892E+02 -0.20127887112E+03  0.14889998998E+04  0.25500000920E-02 0. -1.
</event>
<event>
 5   0  0.4219337E-07  0.3100892E+04  0.7818609E-02  0.8215493E-01
        1   -1    0    0  501    0  0.00000000000E+00  0.00000000000E+00  0.19255060511E+04  0.19255060511E+04  0.50400001928E-02 0.  1.
       -1   -1    0    0    0  501  0.00000000000E+00  0.00000000000E+00 -0.12484418878E+04  0.12484418878E+04  0.50400001928E-02 0. -1.
    10030    2    1    2    0    0  0.00000000000E+00  0.00000000000E+00  0.67706416334E+03  0.31739479389E+04  0.31008917488E+04 0.  0.
        4    1    3    3  502    0 -0.35881119311E+03  0.33652323204E+03 -0.11664444669E+04  0.12659335153E+04  0.12699999809E+01 0. -1.
       -4    1    3    3    0  502  0.35881119311E+03 -0.33652323204E+03  0.18435086302E+04  0.19080144236E+04  0.12699999809E+01 0.  1.
</event>
<event>
 5   0  0.3935852E-07  0.3099527E+04  0.7818609E-02  0.8215868E-01
        1   -1    0    0  501    0  0.00000000000E+00  0.00000000000E+00  0.14727146603E+04  0.14727146603E+04  0.50400001928E-02 0. -1.
       -1   -1    0    0    0  501  0.00000000000E+00  0.00000000000E+00 -0.16308437070E+04  0.16308437070E+04  0.50400001928E-02 0.  1.
    10030    2    1    2    0    0  0.00000000000E+00  0.00000000000E+00 -0.15812904666E+03  0.31035583673E+04  0.30995273420E+04 0.  0.
        5    1    3    3  502    0 -0.56550538249E+03 -0.12185924231E+04  0.69458611359E+03  0.15123609987E+04  0.46999998093E+01 0. -1.
       -5    1    3    3    0  502  0.56550538249E+03  0.12185924231E+04 -0.85271516025E+03  0.15911973686E+04  0.46999998093E+01 0.  1.
</event>
<event>
 5   0  0.1176002E-06  0.3107323E+04  0.7818609E-02  0.8213731E-01
       -2   -1    0    0    0  501  0.00000000000E+00  0.00000000000E+00  0.95741977074E+03  0.95741977075E+03  0.25500000920E-02 0.  1.
        2   -1    0    0  501    0  0.00000000000E+00  0.00000000000E+00 -0.25212176789E+04  0.25212176789E+04  0.25500000920E-02 0. -1.
    10030    2    1    2    0    0  0.00000000000E+00  0.00000000000E+00 -0.15637979081E+04  0.34786374496E+04  0.31073227397E+04 0.  0.
        2    1    3    3  502    0  0.18440210490E+03  0.14654662251E+04 -0.24236629705E+03  0.14967754726E+04  0.25500000920E-02 0.  1.
       -2    1    3    3    0  502 -0.18440210490E+03 -0.14654662251E+04 -0.13214316111E+04  0.19818619771E+04  0.25500000920E-02 0. -1.
</event>
<event>
 5   0  0.4330395E-07  0.2984839E+04  0.7818609E-02  0.8248074E-01
        1   -1    0    0  501    0  0.00000000000E+00  0.00000000000E+00  0.14293217857E+04  0.14293217857E+04  0.50400001928E-02 0. -1.
       -1   -1    0    0    0  501  0.00000000000E+00  0.00000000000E+00 -0.15583021888E+04  0.15583021888E+04  0.50400001928E-02 0.  1.
    10030    2    1    2    0    0  0.00000000000E+00  0.00000000000E+00 -0.12898040307E+03  0.29876239746E+04  0.29848385332E+04 0.  0.
        1    1    3    3  502    0 -0.10751819043E+04 -0.10163442318E+04 -0.26048800748E+03  0.15022735193E+04  0.50400001928E-02 0.  1.
       -1    1    3    3    0  502  0.10751819043E+04  0.10163442318E+04  0.13150760441E+03  0.14853504552E+04  0.50400001928E-02 0. -1.
</event>
<event>
 5   0  0.4330395E-07  0.3094644E+04  0.7818609E-02  0.8217209E-01
        1   -1    0    0  501    0  0.00000000000E+00  0.00000000000E+00  0.18457242932E+04  0.18457242932E+04  0.50400001928E-02 0. -1.
       -1   -1    0    0    0  501  0.00000000000E+00  0.00000000000E+00 -0.12971631237E+04  0.12971631237E+04  0.50400001928E-02 0.  1.
    10030    2    1    2    0    0  0.00000000000E+00  0.00000000000E+00  0.54856116950E+03  0.31428874170E+04  0.30946440763E+04 0.  0.
        1    1    3    3  502    0 -0.71520178668E+03 -0.11963108891E+04  0.95671741474E+03  0.16905565802E+04  0.50400001928E-02 0.  1.
       -1    1    3    3    0  502  0.71520178668E+03  0.11963108891E+04 -0.40815624525E+03  0.14523308368E+04  0.50400001928E-02 0. -1.
</event>
<event>
 5   0  0.4330395E-07  0.3091638E+04  0.7818609E-02  0.8218036E-01
        1   -1    0    0  501    0  0.00000000000E+00  0.00000000000E+00  0.14527990898E+04  0.14527990898E+04  0.50400001928E-02 0. -1.
       -1   -1    0    0    0  501  0.00000000000E+00  0.00000000000E+00 -0.16447952233E+04  0.16447952234E+04  0.50400001928E-02 0.  1.
    10030    2    1    2    0    0  0.00000000000E+00  0.00000000000E+00 -0.19199613353E+03  0.30975943132E+04  0.30916384028E+04 0.  0.
        1    1    3    3  502    0 -0.27646751850E+03  0.84403588065E+03  0.11716373499E+04  0.14702261514E+04  0.50400001928E-02 0. -1.
       -1    1    3    3    0  502  0.27646751850E+03 -0.84403588065E+03 -0.13636334835E+04  0.16273681617E+04  0.50400001928E-02 0.  1.
</event>
<event>
 5   0  0.1237580E-06  0.3087060E+04  0.7818609E-02  0.8219298E-01
       -2   -1    0    0    0  501  0.00000000000E+00  0.00000000000E+00  0.14709678042E+04  0.14709678042E+04  0.25500000920E-02 0.  1.
        2   -1    0    0  501    0  0.00000000000E+00  0.00000000000E+00 -0.16196713015E+04  0.16196713015E+04  0.25500000920E-02 0. -1.
    10030    2    1    2    0    0  0.00000000000E+00  0.00000000000E+00 -0.14870349735E+03  0.30906391057E+04  0.30870596612E+04 0.  0.
        4    1    3    3  502    0 -0.11493533663E+03  0.60903005628E+03 -0.14896226960E+04  0.16134141224E+04  0.12699999809E+01 0. -1.
       -4    1    3    3    0  502  0.11493533663E+03 -0.60903005628E+03  0.13409191987E+04  0.14772249833E+04  0.12699999809E+01 0.  1.
</event>
<event>
 5   0  0.4173905E-07  0.3088346E+04  0.7818609E-02  0.8218944E-01
       -1   -1    0    0    0  501  0.00000000000E+00  0.00000000000E+00  0.13319441175E+04  0.13319441176E+04  0.50400001928E-02 0.  1.
        1   -1    0    0  501    0  0.00000000000E+00  0.00000000000E+00 -0.17902177073E+04  0.17902177073E+04  0.50400001928E-02 0. -1.
    10030    2    1    2    0    0  0.00000000000E+00  0.00000000000E+00 -0.45827358979E+03  0.31221618249E+04  0.30883457996E+04 0.  0.
        3    1    3    3  502    0  0.52476827581E+03  0.13463494249E+04  0.32127990531E+03  0.14802902772E+04  0.10100000352E+00 0. -1.
       -3    1    3    3    0  502 -0.52476827581E+03 -0.13463494249E+04 -0.77955349511E+03  0.16418715477E+04  0.10100000352E+00 0.  1.
</event>
<event>
 5   0  0.1237580E-06  0.3083759E+04  0.7818609E-02  0.8220209E-01
       -2   -1    0    0    0  501  0.00000000000E+00  0.00000000000E+00  0.12098109438E+04  0.12098109438E+04  0.25500000920E-02 0. -1.
        2   -1    0    0  501    0  0.00000000000E+00  0.00000000000E+00 -0.19650939515E+04  0.19650939515E+04  0.25500000920E-02 0.  1.
    10030    2    1    2    0    0  0.00000000000E+00  0.00000000000E+00 -0.75528300774E+03  0.31749048953E+04  0.30837588545E+04 0.  0.
        4    1    3    3  502    0 -0.14001066834E+04 -0.23858661475E+03  0.24023691767E+03  0.14404643998E+04  0.12699999809E+01 0. -1.
       -4    1    3    3    0  502  0.14001066834E+04  0.23858661475E+03 -0.99551992541E+03  0.17344404955E+04  0.12699999809E+01 0.  1.
</event>
<event>
 5   0  0.1193123E-06  0.3099444E+04  0.7818609E-02  0.8215890E-01
       -2   -1    0    0    0  501  0.00000000000E+00  0.00000000000E+00  0.18265150061E+04  0.18265150061E+04  0.25500000920E-02 0.  1.
        2   -1    0    0  501    0  0.00000000000E+00  0.00000000000E+00 -0.13148749547E+04  0.13148749547E+04  0.25500000920E-02 0. -1.
    10030    2    1    2    0    0  0.00000000000E+00  0.00000000000E+00  0.51164005146E+03  0.31413899608E+04  0.30994443604E+04 0.  0.
        3    1    3    3  502    0 -0.50898896522E+03 -0.13822499791E+04 -0.23231389816E+03  0.14911923179E+04  0.10100000352E+00 0.  1.
       -3    1    3    3    0  502  0.50898896522E+03  0.13822499791E+04  0.74395394962E+03  0.16501976429E+04  0.10100000352E+00 0. -1.
</event>
<event>
 5   0  0.1258262E-06  0.3098387E+04  0.7818609E-02  0.8216181E-01
        2   -1    0    0  501    0  0.00000000000E+00  0.00000000000E+00  0.13052724146E+04  0.13052724146E+04  0.25500000920E-02 0.  1.
       -2   -1    0    0    0  501  0.00000000000E+00  0.00000000000E+00 -0.18386967438E+04  0.18386967438E+04  0.25500000920E-02 0. -1.
    10030    2    1    2    0    0  0.00000000000E+00  0.00000000000E+00 -0.53342432921E+03  0.31439691584E+04  0.30983867664E+04 0.  0.
        1    1    3    3  502    0  0.28239982632E+03  0.14351948597E+04 -0.78457927241E+03  0.16598489636E+04  0.50400001928E-02 0. -1.
       -1    1    3    3    0  502 -0.28239982632E+03 -0.14351948597E+04  0.25115494320E+03  0.14841201948E+04  0.50400001928E-02 0.  1.
</event>
<event>
 5   0  0.1237580E-06  0.3094913E+04  0.7818609E-02  0.8217136E-01
        2   -1    0    0  501    0  0.00000000000E+00  0.00000000000E+00  0.13579949022E+04  0.13579949022E+04  0.25500000920E-02 0. -1.
       -2   -1    0    0    0  501  0.00000000000E+00  0.00000000000E+00 -0.17633504010E+04  0.17633504010E+04  0.25500000920E-02 0.  1.
    10030    2    1    2    0    0  0.00000000000E+00  0.00000000000E+00 -0.40535549874E+03  0.31213453032E+04  0.30949125062E+04 0.  0.
        4    1    3    3  502    0  0.10648047314E+04 -0.53158203091E+03 -0.12001804437E+04  0.16902139752E+04  0.12699999809E+01 0.  1.
       -4    1    3    3    0  502 -0.10648047314E+04  0.53158203091E+03  0.79482494500E+03  0.14311313279E+04  0.12699999809E+01 0. -1.
</event>
<event>
 5   0  0.4173905E-07  0.3096905E+04  0.7818609E-02  0.8216588E-01
       -1   -1    0    0    0  501  0.00000000000E+00  0.00000000000E+00  0.15477627935E+04  0.15477627935E+04  0.50400001928E-02 0. -1.
        1   -1    0    0  501    0  0.00000000000E+00  0.00000000000E+00 -0.15491422006E+04  0.15491422006E+04  0.50400001928E-02 0.  1.
    10030    2    1    2    0    0  0.00000000000E+00  0.00000000000E+00 -0.13794070776E+01  0.30969049941E+04  0.30969046869E+04 0.  0.
        3    1    3    3  502    0 -0.15160424165E+04  0.29245607395E+03 -0.11811835690E+03  0.15485048015E+04  0.10100000352E+00 0.  1.
       -3    1    3    3    0  502  0.15160424165E+04 -0.29245607395E+03  0.11673894983E+03  0.15484001926E+04  0.10100000352E+00 0. -1.
</event>
<event>
 5   0  0.1193123E-06  0.2984822E+04  0.7818609E-02  0.8248078E-01
        2   -1    0    0  501    0  0.00000000000E+00  0.00000000000E+00  0.18657318084E+04  0.18657318084E+04  0.25500000920E-02 0.  1.
       -2   -1    0    0    0  501  0.00000000000E+00  0.00000000000E+00 -0.11937895414E+04  0.11937895414E+04  0.25500000920E-02 0. -1.
    10030    2    1    2    0    0  0.00000000000E+00  0.00000000000E+00  0.67194226699E+03  0.30595213497E+04  0.29848223530E+04 0.  0.
        3    1    3    3  502    0  0.13186199481E+04 -0.18699311125E+03 -0.35435656980E+03  0.13781486059E+04  0.10100000352E+00 0. -1.
       -3    1    3    3    0  502 -0.13186199481E+04  0.18699311125E+03  0.10262988368E+04  0.16813727438E+04  0.10100000352E+00 0.  1.
</event>
<event>
 5   0  0.4173905E-07  0.3094532E+04  0.7818609E-02  0.8217240E-01
       -1   -1    0    0    0  501  0.00000000000E+00  0.00000000000E+00  0.90229414188E+03  0.90229414189E+03  0.50400001928E-02 0.  1.
        1   -1    0    0  501    0  0.00000000000E+00  0.00000000000E+00 -0.26532730995E+04  0.26532730995E+04  0.50400001928E-02 0. -1.
    10030    2    1    2    0    0  0.00000000000E+00  0.00000000000E+00 -0.17509789576E+04  0.35555672414E+04  0.30945324522E+04 0.  0.
        3    1    3    3  502    0  0.12301492720E+04 -0.72624070962E+03 -0.15584730159E+04  0.21141265220E+04  0.10100000352E+00 0.  1.
       -3    1    3    3    0  502 -0.12301492720E+04  0.72624070962E+03 -0.19250594174E+03  0.14414407194E+04  0.10100000352E+00 0. -1.
</event>
<event>
 5   0  0.1237580E-06  0.3110975E+04  0.7818609E-02  0.8212732E-01
       -2   -1    0    0    0  501  0.00000000000E+00  0.00000000000E+00  0.19658402451E+04  0.19658402451E+04  0.25500000920E-02 0. -1.
        2   -1    0    0  501    0  0.00000000000E+00  0.00000000000E+00 -0.12307923483E+04  0.12307923483E+04  0.25500000920E-02 0.  1.
    10030    2    1    2    0    0  0.00000000000E+00  0.00000000000E+00  0.73504789678E+03  0.31966325933E+04  0.31109748514E+04 0.  0.
        4    1    3    3  502    0 -0.11270961591E+04 -0.68213044570E+03 -0.48222361531E+03  0.14029215676E+04  0.12699999809E+01 0.  1.
       -4    1    3    3    0  502  0.11270961591E+04  0.68213044570E+03  0.12172715121E+04  0.17937110257E+04  0.12699999809E+01 0. -1.
</event>
<event>
 5   0  0.1176002E-06  0.3123879E+04  0.7818609E-02  0.8209215E-01
       -2   -1    0    0    0  501  0.00000000000E+00  0.00000000000E+00  0.22541545794E+04  0.22541545794E+04  0.25500000920E-02 0.  1.
        2   -1    0    0  501    0  0.00000000000E+00  0.00000000000E+00 -0.10822923717E+04  0.10822923717E+04  0.25500000920E-02 0. -1.
    10030    2    1    2    0    0  0.00000000000E+00  0.00000000000E+00  0.11718622077E+04  0.33364469512E+04  0.31238785546E+04 0.  0.
        2    1    3    3  502    0  0.43702454065E+03  0.97293539286E+03 -0.63279377672E+03  0.12401700253E+04  0.25500000920E-02 0. -1.
       -2    1    3    3    0  502 -0.43702454065E+03 -0.97293539286E+03  0.18046559844E+04  0.20962769259E+04  0.25500000920E-02 0.  1.
</event>
<event>
 5   0  0.1258262E-06  0.3091561E+04  0.7818609E-02  0.8218058E-01
       -2   -1    0    0    0  501  0.00000000000E+00  0.00000000000E+00  0.14618488454E+04  0.14618488454E+04  0.25500000920E-02 0.  1.
        2   -1    0    0  501    0  0.00000000000E+00  0.00000000000E+00 -0.16345307354E+04  0.16345307354E+04  0.25500000920E-02 0. -1.
    10030    2    1    2    0    0  0.00000000000E+00  0.00000000000E+00 -0.17268189001E+03  0.30963795808E+04  0.30915606857E+04 0.  0.
        1    1    3    3  502    0  0.11479405158E+04 -0.24347755089E+03  0.92140240189E+03  0.14919889852E+04  0.50400001928E-02 0.  1.
       -1    1    3    3    0  502 -0.11479405158E+04  0.24347755089E+03 -0.10940842919E+04  0.16043905956E+04  0.50400001928E-02 0. -1.
</event>
<event>
 5   0  0.1193123E-06  0.3098462E+04  0.7818609E-02  0.8216160E-01
        2   -1    0    0  501    0  0.00000000000E+00  0.00000000000E+00  0.19575047075E+04  0.19575047075E+04  0.25500000920E-02 0.  1.
       -2   -1    0    0    0  501  0.00000000000E+00  0.00000000000E+00 -0.12261101427E+04  0.12261101427E+04  0.25500000920E-02 0. -1.
    10030    2    1    2    0    0  0.00000000000E+00  0.00000000000E+00  0.73139456480E+03  0.31836148502E+04  0.30984617966E+04 0.  0.
        3    1    3    3  502    0 -0.56594058479E+03 -0.13603181626E+04  0.85777672305E+03  0.17048563476E+04  0.10100000352E+00 0. -1.
       -3    1    3    3    0  502  0.56594058479E+03  0.13603181626E+04 -0.12638215824E+03  0.14787585026E+04  0.10100000352E+00 0.  1.
</event>
<event>
 5   0  0.1176002E-06  0.3094034E+04  0.7818609E-02  0.8217377E-01
       -2   -1    0    0    0  501  0.00000000000E+00  0.00000000000E+00  0.17612481208E+04  0.17612481208E+04  0.25500000920E-02 0. -1.
        2   -1    0    0  501    0  0.00000000000E+00  0.00000000000E+00 -0.13588438360E+04  0.13588438360E+04  0.25500000920E-02 0.  1.
    10030    2    1    2    0    0  0.00000000000E+00  0.00000000000E+00  0.40240428475E+03  0.31200919568E+04  0.30940337119E+04 0.  0.
        2    1    3    3  502    0 -0.22519919229E+03 -0.38288508655E+03 -0.12931506174E+04  0.13673164173E+04  0.25500000920E-02 0.  1.
       -2    1    3    3    0  502  0.22519919229E+03  0.38288508655E+03  0.16955549021E+04  0.17527755395E+04  0.25500000920E-02 0. -1.
</event>
<event>
 5   0  0.4134019E-07  0.3087263E+04  0.7818609E-02  0.8219242E-01
       -1   -1    0    0    0  501  0.00000000000E+00  0.00000000000E+00  0.13748406517E+04  0.13748406517E+04  0.50400001928E-02 0.  1.
        1   -1    0    0  501    0  0.00000000000E+00  0.00000000000E+00 -0.17331447260E+04  0.17331447260E+04  0.50400001928E-02 0. -1.
    10030    2    1    2    0    0  0.00000000000E+00  0.00000000000E+00 -0.35830407429E+03  0.31079853777E+04  0.30872627518E+04 0.  0.
        2    1    3    3  502    0 -0.64691569399E+03 -0.12571798427E+04  0.44451963966E+03  0.14820927036E+04  0.25500000920E-02 0.  1.
       -2    1    3    3    0  502  0.64691569399E+03  0.12571798427E+04 -0.80282371395E+03  0.16258926741E+04  0.25500000920E-02 0. -1.
</event>
<event>
 5   0  0.4134019E-07  0.3110055E+04  0.7818609E-02  0.8212984E-01
        1   -1    0    0  501    0  0.00000000000E+00  0.00000000000E+00  0.78680071139E+03  0.78680071141E+03  0.50400001928E-02 0.  1.
       -1   -1    0    0    0  501  0.00000000000E+00  0.00000000000E+00 -0.30733454969E+04  0.30733454970E+04  0.50400001928E-02 0. -1.
    10030    2    1    2    0    0  0.00000000000E+00  0.00000000000E+00 -0.22865447856E+04  0.38601462084E+04  0.31100549342E+04 0.  0.
        2    1    3    3  502    0 -0.74025506153E+03 -0.12604057819E+04 -0.48473155846E+03  0.15399886282E+04  0.25500000920E-02 0.  1.
       -2    1    3    3    0  502  0.74025506153E+03  0.12604057819E+04 -0.18018132271E+04  0.23201575801E+04  0.25500000920E-02 0. -1.
</event>
<event>
 5   0  0.4219337E-07  0.3046690E+04  0.7818609E-02  0.8230523E-01
       -1   -1    0    0    0  501  0.00000000000E+00  0.00000000000E+00  0.10655273854E+04  0.10655273854E+04  0.50400001928E-02 0. -1.
        1   -1    0    0  501    0  0.00000000000E+00  0.00000000000E+00 -0.21778695530E+04  0.21778695530E+04  0.50400001928E-02 0.  1.
    10030    2    1    2    0    0  0.00000000000E+00  0.00000000000E+00 -0.11123421675E+04  0.32433969384E+04  0.30466897778E+04 0.  0.
        4    1    3    3  502    0  0.75657104775E+03  0.55527139694E+02  0.85014002408E+03  0.11393957552E+04  0.12699999809E+01 0. -1.
       -4    1    3    3    0  502 -0.75657104775E+03 -0.55527139694E+02 -0.19624821916E+04  0.21040011832E+04  0.12699999809E+01 0.  1.
</event>
<event>
 5   0  0.3935852E-07  0.3072974E+04  0.7818609E-02  0.8223194E-01
        1   -1    0    0  501    0  0.00000000000E+00  0.00000000000E+00  0.14767938622E+04  0.14767938622E+04  0.50400001928E-02 0.  1.
       -1   -1    0    0    0  501  0.00000000000E+00  0.00000000000E+00 -0.15985928852E+04  0.15985928852E+04  0.50400001928E-02 0. -1.
    10030    2    1    2    0    0  0.00000000000E+00  0.00000000000E+00 -0.12179902303E+03  0.30753867474E+04  0.30729739087E+04 0.  0.
        5    1    3    3  502    0 -0.83393200761E+02  0.68062259448E+03 -0.14369585832E+04  0.15921914464E+04  0.46999998093E+01 0. -1.
       -5    1    3    3    0  502  0.83393200761E+02 -0.68062259448E+03  0.13151595602E+04  0.14831953010E+04  0.46999998093E+01 0.  1.
</event>
<event>
 5   0  0.3935852E-07  0.3095109E+04  0.7818609E-02  0.8217081E-01
       -1   -1    0    0    0  501  0.00000000000E+00  0.00000000000E+00  0.20963550267E+04  0.20963550267E+04  0.50400001928E-02 0. -1.
        1   -1    0    0  501    0  0.00000000000E+00  0.00000000000E+00 -0.11424236105E+04  0.11424236105E+04  0.50400001928E-02 0.  1.
    10030    2    1    2    0    0  0.00000000000E+00  0.00000000000E+00  0.95393141619E+03  0.32387786371E+04  0.30951093541E+04 0.  0.
        5    1    3    3  502    0 -0.13792062627E+03 -0.13749391018E+04  0.12060299216E+04  0.18341237403E+04  0.46999998093E+01 0. -1.
       -5    1    3    3    0  502  0.13792062627E+03  0.13749391018E+04 -0.25209850544E+03  0.14046548968E+04  0.46999998093E+01 0.  1.
</event>
<event>
 5   0  0.1193123E-06  0.3105183E+04  0.7818609E-02  0.8214317E-01
       -2   -1    0    0    0  501  0.00000000000E+00  0.00000000000E+00  0.14954229643E+04  0.14954229643E+04  0.25500000920E-02 0.  1.
        2   -1    0    0  501    0  0.00000000000E+00  0.00000000000E+00 -0.16119451684E+04  0.16119451684E+04  0.25500000920E-02 0. -1.
    10030    2    1    2    0    0  0.00000000000E+00  0.00000000000E+00 -0.11652220404E+03  0.31073681327E+04  0.31051826497E+04 0.  0.
        3    1    3    3  502    0  0.15333106655E+04  0.17746070062E+03  0.10920635927E+03  0.15474042576E+04  0.10100000352E+00 0.  1.
       -3    1    3    3    0  502 -0.15333106655E+04 -0.17746070062E+03 -0.22572856331E+03  0.15599638751E+04  0.10100000352E+00 0. -1.
</event>
<event>
 5   0  0.1193123E-06  0.3090247E+04  0.7818609E-02  0.8218420E-01
       -2   -1    0    0    0  501  0.00000000000E+00  0.00000000000E+00  0.92165288776E+03  0.92165288776E+03  0.25500000920E-02 0.  1.
        2   -1    0    0  501    0  0.00000000000E+00  0.00000000000E+00 -0.25903540617E+04  0.25903540617E+04  0.25500000920E-02 0. -1.
    10030    2    1    2    0    0  0.00000000000E+00  0.00000000000E+00 -0.16687011740E+04  0.35120069495E+04  0.30902474343E+04 0.  0.
        3    1    3    3  502    0  0.72013243105E+03  0.44879015552E+03  0.63316434054E+03  0.10587258447E+04  0.10100000352E+00 0.  1.
       -3    1    3    3    0  502 -0.72013243105E+03 -0.44879015552E+03 -0.23018655145E+04  0.24532811048E+04  0.10100000352E+00 0. -1.
</event>
<event>
 5   0  0.3935852E-07  0.3116356E+04  0.7818609E-02  0.8211264E-01
        1   -1    0    0  501    0  0.00000000000E+00  0.00000000000E+00  0.17273789503E+04  0.17273789503E+04  0.50400001928E-02 0. -1.
       -1   -1    0    0    0  501  0.00000000000E+00  0.00000000000E+00 -0.14055502484E+04  0.14055502484E+04  0.50400001928E-02 0.  1.
    10030    2    1    2    0    0  0.00000000000E+00  0.00000000000E+00  0.32182870191E+03  0.31329291987E+04  0.31163555078E+04 0.  0.
        5    1    3    3  502    0  0.11863570201E+04  0.15010756573E+03 -0.84335814951E+03  0.14633011716E+04  0.46999998093E+01 0.  1.
       -5    1    3    3    0  502 -0.11863570201E+04 -0.15010756573E+03  0.11651868514E+04  0.16696280272E+04  0.46999998093E+01 0. -1.
</event>
<event>
 5   0  0.1258262E-06  0.3100992E+04  0.7818609E-02  0.8215466E-01
        2   -1    0    0  501    0  0.00000000000E+00  0.00000000000E+00  0.29919690877E+04  0.29919690877E+04  0.25500000920E-02 0. -1.
       -2   -1    0    0    0  501  0.00000000000E+00  0.00000000000E+00 -0.80349707336E+03  0.80349707336E+03  0.25500000920E-02 0.  1.
    10030    2    1    2    0    0  0.00000000000E+00  0.00000000000E+00  0.21884720143E+04  0.37954661610E+04  0.31009923609E+04 0.  0.
        1    1    3    3  502    0  0.15257468878E+04  0.25491643600E+03  0.96498034386E+03  0.18232040530E+04  0.50400001928E-02 0.  1.
       -1    1    3    3    0  502 -0.15257468878E+04 -0.25491643600E+03  0.12234916704E+04  0.19722621080E+04  0.50400001928E-02 0. -1.
</event>
<event>
 5   0  0.4134019E-07  0.3156057E+04  0.7818609E-02  0.8200520E-01
        1   -1    0    0  501    0  0.00000000000E+00  0.00000000000E+00  0.89254115618E+03  0.89254115619E+03  0.50400001928E-02 0.  1.
       -1   -1    0    0    0  501  0.00000000000E+00  0.00000000000E+00 -0.27899822116E+04  0.27899822116E+04  0.50400001928E-02 0. -1.
    10030    2    1    2    0    0  0.00000000000E+00  0.00000000000E+00 -0.18974410554E+04  0.36825233678E+04  0.31560570013E+04 0.  0.
        2    1    3    3  502    0 -0.60394873340E+03 -0.83408885273E+03  0.44644427200E+03  0.11223951064E+04  0.25500000920E-02 0.  1.
       -2    1    3    3    0  502  0.60394873340E+03  0.83408885273E+03 -0.23438853274E+04  0.25601282614E+04  0.25500000920E-02 0. -1.
</event>
<event>
 5   0  0.1193123E-06  0.3089277E+04  0.7818609E-02  0.8218687E-01
       -2   -1    0    0    0  501  0.00000000000E+00  0.00000000000E+00  0.11877526697E+04  0.11877526697E+04  0.25500000920E-02 0.  1.
        2   -1    0    0  501    0  0.00000000000E+00  0.00000000000E+00 -0.20087578466E+04  0.20087578466E+04  0.25500000920E-02 0. -1.
    10030    2    1    2    0    0  0.00000000000E+00  0.00000000000E+00 -0.82100517689E+03  0.31965105163E+04  0.30892766112E+04 0.  0.
        3    1    3    3  502    0 -0.12345191972E+04  0.71830708476E+03  0.19804930188E+03  0.14419522365E+04  0.10100000352E+00 0.  1.
       -3    1    3    3    0  502  0.12345191972E+04 -0.71830708476E+03 -0.10190544788E+04  0.17545582798E+04  0.10100000352E+00 0. -1.
</event>
<event>
 5   0  0.1237580E-06  0.3109567E+04  0.7818609E-02  0.8213117E-01
        2   -1    0    0  501    0  0.00000000000E+00  0.00000000000E+00  0.14386057715E+04  0.14386057715E+04  0.25500000920E-02 0. -1.
       -2   -1    0    0    0  501  0.00000000000E+00  0.00000000000E+00 -0.16803437944E+04  0.16803437944E+04  0.25500000920E-02 0.  1.
    10030    2    1    2    0    0  0.00000000000E+00  0.00000000000E+00 -0.24173802284E+03  0.31189495659E+04  0.31095673530E+04 0.  0.
        4    1    3    3  502    0  0.23227235098E+03 -0.46178752687E+03 -0.15916330963E+04  0.16734681626E+04  0.12699999809E+01 0.  1.
       -4    1    3    3    0  502 -0.23227235098E+03  0.46178752687E+03  0.13498950735E+04  0.14454814033E+04  0.12699999809E+01 0. -1.
</event>
<event>
 5   0  0.1200286E-06  0.3100381E+04  0.7818609E-02  0.8215633E-01
       -2   -1    0    0    0  501  0.00000000000E+00  0.00000000000E+00  0.13177507189E+04  0.13177507189E+04  0.25500000920E-02 0.  1.
        2   -1    0    0  501    0  0.00000000000E+00  0.00000000000E+00 -0.18236307001E+04  0.18236307001E+04  0.25500000920E-02 0. -1.
    10030    2    1    2    0    0  0.00000000000E+00  0.00000000000E+00 -0.50587998120E+03  0.31413814190E+04  0.31003810514E+04 0.  0.
        5    1    3    3  502    0  0.47014928617E+03  0.21297762049E+03 -0.17340052552E+04  0.18091976490E+04  0.46999998093E+01 0. -1.
       -5    1    3    3    0  502 -0.47014928617E+03 -0.21297762049E+03  0.12281252740E+04  0.13321837699E+04  0.46999998093E+01 0.  1.
</event>
<event>
 5   0  0.4330395E-07  0.3094019E+04  0.7818609E-02  0.8217381E-01
       -1   -1    0    0    0  501  0.00000000000E+00  0.00000000000E+00  0.32543251140E+04  0.32543251140E+04  0.50400001928E-02 0.  1.
        1   -1    0    0  501    0  0.00000000000E+00  0.00000000000E+00 -0.73540217140E+03  0.73540217142E+03  0.50400001928E-02 0. -1.
    10030    2    1    2    0    0  0.00000000000E+00  0.00000000000E+00  0.25189229426E+04  0.39897272854E+04  0.30940185877E+04 0.  0.
        1    1    3    3  502    0 -0.10243910296E+04 -0.66073525670E+03  0.31193064036E+02  0.12193937298E+04  0.50400001928E-02 0. -1.
       -1    1    3    3    0  502  0.10243910296E+04  0.66073525670E+03  0.24877298785E+04  0.27703335556E+04  0.50400001928E-02 0.  1.
</event>
<event>
 5   0  0.4173905E-07  0.3080532E+04  0.7818609E-02  0.8221101E-01
        1   -1    0    0  501    0  0.00000000000E+00  0.00000000000E+00  0.12681651774E+04  0.12681651774E+04  0.50400001928E-02 0. -1.
       -1   -1    0    0    0  501  0.00000000000E+00  0.00000000000E+00 -0.18707497920E+04  0.18707497920E+04  0.50400001928E-02 0.  1.
    10030    2    1    2    0    0  0.00000000000E+00  0.00000000000E+00 -0.60258461457E+03  0.31389149695E+04  0.30805322540E+04 0.  0.
        3    1    3    3  502    0  0.39476308334E+03  0.33767035665E+03 -0.17787942096E+04  0.18530968706E+04  0.10100000352E+00 0.  1.
       -3    1    3    3    0  502 -0.39476308334E+03 -0.33767035665E+03  0.11762095950E+04  0.12858180988E+04  0.10100000352E+00 0. -1.
</event>
<event>
 5   0  0.4219337E-07  0.3103098E+04  0.7818609E-02  0.8214888E-01
       -1   -1    0    0    0  501  0.00000000000E+00  0.00000000000E+00  0.17712568147E+04  0.17712568147E+04  0.50400001928E-02 0.  1.
        1   -1    0    0  501    0  0.00000000000E+00  0.00000000000E+00 -0.13590934946E+04  0.13590934946E+04  0.50400001928E-02 0. -1.
    10030    2    1    2    0    0  0.00000000000E+00  0.00000000000E+00  0.41216332012E+03  0.31303503094E+04  0.31030975584E+04 0.  0.
        4    1    3    3  502    0 -0.11294402929E+04 -0.61049232800E+03  0.10849191975E+04  0.16808889124E+04  0.12699999809E+01 0.  1.
       -4    1    3    3    0  502  0.11294402929E+04  0.61049232800E+03 -0.67275587738E+03  0.14494613970E+04  0.12699999809E+01 0. -1.
</event>
<event>
 5   0  0.3935852E-07  0.3095608E+04  0.7818609E-02  0.8216944E-01
       -1   -1    0    0    0  501  0.00000000000E+00  0.00000000000E+00  0.11759139853E+04  0.11759139853E+04  0.50400001928E-02 0. -1.
        1   -1    0    0  501    0  0.00000000000E+00  0.00000000000E+00 -0.20373063669E+04  0.20373063669E+04  0.50400001928E-02 0.  1.
    10030    2    1    2    0    0  0.00000000000E+00  0.00000000000E+00 -0.86139238164E+03  0.32132203522E+04  0.30956078880E+04 0.  0.
        5    1    3    3  502    0 -0.89193434482E+03  0.88717292364E+03  0.50525629563E+03  0.13557022852E+04  0.46999998093E+01 0. -1.
       -5    1    3    3    0  502  0.89193434482E+03 -0.88717292364E+03 -0.13666486773E+04  0.18575180669E+04  0.46999998093E+01 0.  1.
</event>
<event>
 5   0  0.1193123E-06  0.3125350E+04  0.7818609E-02  0.8208815E-01
       -2   -1    0    0    0  501  0.00000000000E+00  0.00000000000E+00  0.15976335127E+04  0.15976335127E+04  0.25500000920E-02 0. -1.
        2   -1    0    0  501    0  0.00000000000E+00  0.00000000000E+00 -0.15284811929E+04  0.15284811929E+04  0.25500000920E-02 0.  1.
    10030    2    1    2    0    0  0.00000000000E+00  0.00000000000E+00  0.69152319826E+02  0.31261147056E+04  0.31253497579E+04 0.  0.
        3    1    3    3  502    0  0.12686354600E+04 -0.91240816831E+03  0.29267208754E+02  0.15629399143E+04  0.10100000352E+00 0.  1.
       -3    1    3    3    0  502 -0.12686354600E+04  0.91240816831E+03  0.39885111072E+02  0.15631747913E+04  0.10100000352E+00 0. -1.
</event>
<event>
 5   0  0.4134019E-07  0.3100373E+04  0.7818609E-02  0.8215635E-01
       -1   -1    0    0    0  501  0.00000000000E+00  0.00000000000E+00  0.12738842699E+04  0.12738842699E+04  0.50400001928E-02 0.  1.
        1   -1    0    0  501    0  0.00000000000E+00  0.00000000000E+00 -0.18864183705E+04  0.18864183705E+04  0.50400001928E-02 0. -1.
    10030    2    1    2    0    0  0.00000000000E+00  0.00000000000E+00 -0.61253410054E+03  0.31603026404E+04  0.31003733251E+04 0.  0.
        2    1    3    3  502    0 -0.36413297926E+03 -0.17882332617E+03  0.12188178301E+04  0.12845573212E+04  0.25500000920E-02 0.  1.
       -2    1    3    3    0  502  0.36413297926E+03  0.17882332617E+03 -0.18313519306E+04  0.18757453192E+04  0.25500000920E-02 0. -1.
</event>
<event>
 5   0  0.4219337E-07  0.3103128E+04  0.7818609E-02  0.8214880E-01
       -1   -1    0    0    0  501  0.00000000000E+00  0.00000000000E+00  0.10480291780E+04  0.10480291780E+04  0.50400001928E-02 0.  1.
        1   -1    0    0  501    0  0.00000000000E+00  0.00000000000E+00 -0.22970267962E+04  0.22970267962E+04  0.50400001928E-02 0. -1.
    10030    2    1    2    0    0  0.00000000000E+00  0.00000000000E+00 -0.12489976182E+04  0.33450559741E+04  0.31031281669E+04 0.  0.
        4    1    3    3  502    0  0.10218294429E+03  0.12682757913E+04 -0.15816328390E+04  0.20299085908E+04  0.12699999809E+01 0. -1.
       -4    1    3    3    0  502 -0.10218294429E+03 -0.12682757913E+04  0.33263522078E+03  0.13151473833E+04  0.12699999809E+01 0.  1.
</event>
<event>
 5   0  0.4173905E-07  0.3103429E+04  0.7818609E-02  0.8214797E-01
        1   -1    0    0  501    0  0.00000000000E+00  0.00000000000E+00  0.18822732821E+04  0.18822732821E+04  0.50400001928E-02 0.  1.
       -1   -1    0    0    0  501  0.00000000000E+00  0.00000000000E+00 -0.12792074224E+04  0.12792074224E+04  0.50400001928E-02 0. -1.
    10030    2    1    2    0    0  0.00000000000E+00  0.00000000000E+00  0.60306585968E+03  0.31614807045E+04  0.31034290412E+04 0.  0.
        3    1    3    3  502    0  0.16269474940E+03 -0.89087976572E+03 -0.98206917973E+03  0.13358878031E+04  0.10100000352E+00 0. -1.
       -3    1    3    3    0  502 -0.16269474940E+03  0.89087976572E+03  0.15851350394E+04  0.18255929014E+04  0.10100000352E+00 0.  1.
</event>
<event>
 5   0  0.4219337E-07  0.3095843E+04  0.7818609E-02  0.8216880E-01
        1   -1    0    0  501    0  0.00000000000E+00  0.00000000000E+00  0.90398034248E+03  0.90398034249E+03  0.50400001928E-02 0. -1.
       -1   -1    0    0    0  501  0.00000000000E+00  0.00000000000E+00 -0.26505679970E+04  0.26505679970E+04  0.50400001928E-02 0.  1.
    10030    2    1    2    0    0  0.00000000000E+00  0.00000000000E+00 -0.17465876545E+04  0.35545483395E+04  0.30958432556E+04 0.  0.
        4    1    3    3  502    0  0.40746382754E+03 -0.13732189336E+04 -0.15470080281E+04  0.21083150766E+04  0.12699999809E+01 0.  1.
       -4    1    3    3    0  502 -0.40746382754E+03  0.13732189336E+04 -0.19957962642E+03  0.14462332629E+04  0.12699999809E+01 0. -1.
</event>
<event>
 5   0  0.1176002E-06  0.3098866E+04  0.7818609E-02  0.8216049E-01
       -2   -1    0    0    0  501  0.00000000000E+00  0.00000000000E+00  0.14165566218E+04  0.14165566218E+04  0.25500000920E-02 0.  1.
        2   -1    0    0  501    0  0.00000000000E+00  0.00000000000E+00 -0.16947733441E+04  0.16947733441E+04  0.25500000920E-02 0. -1.
    10030    2    1    2    0    0  0.00000000000E+00  0.00000000000E+00 -0.27821672231E+03  0.31113299659E+04  0.30988658590E+04 0.  0.
        2    1    3    3  502    0 -0.12019738262E+04  0.65631189474E+03 -0.86676888416E+03  0.16207327604E+04  0.25500000920E-02 0. -1.
       -2    1    3    3    0  502  0.12019738262E+04 -0.65631189474E+03  0.58855216186E+03  0.14905972055E+04  0.25500000920E-02 0.  1.
</event>
<event>
 5   0  0.1200286E-06  0.3104913E+04  0.7818609E-02  0.8214391E-01
       -2   -1    0    0    0  501  0.00000000000E+00  0.00000000000E+00  0.96937727082E+03  0.96937727083E+03  0.25500000920E-02 0.  1.
        2   -1    0    0  501    0  0.00000000000E+00  0.00000000000E+00 -0.24862567724E+04  0.24862567724E+04  0.25500000920E-02 0. -1.
    10030    2    1    2    0    0  0.00000000000E+00  0.00000000000E+00 -0.15168795016E+04  0.34556340433E+04  0.31049127554E+04 0.  0.
        5    1    3    3  502    0 -0.80667499468E+03 -0.31974909057E+03  0.67426679889E+03  0.10989184838E+04  0.46999998093E+01 0.  1.
       -5    1    3    3    0  502  0.80667499468E+03  0.31974909057E+03 -0.21911463005E+04  0.23567155595E+04  0.46999998093E+01 0. -1.
</event>
<event>
 5   0  0.1193123E-06  0.3108505E+04  0.7818609E-02  0.8213408E-01
       -2   -1    0    0    0  501  0.00000000000E+00  0.00000000000E+00  0.12818462835E+04  0.12818462835E+04  0.25500000920E-02 0. -1.
        2   -1    0    0  501    0  0.00000000000E+00  0.00000000000E+00 -0.18845480933E+04  0.18845480933E+04  0.25500000920E-02 0.  1.
    10030    2    1    2    0    0  0.00000000000E+00  0.00000000000E+00 -0.60270180980E+03  0.31663943769E+04  0.31085050874E+04 0.  0.
        3    1    3    3  502    0  0.46139146492E+03  0.93442702806E+03  0.87323434423E+03  0.13596228098E+04  0.10100000352E+00 0. -1.
       -3    1    3    3    0  502 -0.46139146492E+03 -0.93442702806E+03 -0.14759361540E+04  0.18067715671E+04  0.10100000352E+00 0.  1.
</event>
<event>
 5   0  0.1200286E-06  0.3088085E+04  0.7818609E-02  0.8219015E-01
       -2   -1    0    0    0  501  0.00000000000E+00  0.00000000000E+00  0.15822990241E+04  0.15822990242E+04  0.25500000920E-02 0. -1.
        2   -1    0    0  501    0  0.00000000000E+00  0.00000000000E+00 -0.15067109671E+04  0.15067109671E+04  0.25500000920E-02 0.  1.
    10030    2    1    2    0    0  0.00000000000E+00  0.00000000000E+00  0.75588057085E+02  0.30890099912E+04  0.30880850331E+04 0.  0.
        5    1    3    3  502    0  0.13223797120E+04  0.68881029954E+03  0.43903444457E+03  0.15543233463E+04  0.46999998093E+01 0.  1.
       -5    1    3    3    0  502 -0.13223797120E+04 -0.68881029954E+03 -0.36344638749E+03  0.15346866449E+04  0.46999998093E+01 0. -1.
</event>
<event>
 5   0  0.4219337E-07  0.3086814E+04  0.7818609E-02  0.8219366E-01
       -1   -1    0    0    0  501  0.00000000000E+00  0.00000000000E+00  0.92314949707E+03  0.92314949709E+03  0.50400001928E-02 0. -1.
        1   -1    0    0  501    0  0.00000000000E+00  0.00000000000E+00 -0.25804105474E+04  0.25804105474E+04  0.50400001928E-02 0.  1.
    10030    2    1    2    0    0  0.00000000000E+00  0.00000000000E+00 -0.16572610503E+04  0.35035600445E+04  0.30868136964E+04 0.  0.
        4    1    3    3  502    0 -0.11395063521E+04  0.79735209154E+03 -0.69057880966E+02  0.13924854356E+04  0.12699999809E+01 0.  1.
       -4    1    3    3    0  502  0.11395063521E+04 -0.79735209154E+03 -0.15882031693E+04  0.21110746089E+04  0.12699999809E+01 0. -1.
</event>
<event>
 5   0  0.3935852E-07  0.3070040E+04  0.7818609E-02  0.8224009E-01
        1   -1    0    0  501    0  0.00000000000E+00  0.00000000000E+00  0.79466095213E+03  0.79466095215E+03  0.50400001928E-02 0.  1.
       -1   -1    0    0    0  501  0.00000000000E+00  0.00000000000E+00 -0.29651470709E+04  0.29651470709E+04  0.50400001928E-02 0. -1.
    10030    2    1    2    0    0  0.00000000000E+00  0.00000000000E+00 -0.21704861188E+04  0.37598080231E+04  0.30700401265E+04 0.  0.
        5    1    3    3  502    0 -0.42535075361E+02  0.14643218716E+04 -0.52373595578E+03  0.15557535851E+04  0.46999998093E+01 0.  1.
       -5    1    3    3    0  502  0.42535075361E+02 -0.14643218716E+04 -0.16467501630E+04  0.22040544380E+04  0.46999998093E+01 0. -1.
</event>
<event>
 5   0  0.4173905E-07  0.3100008E+04  0.7818609E-02  0.8215736E-01
        1   -1    0    0  501    0  0.00000000000E+00  0.00000000000E+00  0.22629464635E+04  0.22629464635E+04  0.50400001928E-02 0.  1.
       -1   -1    0    0    0  501  0.00000000000E+00  0.00000000000E+00 -0.10616740997E+04  0.10616740997E+04  0.50400001928E-02 0. -1.
    10030    2    1    2    0    0  0.00000000000E+00  0.00000000000E+00  0.12012723638E+04  0.33246205633E+04  0.31000075157E+04 0.  0.
        3    1    3    3  502    0 -0.29472825570E+03  0.13798238735E+04 -0.87520234981E+02  0.14136613697E+04  0.10100000352E+00 0. -1.
       -3    1    3    3    0  502  0.29472825570E+03 -0.13798238735E+04  0.12887925988E+04  0.19109591935E+04  0.10100000352E+00 0.  1.
</event>
<event>
 5   0  0.3935852E-07  0.3110588E+04  0.7818609E-02  0.8212838E-01
       -1   -1    0    0    0  501  0.00000000000E+00  0.00000000000E+00  0.13213386364E+04  0.13213386364E+04  0.50400001928E-02 0. -1.
        1   -1    0    0  501    0  0.00000000000E+00  0.00000000000E+00 -0.18306737932E+04  0.18306737932E+04  0.50400001928E-02 0.  1.
    10030    2    1    2    0    0  0.00000000000E+00  0.00000000000E+00 -0.50933515681E+03  0.31520124296E+04  0.31105883776E+04 0.  0.
        5    1    3    3  502    0 -0.39188422039E+03  0.12449481358E+04  0.60243867271E+03  0.14375060164E+04  0.46999998093E+01 0. -1.
       -5    1    3    3    0  502  0.39188422039E+03 -0.12449481358E+04 -0.11117738295E+04  0.17145064132E+04  0.46999998093E+01 0.  1.
</event>
<event>
 5   0  0.1176002E-06  0.3135378E+04  0.7818609E-02  0.8206095E-01
        2   -1    0    0  501    0  0.00000000000E+00  0.00000000000E+00  0.16339682519E+04  0.16339682519E+04  0.25500000920E-02 0.  1.
       -2   -1    0    0    0  501  0.00000000000E+00  0.00000000000E+00 -0.15040981318E+04  0.15040981318E+04  0.25500000920E-02 0. -1.
    10030    2    1    2    0    0  0.00000000000E+00  0.00000000000E+00  0.12987012006E+03  0.31380663837E+04  0.31353778689E+04 0.  0.
        2    1    3    3  502    0 -0.27435121185E+03  0.60827494004E+03 -0.13548657102E+04  0.15102741747E+04  0.25500000920E-02 0. -1.
       -2    1    3    3    0  502  0.27435121185E+03 -0.60827494004E+03  0.14847358302E+04  0.16277922090E+04  0.25500000920E-02 0.  1.
</event>
<event>
 5   0  0.1193123E-06  0.3101269E+04  0.7818609E-02  0.8215390E-01
        2   -1    0    0  501    0  0.00000000000E+00  0.00000000000E+00  0.14902581870E+04  0.14902581870E+04  0.25500000920E-02 0. -1.
       -2   -1    0    0    0  501  0.00000000000E+00  0.00000000000E+00 -0.16134563798E+04  0.16134563798E+04  0.25500000920E-02 0.  1.
    10030    2    1    2    0    0  0.00000000000E+00  0.00000000000E+00 -0.12319819277E+03  0.31037145668E+04  0.31012685013E+04 0.  0.
        3    1    3    3  502    0 -0.16421713956E+03 -0.14834202376E+04  0.35940323428E+03  0.15351461055E+04  0.10100000352E+00 0. -1.
       -3    1    3    3    0  502  0.16421713956E+03  0.14834202376E+04 -0.48260142704E+03  0.15685684613E+04  0.10100000352E+00 0.  1.
</event>
<event>
 5   0  0.1193123E-06  0.3106811E+04  0.7818609E-02  0.8213871E-01
       -2   -1    0    0    0  501  0.00000000000E+00  0.00000000000E+00  0.96207491384E+03  0.96207491385E+03  0.25500000920E-02 0.  1.
        2   -1    0    0  501    0  0.00000000000E+00  0.00000000000E+00 -0.25081922095E+04  0.25081922095E+04  0.25500000920E-02 0. -1.
    10030    2    1    2    0    0  0.00000000000E+00  0.00000000000E+00 -0.15461172956E+04  0.34702671233E+04  0.31068111007E+04 0.  0.
        3    1    3    3  502    0 -0.12499433458E+02 -0.15533133065E+04 -0.76030689641E+03  0.17294522401E+04  0.10100000352E+00 0. -1.
       -3    1    3    3    0  502  0.12499433458E+02  0.15533133065E+04 -0.78581039924E+03  0.17408148832E+04  0.10100000352E+00 0.  1.
</event>
<event>
 5   0  0.4134019E-07  0.3045977E+04  0.7818609E-02  0.8230722E-01
       -1   -1    0    0    0  501  0.00000000000E+00  0.00000000000E+00  0.11333027489E+04  0.11333027489E+04  0.50400001928E-02 0. -1.
        1   -1    0    0  501    0  0.00000000000E+00  0.00000000000E+00 -0.20466671492E+04  0.20466671492E+04  0.50400001928E-02 0.  1.
    10030    2    1    2    0    0  0.00000000000E+00  0.00000000000E+00 -0.91336440030E+03  0.31799698981E+04  0.30459766947E+04 0.  0.
        2    1    3    3  502    0 -0.31129043171E+03  0.13576139857E+04  0.18643275987E+03  0.14052667509E+04  0.25500000920E-02 0. -1.
       -2    1    3    3    0  502  0.31129043171E+03 -0.13576139857E+04 -0.10997971602E+04  0.17747031472E+04  0.25500000920E-02 0.  1.
</event>
<event>
 5   0  0.1237580E-06  0.3093390E+04  0.7818609E-02  0.8217554E-01
        2   -1    0    0  501    0  0.00000000000E+00  0.00000000000E+00  0.23240358626E+04  0.23240358626E+04  0.25500000920E-02 0.  1.
       -2   -1    0    0    0  501  0.00000000000E+00  0.00000000000E+00 -0.10293583657E+04  0.10293583657E+04  0.25500000920E-02 0. -1.
    10030    2    1    2    0    0  0.00000000000E+00  0.00000000000E+00  0.12946774968E+04  0.33533942283E+04  0.30933902162E+04 0.  0.
        4    1    3    3  502    0 -0.11906393306E+04 -0.94722934534E+03  0.34574889409E+03  0.15602593883E+04  0.12699999809E+01 0. -1.
       -4    1    3    3    0  502  0.11906393306E+04  0.94722934534E+03  0.94892860276E+03  0.17931348399E+04  0.12699999809E+01 0.  1.
</event>
<event>
 5   0  0.1193123E-06  0.3083987E+04  0.7818609E-02  0.8220146E-01
       -2   -1    0    0    0  501  0.00000000000E+00  0.00000000000E+00  0.13642625784E+04  0.13642625784E+04  0.25500000920E-02 0. -1.
        2   -1    0    0  501    0  0.00000000000E+00  0.00000000000E+00 -0.17428787583E+04  0.17428787583E+04  0.25500000920E-02 0.  1.
    10030    2    1    2    0    0  0.00000000000E+00  0.00000000000E+00 -0.37861617988E+03  0.31071413367E+04  0.30839872040E+04 0.  0.
        3    1    3    3  502    0 -0.13408563963E+04  0.70225545862E+03  0.10732668032E+03  0.15174246707E+04  0.10100000352E+00 0.  1.
       -3    1    3    3    0  502  0.13408563963E+04 -0.70225545862E+03 -0.48594286020E+03  0.15897166660E+04  0.10100000352E+00 0. -1.
</event>
<event>
 5   0  0.1193123E-06  0.3108995E+04  0.7818609E-02  0.8213274E-01
       -2   -1    0    0    0  501  0.00000000000E+00  0.00000000000E+00  0.27595805849E+04  0.27595805849E+04  0.25500000920E-02 0.  1.
        2   -1    0    0  501    0  0.00000000000E+00  0.00000000000E+00 -0.87566295943E+03  0.87566295943E+03  0.25500000920E-02 0. -1.
    10030    2    1    2    0    0  0.00000000000E+00  0.00000000000E+00  0.18839176255E+04  0.36352435443E+04  0.31089950156E+04 0.  0.
        3    1    3    3  502    0 -0.13602566864E+04 -0.22544592756E+03  0.10257666762E+03  0.13826229066E+04  0.10100000352E+00 0. -1.
       -3    1    3    3    0  502  0.13602566864E+04  0.22544592756E+03  0.17813409579E+04  0.22526206377E+04  0.10100000352E+00 0.  1.
</event>
<event>
 5   0  0.1193123E-06  0.3116134E+04  0.7818609E-02  0.8211324E-01
        2   -1    0    0  501    0  0.00000000000E+00  0.00000000000E+00  0.19103542428E+04  0.19103542428E+04  0.25500000920E-02 0.  1.
       -2   -1    0    0    0  501  0.00000000000E+00  0.00000000000E+00 -0.12707447015E+04  0.12707447015E+04  0.25500000920E-02 0. -1.
    10030    2    1    2    0    0  0.00000000000E+00  0.00000000000E+00  0.63960954130E+03  0.31810989442E+04  0.31161338430E+04 0.  0.
        3    1    3    3  502    0  0.35254215000E+03 -0.80674391444E+03 -0.99247170844E+03  0.13266958254E+04  0.10100000352E+00 0. -1.
       -3    1    3    3    0  502 -0.35254215000E+03  0.80674391444E+03  0.16320812497E+04  0.18544031188E+04  0.10100000352E+00 0.  1.
</event>
<event>
 5   0  0.1200286E-06  0.3118074E+04  0.7818609E-02  0.8210795E-01
       -2   -1    0    0    0  501  0.00000000000E+00  0.00000000000E+00  0.16312080760E+04  0.16312080760E+04  0.25500000920E-02 0. -1.
        2   -1    0    0  501    0  0.00000000000E+00  0.00000000000E+00 -0.14900590712E+04  0.14900590712E+04  0.25500000920E-02 0.  1.
    10030    2    1    2    0    0  0.00000000000E+00  0.00000000000E+00  0.14114900476E+03  0.31212671472E+04  0.31180740149E+04 0.  0.
        5    1    3    3  502    0  0.12467320979E+04 -0.69523127873E+03  0.69802326255E+03  0.15890078728E+04  0.46999998093E+01 0. -1.
       -5    1    3    3    0  502 -0.12467320979E+04  0.69523127873E+03 -0.55687425779E+03  0.15322592743E+04  0.46999998093E+01 0.  1.
</event>
<event>
 5   0  0.4173905E-07  0.3103900E+04  0.7818609E-02  0.8214669E-01
        1   -1    0    0  501    0  0.00000000000E+00  0.00000000000E+00  0.17830305489E+04  0.17830305490E+04  0.50400001928E-02 0. -1.
       -1   -1    0    0    0  501  0.00000000000E+00  0.00000000000E+00 -0.13508171614E+04  0.13508171614E+04  0.50400001928E-02 0.  1.
    10030    2    1    2    0    0  0.00000000000E+00  0.00000000000E+00  0.43221338756E+03  0.31338477103E+04  0.31038996535E+04 0.  0.
        3    1    3    3  502    0 -0.99171747436E+03 -0.17151649875E+03 -0.97665824701E+03  0.14024203364E+04  0.10100000352E+00 0.  1.
       -3    1    3    3    0  502  0.99171747436E+03  0.17151649875E+03  0.14088716346E+04  0.17314273739E+04  0.10100000352E+00 0. -1.
</event>
<event>
 5   0  0.4134019E-07  0.3100720E+04  0.7818609E-02  0.8215540E-01
        1   -1    0    0  501    0  0.00000000000E+00  0.00000000000E+00  0.18119163403E+04  0.18119163403E+04  0.50400001928E-02 0. -1.
       -1   -1    0    0    0  501  0.00000000000E+00  0.00000000000E+00 -0.13265598560E+04  0.13265598560E+04  0.50400001928E-02 0.  1.
    10030    2    1    2    0    0  0.00000000000E+00  0.00000000000E+00  0.48535648428E+03  0.31384761963E+04  0.31007195807E+04 0.  0.
        2    1    3    3  502    0 -0.62226421365E+03  0.13040457924E+04 -0.32618605918E+03  0.14812648398E+04  0.25500000920E-02 0.  1.
       -2    1    3    3    0  502  0.62226421365E+03 -0.13040457924E+04  0.81154254346E+03  0.16572113565E+04  0.25500000920E-02 0. -1.
</event>
<event>
 5   0  0.4219337E-07  0.3096664E+04  0.7818609E-02  0.8216654E-01
       -1   -1    0    0    0  501  0.00000000000E+00  0.00000000000E+00  0.15645563731E+04  0.15645563731E+04  0.50400001928E-02 0. -1.
        1   -1    0    0  501    0  0.00000000000E+00  0.00000000000E+00 -0.15322761189E+04  0.15322761189E+04  0.50400001928E-02 0.  1.
    10030    2    1    2    0    0  0.00000000000E+00  0.00000000000E+00  0.32280254161E+02  0.30968324920E+04  0.30966642487E+04 0.  0.
        4    1    3    3  502    0 -0.12848561404E+04  0.75171594550E+03  0.44207240044E+03  0.15528560089E+04  0.12699999809E+01 0. -1.
       -4    1    3    3    0  502  0.12848561404E+04 -0.75171594550E+03 -0.40979214628E+03  0.15439764831E+04  0.12699999809E+01 0.  1.
</event>
<event>
 5   0  0.1193123E-06  0.3095170E+04  0.7818609E-02  0.8217065E-01
       -2   -1    0    0    0  501  0.00000000000E+00  0.00000000000E+00  0.85681268729E+03  0.85681268730E+03  0.25500000920E-02 0.  1.
        2   -1    0    0  501    0  0.00000000000E+00  0.00000000000E+00 -0.27952662162E+04  0.27952662162E+04  0.25500000920E-02 0. -1.
    10030    2    1    2    0    0  0.00000000000E+00  0.00000000000E+00 -0.19384535290E+04  0.36520789035E+04  0.30951701462E+04 0.  0.
        3    1    3    3  502    0 -0.24379370042E+03 -0.15282604471E+04 -0.96681277528E+03  0.18247581525E+04  0.10100000352E+00 0.  1.
       -3    1    3    3    0  502  0.24379370042E+03  0.15282604471E+04 -0.97164075367E+03  0.18273207510E+04  0.10100000352E+00 0. -1.
</event>
<event>
 5   0  0.1193123E-06  0.3105907E+04  0.7818609E-02  0.8214119E-01
       -2   -1    0    0    0  501  0.00000000000E+00  0.00000000000E+00  0.11606363528E+04  0.11606363528E+04  0.25500000920E-02 0. -1.
        2   -1    0    0  501    0  0.00000000000E+00  0.00000000000E+00 -0.20778811003E+04  0.20778811003E+04  0.25500000920E-02 0.  1.
    10030    2    1    2    0    0  0.00000000000E+00  0.00000000000E+00 -0.91724474756E+03  0.32385174531E+04  0.31059068510E+04 0.  0.
        3    1    3    3  502    0  0.12918483707E+04 -0.54129594337E+03 -0.11579216989E+04  0.18173211555E+04  0.10100000352E+00 0.  1.
       -3    1    3    3    0  502 -0.12918483707E+04  0.54129594337E+03  0.24067695138E+03  0.14211962976E+04  0.10100000352E+00 0. -1.
</event>
<event>
 5   0  0.1258262E-06  0.3105591E+04  0.7818609E-02  0.8214205E-01
       -2   -1    0    0    0  501  0.00000000000E+00  0.00000000000E+00  0.17561446277E+04  0.17561446277E+04  0.25500000920E-02 0. -1.
        2   -1    0    0  501    0  0.00000000000E+00  0.00000000000E+00 -0.13729926933E+04  0.13729926933E+04  0.25500000920E-02 0.  1.
    10030    2    1    2    0    0  0.00000000000E+00  0.00000000000E+00  0.38315193439E+03  0.31291373210E+04  0.31055909210E+04 0.  0.
        1    1    3    3  502    0  0.65615794286E+03  0.34310544784E+03 -0.11836568002E+04  0.13961762120E+04  0.50400001928E-02 0.  1.
       -1    1    3    3    0  502 -0.65615794286E+03 -0.34310544784E+03  0.15668087346E+04  0.17329611089E+04  0.50400001928E-02 0. -1.
</event>
<event>
 5   0  0.4330395E-07  0.3080566E+04  0.7818609E-02  0.8221092E-01
        1   -1    0    0  501    0  0.00000000000E+00  0.00000000000E+00  0.16218023923E+04  0.16218023923E+04  0.50400001928E-02 0.  1.
       -1   -1    0    0    0  501  0.00000000000E+00  0.00000000000E+00 -0.14628616152E+04  0.14628616152E+04  0.50400001928E-02 0. -1.
    10030    2    1    2    0    0  0.00000000000E+00  0.00000000000E+00  0.15894077709E+03  0.30846640075E+04  0.30805664850E+04 0.  0.
        1    1    3    3  502    0  0.20614998535E+03  0.15216421308E+04  0.20037815513E+03  0.15485619122E+04  0.50400001928E-02 0. -1.
       -1    1    3    3    0  502 -0.20614998535E+03 -0.15216421308E+04 -0.41437378043E+02  0.15361020953E+04  0.50400001928E-02 0.  1.
</event>
<event>
 5   0  0.1176002E-06  0.3010217E+04  0.7818609E-02  0.8240819E-01
       -2   -1    0    0    0  501  0.00000000000E+00  0.00000000000E+00  0.96398618356E+03  0.96398618357E+03  0.25500000920E-02 0. -1.
        2   -1    0    0  501    0  0.00000000000E+00  0.00000000000E+00 -0.23499831646E+04  0.23499831646E+04  0.25500000920E-02 0.  1.
    10030    2    1    2    0    0  0.00000000000E+00  0.00000000000E+00 -0.13859969810E+04  0.33139693482E+04  0.30102168043E+04 0.  0.
        2    1    3    3  502    0 -0.75133699154E+03  0.12286722211E+04 -0.11743966468E+04  0.18583191830E+04  0.25500000920E-02 0.  1.
       -2    1    3    3    0  502  0.75133699154E+03 -0.12286722211E+04 -0.21160033419E+03  0.14556501651E+04  0.25500000920E-02 0. -1.
</event>
<event>
 5   0  0.1193123E-06  0.3102669E+04  0.7818609E-02  0.8215006E-01
        2   -1    0    0  501    0  0.00000000000E+00  0.00000000000E+00  0.91244917165E+03  0.91244917165E+03  0.25500000920E-02 0.  1.
       -2   -1    0    0    0  501  0.00000000000E+00  0.00000000000E+00 -0.26375586162E+04  0.26375586162E+04  0.25500000920E-02 0. -1.
    10030    2    1    2    0    0  0.00000000000E+00  0.00000000000E+00 -0.17251094446E+04  0.35500077879E+04  0.31026686414E+04 0.  0.
        3    1    3    3  502    0  0.12645594120E+04  0.86916357259E+03 -0.11236741359E+04  0.19018936343E+04  0.10100000352E+00 0. -1.
       -3    1    3    3    0  502 -0.12645594120E+04 -0.86916357259E+03 -0.60143530868E+03  0.16481141536E+04  0.10100000352E+00 0.  1.
</event>
<event>
 5   0  0.4330395E-07  0.3074866E+04  0.7818609E-02  0.8222670E-01
        1   -1    0    0  501    0  0.00000000000E+00  0.00000000000E+00  0.11985199333E+04  0.11985199333E+04  0.50400001928E-02 0.  1.
       -1   -1    0    0    0  501  0.00000000000E+00  0.00000000000E+00 -0.19721824668E+04  0.19721824668E+04  0.50400001928E-02 0. -1.
    10030    2    1    2    0    0  0.00000000000E+00  0.00000000000E+00 -0.77366253350E+03  0.31707024002E+04  0.30748658499E+04 0.  0.
        1    1    3    3  502    0 -0.14490306736E+02  0.98085852234E+03  0.83387559483E+03  0.12874944340E+04  0.50400001928E-02 0.  1.
       -1    1    3    3    0  502  0.14490306736E+02 -0.98085852234E+03 -0.16075381283E+04  0.18832079662E+04  0.50400001928E-02 0. -1.
</event>
<event>
 5   0  0.1237580E-06  0.3063132E+04  0.7818609E-02  0.8225929E-01
       -2   -1    0    0    0  501  0.00000000000E+00  0.00000000000E+00  0.13557017782E+04  0.13557017782E+04  0.25500000920E-02 0.  1.
        2   -1    0    0  501    0  0.00000000000E+00  0.00000000000E+00 -0.17302441587E+04  0.17302441587E+04  0.25500000920E-02 0. -1.
    10030    2    1    2    0    0  0.00000000000E+00  0.00000000000E+00 -0.37454238050E+03  0.30859459369E+04  0.30631324377E+04 0.  0.
        4    1    3    3  502    0 -0.12789318798E+04 -0.84255354365E+03 -0.17577380305E+03  0.15415775264E+04  0.12699999809E+01 0.  1.
       -4    1    3    3    0  502  0.12789318798E+04  0.84255354365E+03 -0.19876857746E+03  0.15443684105E+04  0.12699999809E+01 0. -1.
</event>
<event>
 5   0  0.3902375E-07  0.3108959E+04  0.7818609E-02  0.8213284E-01
       -3   -1    0    0    0  501  0.00000000000E+00  0.00000000000E+00  0.89758947062E+03  0.89758947630E+03  0.10100000352E+00 0. -1.
        3   -1    0    0  501    0  0.00000000000E+00  0.00000000000E+00 -0.26921061543E+04  0.26921061562E+04  0.10100000352E+00 0.  1.
    10030    2    1    2    0    0  0.00000000000E+00  0.00000000000E+00 -0.17945166837E+04  0.35896956325E+04  0.31089587656E+04 0.  0.
        2    1    3    3  502    0  0.12471453630E+04  0.88532928342E+03 -0.57639043848E+03  0.16344434631E+04  0.25500000920E-02 0. -1.
       -2    1    3    3    0  502 -0.12471453630E+04 -0.88532928342E+03 -0.12181262452E+04  0.19552521693E+04  0.25500000920E-02 0.  1.
</event>
<event>
 5   0  0.1200286E-06  0.3105861E+04  0.7818609E-02  0.8214131E-01
       -2   -1    0    0    0  501  0.00000000000E+00  0.00000000000E+00  0.11491991469E+04  0.11491991469E+04  0.25500000920E-02 0.  1.
        2   -1    0    0  501    0  0.00000000000E+00  0.00000000000E+00 -0.20984989919E+04  0.20984989919E+04  0.25500000920E-02 0. -1.
    10030    2    1    2    0    0  0.00000000000E+00  0.00000000000E+00 -0.94929984504E+03  0.32476981389E+04  0.31058610731E+04 0.  0.
        5    1    3    3  502    0 -0.21379943140E+03 -0.22438466520E+03  0.11165223216E+04  0.11587505596E+04  0.46999998093E+01 0.  1.
       -5    1    3    3    0  502  0.21379943140E+03  0.22438466520E+03 -0.20658221666E+04  0.20889475793E+04  0.46999998093E+01 0. -1.
</event>
<event>
 5   0  0.1237580E-06  0.3095264E+04  0.7818609E-02  0.8217039E-01
       -2   -1    0    0    0  501  0.00000000000E+00  0.00000000000E+00  0.10423823719E+04  0.10423823719E+04  0.25500000920E-02 0. -1.
        2   -1    0    0  501    0  0.00000000000E+00  0.00000000000E+00 -0.22977797344E+04  0.22977797344E+04  0.25500000920E-02 0.  1.
    10030    2    1    2    0    0  0.00000000000E+00  0.00000000000E+00 -0.12553973624E+04  0.33401621063E+04  0.30952641824E+04 0.  0.
        4    1    3    3  502    0  0.11971451973E+03  0.85235729707E+03  0.76026929056E+03  0.11484143569E+04  0.12699999809E+01 0. -1.
       -4    1    3    3    0  502 -0.11971451973E+03 -0.85235729707E+03 -0.20156666530E+04  0.21917477494E+04  0.12699999809E+01 0.  1.
</event>
<event>
 5   0  0.1193123E-06  0.3102556E+04  0.7818609E-02  0.8215037E-01
       -2   -1    0    0    0  501  0.00000000000E+00  0.00000000000E+00  0.25450328519E+04  0.25450328519E+04  0.25500000920E-02 0. -1.
        2   -1    0    0  501    0  0.00000000000E+00  0.00000000000E+00 -0.94555318848E+03  0.94555318848E+03  0.25500000920E-02 0.  1.
    10030    2    1    2    0    0  0.00000000000E+00  0.00000000000E+00  0.15994796634E+04  0.34905860403E+04  0.31025563188E+04 0.  0.
        3    1    3    3  502    0  0.66810033889E+03  0.90138130814E+03 -0.40551053507E+03  0.11930151423E+04  0.10100000352E+00 0.  1.
       -3    1    3    3    0  502 -0.66810033889E+03 -0.90138130814E+03  0.20049901985E+04  0.22975708981E+04  0.10100000352E+00 0. -1.
</event>
<event>
 5   0  0.1193123E-06  0.3080489E+04  0.7818609E-02  0.8221113E-01
        2   -1    0    0  501    0  0.00000000000E+00  0.00000000000E+00  0.18135170611E+04  0.18135170611E+04  0.25500000920E-02 0.  1.
       -2   -1    0    0    0  501  0.00000000000E+00  0.00000000000E+00 -0.13081502441E+04  0.13081502441E+04  0.25500000920E-02 0. -1.
    10030    2    1    2    0    0  0.00000000000E+00  0.00000000000E+00  0.50536681694E+03  0.31216673052E+04  0.30804887834E+04 0.  0.
        3    1    3    3  502    0  0.21539694169E+03 -0.51125332072E+03 -0.12033874963E+04  0.13251102886E+04  0.10100000352E+00 0. -1.
       -3    1    3    3    0  502 -0.21539694169E+03  0.51125332072E+03  0.17087543133E+04  0.17965570166E+04  0.10100000352E+00 0.  1.
</event>
<event>
 5   0  0.1237580E-06  0.3094998E+04  0.7818609E-02  0.8217112E-01
        2   -1    0    0  501    0  0.00000000000E+00  0.00000000000E+00  0.19113041451E+04  0.19113041451E+04  0.25500000920E-02 0. -1.
       -2   -1    0    0    0  501  0.00000000000E+00  0.00000000000E+00 -0.12529420401E+04  0.12529420401E+04  0.25500000920E-02 0.  1.
    10030    2    1    2    0    0  0.00000000000E+00  0.00000000000E+00  0.65836210501E+03  0.31642461852E+04  0.30949981032E+04 0.  0.
        4    1    3    3  502    0 -0.28553307128E+03  0.60058510654E+03  0.17577711464E+04  0.18793596306E+04  0.12699999809E+01 0. -1.
       -4    1    3    3    0  502  0.28553307128E+03 -0.60058510654E+03 -0.10994090414E+04  0.12848865546E+04  0.12699999809E+01 0.  1.
</event>
<event>
 5   0  0.1193123E-06  0.3108947E+04  0.7818609E-02  0.8213287E-01
       -2   -1    0    0    0  501  0.00000000000E+00  0.00000000000E+00  0.15665845394E+04  0.15665845394E+04  0.25500000920E-02 0.  1.
        2   -1    0    0  501    0  0.00000000000E+00  0.00000000000E+00 -0.15424558887E+04  0.15424558887E+04  0.25500000920E-02 0. -1.
    10030    2    1    2    0    0  0.00000000000E+00  0.00000000000E+00  0.24128650726E+02  0.31090404282E+04  0.31089467979E+04 0.  0.
        3    1    3    3  502    0 -0.14112346497E+04 -0.56681055491E+03  0.33383494569E+03  0.15570174125E+04  0.10100000352E+00 0. -1.
       -3    1    3    3    0  502  0.14112346497E+04  0.56681055491E+03 -0.30970629496E+03  0.15520230156E+04  0.10100000352E+00 0.  1.
</event>
<event>
 5   0  0.3935852E-07  0.3112278E+04  0.7818609E-02  0.8212376E-01
       -1   -1    0    0    0  501  0.00000000000E+00  0.00000000000E+00  0.28015672101E+04  0.28015672101E+04  0.50400001928E-02 0.  1.
        1   -1    0    0  501    0  0.00000000000E+00  0.00000000000E+00 -0.86436227189E+03  0.86436227190E+03  0.50400001928E-02 0. -1.
    10030    2    1    2    0    0  0.00000000000E+00  0.00000000000E+00  0.19372049382E+04  0.36659294820E+04  0.31122782643E+04 0.  0.
        5    1    3    3  502    0 -0.26933380024E+03 -0.89677444779E+03  0.24326058196E+04  0.26065951488E+04  0.46999998093E+01 0.  1.
       -5    1    3    3    0  502  0.26933380024E+03  0.89677444779E+03 -0.49540088142E+03  0.10593343332E+04  0.46999998093E+01 0. -1.
</event>
<event>
 5   0  0.1258262E-06  0.3101271E+04  0.7818609E-02  0.8215389E-01
        2   -1    0    0  501    0  0.00000000000E+00  0.00000000000E+00  0.15822782290E+04  0.15822782290E+04  0.25500000920E-02 0. -1.
       -2   -1    0    0    0  501  0.00000000000E+00  0.00000000000E+00 -0.15196259342E+04  0.15196259342E+04  0.25500000920E-02 0.  1.
    10030    2    1    2    0    0  0.00000000000E+00  0.00000000000E+00  0.62652294772E+02  0.31019041632E+04  0.31012713728E+04 0.  0.
        1    1    3    3  502    0  0.14916575189E+04 -0.33906646386E+03  0.28527322869E+03  0.15560813076E+04  0.50400001928E-02 0. -1.
       -1    1    3    3    0  502 -0.14916575189E+04  0.33906646386E+03 -0.22262093392E+03  0.15458228556E+04  0.50400001928E-02 0.  1.
</event>
<event>
 5   0  0.4173905E-07  0.3101171E+04  0.7818609E-02  0.8215417E-01
       -1   -1    0    0    0  501  0.00000000000E+00  0.00000000000E+00  0.10079592432E+04  0.10079592433E+04  0.50400001928E-02 0. -1.
        1   -1    0    0  501    0  0.00000000000E+00  0.00000000000E+00 -0.23853293103E+04  0.23853293103E+04  0.50400001928E-02 0.  1.
    10030    2    1    2    0    0  0.00000000000E+00  0.00000000000E+00 -0.13773700670E+04  0.33932885535E+04  0.31011705703E+04 0.  0.
        3    1    3    3  502    0  0.94167343794E+03  0.11161611404E+04 -0.11828434188E+03  0.14651128799E+04  0.10100000352E+00 0.  1.
       -3    1    3    3    0  502 -0.94167343794E+03 -0.11161611404E+04 -0.12590857252E+04  0.19281756737E+04  0.10100000352E+00 0. -1.
</event>
<event>
 5   0  0.1237580E-06  0.3083687E+04  0.7818609E-02  0.8220229E-01
       -2   -1    0    0    0  501  0.00000000000E+00  0.00000000000E+00  0.14187892628E+04  0.14187892628E+04  0.25500000920E-02 0. -1.
        2   -1    0    0  501    0  0.00000000000E+00  0.00000000000E+00 -0.16755708096E+04  0.16755708096E+04  0.25500000920E-02 0.  1.
    10030    2    1    2    0    0  0.00000000000E+00  0.00000000000E+00 -0.25678154676E+03  0.30943600724E+04  0.30836873212E+04 0.  0.
        4    1    3    3  502    0  0.32085434203E+03  0.91036481319E+03 -0.13348700745E+04  0.16472981911E+04  0.12699999809E+01 0.  1.
       -4    1    3    3    0  502 -0.32085434203E+03 -0.91036481319E+03  0.10780885277E+04  0.14470618813E+04  0.12699999809E+01 0. -1.
</event>
<event>
 5   0  0.1237580E-06  0.3110639E+04  0.7818609E-02  0.8212824E-01
       -2   -1    0    0    0  501  0.00000000000E+00  0.00000000000E+00  0.19095618168E+04  0.19095618168E+04  0.25500000920E-02 0. -1.
        2   -1    0    0  501    0  0.00000000000E+00  0.00000000000E+00 -0.12667924594E+04  0.12667924594E+04  0.25500000920E-02 0.  1.
    10030    2    1    2    0    0  0.00000000000E+00  0.00000000000E+00  0.64276935741E+03  0.31763542761E+04  0.31106388477E+04 0.  0.
        4    1    3    3  502    0  0.14242263709E+04 -0.61734109772E+03  0.42083894979E+03  0.16083027766E+04  0.12699999809E+01 0. -1.
       -4    1    3    3    0  502 -0.14242263709E+04  0.61734109772E+03  0.22193040762E+03  0.15680514996E+04  0.12699999809E+01 0.  1.
</event>
<event>
 5   0  0.1237580E-06  0.3097260E+04  0.7818609E-02  0.8216490E-01
        2   -1    0    0  501    0  0.00000000000E+00  0.00000000000E+00  0.19675862815E+04  0.19675862815E+04  0.25500000920E-02 0. -1.
       -2   -1    0    0    0  501  0.00000000000E+00  0.00000000000E+00 -0.12188812920E+04  0.12188812920E+04  0.25500000920E-02 0.  1.
    10030    2    1    2    0    0  0.00000000000E+00  0.00000000000E+00  0.74870498949E+03  0.31864675735E+04  0.30972595041E+04 0.  0.
        4    1    3    3  502    0  0.83826715481E+03 -0.86002544309E+03  0.13802227860E+04  0.18295770379E+04  0.12699999809E+01 0. -1.
       -4    1    3    3    0  502 -0.83826715481E+03  0.86002544309E+03 -0.63151779651E+03  0.13568905357E+04  0.12699999809E+01 0.  1.
</event>
<event>
 5   0  0.1258262E-06  0.3096997E+04  0.7818609E-02  0.8216563E-01
       -2   -1    0    0    0  501  0.00000000000E+00  0.00000000000E+00  0.11737097258E+04  0.11737097258E+04  0.25500000920E-02 0. -1.
        2   -1    0    0  501    0  0.00000000000E+00  0.00000000000E+00 -0.20429644877E+04  0.20429644877E+04  0.25500000920E-02 0.  1.
    10030    2    1    2    0    0  0.00000000000E+00  0.00000000000E+00 -0.86925476186E+03  0.32166742136E+04  0.30969967961E+04 0.  0.
        1    1    3    3  502    0 -0.14123222640E+04  0.11445593636E+03 -0.10833370516E+04  0.17836405205E+04  0.50400001928E-02 0.  1.
       -1    1    3    3    0  502  0.14123222640E+04 -0.11445593636E+03  0.21408228978E+03  0.14330336931E+04  0.50400001928E-02 0. -1.
</event>
<event>
 5   0  0.4219337E-07  0.3107067E+04  0.7818609E-02  0.8213801E-01
       -1   -1    0    0    0  501  0.00000000000E+00  0.00000000000E+00  0.10801073872E+04  0.10801073872E+04  0.50400001928E-02 0. -1.
        1   -1    0    0  501    0  0.00000000000E+00  0.00000000000E+00 -0.22344694121E+04  0.22344694121E+04  0.50400001928E-02 0.  1.
    10030    2    1    2    0    0  0.00000000000E+00  0.00000000000E+00 -0.11543620249E+04  0.33145767992E+04  0.31070673751E+04 0.  0.
        4    1    3    3  502    0 -0.12724519590E+03  0.15025072637E+04 -0.97597346889E+03  0.17961751702E+04  0.12699999809E+01 0.  1.
       -4    1    3    3    0  502  0.12724519590E+03 -0.15025072637E+04 -0.17838855600E+03  0.15184016290E+04  0.12699999809E+01 0. -1.
</event>
<event>
 5   0  0.3935852E-07  0.3103471E+04  0.7818609E-02  0.8214786E-01
        1   -1    0    0  501    0  0.00000000000E+00  0.00000000000E+00  0.15714297936E+04  0.15714297936E+04  0.50400001928E-02 0.  1.
       -1   -1    0    0    0  501  0.00000000000E+00  0.00000000000E+00 -0.15322882721E+04  0.15322882721E+04  0.50400001928E-02 0. -1.
    10030    2    1    2    0    0  0.00000000000E+00  0.00000000000E+00  0.39141521559E+02  0.31037180657E+04  0.31034712457E+04 0.  0.
        5    1    3    3  502    0  0.15247011463E+04 -0.96033066227E+02 -0.25234315378E+03  0.15484298798E+04  0.46999998093E+01 0. -1.
       -5    1    3    3    0  502 -0.15247011463E+04  0.96033066227E+02  0.29148467534E+03  0.15552881859E+04  0.46999998093E+01 0.  1.
</event>
<event>
 5   0  0.1237580E-06  0.3106243E+04  0.7818609E-02  0.8214027E-01
        2   -1    0    0  501    0  0.00000000000E+00  0.00000000000E+00  0.22976143213E+04  0.22976143213E+04  0.25500000920E-02 0. -1.
       -2   -1    0    0    0  501  0.00000000000E+00  0.00000000000E+00 -0.10498658559E+04  0.10498658559E+04  0.25500000920E-02 0.  1.
    10030    2    1    2    0    0  0.00000000000E+00  0.00000000000E+00  0.12477484654E+04  0.33474801772E+04  0.31062432783E+04 0.  0.
        4    1    3    3  502    0 -0.71743949758E+03 -0.28450517326E+03  0.20763301117E+04  0.22151322697E+04  0.12699999809E+01 0. -1.
       -4    1    3    3    0  502  0.71743949758E+03  0.28450517326E+03 -0.82858164631E+03  0.11323479076E+04  0.12699999809E+01 0.  1.
</event>
<event>
 5   0  0.1258262E-06  0.3094942E+04  0.7818609E-02  0.8217127E-01
       -2   -1    0    0    0  501  0.00000000000E+00  0.00000000000E+00  0.10609034561E+04  0.10609034561E+04  0.25500000920E-02 0. -1.
        2   -1    0    0  501    0  0.00000000000E+00  0.00000000000E+00 -0.22571954361E+04  0.22571954361E+04  0.25500000920E-02 0.  1.
    10030    2    1    2    0    0  0.00000000000E+00  0.00000000000E+00 -0.11962919800E+04  0.33180988922E+04  0.30949419634E+04 0.  0.
        1    1    3    3  502    0 -0.88510088154E+03  0.62427075455E+03  0.58678277764E+03  0.12318407258E+04  0.50400001928E-02 0. -1.
       -1    1    3    3    0  502  0.88510088154E+03 -0.62427075455E+03 -0.17830747577E+04  0.20862581664E+04  0.50400001928E-02 0.  1.
</event>
<event>
 5   0  0.1176002E-06  0.3096762E+04  0.7818609E-02  0.8216627E-01
        2   -1    0    0  501    0  0.00000000000E+00  0.00000000000E+00  0.10516032992E+04  0.10516032992E+04  0.25500000920E-02 0. -1.
       -2   -1    0    0    0  501  0.00000000000E+00  0.00000000000E+00 -0.22798359000E+04  0.22798359000E+04  0.25500000920E-02 0.  1.
    10030    2    1    2    0    0  0.00000000000E+00  0.00000000000E+00 -0.12282326008E+04  0.33314391992E+04  0.30967615045E+04 0.  0.
        2    1    3    3  502    0 -0.13347193368E+04  0.66027031444E+03 -0.15763696063E+03  0.14974251259E+04  0.25500000920E-02 0. -1.
       -2    1    3    3    0  502  0.13347193368E+04 -0.66027031444E+03 -0.10705956402E+04  0.18340140733E+04  0.25500000920E-02 0.  1.
</event>
<event>
 5   0  0.1200286E-06  0.3098781E+04  0.7818609E-02  0.8216073E-01
       -2   -1    0    0    0  501  0.00000000000E+00  0.00000000000E+00  0.18015094616E+04  0.18015094616E+04  0.25500000920E-02 0.  1.
        2   -1    0    0  501    0  0.00000000000E+00  0.00000000000E+00 -0.13325553089E+04  0.13325553089E+04  0.25500000920E-02 0. -1.
    10030    2    1    2    0    0  0.00000000000E+00  0.00000000000E+00  0.46895415274E+03  0.31340647705E+04  0.30987810488E+04 0.  0.
        5    1    3    3  502    0 -0.64841622202E+02 -0.12203334596E+04 -0.72882298546E+03  0.14228925549E+04  0.46999998093E+01 0. -1.
       -5    1    3    3    0  502  0.64841622202E+02  0.12203334596E+04  0.11977771382E+04  0.17111722156E+04  0.46999998093E+01 0.  1.
</event>
<event>
 5   0  0.1176002E-06  0.3108677E+04  0.7818609E-02  0.8213361E-01
        2   -1    0    0  501    0  0.00000000000E+00  0.00000000000E+00  0.19978208526E+04  0.19978208526E+04  0.25500000920E-02 0.  1.
       -2   -1    0    0    0  501  0.00000000000E+00  0.00000000000E+00 -0.12093018793E+04  0.12093018793E+04  0.25500000920E-02 0. -1.
    10030    2    1    2    0    0  0.00000000000E+00  0.00000000000E+00  0.78851897331E+03  0.32071227319E+04  0.31086772181E+04 0.  0.
        2    1    3    3  502    0 -0.13452585857E+04 -0.31119069019E+03  0.11305902017E+04  0.17845992582E+04  0.25500000920E-02 0.  1.
       -2    1    3    3    0  502  0.13452585857E+04  0.31119069019E+03 -0.34207122836E+03  0.14225234738E+04  0.25500000920E-02 0. -1.
</event>
<event>
 5   0  0.4173905E-07  0.3241141E+04  0.7818609E-02  0.8178036E-01
       -1   -1    0    0    0  501  0.00000000000E+00  0.00000000000E+00  0.14802787211E+04  0.14802787211E+04  0.50400001928E-02 0.  1.
        1   -1    0    0  501    0  0.00000000000E+00  0.00000000000E+00 -0.17741583519E+04  0.17741583519E+04  0.50400001928E-02 0. -1.
    10030    2    1    2    0    0  0.00000000000E+00  0.00000000000E+00 -0.29387963073E+03  0.32544370730E+04  0.32411410683E+04 0.  0.
        3    1    3    3  502    0 -0.71153097898E+03 -0.66715326222E+03  0.11525403893E+04  0.15098738916E+04  0.10100000352E+00 0.  1.
       -3    1    3    3    0  502  0.71153097898E+03  0.66715326222E+03 -0.14464200200E+04  0.17445631814E+04  0.10100000352E+00 0. -1.
</event>
<event>
 5   0  0.1258262E-06  0.3111266E+04  0.7818609E-02  0.8212653E-01
       -2   -1    0    0    0  501  0.00000000000E+00  0.00000000000E+00  0.15039025343E+04  0.15039025343E+04  0.25500000920E-02 0.  1.
        2   -1    0    0  501    0  0.00000000000E+00  0.00000000000E+00 -0.16091431298E+04  0.16091431298E+04  0.25500000920E-02 0. -1.
    10030    2    1    2    0    0  0.00000000000E+00  0.00000000000E+00 -0.10524059549E+03  0.31130456641E+04  0.31112662573E+04 0.  0.
        1    1    3    3  502    0 -0.15383497729E+02 -0.18070050679E+02  0.15037214075E+04  0.15039086576E+04  0.50400001928E-02 0.  1.
       -1    1    3    3    0  502  0.15383497729E+02  0.18070050679E+02 -0.16089620030E+04  0.16091370066E+04  0.50400001928E-02 0. -1.
</event>
<event>
 5   0  0.4219337E-07  0.3114000E+04  0.7818609E-02  0.8211906E-01
        1   -1    0    0  501    0  0.00000000000E+00  0.00000000000E+00  0.12619400139E+04  0.12619400140E+04  0.50400001928E-02 0.  1.
       -1   -1    0    0    0  501  0.00000000000E+00  0.00000000000E+00 -0.19210494913E+04  0.19210494913E+04  0.50400001928E-02 0. -1.
    10030    2    1    2    0    0  0.00000000000E+00  0.00000000000E+00 -0.65910947734E+03  0.31829895053E+04  0.31140001425E+04 0.  0.
        4    1    3    3  502    0 -0.13490230937E+04 -0.47374634069E+03  0.30050113365E+03  0.14610275312E+04  0.12699999809E+01 0.  1.
       -4    1    3    3    0  502  0.13490230937E+04  0.47374634069E+03 -0.95961061099E+03  0.17219619741E+04  0.12699999809E+01 0. -1.
</event>
<event>
 5   0  0.4219337E-07  0.3109077E+04  0.7818609E-02  0.8213251E-01
        1   -1    0    0  501    0  0.00000000000E+00  0.00000000000E+00  0.67247889244E+03  0.67247889246E+03  0.50400001928E-02 0. -1.
       -1   -1    0    0    0  501  0.00000000000E+00  0.00000000000E+00 -0.35935558730E+04  0.35935558730E+04  0.50400001928E-02 0.  1.
    10030    2    1    2    0    0  0.00000000000E+00  0.00000000000E+00 -0.29210769805E+04  0.42660347655E+04  0.31090773380E+04 0.  0.
        4    1    3    3  502    0  0.11832171910E+04 -0.88294209214E+03 -0.21285228692E+04  0.25904055429E+04  0.12699999809E+01 0.  1.
       -4    1    3    3    0  502 -0.11832171910E+04  0.88294209214E+03 -0.79255411139E+03  0.16756292226E+04  0.12699999809E+01 0. -1.
</event>
<event>
 5   0  0.1193123E-06  0.3094626E+04  0.7818609E-02  0.8217214E-01
        2   -1    0    0  501    0  0.00000000000E+00  0.00000000000E+00  0.17478939943E+04  0.17478939943E+04  0.25500000920E-02 0.  1.
       -2   -1    0    0    0  501  0.00000000000E+00  0.00000000000E+00 -0.13697501421E+04  0.13697501421E+04  0.25500000920E-02 0. -1.
    10030    2    1    2    0    0  0.00000000000E+00  0.00000000000E+00  0.37814385219E+03  0.31176441364E+04  0.30946263407E+04 0.  0.
        3    1    3    3  502    0 -0.24636696154E+03 -0.14746255543E+04 -0.21259251572E+03  0.15101035703E+04  0.10100000352E+00 0.  1.
       -3    1    3    3    0  502  0.24636696154E+03  0.14746255543E+04  0.59073636791E+03  0.16075405661E+04  0.10100000352E+00 0. -1.
</event>
<event>
 5   0  0.1200286E-06  0.3114859E+04  0.7818609E-02  0.8211672E-01
       -2   -1    0    0    0  501  0.00000000000E+00  0.00000000000E+00  0.17682202868E+04  0.17682202868E+04  0.25500000920E-02 0.  1.
        2   -1    0    0  501    0  0.00000000000E+00  0.00000000000E+00 -0.13717675752E+04  0.13717675752E+04  0.25500000920E-02 0. -1.
    10030    2    1    2    0    0  0.00000000000E+00  0.00000000000E+00  0.39645271167E+03  0.31399878620E+04  0.31148593902E+04 0.  0.
        5    1    3    3  502    0 -0.74768757866E+03  0.10683177213E+04  0.10566983157E+04  0.16783840113E+04  0.46999998093E+01 0.  1.
       -5    1    3    3    0  502  0.74768757866E+03 -0.10683177213E+04 -0.66024560400E+03  0.14616038507E+04  0.46999998093E+01 0. -1.
</event>
<event>
 5   0  0.1200286E-06  0.3043397E+04  0.7818609E-02  0.8231446E-01
       -2   -1    0    0    0  501  0.00000000000E+00  0.00000000000E+00  0.10613817898E+04  0.10613817898E+04  0.25500000920E-02 0. -1.
        2   -1    0    0  501    0  0.00000000000E+00  0.00000000000E+00 -0.21816530816E+04  0.21816530816E+04  0.25500000920E-02 0.  1.
    10030    2    1    2    0    0  0.00000000000E+00  0.00000000000E+00 -0.11202712918E+04  0.32430348714E+04  0.30433973467E+04 0.  0.
        5    1    3    3  502    0  0.15068294171E+03 -0.14855928234E+04 -0.24790778690E+03  0.15136617016E+04  0.46999998093E+01 0. -1.
       -5    1    3    3    0  502 -0.15068294171E+03  0.14855928234E+04 -0.87236350492E+03  0.17293731699E+04  0.46999998093E+01 0.  1.
</event>
<event>
 5   0  0.1258262E-06  0.3108885E+04  0.7818609E-02  0.8213304E-01
       -2   -1    0    0    0  501  0.00000000000E+00  0.00000000000E+00  0.10469265563E+04  0.10469265563E+04  0.25500000920E-02 0. -1.
        2   -1    0    0  501    0  0.00000000000E+00  0.00000000000E+00 -0.23079859381E+04  0.23079859381E+04  0.25500000920E-02 0.  1.
    10030    2    1    2    0    0  0.00000000000E+00  0.00000000000E+00 -0.12610593817E+04  0.33549124944E+04  0.31088851829E+04 0.  0.
        1    1    3    3  502    0  0.10164057111E+04  0.60801642509E+03  0.45588148379E+03  0.12690911985E+04  0.50400001928E-02 0. -1.
       -1    1    3    3    0  502 -0.10164057111E+04 -0.60801642509E+03 -0.17169408655E+04  0.20858212959E+04  0.50400001928E-02 0.  1.
</event>
<event>
 5   0  0.4219337E-07  0.3107482E+04  0.7818609E-02  0.8213687E-01
        1   -1    0    0  501    0  0.00000000000E+00  0.00000000000E+00  0.15571641581E+04  0.15571641581E+04  0.50400001928E-02 0.  1.
       -1   -1    0    0    0  501  0.00000000000E+00  0.00000000000E+00 -0.15503255546E+04  0.15503255546E+04  0.50400001928E-02 0. -1.
    10030    2    1    2    0    0  0.00000000000E+00  0.00000000000E+00  0.68386035071E+01  0.31074897128E+04  0.31074821880E+04 0.  0.
        4    1    3    3  502    0 -0.88143876102E+03  0.75703299521E+03 -0.10281240480E+04  0.15514747552E+04  0.12699999809E+01 0. -1.
       -4    1    3    3    0  502  0.88143876102E+03 -0.75703299521E+03  0.10349626515E+04  0.15560149575E+04  0.12699999809E+01 0.  1.
</event>
<event>
 5   0  0.3902375E-07  0.3070302E+04  0.7818609E-02  0.8223936E-01
        3   -1    0    0  501    0  0.00000000000E+00  0.00000000000E+00  0.19621028300E+04  0.19621028326E+04  0.10100000352E+00 0.  1.
       -3   -1    0    0    0  501  0.00000000000E+00  0.00000000000E+00 -0.12011037854E+04  0.12011037897E+04  0.10100000352E+00 0. -1.
    10030    2    1    2    0    0  0.00000000000E+00  0.00000000000E+00  0.76099904460E+03  0.31632066223E+04  0.30703023613E+04 0.  0.
        2    1    3    3  502    0 -0.11674677121E+04 -0.53047100370E+03  0.12500215136E+04  0.17907914812E+04  0.25500000920E-02 0.  1.
       -2    1    3    3    0  502  0.11674677121E+04  0.53047100370E+03 -0.48902246903E+03  0.13724151412E+04  0.25500000920E-02 0. -1.
</event>
<event>
 5   0  0.1200286E-06  0.3147526E+04  0.7818609E-02  0.8202814E-01
        2   -1    0    0  501    0  0.00000000000E+00  0.00000000000E+00  0.13488222232E+04  0.13488222232E+04  0.25500000920E-02 0. -1.
       -2   -1    0    0    0  501  0.00000000000E+00  0.00000000000E+00 -0.18362171413E+04  0.18362171413E+04  0.25500000920E-02 0.  1.
    10030    2    1    2    0    0  0.00000000000E+00  0.00000000000E+00 -0.48739491818E+03  0.31850393645E+04  0.31475263219E+04 0.  0.
        5    1    3    3  502    0 -0.12062784836E+04  0.17364972174E+03 -0.12512786499E+04  0.17467061446E+04  0.46999998093E+01 0.  1.
       -5    1    3    3    0  502  0.12062784836E+04 -0.17364972174E+03  0.76388373170E+03  0.14383332199E+04  0.46999998093E+01 0. -1.
</event>
<event>
 5   0  0.1176002E-06  0.3126343E+04  0.7818609E-02  0.8208545E-01
       -2   -1    0    0    0  501  0.00000000000E+00  0.00000000000E+00  0.12116791493E+04  0.12116791493E+04  0.25500000920E-02 0.  1.
        2   -1    0    0  501    0  0.00000000000E+00  0.00000000000E+00 -0.20166275601E+04  0.20166275601E+04  0.25500000920E-02 0. -1.
    10030    2    1    2    0    0  0.00000000000E+00  0.00000000000E+00 -0.80494841079E+03  0.32283067094E+04  0.31263432738E+04 0.  0.
        2    1    3    3  502    0  0.64445567087E+03 -0.16882328238E+03 -0.18626949149E+04  0.19782458791E+04  0.25500000920E-02 0. -1.
       -2    1    3    3    0  502 -0.64445567087E+03  0.16882328238E+03  0.10577465041E+04  0.12500608302E+04  0.25500000920E-02 0.  1.
</event>
<event>
 5   0  0.1193123E-06  0.3102105E+04  0.7818609E-02  0.8215160E-01
        2   -1    0    0  501    0  0.00000000000E+00  0.00000000000E+00  0.19800151696E+04  0.19800151696E+04  0.25500000920E-02 0. -1.
       -2   -1    0    0    0  501  0.00000000000E+00  0.00000000000E+00 -0.12150228914E+04  0.12150228914E+04  0.25500000920E-02 0.  1.
    10030    2    1    2    0    0  0.00000000000E+00  0.00000000000E+00  0.76499227818E+03  0.31950380611E+04  0.31021049347E+04 0.  0.
        3    1    3    3  502    0 -0.14850914736E+04  0.12730783977E+03 -0.59378417469E+02  0.14917204087E+04  0.10100000352E+00 0. -1.
       -3    1    3    3    0  502  0.14850914736E+04 -0.12730783977E+03  0.82437069565E+03  0.17033176524E+04  0.10100000352E+00 0.  1.
</event>
<event>
 5   0  0.4330395E-07  0.3107834E+04  0.7818609E-02  0.8213591E-01
       -1   -1    0    0    0  501  0.00000000000E+00  0.00000000000E+00  0.14374711647E+04  0.14374711647E+04  0.50400001928E-02 0.  1.
        1   -1    0    0  501    0  0.00000000000E+00  0.00000000000E+00 -0.16797962382E+04  0.16797962382E+04  0.50400001928E-02 0. -1.
    10030    2    1    2    0    0  0.00000000000E+00  0.00000000000E+00 -0.24232507351E+03  0.31172674030E+04  0.31078343940E+04 0.  0.
        1    1    3    3  502    0 -0.23699394820E+03 -0.10801666502E+04  0.97381595073E+03  0.14735140412E+04  0.50400001928E-02 0. -1.
       -1    1    3    3    0  502  0.23699394820E+03  0.10801666502E+04 -0.12161410242E+04  0.16437533618E+04  0.50400001928E-02 0.  1.
</event>
<event>
 5   0  0.1193123E-06  0.3057813E+04  0.7818609E-02  0.8227412E-01
       -2   -1    0    0    0  501  0.00000000000E+00  0.00000000000E+00  0.10981909208E+04  0.10981909208E+04  0.25500000920E-02 0.  1.
        2   -1    0    0  501    0  0.00000000000E+00  0.00000000000E+00 -0.21285507994E+04  0.21285507994E+04  0.25500000920E-02 0. -1.
    10030    2    1    2    0    0  0.00000000000E+00  0.00000000000E+00 -0.10303598786E+04  0.32267417203E+04  0.30578130502E+04 0.  0.
        3    1    3    3  502    0  0.86204103733E+02 -0.80253563554E+03 -0.18853985411E+04  0.20509076680E+04  0.10100000352E+00 0. -1.
       -3    1    3    3    0  502 -0.86204103733E+02  0.80253563554E+03  0.85503866252E+03  0.11758340522E+04  0.10100000352E+00 0.  1.
</event>
<event>
 5   0  0.1200286E-06  0.3113679E+04  0.7818609E-02  0.8211994E-01
        2   -1    0    0  501    0  0.00000000000E+00  0.00000000000E+00  0.24577015814E+04  0.24577015814E+04  0.25500000920E-02 0. -1.
       -2   -1    0    0    0  501  0.00000000000E+00  0.00000000000E+00 -0.98618523977E+03  0.98618523977E+03  0.25500000920E-02 0.  1.
    10030    2    1    2    0    0  0.00000000000E+00  0.00000000000E+00  0.14715163416E+04  0.34438868212E+04  0.31136788680E+04 0.  0.
        5    1    3    3  502    0  0.94657498517E+03  0.17521480857E+03 -0.61752666512E+03  0.11437070009E+04  0.46999998093E+01 0.  1.
       -5    1    3    3    0  502 -0.94657498517E+03 -0.17521480857E+03  0.20890430068E+04  0.23001798203E+04  0.46999998093E+01 0. -1.
</event>
<event>
 5   0  0.4330395E-07  0.3098573E+04  0.7818609E-02  0.8216130E-01
       -1   -1    0    0    0  501  0.00000000000E+00  0.00000000000E+00  0.19358336347E+04  0.19358336347E+04  0.50400001928E-02 0. -1.
        1   -1    0    0  501    0  0.00000000000E+00  0.00000000000E+00 -0.12399248784E+04  0.12399248784E+04  0.50400001928E-02 0.  1.
    10030    2    1    2    0    0  0.00000000000E+00  0.00000000000E+00  0.69590875631E+03  0.31757585132E+04  0.30985727580E+04 0.  0.
        1    1    3    3  502    0  0.66656770774E+03  0.41220721606E+03  0.17176810565E+04  0.18880295310E+04  0.50400001928E-02 0. -1.
       -1    1    3    3    0  502 -0.66656770774E+03 -0.41220721606E+03 -0.10217723002E+04  0.12877289822E+04  0.50400001928E-02 0.  1.
</event>
<event>
 5   0  0.4134019E-07  0.3100909E+04  0.7818609E-02  0.8215489E-01
        1   -1    0    0  501    0  0.00000000000E+00  0.00000000000E+00  0.23335517975E+04  0.23335517975E+04  0.50400001928E-02 0. -1.
       -1   -1    0    0    0  501  0.00000000000E+00  0.00000000000E+00 -0.10301502005E+04  0.10301502006E+04  0.50400001928E-02 0.  1.
    10030    2    1    2    0    0  0.00000000000E+00  0.00000000000E+00  0.13034015970E+04  0.33637019981E+04  0.31009088037E+04 0.  0.
        2    1    3    3  502    0 -0.11235927204E+04  0.31284047745E+03 -0.45643045240E+03  0.12524609868E+04  0.25500000920E-02 0.  1.
       -2    1    3    3    0  502  0.11235927204E+04 -0.31284047745E+03  0.17598320494E+04  0.21112410112E+04  0.25500000920E-02 0. -1.
</event>
<event>
 5   0  0.1237580E-06  0.3088075E+04  0.7818609E-02  0.8219018E-01
        2   -1    0    0  501    0  0.00000000000E+00  0.00000000000E+00  0.18392985788E+04  0.18392985788E+04  0.25500000920E-02 0. -1.
       -2   -1    0    0    0  501  0.00000000000E+00  0.00000000000E+00 -0.12961744518E+04  0.12961744518E+04  0.25500000920E-02 0.  1.
    10030    2    1    2    0    0  0.00000000000E+00  0.00000000000E+00  0.54312412704E+03  0.31354730306E+04  0.30880750167E+04 0.  0.
        4    1    3    3  502    0  0.10334594921E+04  0.10094239981E+04  0.82497358471E+03  0.16635980158E+04  0.12699999809E+01 0.  1.
       -4    1    3    3    0  502 -0.10334594921E+04 -0.10094239981E+04 -0.28184945767E+03  0.14718750149E+04  0.12699999809E+01 0. -1.
</event>
<event>
 5   0  0.1237580E-06  0.3071256E+04  0.7818609E-02  0.8223671E-01
       -2   -1    0    0    0  501  0.00000000000E+00  0.00000000000E+00  0.20179257790E+04  0.20179257790E+04  0.25500000920E-02 0. -1.
        2   -1    0    0  501    0  0.00000000000E+00  0.00000000000E+00 -0.11686025323E+04  0.11686025323E+04  0.25500000920E-02 0.  1.
    10030    2    1    2    0    0  0.00000000000E+00  0.00000000000E+00  0.84932324664E+03  0.31865283113E+04  0.30712558834E+04 0.  0.
        4    1    3    3  502    0 -0.50243575719E+03  0.71702461620E+03 -0.88426944699E+03  0.12443874228E+04  0.12699999809E+01 0.  1.
       -4    1    3    3    0  502  0.50243575719E+03 -0.71702461620E+03  0.17335926936E+04  0.19421408885E+04  0.12699999809E+01 0. -1.
</event>
<event>
 5   0  0.1176002E-06  0.3092384E+04  0.7818609E-02  0.8217831E-01
       -2   -1    0    0    0  501  0.00000000000E+00  0.00000000000E+00  0.16820169356E+04  0.16820169356E+04  0.25500000920E-02 0.  1.
        2   -1    0    0  501    0  0.00000000000E+00  0.00000000000E+00 -0.14213353668E+04  0.14213353668E+04  0.25500000920E-02 0. -1.
    10030    2    1    2    0    0  0.00000000000E+00  0.00000000000E+00  0.26068156887E+03  0.31033523024E+04  0.30923842957E+04 0.  0.
        2    1    3    3  502    0  0.76532798312E+03  0.99583976130E+03 -0.77468171963E+03  0.14756542680E+04  0.25500000920E-02 0. -1.
       -2    1    3    3    0  502 -0.76532798312E+03 -0.99583976130E+03  0.10353632885E+04  0.16276980344E+04  0.25500000920E-02 0.  1.
</event>
<event>
 5   0  0.1258262E-06  0.3095196E+04  0.7818609E-02  0.8217058E-01
       -2   -1    0    0    0  501  0.00000000000E+00  0.00000000000E+00  0.10713487373E+04  0.10713487373E+04  0.25500000920E-02 0. -1.
        2   -1    0    0  501    0  0.00000000000E+00  0.00000000000E+00 -0.22355556031E+04  0.22355556031E+04  0.25500000920E-02 0.  1.
    10030    2    1    2    0    0  0.00000000000E+00  0.00000000000E+00 -0.11642068659E+04  0.33069043404E+04  0.30951960665E+04 0.  0.
        1    1    3    3  502    0 -0.32846188200E+03 -0.25646737413E+03 -0.21744828417E+04  0.22140547308E+04  0.50400001928E-02 0.  1.
       -1    1    3    3    0  502  0.32846188200E+03  0.25646737413E+03  0.10102759758E+04  0.10928496096E+04  0.50400001928E-02 0. -1.
</event>
<event>
 5   0  0.1237580E-06  0.3098720E+04  0.7818609E-02  0.8216089E-01
       -2   -1    0    0    0  501  0.00000000000E+00  0.00000000000E+00  0.11123857778E+04  0.11123857778E+04  0.25500000920E-02 0. -1.
        2   -1    0    0  501    0  0.00000000000E+00  0.00000000000E+00 -0.21579886442E+04  0.21579886442E+04  0.25500000920E-02 0.  1.
    10030    2    1    2    0    0  0.00000000000E+00  0.00000000000E+00 -0.10456028664E+04  0.32703744220E+04  0.30987196559E+04 0.  0.
        4    1    3    3  502    0  0.12965434515E+04 -0.51955022378E+03  0.18483067058E+03  0.14089433439E+04  0.12699999809E+01 0. -1.
       -4    1    3    3    0  502 -0.12965434515E+04  0.51955022378E+03 -0.12304335369E+04  0.18614310781E+04  0.12699999809E+01 0.  1.
</event>
<event>
 5   0  0.1200286E-06  0.3101725E+04  0.7818609E-02  0.8215265E-01
        2   -1    0    0  501    0  0.00000000000E+00  0.00000000000E+00  0.17571697512E+04  0.17571697512E+04  0.25500000920E-02 0.  1.
       -2   -1    0    0    0  501  0.00000000000E+00  0.00000000000E+00 -0.13687775918E+04  0.13687775918E+04  0.25500000920E-02 0. -1.
    10030    2    1    2    0    0  0.00000000000E+00  0.00000000000E+00  0.38839215940E+03  0.31259473430E+04  0.31017250558E+04 0.  0.
        5    1    3    3  502    0  0.93172873974E+03  0.54013965354E+03 -0.93044106763E+03  0.14232399517E+04  0.46999998093E+01 0. -1.
       -5    1    3    3    0  502 -0.93172873974E+03 -0.54013965354E+03  0.13188332270E+04  0.17027073913E+04  0.46999998093E+01 0.  1.
</event>
<event>
 5   0  0.4173905E-07  0.3165220E+04  0.7818609E-02  0.8198063E-01
       -1   -1    0    0    0  501  0.00000000000E+00  0.00000000000E+00  0.13379047833E+04  0.13379047833E+04  0.50400001928E-02 0.  1.
        1   -1    0    0  501    0  0.00000000000E+00  0.00000000000E+00 -0.18720717268E+04  0.18720717268E+04  0.50400001928E-02 0. -1.
    10030    2    1    2    0    0  0.00000000000E+00  0.00000000000E+00 -0.53416694346E+03  0.32099765101E+04  0.31652195614E+04 0.  0.
        3    1    3    3  502    0 -0.10943356109E+03 -0.80719270488E+03 -0.16431480583E+04  0.18339769133E+04  0.10100000352E+00 0. -1.
       -3    1    3    3    0  502  0.10943356109E+03  0.80719270488E+03  0.11089811148E+04  0.13759995968E+04  0.10100000352E+00 0.  1.
</event>
<event>
 5   0  0.4173905E-07  0.3075315E+04  0.7818609E-02  0.8222545E-01
        1   -1    0    0  501    0  0.00000000000E+00  0.00000000000E+00  0.11593935842E+04  0.11593935842E+04  0.50400001928E-02 0.  1.
       -1   -1    0    0    0  501  0.00000000000E+00  0.00000000000E+00 -0.20393344424E+04  0.20393344424E+04  0.50400001928E-02 0. -1.
    10030    2    1    2    0    0  0.00000000000E+00  0.00000000000E+00 -0.87994085827E+03  0.31987280266E+04  0.30753154430E+04 0.  0.
        3    1    3    3  502    0  0.90964083082E+02 -0.19170354551E+03  0.11440921722E+04  0.11636028628E+04  0.10100000352E+00 0.  1.
       -3    1    3    3    0  502 -0.90964083082E+02  0.19170354551E+03 -0.20240330304E+04  0.20351251638E+04  0.10100000352E+00 0. -1.
</event>
<event>
 5   0  0.4219337E-07  0.3106884E+04  0.7818609E-02  0.8213851E-01
        1   -1    0    0  501    0  0.00000000000E+00  0.00000000000E+00  0.14426556930E+04  0.14426556930E+04  0.50400001928E-02 0. -1.
       -1   -1    0    0    0  501  0.00000000000E+00  0.00000000000E+00 -0.16727356167E+04  0.16727356167E+04  0.50400001928E-02 0.  1.
    10030    2    1    2    0    0  0.00000000000E+00  0.00000000000E+00 -0.23007992372E+03  0.31153913097E+04  0.31068836865E+04 0.  0.
        4    1    3    3  502    0 -0.99456628645E+03 -0.11183254768E+04 -0.53255252244E+03  0.15885300665E+04  0.12699999809E+01 0.  1.
       -4    1    3    3    0  502  0.99456628645E+03  0.11183254768E+04  0.30247259872E+03  0.15268612432E+04  0.12699999809E+01 0. -1.
</event>
<event>
 5   0  0.4330395E-07  0.3111841E+04  0.7818609E-02  0.8212496E-01
        1   -1    0    0  501    0  0.00000000000E+00  0.00000000000E+00  0.14621250598E+04  0.14621250598E+04  0.50400001928E-02 0. -1.
       -1   -1    0    0    0  501  0.00000000000E+00  0.00000000000E+00 -0.16557330346E+04  0.16557330346E+04  0.50400001928E-02 0.  1.
    10030    2    1    2    0    0  0.00000000000E+00  0.00000000000E+00 -0.19360797481E+03  0.31178580944E+04  0.31118411028E+04 0.  0.
        1    1    3    3  502    0 -0.15233149270E+04  0.31652630950E+03 -0.11137482761E+03  0.15598338449E+04  0.50400001928E-02 0. -1.
       -1    1    3    3    0  502  0.15233149270E+04 -0.31652630950E+03 -0.82233147199E+02  0.15580242495E+04  0.50400001928E-02 0.  1.
</event>
<event>
 5   0  0.1258262E-06  0.3125257E+04  0.7818609E-02  0.8208840E-01
       -2   -1    0    0    0  501  0.00000000000E+00  0.00000000000E+00  0.13318998903E+04  0.13318998903E+04  0.25500000920E-02 0. -1.
        2   -1    0    0  501    0  0.00000000000E+00  0.00000000000E+00 -0.18333271673E+04  0.18333271673E+04  0.25500000920E-02 0.  1.
    10030    2    1    2    0    0  0.00000000000E+00  0.00000000000E+00 -0.50142727703E+03  0.31652270576E+04  0.31252572713E+04 0.  0.
        1    1    3    3  502    0 -0.10899987111E+04  0.23979689696E+03  0.85698733994E+03  0.14071343372E+04  0.50400001928E-02 0. -1.
       -1    1    3    3    0  502  0.10899987111E+04 -0.23979689696E+03 -0.13584146170E+04  0.17580927204E+04  0.50400001928E-02 0.  1.
</event>
<event>
 5   0  0.1237580E-06  0.3103293E+04  0.7818609E-02  0.8214835E-01
        2   -1    0    0  501    0  0.00000000000E+00  0.00000000000E+00  0.10357481364E+04  0.10357481364E+04  0.25500000920E-02 0.  1.
       -2   -1    0    0    0  501  0.00000000000E+00  0.00000000000E+00 -0.23245101145E+04  0.23245101145E+04  0.25500000920E-02 0. -1.
    10030    2    1    2    0    0  0.00000000000E+00  0.00000000000E+00 -0.12887619782E+04  0.33602582509E+04  0.31032931019E+04 0.  0.
        4    1    3    3  502    0  0.11082344360E+04  0.70390790900E+03  0.25110218989E+03  0.13366838939E+04  0.12699999809E+01 0.  1.
       -4    1    3    3    0  502 -0.11082344360E+04 -0.70390790900E+03 -0.15398641681E+04  0.20235743570E+04  0.12699999809E+01 0. -1.
</event>
<event>
 5   0  0.1176002E-06  0.3104983E+04  0.7818609E-02  0.8214372E-01
       -2   -1    0    0    0  501  0.00000000000E+00  0.00000000000E+00  0.14084841590E+04  0.14084841590E+04  0.25500000920E-02 0.  1.
        2   -1    0    0  501    0  0.00000000000E+00  0.00000000000E+00 -0.17112228748E+04  0.17112228748E+04  0.25500000920E-02 0. -1.
    10030    2    1    2    0    0  0.00000000000E+00  0.00000000000E+00 -0.30273871584E+03  0.31197070338E+04  0.31049832925E+04 0.  0.
        2    1    3    3  502    0  0.71618719598E+02  0.13219557273E+04 -0.96609932963E+03  0.16389155258E+04  0.25500000920E-02 0. -1.
       -2    1    3    3    0  502 -0.71618719598E+02 -0.13219557273E+04  0.66336061380E+03  0.14807915079E+04  0.25500000920E-02 0.  1.
</event>
<event>
 5   0  0.3935852E-07  0.3106793E+04  0.7818609E-02  0.8213876E-01
       -1   -1    0    0    0  501  0.00000000000E+00  0.00000000000E+00  0.19241745504E+04  0.19241745504E+04  0.50400001928E-02 0. -1.
        1   -1    0    0  501    0  0.00000000000E+00  0.00000000000E+00 -0.12540655093E+04  0.12540655093E+04  0.50400001928E-02 0.  1.
    10030    2    1    2    0    0  0.00000000000E+00  0.00000000000E+00  0.67010904116E+03  0.31782400597E+04  0.31067931618E+04 0.  0.
        5    1    3    3  502    0 -0.11364463959E+04 -0.72898473596E+03  0.11208931448E+04  0.17548084477E+04  0.46999998093E+01 0.  1.
       -5    1    3    3    0  502  0.11364463959E+04  0.72898473596E+03 -0.45078410359E+03  0.14234316120E+04  0.46999998093E+01 0. -1.
</event>
<event>
 5   0  0.4173905E-07  0.3102873E+04  0.7818609E-02  0.8214950E-01
       -1   -1    0    0    0  501  0.00000000000E+00  0.00000000000E+00  0.14029002626E+04  0.14029002626E+04  0.50400001928E-02 0.  1.
        1   -1    0    0  501    0  0.00000000000E+00  0.00000000000E+00 -0.17156996978E+04  0.17156996978E+04  0.50400001928E-02 0. -1.
    10030    2    1    2    0    0  0.00000000000E+00  0.00000000000E+00 -0.31279943520E+03  0.31185999605E+04  0.31028732212E+04 0.  0.
        3    1    3    3  502    0 -0.53516215297E+03 -0.92905916490E+03  0.97062493655E+03  0.14462580128E+04  0.10100000352E+00 0.  1.
       -3    1    3    3    0  502  0.53516215297E+03  0.92905916490E+03 -0.12834243718E+04  0.16723419477E+04  0.10100000352E+00 0. -1.
</event>
<event>
 5   0  0.1258262E-06  0.3112865E+04  0.7818609E-02  0.8212216E-01
       -2   -1    0    0    0  501  0.00000000000E+00  0.00000000000E+00  0.11195291948E+04  0.11195291948E+04  0.25500000920E-02 0. -1.
        2   -1    0    0  501    0  0.00000000000E+00  0.00000000000E+00 -0.21638404282E+04  0.21638404282E+04  0.25500000920E-02 0.  1.
    10030    2    1    2    0    0  0.00000000000E+00  0.00000000000E+00 -0.10443112333E+04  0.32833696230E+04  0.31128652603E+04 0.  0.
        1    1    3    3  502    0 -0.92620795834E+03  0.11153316433E+04  0.75126616051E+02  0.14517127350E+04  0.50400001928E-02 0.  1.
       -1    1    3    3    0  502  0.92620795834E+03 -0.11153316433E+04 -0.11194378494E+04  0.18316568880E+04  0.50400001928E-02 0. -1.
</event>
<event>
 5   0  0.4219337E-07  0.3089368E+04  0.7818609E-02  0.8218662E-01
       -1   -1    0    0    0  501  0.00000000000E+00  0.00000000000E+00  0.29773083488E+04  0.29773083488E+04  0.50400001928E-02 0. -1.
        1   -1    0    0  501    0  0.00000000000E+00  0.00000000000E+00 -0.80141137638E+03  0.80141137640E+03  0.50400001928E-02 0.  1.
    10030    2    1    2    0    0  0.00000000000E+00  0.00000000000E+00  0.21758969724E+04  0.37787197252E+04  0.30893680789E+04 0.  0.
        4    1    3    3  502    0  0.65859240620E+03 -0.12515042803E+04  0.32798746342E+03  0.14517521518E+04  0.12699999809E+01 0. -1.
       -4    1    3    3    0  502 -0.65859240620E+03  0.12515042803E+04  0.18479095090E+04  0.23269675734E+04  0.12699999809E+01 0.  1.
</event>
<event>
 5   0  0.4173905E-07  0.3099437E+04  0.7818609E-02  0.8215893E-01
        1   -1    0    0  501    0  0.00000000000E+00  0.00000000000E+00  0.15416005194E+04  0.15416005194E+04  0.50400001928E-02 0.  1.
       -1   -1    0    0    0  501  0.00000000000E+00  0.00000000000E+00 -0.15578788911E+04  0.15578788911E+04  0.50400001928E-02 0. -1.
    10030    2    1    2    0    0  0.00000000000E+00  0.00000000000E+00 -0.16278371699E+02  0.30994794105E+04  0.30994366635E+04 0.  0.
        3    1    3    3  502    0  0.11479357793E+04  0.43080825243E+03 -0.95592575032E+03  0.15547174515E+04  0.10100000352E+00 0. -1.
       -3    1    3    3    0  502 -0.11479357793E+04 -0.43080825243E+03  0.93964737862E+03  0.15447619590E+04  0.10100000352E+00 0.  1.
</event>
<event>
 5   0  0.4330395E-07  0.3095663E+04  0.7818609E-02  0.8216929E-01
        1   -1    0    0  501    0  0.00000000000E+00  0.00000000000E+00  0.16828898355E+04  0.16828898355E+04  0.50400001928E-02 0. -1.
       -1   -1    0    0    0  501  0.00000000000E+00  0.00000000000E+00 -0.14236118228E+04  0.14236118228E+04  0.50400001928E-02 0.  1.
    10030    2    1    2    0    0  0.00000000000E+00  0.00000000000E+00  0.25927801271E+03  0.31065016584E+04  0.30956626860E+04 0.  0.
        1    1    3    3  502    0  0.10647412234E+04  0.56861906085E+03  0.11019382645E+04  0.16344018625E+04  0.50400001928E-02 0. -1.
       -1    1    3    3    0  502 -0.10647412234E+04 -0.56861906085E+03 -0.84266025178E+03  0.14720997959E+04  0.50400001928E-02 0.  1.
</event>
<event>
 5   0  0.3935852E-07  0.3119920E+04  0.7818609E-02  0.8210292E-01
        1   -1    0    0  501    0  0.00000000000E+00  0.00000000000E+00  0.16424807129E+04  0.16424807129E+04  0.50400001928E-02 0.  1.
       -1   -1    0    0    0  501  0.00000000000E+00  0.00000000000E+00 -0.14815850294E+04  0.14815850295E+04  0.50400001928E-02 0. -1.
    10030    2    1    2    0    0  0.00000000000E+00  0.00000000000E+00  0.16089568344E+03  0.31240657424E+04  0.31199197652E+04 0.  0.
        5    1    3    3  502    0  0.63314766575E+03 -0.34381414988E+03 -0.13049978971E+04  0.14906796228E+04  0.46999998093E+01 0. -1.
       -5    1    3    3    0  502 -0.63314766575E+03  0.34381414988E+03  0.14658935805E+04  0.16333861196E+04  0.46999998093E+01 0.  1.
</event>
<event>
 5   0  0.4173905E-07  0.3090192E+04  0.7818609E-02  0.8218435E-01
       -1   -1    0    0    0  501  0.00000000000E+00  0.00000000000E+00  0.85637017858E+03  0.85637017860E+03  0.50400001928E-02 0. -1.
        1   -1    0    0  501    0  0.00000000000E+00  0.00000000000E+00 -0.27877212317E+04  0.27877212317E+04  0.50400001928E-02 0.  1.
    10030    2    1    2    0    0  0.00000000000E+00  0.00000000000E+00 -0.19313510531E+04  0.36440914103E+04  0.30901917928E+04 0.  0.
        3    1    3    3  502    0 -0.27720873862E+03  0.61032802501E+03  0.67596499163E+03  0.95198406656E+03  0.10100000352E+00 0. -1.
       -3    1    3    3    0  502  0.27720873862E+03 -0.61032802501E+03 -0.26073160447E+04  0.26921073437E+04  0.10100000352E+00 0.  1.
</event>
<event>
 5   0  0.1237580E-06  0.3107597E+04  0.7818609E-02  0.8213656E-01
       -2   -1    0    0    0  501  0.00000000000E+00  0.00000000000E+00  0.26439669973E+04  0.26439669973E+04  0.25500000920E-02 0.  1.
        2   -1    0    0  501    0  0.00000000000E+00  0.00000000000E+00 -0.91313180020E+03  0.91313180021E+03  0.25500000920E-02 0. -1.
    10030    2    1    2    0    0  0.00000000000E+00  0.00000000000E+00  0.17308351971E+04  0.35570987975E+04  0.31075973638E+04 0.  0.
        4    1    3    3  502    0 -0.47881644463E+03 -0.78259476490E+03 -0.56999262581E+03  0.10800985881E+04  0.12699999809E+01 0. -1.
       -4    1    3    3    0  502  0.47881644463E+03  0.78259476490E+03  0.23008278229E+04  0.24770002094E+04  0.12699999809E+01 0.  1.
</event>
<event>
 5   0  0.1258262E-06  0.3097620E+04  0.7818609E-02  0.8216391E-01
       -2   -1    0    0    0  501  0.00000000000E+00  0.00000000000E+00  0.98829822543E+03  0.98829822543E+03  0.25500000920E-02 0.  1.
        2   -1    0    0  501    0  0.00000000000E+00  0.00000000000E+00 -0.24272154385E+04  0.24272154385E+04  0.25500000920E-02 0. -1.
    10030    2    1    2    0    0  0.00000000000E+00  0.00000000000E+00 -0.14389172131E+04  0.34155136639E+04  0.30976201901E+04 0.  0.
        1    1    3    3  502    0  0.75157223662E+01 -0.44054977707E+03 -0.23566515558E+04  0.23974876741E+04  0.50400001928E-02 0. -1.
       -1    1    3    3    0  502 -0.75157223662E+01  0.44054977707E+03  0.91773434270E+03  0.10180259898E+04  0.50400001928E-02 0.  1.
</event>
<event>
 5   0  0.4219337E-07  0.3100165E+04  0.7818609E-02  0.8215693E-01
        1   -1    0    0  501    0  0.00000000000E+00  0.00000000000E+00  0.13832936398E+04  0.13832936398E+04  0.50400001928E-02 0.  1.
       -1   -1    0    0    0  501  0.00000000000E+00  0.00000000000E+00 -0.17369815175E+04  0.17369815175E+04  0.50400001928E-02 0. -1.
    10030    2    1    2    0    0  0.00000000000E+00  0.00000000000E+00 -0.35368787772E+03  0.31202751573E+04  0.31001648251E+04 0.  0.
        4    1    3    3  502    0  0.12904353399E+04  0.53875976769E+03  0.49627564507E+03  0.14838384624E+04  0.12699999809E+01 0.  1.
       -4    1    3    3    0  502 -0.12904353399E+04 -0.53875976769E+03 -0.84996352278E+03  0.16364366950E+04  0.12699999809E+01 0. -1.
</event>
<event>
 5   0  0.1200286E-06  0.3115562E+04  0.7818609E-02  0.8211480E-01
       -2   -1    0    0    0  501  0.00000000000E+00  0.00000000000E+00  0.92504460198E+03  0.92504460198E+03  0.25500000920E-02 0. -1.
        2   -1    0    0  501    0  0.00000000000E+00  0.00000000000E+00 -0.26233135692E+04  0.26233135692E+04  0.25500000920E-02 0.  1.
    10030    2    1    2    0    0  0.00000000000E+00  0.00000000000E+00 -0.16982689672E+04  0.35483581712E+04  0.31155622648E+04 0.  0.
        5    1    3    3  502    0  0.19156029615E+03 -0.14916350911E+04 -0.38652023601E+03  0.15527686804E+04  0.46999998093E+01 0. -1.
       -5    1    3    3    0  502 -0.19156029615E+03  0.14916350911E+04 -0.13117487312E+04  0.19955894908E+04  0.46999998093E+01 0.  1.
</event>
<event>
 5   0  0.4219337E-07  0.3096017E+04  0.7818609E-02  0.8216832E-01
       -1   -1    0    0    0  501  0.00000000000E+00  0.00000000000E+00  0.11197977401E+04  0.11197977401E+04  0.50400001928E-02 0.  1.
        1   -1    0    0  501    0  0.00000000000E+00  0.00000000000E+00 -0.21399671752E+04  0.21399671752E+04  0.50400001928E-02 0. -1.
    10030    2    1    2    0    0  0.00000000000E+00  0.00000000000E+00 -0.10201694351E+04  0.32597649153E+04  0.30960170586E+04 0.  0.
        4    1    3    3  502    0  0.68036037841E+03  0.10761636374E+04  0.41700280061E+03  0.13397430230E+04  0.12699999809E+01 0.  1.
       -4    1    3    3    0  502 -0.68036037841E+03 -0.10761636374E+04 -0.14371722357E+04  0.19200218923E+04  0.12699999809E+01 0. -1.
</event>
<event>
 5   0  0.4330395E-07  0.3113503E+04  0.7818609E-02  0.8212042E-01
        1   -1    0    0  501    0  0.00000000000E+00  0.00000000000E+00  0.18953380433E+04  0.18953380433E+04  0.50400001928E-02 0. -1.
       -1   -1    0    0    0  501  0.00000000000E+00  0.00000000000E+00 -0.12786505040E+04  0.12786505040E+04  0.50400001928E-02 0.  1.
    10030    2    1    2    0    0  0.00000000000E+00  0.00000000000E+00  0.61668753926E+03  0.31739885473E+04  0.31135028147E+04 0.  0.
        1    1    3    3  502    0 -0.14107023287E+04 -0.49391472742E+03 -0.13536128099E+03  0.15007849595E+04  0.50400001928E-02 0.  1.
       -1    1    3    3    0  502  0.14107023287E+04  0.49391472742E+03  0.75204882024E+03  0.16732035878E+04  0.50400001928E-02 0. -1.
</event>
<event>
 5   0  0.4173905E-07  0.3101675E+04  0.7818609E-02  0.8215278E-01
        1   -1    0    0  501    0  0.00000000000E+00  0.00000000000E+00  0.22248593904E+04  0.22248593904E+04  0.50400001928E-02 0. -1.
       -1   -1    0    0    0  501  0.00000000000E+00  0.00000000000E+00 -0.10810109201E+04  0.10810109201E+04  0.50400001928E-02 0.  1.
    10030    2    1    2    0    0  0.00000000000E+00  0.00000000000E+00  0.11438484704E+04  0.33058703105E+04  0.31016752226E+04 0.  0.
        3    1    3    3  502    0  0.93687389537E+03 -0.12317886680E+04  0.67883362519E+03  0.16899263651E+04  0.10100000352E+00 0.  1.
       -3    1    3    3    0  502 -0.93687389537E+03  0.12317886680E+04  0.46501484517E+03  0.16159439454E+04  0.10100000352E+00 0. -1.
</event>
<event>
 5   0  0.4173905E-07  0.3061320E+04  0.7818609E-02  0.8226434E-01
        1   -1    0    0  501    0  0.00000000000E+00  0.00000000000E+00  0.27515096149E+04  0.27515096149E+04  0.50400001928E-02 0.  1.
       -1   -1    0    0    0  501  0.00000000000E+00  0.00000000000E+00 -0.85150350778E+03  0.85150350780E+03  0.50400001928E-02 0. -1.
    10030    2    1    2    0    0  0.00000000000E+00  0.00000000000E+00  0.19000061071E+04  0.36030131227E+04  0.30613200348E+04 0.  0.
        3    1    3    3  502    0 -0.11781491552E+02  0.36820114402E+03 -0.79855017843E+03  0.87942781607E+03  0.10100000352E+00 0. -1.
       -3    1    3    3    0  502  0.11781491552E+02 -0.36820114402E+03  0.26985562855E+04  0.27235853066E+04  0.10100000352E+00 0.  1.
</event>
<event>
 5   0  0.1200286E-06  0.3110768E+04  0.7818609E-02  0.8212789E-01
       -2   -1    0    0    0  501  0.00000000000E+00  0.00000000000E+00  0.11462877807E+04  0.11462877807E+04  0.25500000920E-02 0. -1.
        2   -1    0    0  501    0  0.00000000000E+00  0.00000000000E+00 -0.21104817315E+04  0.21104817315E+04  0.25500000920E-02 0.  1.
    10030    2    1    2    0    0  0.00000000000E+00  0.00000000000E+00 -0.96419395084E+03  0.32567695122E+04  0.31107680210E+04 0.  0.
        5    1    3    3  502    0  0.64729043257E+03 -0.13462177582E+04 -0.93592837973E+03  0.17627453527E+04  0.46999998093E+01 0.  1.
       -5    1    3    3    0  502 -0.64729043257E+03  0.13462177582E+04 -0.28265571114E+02  0.14940241595E+04  0.46999998093E+01 0. -1.
</event>
<event>
 5   0  0.1258262E-06  0.3102218E+04  0.7818609E-02  0.8215129E-01
       -2   -1    0    0    0  501  0.00000000000E+00  0.00000000000E+00  0.22106045707E+04  0.22106045707E+04  0.25500000920E-02 0. -1.
        2   -1    0    0  501    0  0.00000000000E+00  0.00000000000E+00 -0.10883625063E+04  0.10883625063E+04  0.25500000920E-02 0.  1.
    10030    2    1    2    0    0  0.00000000000E+00  0.00000000000E+00  0.11222420644E+04  0.32989670769E+04  0.31022180006E+04 0.  0.
        1    1    3    3  502    0  0.22276657164E+03 -0.23216895897E+03  0.21747257883E+04  0.21983993325E+04  0.50400001928E-02 0. -1.
       -1    1    3    3    0  502 -0.22276657164E+03  0.23216895897E+03 -0.10524837239E+04  0.11005677444E+04  0.50400001928E-02 0.  1.
</event>
<event>
 5   0  0.4219337E-07  0.3045229E+04  0.7818609E-02  0.8230932E-01
       -1   -1    0    0    0  501  0.00000000000E+00  0.00000000000E+00  0.13020507065E+04  0.13020507065E+04  0.50400001928E-02 0.  1.
        1   -1    0    0  501    0  0.00000000000E+00  0.00000000000E+00 -0.17805406397E+04  0.17805406397E+04  0.50400001928E-02 0. -1.
    10030    2    1    2    0    0  0.00000000000E+00  0.00000000000E+00 -0.47848993316E+03  0.30825913462E+04  0.30452285286E+04 0.  0.
        4    1    3    3  502    0 -0.36789481160E+03  0.25912489610E+03 -0.17116915821E+04  0.17698536633E+04  0.12699999809E+01 0. -1.
       -4    1    3    3    0  502  0.36789481160E+03 -0.25912489610E+03  0.12332016490E+04  0.13127376829E+04  0.12699999809E+01 0.  1.
</event>
<event>
 5   0  0.4173905E-07  0.3068368E+04  0.7818609E-02  0.8224473E-01
        1   -1    0    0  501    0  0.00000000000E+00  0.00000000000E+00  0.20284971449E+04  0.20284971449E+04  0.50400001928E-02 0. -1.
       -1   -1    0    0    0  501  0.00000000000E+00  0.00000000000E+00 -0.11603269538E+04  0.11603269538E+04  0.50400001928E-02 0.  1.
    10030    2    1    2    0    0  0.00000000000E+00  0.00000000000E+00  0.86817019107E+03  0.31888240987E+04  0.30683675875E+04 0.  0.
        3    1    3    3  502    0  0.28614298101E+03 -0.13838278515E+04  0.10549165025E+04  0.17634358978E+04  0.10100000352E+00 0.  1.
       -3    1    3    3    0  502 -0.28614298101E+03  0.13838278515E+04 -0.18674631142E+03  0.14253882009E+04  0.10100000352E+00 0. -1.
</event>
<event>
 5   0  0.1200286E-06  0.3094991E+04  0.7818609E-02  0.8217114E-01
       -2   -1    0    0    0  501  0.00000000000E+00  0.00000000000E+00  0.12136823177E+04  0.12136823177E+04  0.25500000920E-02 0.  1.
        2   -1    0    0  501    0  0.00000000000E+00  0.00000000000E+00 -0.19731214888E+04  0.19731214888E+04  0.25500000920E-02 0. -1.
    10030    2    1    2    0    0  0.00000000000E+00  0.00000000000E+00 -0.75943917109E+03  0.31868038065E+04  0.30949912192E+04 0.  0.
        5    1    3    3  502    0 -0.22783120441E+03 -0.71686959803E+02 -0.19540211433E+04  0.19685697337E+04  0.46999998093E+01 0. -1.
       -5    1    3    3    0  502  0.22783120441E+03  0.71686959803E+02  0.11945819722E+04  0.12182340728E+04  0.46999998093E+01 0.  1.
</event>
<event>
 5   0  0.3935852E-07  0.3087648E+04  0.7818609E-02  0.8219136E-01
       -1   -1    0    0    0  501  0.00000000000E+00  0.00000000000E+00  0.11893192363E+04  0.11893192363E+04  0.50400001928E-02 0. -1.
        1   -1    0    0  501    0  0.00000000000E+00  0.00000000000E+00 -0.20039971389E+04  0.20039971389E+04  0.50400001928E-02 0.  1.
    10030    2    1    2    0    0  0.00000000000E+00  0.00000000000E+00 -0.81467790254E+03  0.31933163752E+04  0.30876478730E+04 0.  0.
        5    1    3    3  502    0 -0.15410928053E+04 -0.77715198361E+02 -0.45761931681E+03  0.16094856992E+04  0.46999998093E+01 0. -1.
       -5    1    3    3    0  502  0.15410928053E+04  0.77715198361E+02 -0.35705858572E+03  0.15838306760E+04  0.46999998093E+01 0.  1.
</event>
<event>
 5   0  0.4173905E-07  0.3109338E+04  0.7818609E-02  0.8213180E-01
        1   -1    0    0  501    0  0.00000000000E+00  0.00000000000E+00  0.19034807029E+04  0.19034807029E+04  0.50400001928E-02 0.  1.
       -1   -1    0    0    0  501  0.00000000000E+00  0.00000000000E+00 -0.12697768510E+04  0.12697768510E+04  0.50400001928E-02 0. -1.
    10030    2    1    2    0    0  0.00000000000E+00  0.00000000000E+00  0.63370385191E+03  0.31732575538E+04  0.31093380214E+04 0.  0.
        3    1    3    3  502    0 -0.33615062978E+03  0.13160348992E+04  0.10887405060E+04  0.17407759768E+04  0.10100000352E+00 0.  1.
       -3    1    3    3    0  502  0.33615062978E+03 -0.13160348992E+04 -0.45503665414E+03  0.14324815770E+04  0.10100000352E+00 0. -1.
</event>
<event>
 5   0  0.1237580E-06  0.3112153E+04  0.7818609E-02  0.8212410E-01
       -2   -1    0    0    0  501  0.00000000000E+00  0.00000000000E+00  0.11815877978E+04  0.11815877978E+04  0.25500000920E-02 0.  1.
        2   -1    0    0  501    0  0.00000000000E+00  0.00000000000E+00 -0.20492548842E+04  0.20492548842E+04  0.25500000920E-02 0. -1.
    10030    2    1    2    0    0  0.00000000000E+00  0.00000000000E+00 -0.86766708646E+03  0.32308426820E+04  0.31121533161E+04 0.  0.
        4    1    3    3  502    0 -0.10543219341E+04  0.10554345440E+04  0.25577301690E+02  0.14920431055E+04  0.12699999809E+01 0.  1.
       -4    1    3    3    0  502  0.10543219341E+04 -0.10554345440E+04 -0.89324438814E+03  0.17387995765E+04  0.12699999809E+01 0. -1.
</event>
<event>
 5   0  0.1176002E-06  0.3105498E+04  0.7818609E-02  0.8214231E-01
       -2   -1    0    0    0  501  0.00000000000E+00  0.00000000000E+00  0.85423966800E+03  0.85423966801E+03  0.25500000920E-02 0. -1.
        2   -1    0    0  501    0  0.00000000000E+00  0.00000000000E+00 -0.28224266323E+04  0.28224266323E+04  0.25500000920E-02 0.  1.
    10030    2    1    2    0    0  0.00000000000E+00  0.00000000000E+00 -0.19681869643E+04  0.36766663003E+04  0.31054975700E+04 0.  0.
        2    1    3    3  502    0 -0.23596840191E+03  0.83854695853E+03  0.53768900442E+03  0.10236950492E+04  0.25500000920E-02 0. -1.
       -2    1    3    3    0  502  0.23596840191E+03 -0.83854695853E+03 -0.25058759687E+04  0.26529712511E+04  0.25500000920E-02 0.  1.
</event>
<event>
 5   0  0.4134019E-07  0.3109844E+04  0.7818609E-02  0.8213042E-01
       -1   -1    0    0    0  501  0.00000000000E+00  0.00000000000E+00  0.13894465572E+04  0.13894465572E+04  0.50400001928E-02 0.  1.
        1   -1    0    0  501    0  0.00000000000E+00  0.00000000000E+00 -0.17401045527E+04  0.17401045527E+04  0.50400001928E-02 0. -1.
    10030    2    1    2    0    0  0.00000000000E+00  0.00000000000E+00 -0.35065799548E+03  0.31295511099E+04  0.31098439060E+04 0.  0.
        2    1    3    3  502    0  0.51980498963E+03 -0.82978017709E+03  0.10402369680E+04  0.14285745760E+04  0.25500000920E-02 0.  1.
       -2    1    3    3    0  502 -0.51980498963E+03  0.82978017709E+03 -0.13908949635E+04  0.17009765339E+04  0.25500000920E-02 0. -1.
</event>
<event>
 5   0  0.1176002E-06  0.3087664E+04  0.7818609E-02  0.8219132E-01
       -2   -1    0    0    0  501  0.00000000000E+00  0.00000000000E+00  0.32873071540E+04  0.32873071540E+04  0.25500000920E-02 0.  1.
        2   -1    0    0  501    0  0.00000000000E+00  0.00000000000E+00 -0.72503638875E+03  0.72503638876E+03  0.25500000920E-02 0. -1.
    10030    2    1    2    0    0  0.00000000000E+00  0.00000000000E+00  0.25622707653E+04  0.40123435428E+04  0.30876640411E+04 0.  0.
        2    1    3    3  502    0  0.51335564568E+03 -0.55236796981E+03 -0.46943354389E+03  0.88826361243E+03  0.25500000920E-02 0. -1.
       -2    1    3    3    0  502 -0.51335564568E+03  0.55236796981E+03  0.30317043092E+04  0.31240799304E+04  0.25500000920E-02 0.  1.
</event>
<event>
 5   0  0.4134019E-07  0.3116276E+04  0.7818609E-02  0.8211285E-01
       -1   -1    0    0    0  501  0.00000000000E+00  0.00000000000E+00  0.15056708266E+04  0.15056708266E+04  0.50400001928E-02 0.  1.
        1   -1    0    0  501    0  0.00000000000E+00  0.00000000000E+00 -0.16124337888E+04  0.16124337888E+04  0.50400001928E-02 0. -1.
    10030    2    1    2    0    0  0.00000000000E+00  0.00000000000E+00 -0.10676296216E+03  0.31181046154E+04  0.31162763136E+04 0.  0.
        2    1    3    3  502    0  0.14641938829E+04 -0.35332553506E+03  0.34571573325E+03  0.15453873394E+04  0.25500000920E-02 0.  1.
       -2    1    3    3    0  502 -0.14641938829E+04  0.35332553506E+03 -0.45247869541E+03  0.15727172760E+04  0.25500000920E-02 0. -1.
</event>
<event>
 5   0  0.4330395E-07  0.3099328E+04  0.7818609E-02  0.8215922E-01
        1   -1    0    0  501    0  0.00000000000E+00  0.00000000000E+00  0.21116946749E+04  0.21116946749E+04  0.50400001928E-02 0. -1.
       -1   -1    0    0    0  501  0.00000000000E+00  0.00000000000E+00 -0.11372188313E+04  0.11372188313E+04  0.50400001928E-02 0.  1.
    10030    2    1    2    0    0  0.00000000000E+00  0.00000000000E+00  0.97447584364E+03  0.32489135062E+04  0.30993282822E+04 0.  0.
        1    1    3    3  502    0  0.74239747418E+03  0.99466115360E+03  0.14598968488E+04  0.19161950917E+04  0.50400001928E-02 0. -1.
       -1    1    3    3    0  502 -0.74239747418E+03 -0.99466115360E+03 -0.48542100515E+03  0.13327184145E+04  0.50400001928E-02 0.  1.
</event>
<event>
 5   0  0.1176002E-06  0.3094450E+04  0.7818609E-02  0.8217263E-01
       -2   -1    0    0    0  501  0.00000000000E+00  0.00000000000E+00  0.17997422582E+04  0.17997422582E+04  0.25500000920E-02 0. -1.
        2   -1    0    0  501    0  0.00000000000E+00  0.00000000000E+00 -0.13301381622E+04  0.13301381622E+04  0.25500000920E-02 0.  1.
    10030    2    1    2    0    0  0.00000000000E+00  0.00000000000E+00  0.46960409600E+03  0.31298804204E+04  0.30944504260E+04 0.  0.
        2    1    3    3  502    0  0.12487409524E+04 -0.58137633588E+03  0.94753562245E+03  0.16718780356E+04  0.25500000920E-02 0. -1.
       -2    1    3    3    0  502 -0.12487409524E+04  0.58137633588E+03 -0.47793152644E+03  0.14580023848E+04  0.25500000920E-02 0.  1.
</event>
<event>
 5   0  0.1237580E-06  0.3101207E+04  0.7818609E-02  0.8215407E-01
        2   -1    0    0  501    0  0.00000000000E+00  0.00000000000E+00  0.23367645091E+04  0.23367645091E+04  0.25500000920E-02 0. -1.
       -2   -1    0    0    0  501  0.00000000000E+00  0.00000000000E+00 -0.10289318020E+04  0.10289318020E+04  0.25500000920E-02 0.  1.
    10030    2    1    2    0    0  0.00000000000E+00  0.00000000000E+00  0.13078327071E+04  0.33656963111E+04  0.31012070664E+04 0.  0.
        4    1    3    3  502    0  0.63569064578E+03  0.89915991080E+03 -0.53087519164E+03  0.12224652242E+04  0.12699999809E+01 0.  1.
       -4    1    3    3    0  502 -0.63569064578E+03 -0.89915991080E+03  0.18387078987E+04  0.21432310869E+04  0.12699999809E+01 0. -1.
</event>
<event>
 5   0  0.1258262E-06  0.3097000E+04  0.7818609E-02  0.8216562E-01
        2   -1    0    0  501    0  0.00000000000E+00  0.00000000000E+00  0.11218095840E+04  0.11218095840E+04  0.25500000920E-02 0. -1.
       -2   -1    0    0    0  501  0.00000000000E+00  0.00000000000E+00 -0.21374854301E+04  0.21374854301E+04  0.25500000920E-02 0.  1.
    10030    2    1    2    0    0  0.00000000000E+00  0.00000000000E+00 -0.10156758461E+04  0.32592950142E+04  0.30969996069E+04 0.  0.
        1    1    3    3  502    0  0.80860694623E+03 -0.97868433505E+03 -0.14409728869E+04  0.19204351283E+04  0.50400001928E-02 0.  1.
       -1    1    3    3    0  502 -0.80860694623E+03  0.97868433505E+03  0.42529704076E+03  0.13388598859E+04  0.50400001928E-02 0. -1.
</event>
<event>
 5   0  0.1258262E-06  0.3130695E+04  0.7818609E-02  0.8207364E-01
        2   -1    0    0  501    0  0.00000000000E+00  0.00000000000E+00  0.17469000282E+04  0.17469000282E+04  0.25500000920E-02 0. -1.
       -2   -1    0    0    0  501  0.00000000000E+00  0.00000000000E+00 -0.14026635578E+04  0.14026635578E+04  0.25500000920E-02 0.  1.
    10030    2    1    2    0    0  0.00000000000E+00  0.00000000000E+00  0.34423647045E+03  0.31495635860E+04  0.31306951360E+04 0.  0.
        1    1    3    3  502    0  0.63206310455E+03 -0.13914333568E+04 -0.16863015786E+03  0.15375391653E+04  0.50400001928E-02 0. -1.
       -1    1    3    3    0  502 -0.63206310455E+03  0.13914333568E+04  0.51286662831E+03  0.16120244207E+04  0.50400001928E-02 0.  1.
</event>
<event>
 5   0  0.4134019E-07  0.3096065E+04  0.7818609E-02  0.8216819E-01
       -1   -1    0    0    0  501  0.00000000000E+00  0.00000000000E+00  0.87090513677E+03  0.87090513679E+03  0.50400001928E-02 0.  1.
        1   -1    0    0  501    0  0.00000000000E+00  0.00000000000E+00 -0.27516257201E+04  0.27516257201E+04  0.50400001928E-02 0. -1.
    10030    2    1    2    0    0  0.00000000000E+00  0.00000000000E+00 -0.18807205833E+04  0.36225308569E+04  0.30960652281E+04 0.  0.
        2    1    3    3  502    0 -0.13129792415E+04  0.80754089345E+03 -0.77337499935E+03  0.17245711562E+04  0.25500000920E-02 0.  1.
       -2    1    3    3    0  502  0.13129792415E+04 -0.80754089345E+03 -0.11073455840E+04  0.18979597007E+04  0.25500000920E-02 0. -1.
</event>
<event>
 5   0  0.4134019E-07  0.3106930E+04  0.7818609E-02  0.8213839E-01
        1   -1    0    0  501    0  0.00000000000E+00  0.00000000000E+00  0.19890825289E+04  0.19890825289E+04  0.50400001928E-02 0.  1.
       -1   -1    0    0    0  501  0.00000000000E+00  0.00000000000E+00 -0.12132492799E+04  0.12132492799E+04  0.50400001928E-02 0. -1.
    10030    2    1    2    0    0  0.00000000000E+00  0.00000000000E+00  0.77583324903E+03  0.32023318088E+04  0.31069296393E+04 0.  0.
        2    1    3    3  502    0 -0.12023088430E+03 -0.57927259885E+02 -0.12073296282E+04  0.12146834419E+04  0.25500000920E-02 0. -1.
       -2    1    3    3    0  502  0.12023088430E+03  0.57927259885E+02  0.19831628772E+04  0.19876483669E+04  0.25500000920E-02 0.  1.
</event>
<event>
 5   0  0.1258262E-06  0.3094951E+04  0.7818609E-02  0.8217125E-01
        2   -1    0    0  501    0  0.00000000000E+00  0.00000000000E+00  0.26006355638E+04  0.26006355638E+04  0.25500000920E-02 0.  1.
       -2   -1    0    0    0  501  0.00000000000E+00  0.00000000000E+00 -0.92080563425E+03  0.92080563425E+03  0.25500000920E-02 0. -1.
    10030    2    1    2    0    0  0.00000000000E+00  0.00000000000E+00  0.16798299295E+04  0.35214411980E+04  0.30949506489E+04 0.  0.
        1    1    3    3  502    0  0.26991512832E+02 -0.10900192018E+04  0.20893280760E+04  0.23567270125E+04  0.50400001928E-02 0.  1.
       -1    1    3    3    0  502 -0.26991512832E+02  0.10900192018E+04 -0.40949814649E+03  0.11647141856E+04  0.50400001928E-02 0. -1.
</event>
<event>
 5   0  0.1200286E-06  0.3098461E+04  0.7818609E-02  0.8216160E-01
        2   -1    0    0  501    0  0.00000000000E+00  0.00000000000E+00  0.15203772105E+04  0.15203772105E+04  0.25500000920E-02 0. -1.
       -2   -1    0    0    0  501  0.00000000000E+00  0.00000000000E+00 -0.15786316418E+04  0.15786316418E+04  0.25500000920E-02 0.  1.
    10030    2    1    2    0    0  0.00000000000E+00  0.00000000000E+00 -0.58254431234E+02  0.30990088523E+04  0.30984612775E+04 0.  0.
        5    1    3    3  502    0  0.65249325354E+02  0.94265416876E+03 -0.12570408550E+04  0.15725864547E+04  0.46999998093E+01 0.  1.
       -5    1    3    3    0  502 -0.65249325354E+02 -0.94265416876E+03  0.11987864237E+04  0.15264223976E+04  0.46999998093E+01 0. -1.
</event>
<event>
 5   0  0.1237580E-06  0.3037449E+04  0.7818609E-02  0.8233117E-01
        2   -1    0    0  501    0  0.00000000000E+00  0.00000000000E+00  0.23173570187E+04  0.23173570187E+04  0.25500000920E-02 0. -1.
       -2   -1    0    0    0  501  0.00000000000E+00  0.00000000000E+00 -0.99532540017E+03  0.99532540018E+03  0.25500000920E-02 0.  1.
    10030    2    1    2    0    0  0.00000000000E+00  0.00000000000E+00  0.13220316185E+04  0.33126824189E+04  0.30374491285E+04 0.  0.
        4    1    3    3  502    0  0.10923501553E+04  0.36595089429E+03 -0.41829126591E+03  0.12256092831E+04  0.12699999809E+01 0.  1.
       -4    1    3    3    0  502 -0.10923501553E+04 -0.36595089429E+03  0.17403228844E+04  0.20870731357E+04  0.12699999809E+01 0. -1.
</event>
<event>
 5   0  0.4330395E-07  0.3095782E+04  0.7818609E-02  0.8216896E-01
        1   -1    0    0  501    0  0.00000000000E+00  0.00000000000E+00  0.10361917853E+04  0.10361917853E+04  0.50400001928E-02 0. -1.
       -1   -1    0    0    0  501  0.00000000000E+00  0.00000000000E+00 -0.23122810057E+04  0.23122810057E+04  0.50400001928E-02 0.  1.
    10030    2    1    2    0    0  0.00000000000E+00  0.00000000000E+00 -0.12760892203E+04  0.33484727910E+04  0.30957820230E+04 0.  0.
        1    1    3    3  502    0  0.34776419494E+03 -0.12753680537E+04 -0.15090462903E+04  0.20061715565E+04  0.50400001928E-02 0.  1.
       -1    1    3    3    0  502 -0.34776419494E+03  0.12753680537E+04  0.23295706994E+03  0.13423012345E+04  0.50400001928E-02 0. -1.
</event>
<event>
 5   0  0.1193123E-06  0.3079335E+04  0.7818609E-02  0.8221432E-01
        2   -1    0    0  501    0  0.00000000000E+00  0.00000000000E+00  0.18692268897E+04  0.18692268897E+04  0.25500000920E-02 0.  1.
       -2   -1    0    0    0  501  0.00000000000E+00  0.00000000000E+00 -0.12682123807E+04  0.12682123807E+04  0.25500000920E-02 0. -1.
    10030    2    1    2    0    0  0.00000000000E+00  0.00000000000E+00  0.60101450897E+03  0.31374392704E+04  0.30793354373E+04 0.  0.
        3    1    3    3  502    0  0.11266640836E+04  0.96577854961E+03 -0.11769657605E+03  0.14886076240E+04  0.10100000352E+00 0. -1.
       -3    1    3    3    0  502 -0.11266640836E+04 -0.96577854961E+03  0.71871108503E+03  0.16488316464E+04  0.10100000352E+00 0.  1.
</event>
<event>
 5   0  0.1258262E-06  0.3079550E+04  0.7818609E-02  0.8221373E-01
       -2   -1    0    0    0  501  0.00000000000E+00  0.00000000000E+00  0.17349631809E+04  0.17349631809E+04  0.25500000920E-02 0.  1.
        2   -1    0    0  501    0  0.00000000000E+00  0.00000000000E+00 -0.13665461095E+04  0.13665461095E+04  0.25500000920E-02 0. -1.
    10030    2    1    2    0    0  0.00000000000E+00  0.00000000000E+00  0.36841707141E+03  0.31015092904E+04  0.30795500873E+04 0.  0.
        1    1    3    3  502    0  0.18604906466E+03  0.11198062766E+04  0.12319762866E+04  0.16752151869E+04  0.50400001928E-02 0.  1.
       -1    1    3    3    0  502 -0.18604906466E+03 -0.11198062766E+04 -0.86355921521E+03  0.14262941035E+04  0.50400001928E-02 0. -1.
</event>
<event>
 5   0  0.4219337E-07  0.3086733E+04  0.7818609E-02  0.8219388E-01
        1   -1    0    0  501    0  0.00000000000E+00  0.00000000000E+00  0.19557793617E+04  0.19557793617E+04  0.50400001928E-02 0. -1.
       -1   -1    0    0    0  501  0.00000000000E+00  0.00000000000E+00 -0.12179187535E+04  0.12179187535E+04  0.50400001928E-02 0.  1.
    10030    2    1    2    0    0  0.00000000000E+00  0.00000000000E+00  0.73786060813E+03  0.31736981152E+04  0.30867331354E+04 0.  0.
        4    1    3    3  502    0 -0.12982387970E+04 -0.67515822802E+02 -0.48636964080E+03  0.13879983432E+04  0.12699999809E+01 0.  1.
       -4    1    3    3    0  502  0.12982387970E+04  0.67515822802E+02  0.12242302489E+04  0.17856997720E+04  0.12699999809E+01 0. -1.
</event>
<event>
 5   0  0.1193123E-06  0.3078749E+04  0.7818609E-02  0.8221594E-01
       -2   -1    0    0    0  501  0.00000000000E+00  0.00000000000E+00  0.11616292238E+04  0.11616292238E+04  0.25500000920E-02 0. -1.
        2   -1    0    0  501    0  0.00000000000E+00  0.00000000000E+00 -0.20399576811E+04  0.20399576811E+04  0.25500000920E-02 0.  1.
    10030    2    1    2    0    0  0.00000000000E+00  0.00000000000E+00 -0.87832845736E+03  0.32015869049E+04  0.30787493939E+04 0.  0.
        3    1    3    3  502    0  0.22515786717E+03  0.14761690143E+04 -0.82812439460E+03  0.17075014047E+04  0.10100000352E+00 0. -1.
       -3    1    3    3    0  502 -0.22515786717E+03 -0.14761690143E+04 -0.50204062763E+02  0.14940855002E+04  0.10100000352E+00 0.  1.
</event>
<event>
 5   0  0.1258262E-06  0.3168785E+04  0.7818609E-02  0.8197110E-01
        2   -1    0    0  501    0  0.00000000000E+00  0.00000000000E+00  0.17182012465E+04  0.17182012465E+04  0.25500000920E-02 0.  1.
       -2   -1    0    0    0  501  0.00000000000E+00  0.00000000000E+00 -0.14610048326E+04  0.14610048326E+04  0.25500000920E-02 0. -1.
    10030    2    1    2    0    0  0.00000000000E+00  0.00000000000E+00  0.25719641381E+03  0.31792060791E+04  0.31687854611E+04 0.  0.
        1    1    3    3  502    0 -0.36153148703E+01 -0.54668256302E+03  0.16205747426E+04  0.17103033040E+04  0.50400001928E-02 0.  1.
       -1    1    3    3    0  502  0.36153148703E+01  0.54668256302E+03 -0.13633783288E+04  0.14689027751E+04  0.50400001928E-02 0. -1.
</event>
<event>
 5   0  0.4134019E-07  0.3096587E+04  0.7818609E-02  0.8216675E-01
       -1   -1    0    0    0  501  0.00000000000E+00  0.00000000000E+00  0.14681614745E+04  0.14681614745E+04  0.50400001928E-02 0.  1.
        1   -1    0    0  501    0  0.00000000000E+00  0.00000000000E+00 -0.16327993250E+04  0.16327993250E+04  0.50400001928E-02 0. -1.
    10030    2    1    2    0    0  0.00000000000E+00  0.00000000000E+00 -0.16463785046E+03  0.31009607995E+04  0.30965871953E+04 0.  0.
        2    1    3    3  502    0 -0.22372454182E+03  0.15245696943E+04  0.69048926026E+02  0.15424438978E+04  0.25500000920E-02 0.  1.
       -2    1    3    3    0  502  0.22372454182E+03 -0.15245696943E+04 -0.23368677649E+03  0.15585169017E+04  0.25500000920E-02 0. -1.
</event>
<event>
 5   0  0.1200286E-06  0.3096115E+04  0.7818609E-02  0.8216805E-01
       -2   -1    0    0    0  501  0.00000000000E+00  0.00000000000E+00  0.22416542833E+04  0.22416542833E+04  0.25500000920E-02 0. -1.
        2   -1    0    0  501    0  0.00000000000E+00  0.00000000000E+00 -0.10690686272E+04  0.10690686272E+04  0.25500000920E-02 0.  1.
    10030    2    1    2    0    0  0.00000000000E+00  0.00000000000E+00  0.11725856561E+04  0.33107229105E+04  0.30961151576E+04 0.  0.
        5    1    3    3  502    0  0.14691208774E+04 -0.40132137623E+03  0.88317981918E+03  0.17605123352E+04  0.46999998093E+01 0. -1.
       -5    1    3    3    0  502 -0.14691208774E+04  0.40132137623E+03  0.28940583689E+03  0.15502105753E+04  0.46999998093E+01 0.  1.
</event>
<event>
 5   0  0.4330395E-07  0.3061837E+04  0.7818609E-02  0.8226290E-01
       -1   -1    0    0    0  501  0.00000000000E+00  0.00000000000E+00  0.96712031032E+03  0.96712031033E+03  0.50400001928E-02 0. -1.
        1   -1    0    0  501    0  0.00000000000E+00  0.00000000000E+00 -0.24233924841E+04  0.24233924841E+04  0.50400001928E-02 0.  1.
    10030    2    1    2    0    0  0.00000000000E+00  0.00000000000E+00 -0.14562721738E+04  0.33905127944E+04  0.30618374165E+04 0.  0.
        1    1    3    3  502    0  0.10254920035E+04 -0.10775943450E+04 -0.11287270109E+04  0.18673157437E+04  0.50400001928E-02 0.  1.
       -1    1    3    3    0  502 -0.10254920035E+04  0.10775943450E+04 -0.32754516287E+03  0.15231970507E+04  0.50400001928E-02 0. -1.
</event>
<event>
 5   0  0.1258262E-06  0.3109789E+04  0.7818609E-02  0.8213056E-01
        2   -1    0    0  501    0  0.00000000000E+00  0.00000000000E+00  0.10828634462E+04  0.10828634462E+04  0.25500000920E-02 0.  1.
       -2   -1    0    0    0  501  0.00000000000E+00  0.00000000000E+00 -0.22326892378E+04  0.22326892378E+04  0.25500000920E-02 0. -1.
    10030    2    1    2    0    0  0.00000000000E+00  0.00000000000E+00 -0.11498257916E+04  0.33155526840E+04  0.31097894220E+04 0.  0.
        1    1    3    3  502    0 -0.52056090256E+03 -0.83557083966E+03  0.70827274175E+03  0.12127706123E+04  0.50400001928E-02 0.  1.
       -1    1    3    3    0  502  0.52056090256E+03  0.83557083966E+03 -0.18580985334E+04  0.21027820717E+04  0.50400001928E-02 0. -1.
</event>
<event>
 5   0  0.1176002E-06  0.3075040E+04  0.7818609E-02  0.8222621E-01
       -2   -1    0    0    0  501  0.00000000000E+00  0.00000000000E+00  0.11246386265E+04  0.11246386265E+04  0.25500000920E-02 0. -1.
        2   -1    0    0  501    0  0.00000000000E+00  0.00000000000E+00 -0.21019803046E+04  0.21019803046E+04  0.25500000920E-02 0.  1.
    10030    2    1    2    0    0  0.00000000000E+00  0.00000000000E+00 -0.97734167818E+03  0.32266189311E+04  0.30750403201E+04 0.  0.
        2    1    3    3  502    0 -0.50743886424E+03  0.21903582322E+03 -0.19941405389E+04  0.20693156796E+04  0.25500000920E-02 0.  1.
       -2    1    3    3    0  502  0.50743886424E+03 -0.21903582322E+03  0.10167988607E+04  0.11573032515E+04  0.25500000920E-02 0. -1.
</event>
<event>
 5   0  0.3935852E-07  0.3090029E+04  0.7818609E-02  0.8218480E-01
       -1   -1    0    0    0  501  0.00000000000E+00  0.00000000000E+00  0.16198549155E+04  0.16198549155E+04  0.50400001928E-02 0. -1.
        1   -1    0    0  501    0  0.00000000000E+00  0.00000000000E+00 -0.14736319686E+04  0.14736319686E+04  0.50400001928E-02 0.  1.
    10030    2    1    2    0    0  0.00000000000E+00  0.00000000000E+00  0.14622294690E+03  0.30934868842E+04  0.30900291184E+04 0.  0.
        5    1    3    3  502    0 -0.12165420842E+04 -0.80073291841E+03 -0.44312051917E+03  0.15223421868E+04  0.46999998093E+01 0.  1.
       -5    1    3    3    0  502  0.12165420842E+04  0.80073291841E+03  0.58934346607E+03  0.15711446974E+04  0.46999998093E+01 0. -1.
</event>
<event>
 5   0  0.4173905E-07  0.3095973E+04  0.7818609E-02  0.8216844E-01
        1   -1    0    0  501    0  0.00000000000E+00  0.00000000000E+00  0.19419247141E+04  0.19419247141E+04  0.50400001928E-02 0. -1.
       -1   -1    0    0    0  501  0.00000000000E+00  0.00000000000E+00 -0.12339620665E+04  0.12339620666E+04  0.50400001928E-02 0.  1.
    10030    2    1    2    0    0  0.00000000000E+00  0.00000000000E+00  0.70796264756E+03  0.31758867807E+04  0.30959725020E+04 0.  0.
        3    1    3    3  502    0  0.42715423847E+03  0.10961317118E+04 -0.67811841129E+03  0.13578696782E+04  0.10100000352E+00 0.  1.
       -3    1    3    3    0  502 -0.42715423847E+03 -0.10961317118E+04  0.13860810588E+04  0.18180171025E+04  0.10100000352E+00 0. -1.
</event>
<event>
 5   0  0.1193123E-06  0.3097823E+04  0.7818609E-02  0.8216336E-01
        2   -1    0    0  501    0  0.00000000000E+00  0.00000000000E+00  0.16092154208E+04  0.16092154208E+04  0.25500000920E-02 0.  1.
       -2   -1    0    0    0  501  0.00000000000E+00  0.00000000000E+00 -0.14908675502E+04  0.14908675502E+04  0.25500000920E-02 0. -1.
    10030    2    1    2    0    0  0.00000000000E+00  0.00000000000E+00  0.11834787055E+03  0.31000829710E+04  0.30978231403E+04 0.  0.
        3    1    3    3  502    0 -0.70406185873E+03  0.62398686705E+02  0.14384138463E+04  0.16026949493E+04  0.10100000352E+00 0.  1.
       -3    1    3    3    0  502  0.70406185873E+03 -0.62398686705E+02 -0.13200659758E+04  0.14973880217E+04  0.10100000352E+00 0. -1.
</event>
<event>
 5   0  0.1200286E-06  0.3107598E+04  0.7818609E-02  0.8213656E-01
       -2   -1    0    0    0  501  0.00000000000E+00  0.00000000000E+00  0.10349660740E+04  0.10349660740E+04  0.25500000920E-02 0. -1.
        2   -1    0    0  501    0  0.00000000000E+00  0.00000000000E+00 -0.23327245363E+04  0.23327245363E+04  0.25500000920E-02 0.  1.
    10030    2    1    2    0    0  0.00000000000E+00  0.00000000000E+00 -0.12977584622E+04  0.33676906103E+04  0.31075976284E+04 0.  0.
        5    1    3    3  502    0 -0.11226433995E+04  0.56746054242E+03 -0.16373197392E+04  0.20647463980E+04  0.46999998093E+01 0.  1.
       -5    1    3    3    0  502  0.11226433995E+04 -0.56746054242E+03  0.33956127696E+03  0.13029442123E+04  0.46999998093E+01 0. -1.
</event>
<event>
 5   0  0.3935852E-07  0.3117811E+04  0.7818609E-02  0.8210867E-01
       -1   -1    0    0    0  501  0.00000000000E+00  0.00000000000E+00  0.12015696797E+04  0.12015696797E+04  0.50400001928E-02 0.  1.
        1   -1    0    0  501    0  0.00000000000E+00  0.00000000000E+00 -0.20225101647E+04  0.20225101648E+04  0.50400001928E-02 0. -1.
    10030    2    1    2    0    0  0.00000000000E+00  0.00000000000E+00 -0.82094048508E+03  0.32240798444E+04  0.31178113418E+04 0.  0.
        5    1    3    3  502    0 -0.69097735662E+03 -0.13311632217E+04  0.29130633429E+02  0.15001053009E+04  0.46999998093E+01 0. -1.
       -5    1    3    3    0  502  0.69097735662E+03  0.13311632217E+04 -0.85007111851E+03  0.17239745435E+04  0.46999998093E+01 0.  1.
</event>
<event>
 5   0  0.1258262E-06  0.3090102E+04  0.7818609E-02  0.8218460E-01
       -2   -1    0    0    0  501  0.00000000000E+00  0.00000000000E+00  0.12481259390E+04  0.12481259390E+04  0.25500000920E-02 0. -1.
        2   -1    0    0  501    0  0.00000000000E+00  0.00000000000E+00 -0.19126132580E+04  0.19126132580E+04  0.25500000920E-02 0.  1.
    10030    2    1    2    0    0  0.00000000000E+00  0.00000000000E+00 -0.66448731905E+03  0.31607391970E+04  0.30901017579E+04 0.  0.
        1    1    3    3  502    0 -0.10172641886E+04  0.25663684550E+03 -0.14924083636E+04  0.18242729027E+04  0.50400001928E-02 0.  1.
       -1    1    3    3    0  502  0.10172641886E+04 -0.25663684550E+03  0.82792104451E+03  0.13364662943E+04  0.50400001928E-02 0. -1.
</event>
<event>
 5   0  0.4330395E-07  0.3091618E+04  0.7818609E-02  0.8218042E-01
        1   -1    0    0  501    0  0.00000000000E+00  0.00000000000E+00  0.17312860553E+04  0.17312860553E+04  0.50400001928E-02 0.  1.
       -1   -1    0    0    0  501  0.00000000000E+00  0.00000000000E+00 -0.13802021568E+04  0.13802021569E+04  0.50400001928E-02 0. -1.
    10030    2    1    2    0    0  0.00000000000E+00  0.00000000000E+00  0.35108389848E+03  0.31114882122E+04  0.30916175363E+04 0.  0.
        1    1    3    3  502    0  0.11773996863E+04 -0.93641075113E+03 -0.18225622629E+03  0.15153720495E+04  0.50400001928E-02 0. -1.
       -1    1    3    3    0  502 -0.11773996863E+04  0.93641075113E+03  0.53334012477E+03  0.15961161627E+04  0.50400001928E-02 0.  1.
</event>
<event>
 5   0  0.1193123E-06  0.3089148E+04  0.7818609E-02  0.8218722E-01
       -2   -1    0    0    0  501  0.00000000000E+00  0.00000000000E+00  0.12640669613E+04  0.12640669613E+04  0.25500000920E-02 0. -1.
        2   -1    0    0  501    0  0.00000000000E+00  0.00000000000E+00 -0.18873284278E+04  0.18873284278E+04  0.25500000920E-02 0.  1.
    10030    2    1    2    0    0  0.00000000000E+00  0.00000000000E+00 -0.62326146648E+03  0.31513953892E+04  0.30891484333E+04 0.  0.
        3    1    3    3  502    0 -0.73249466890E+02 -0.13879095471E+04 -0.99904174875E+03  0.17116491525E+04  0.10100000352E+00 0.  1.
       -3    1    3    3    0  502  0.73249466890E+02  0.13879095471E+04  0.37578028227E+03  0.14397462367E+04  0.10100000352E+00 0. -1.
</event>
<event>
 5   0  0.1237580E-06  0.2977906E+04  0.7818609E-02  0.8250068E-01
        2   -1    0    0  501    0  0.00000000000E+00  0.00000000000E+00  0.13509114685E+04  0.13509114685E+04  0.25500000920E-02 0.  1.
       -2   -1    0    0    0  501  0.00000000000E+00  0.00000000000E+00 -0.16411000239E+04  0.16411000240E+04  0.25500000920E-02 0. -1.
    10030    2    1    2    0    0  0.00000000000E+00  0.00000000000E+00 -0.29018855545E+03  0.29920114925E+04  0.29779058705E+04 0.  0.
        4    1    3    3  502    0 -0.79402518590E+03  0.12436660445E+04 -0.34553360606E+03  0.15154459119E+04  0.12699999809E+01 0. -1.
       -4    1    3    3    0  502  0.79402518590E+03 -0.12436660445E+04  0.55345050612E+02  0.14765655805E+04  0.12699999809E+01 0.  1.
</event>
<event>
 5   0  0.1176002E-06  0.3120901E+04  0.7818609E-02  0.8210025E-01
       -2   -1    0    0    0  501  0.00000000000E+00  0.00000000000E+00  0.16480086489E+04  0.16480086489E+04  0.25500000920E-02 0. -1.
        2   -1    0    0  501    0  0.00000000000E+00  0.00000000000E+00 -0.14775444864E+04  0.14775444864E+04  0.25500000920E-02 0.  1.
    10030    2    1    2    0    0  0.00000000000E+00  0.00000000000E+00  0.17046416255E+03  0.31255531353E+04  0.31209012114E+04 0.  0.
        2    1    3    3  502    0 -0.62835015468E+03 -0.32315963291E+03  0.14786182708E+04  0.16387702877E+04  0.25500000920E-02 0. -1.
       -2    1    3    3    0  502  0.62835015468E+03  0.32315963291E+03 -0.13081541082E+04  0.14867828476E+04  0.25500000920E-02 0.  1.
</event>
<event>
 5   0  0.1176002E-06  0.3101922E+04  0.7818609E-02  0.8215211E-01
       -2   -1    0    0    0  501  0.00000000000E+00  0.00000000000E+00  0.19629043571E+04  0.19629043571E+04  0.25500000920E-02 0.  1.
        2   -1    0    0  501    0  0.00000000000E+00  0.00000000000E+00 -0.12254697689E+04  0.12254697689E+04  0.25500000920E-02 0. -1.
    10030    2    1    2    0    0  0.00000000000E+00  0.00000000000E+00  0.73743458825E+03  0.31883741260E+04  0.31019219519E+04 0.  0.
        2    1    3    3  502    0 -0.71145966606E+03 -0.80110956700E+03 -0.78393239498E+03  0.13275923300E+04  0.25500000920E-02 0. -1.
       -2    1    3    3    0  502  0.71145966606E+03  0.80110956700E+03  0.15213669832E+04  0.18607817960E+04  0.25500000920E-02 0.  1.
</event>
<event>
 5   0  0.1258262E-06  0.3098826E+04  0.7818609E-02  0.8216060E-01
       -2   -1    0    0    0  501  0.00000000000E+00  0.00000000000E+00  0.15700451490E+04  0.15700451490E+04  0.25500000920E-02 0.  1.
        2   -1    0    0  501    0  0.00000000000E+00  0.00000000000E+00 -0.15290520707E+04  0.15290520707E+04  0.25500000920E-02 0. -1.
    10030    2    1    2    0    0  0.00000000000E+00  0.00000000000E+00  0.40993078273E+02  0.30990972197E+04  0.30988260913E+04 0.  0.
        1    1    3    3  502    0  0.76093392859E+03 -0.31311081979E+03  0.13334792438E+04  0.15669159910E+04  0.50400001928E-02 0.  1.
       -1    1    3    3    0  502 -0.76093392859E+03  0.31311081979E+03 -0.12924861656E+04  0.15321812286E+04  0.50400001928E-02 0. -1.
</event>
<event>
 5   0  0.3935852E-07  0.3111093E+04  0.7818609E-02  0.8212700E-01
        1   -1    0    0  501    0  0.00000000000E+00  0.00000000000E+00  0.30109809246E+04  0.30109809246E+04  0.50400001928E-02 0.  1.
       -1   -1    0    0    0  501  0.00000000000E+00  0.00000000000E+00 -0.80363347112E+03  0.80363347114E+03  0.50400001928E-02 0. -1.
    10030    2    1    2    0    0  0.00000000000E+00  0.00000000000E+00  0.22073474535E+04  0.38146143958E+04  0.31110930889E+04 0.  0.
        5    1    3    3  502    0  0.36561910347E+03  0.72018299044E+03  0.27337217719E+04  0.28505434017E+04  0.46999998093E+01 0.  1.
       -5    1    3    3    0  502 -0.36561910347E+03 -0.72018299044E+03 -0.52637431843E+03  0.96407099409E+03  0.46999998093E+01 0. -1.
</event>
<event>
 5   0  0.4330395E-07  0.3106180E+04  0.7818609E-02  0.8214044E-01
        1   -1    0    0  501    0  0.00000000000E+00  0.00000000000E+00  0.16202672122E+04  0.16202672123E+04  0.50400001928E-02 0. -1.
       -1   -1    0    0    0  501  0.00000000000E+00  0.00000000000E+00 -0.14886982049E+04  0.14886982049E+04  0.50400001928E-02 0.  1.
    10030    2    1    2    0    0  0.00000000000E+00  0.00000000000E+00  0.13156900732E+03  0.31089654172E+04  0.31061802204E+04 0.  0.
        1    1    3    3  502    0  0.30138683554E+03  0.12761072182E+04  0.89888006600E+03  0.15897386672E+04  0.50400001928E-02 0. -1.
       -1    1    3    3    0  502 -0.30138683554E+03 -0.12761072182E+04 -0.76731105869E+03  0.15192267500E+04  0.50400001928E-02 0.  1.
</event>
<event>
 5   0  0.1258262E-06  0.3094146E+04  0.7818609E-02  0.8217346E-01
       -2   -1    0    0    0  501  0.00000000000E+00  0.00000000000E+00  0.11354702742E+04  0.11354702742E+04  0.25500000920E-02 0.  1.
        2   -1    0    0  501    0  0.00000000000E+00  0.00000000000E+00 -0.21078796398E+04  0.21078796398E+04  0.25500000920E-02 0. -1.
    10030    2    1    2    0    0  0.00000000000E+00  0.00000000000E+00 -0.97240936560E+03  0.32433499140E+04  0.30941458741E+04 0.  0.
        1    1    3    3  502    0 -0.11313330023E+04  0.64245758021E+03 -0.13636909492E+04  0.18847596954E+04  0.50400001928E-02 0. -1.
       -1    1    3    3    0  502  0.11313330023E+04 -0.64245758021E+03  0.39128158357E+03  0.13585902186E+04  0.50400001928E-02 0.  1.
</event>
<event>
 5   0  0.4134019E-07  0.3095860E+04  0.7818609E-02  0.8216875E-01
        1   -1    0    0  501    0  0.00000000000E+00  0.00000000000E+00  0.24496068288E+04  0.24496068288E+04  0.50400001928E-02 0.  1.
       -1   -1    0    0    0  501  0.00000000000E+00  0.00000000000E+00 -0.97815175011E+03  0.97815175012E+03  0.50400001928E-02 0. -1.
    10030    2    1    2    0    0  0.00000000000E+00  0.00000000000E+00  0.14714550787E+04  0.34277585790E+04  0.30958599495E+04 0.  0.
        2    1    3    3  502    0  0.59041813261E+03 -0.36923527315E+03 -0.79492749676E+03  0.10568055561E+04  0.25500000920E-02 0. -1.
       -2    1    3    3    0  502 -0.59041813261E+03  0.36923527315E+03  0.22663825755E+04  0.23709530229E+04  0.25500000920E-02 0.  1.
</event>
<event>
 5   0  0.4173905E-07  0.3126807E+04  0.7818609E-02  0.8208419E-01
       -1   -1    0    0    0  501  0.00000000000E+00  0.00000000000E+00  0.12331074780E+04  0.12331074780E+04  0.50400001928E-02 0. -1.
        1   -1    0    0  501    0  0.00000000000E+00  0.00000000000E+00 -0.19821711055E+04  0.19821711055E+04  0.50400001928E-02 0.  1.
    10030    2    1    2    0    0  0.00000000000E+00  0.00000000000E+00 -0.74906362746E+03  0.32152785835E+04  0.31268066860E+04 0.  0.
        3    1    3    3  502    0 -0.57030143891E+03 -0.14311183358E+04 -0.10075315632E+03  0.15438570630E+04  0.10100000352E+00 0. -1.
       -3    1    3    3    0  502  0.57030143891E+03  0.14311183358E+04 -0.64831047114E+03  0.16714215205E+04  0.10100000352E+00 0.  1.
</event>
<event>
 5   0  0.4219337E-07  0.3113908E+04  0.7818609E-02  0.8211931E-01
       -1   -1    0    0    0  501  0.00000000000E+00  0.00000000000E+00  0.10069285863E+04  0.10069285863E+04  0.50400001928E-02 0. -1.
        1   -1    0    0  501    0  0.00000000000E+00  0.00000000000E+00 -0.24074251289E+04  0.24074251289E+04  0.50400001928E-02 0.  1.
    10030    2    1    2    0    0  0.00000000000E+00  0.00000000000E+00 -0.14004965427E+04  0.34143537152E+04  0.31139076297E+04 0.  0.
        4    1    3    3  502    0  0.14851098290E+03  0.95437774933E+03 -0.20392229332E+04  0.22563962828E+04  0.12699999809E+01 0.  1.
       -4    1    3    3    0  502 -0.14851098290E+03 -0.95437774933E+03  0.63872639057E+03  0.11579574325E+04  0.12699999809E+01 0. -1.
</event>
<event>
 5   0  0.1258262E-06  0.3101913E+04  0.7818609E-02  0.8215213E-01
       -2   -1    0    0    0  501  0.00000000000E+00  0.00000000000E+00  0.14693060390E+04  0.14693060390E+04  0.25500000920E-02 0.  1.
        2   -1    0    0  501    0  0.00000000000E+00  0.00000000000E+00 -0.16371448281E+04  0.16371448281E+04  0.25500000920E-02 0. -1.
    10030    2    1    2    0    0  0.00000000000E+00  0.00000000000E+00 -0.16783878904E+03  0.31064508671E+04  0.31019134628E+04 0.  0.
        1    1    3    3  502    0  0.23782626560E+03 -0.79323625399E+03 -0.13972039764E+04  0.16241810364E+04  0.50400001928E-02 0. -1.
       -1    1    3    3    0  502 -0.23782626560E+03  0.79323625399E+03  0.12293651874E+04  0.14822698308E+04  0.50400001928E-02 0.  1.
</event>
<event>
 5   0  0.4134019E-07  0.3102845E+04  0.7818609E-02  0.8214958E-01
        1   -1    0    0  501    0  0.00000000000E+00  0.00000000000E+00  0.12058113214E+04  0.12058113214E+04  0.50400001928E-02 0.  1.
       -1   -1    0    0    0  501  0.00000000000E+00  0.00000000000E+00 -0.19960928678E+04  0.19960928679E+04  0.50400001928E-02 0. -1.
    10030    2    1    2    0    0  0.00000000000E+00  0.00000000000E+00 -0.79028154642E+03  0.32019041893E+04  0.31028447455E+04 0.  0.
        2    1    3    3  502    0  0.97808748840E+03 -0.17858641447E+03  0.83383127198E+03  0.12976219914E+04  0.25500000920E-02 0.  1.
       -2    1    3    3    0  502 -0.97808748840E+03  0.17858641447E+03 -0.16241128184E+04  0.19042821979E+04  0.25500000920E-02 0. -1.
</event>
<event>
 5   0  0.3935852E-07  0.3062190E+04  0.7818609E-02  0.8226192E-01
       -1   -1    0    0    0  501  0.00000000000E+00  0.00000000000E+00  0.29632634957E+04  0.29632634957E+04  0.50400001928E-02 0.  1.
        1   -1    0    0  501    0  0.00000000000E+00  0.00000000000E+00 -0.79110466613E+03  0.79110466614E+03  0.50400001928E-02 0. -1.
    10030    2    1    2    0    0  0.00000000000E+00  0.00000000000E+00  0.21721588296E+04  0.37543681619E+04  0.30621897906E+04 0.  0.
        5    1    3    3  502    0 -0.12760117583E+04  0.22166654099E+03  0.20873028777E+04  0.24564603510E+04  0.46999998093E+01 0.  1.
       -5    1    3    3    0  502  0.12760117583E+04 -0.22166654099E+03  0.84855951835E+02  0.12979078108E+04  0.46999998093E+01 0. -1.
</event>
<event>
 5   0  0.3935852E-07  0.3073920E+04  0.7818609E-02  0.8222932E-01
        1   -1    0    0  501    0  0.00000000000E+00  0.00000000000E+00  0.19430554723E+04  0.19430554723E+04  0.50400001928E-02 0.  1.
       -1   -1    0    0    0  501  0.00000000000E+00  0.00000000000E+00 -0.12157379523E+04  0.12157379523E+04  0.50400001928E-02 0. -1.
    10030    2    1    2    0    0  0.00000000000E+00  0.00000000000E+00  0.72731752008E+03  0.31587934246E+04  0.30739201558E+04 0.  0.
        5    1    3    3  502    0 -0.62446716371E+03  0.12573820167E+04 -0.27911601369E+03  0.14313967352E+04  0.46999998093E+01 0. -1.
       -5    1    3    3    0  502  0.62446716371E+03 -0.12573820167E+04  0.10064335338E+04  0.17273966894E+04  0.46999998093E+01 0.  1.
</event>
<event>
 5   0  0.1258262E-06  0.3113568E+04  0.7818609E-02  0.8212024E-01
       -2   -1    0    0    0  501  0.00000000000E+00  0.00000000000E+00  0.11908900090E+04  0.11908900090E+04  0.25500000920E-02 0. -1.
        2   -1    0    0  501    0  0.00000000000E+00  0.00000000000E+00 -0.20350965848E+04  0.20350965848E+04  0.25500000920E-02 0.  1.
    10030    2    1    2    0    0  0.00000000000E+00  0.00000000000E+00 -0.84420657581E+03  0.32259865938E+04  0.31135678507E+04 0.  0.
        1    1    3    3  502    0 -0.11246010103E+04 -0.86248358183E+02 -0.15338842127E+04  0.19039346075E+04  0.50400001928E-02 0.  1.
       -1    1    3    3    0  502  0.11246010103E+04  0.86248358183E+02  0.68967763691E+03  0.13220519863E+04  0.50400001928E-02 0. -1.
</event>
<event>
 5   0  0.3935852E-07  0.3096391E+04  0.7818609E-02  0.8216729E-01
        1   -1    0    0  501    0  0.00000000000E+00  0.00000000000E+00  0.15932811412E+04  0.15932811412E+04  0.50400001928E-02 0.  1.
       -1   -1    0    0    0  501  0.00000000000E+00  0.00000000000E+00 -0.15043854439E+04  0.15043854439E+04  0.50400001928E-02 0. -1.
    10030    2    1    2    0    0  0.00000000000E+00  0.00000000000E+00  0.88895697306E+02  0.30976665852E+04  0.30963907744E+04 0.  0.
        5    1    3    3  502    0  0.66023887336E+03 -0.11338799156E+04 -0.77764972986E+03  0.15252410384E+04  0.46999998093E+01 0. -1.
       -5    1    3    3    0  502 -0.66023887336E+03  0.11338799156E+04  0.86654542717E+03  0.15724255468E+04  0.46999998093E+01 0.  1.
</event>
<event>
 5   0  0.1176002E-06  0.3094444E+04  0.7818609E-02  0.8217264E-01
       -2   -1    0    0    0  501  0.00000000000E+00  0.00000000000E+00  0.15727118788E+04  0.15727118788E+04  0.25500000920E-02 0. -1.
        2   -1    0    0  501    0  0.00000000000E+00  0.00000000000E+00 -0.15221453460E+04  0.15221453460E+04  0.25500000920E-02 0.  1.
    10030    2    1    2    0    0  0.00000000000E+00  0.00000000000E+00  0.50566532802E+02  0.30948572247E+04  0.30944440966E+04 0.  0.
        2    1    3    3  502    0 -0.15266893694E+04  0.24873250081E+03 -0.10045367789E+02  0.15468513817E+04  0.25500000920E-02 0. -1.
       -2    1    3    3    0  502  0.15266893694E+04 -0.24873250081E+03  0.60611900591E+02  0.15480058430E+04  0.25500000920E-02 0.  1.
</event>
<event>
 5   0  0.4134019E-07  0.3106423E+04  0.7818609E-02  0.8213977E-01
       -1   -1    0    0    0  501  0.00000000000E+00  0.00000000000E+00  0.14297623251E+04  0.14297623251E+04  0.50400001928E-02 0.  1.
        1   -1    0    0  501    0  0.00000000000E+00  0.00000000000E+00 -0.16873192309E+04  0.16873192309E+04  0.50400001928E-02 0. -1.
    10030    2    1    2    0    0  0.00000000000E+00  0.00000000000E+00 -0.25755690580E+03  0.31170815561E+04  0.31064226801E+04 0.  0.
        2    1    3    3  502    0  0.45025004270E+03 -0.73315881190E+03  0.11688015138E+04  0.14513248855E+04  0.25500000920E-02 0.  1.
       -2    1    3    3    0  502 -0.45025004270E+03  0.73315881190E+03 -0.14263584196E+04  0.16657566706E+04  0.25500000920E-02 0. -1.
</event>
<event>
 5   0  0.1200286E-06  0.3103189E+04  0.7818609E-02  0.8214863E-01
       -2   -1    0    0    0  501  0.00000000000E+00  0.00000000000E+00  0.17245118005E+04  0.17245118005E+04  0.25500000920E-02 0. -1.
        2   -1    0    0  501    0  0.00000000000E+00  0.00000000000E+00 -0.13960152884E+04  0.13960152884E+04  0.25500000920E-02 0.  1.
    10030    2    1    2    0    0  0.00000000000E+00  0.00000000000E+00  0.32849651203E+03  0.31205270889E+04  0.31031885786E+04 0.  0.
        5    1    3    3  502    0  0.42259941977E+03  0.51000172538E+03  0.15752025571E+04  0.17087940822E+04  0.46999998093E+01 0. -1.
       -5    1    3    3    0  502 -0.42259941977E+03 -0.51000172538E+03 -0.12467060451E+04  0.14117330067E+04  0.46999998093E+01 0.  1.
</event>
<event>
 5   0  0.1237580E-06  0.3101370E+04  0.7818609E-02  0.8215362E-01
       -2   -1    0    0    0  501  0.00000000000E+00  0.00000000000E+00  0.10535694118E+04  0.10535694118E+04  0.25500000920E-02 0.  1.
        2   -1    0    0  501    0  0.00000000000E+00  0.00000000000E+00 -0.22823595528E+04  0.22823595528E+04  0.25500000920E-02 0. -1.
    10030    2    1    2    0    0  0.00000000000E+00  0.00000000000E+00 -0.12287901410E+04  0.33359289646E+04  0.31013701562E+04 0.  0.
        4    1    3    3  502    0  0.54355627954E+03 -0.16150664129E+03  0.93805150261E+03  0.10961204581E+04  0.12699999809E+01 0.  1.
       -4    1    3    3    0  502 -0.54355627954E+03  0.16150664129E+03 -0.21668416436E+04  0.22398085065E+04  0.12699999809E+01 0. -1.
</event>
<event>
 5   0  0.1237580E-06  0.3004262E+04  0.7818609E-02  0.8242515E-01
       -2   -1    0    0    0  501  0.00000000000E+00  0.00000000000E+00  0.11325288056E+04  0.11325288056E+04  0.25500000920E-02 0.  1.
        2   -1    0    0  501    0  0.00000000000E+00  0.00000000000E+00 -0.19923536542E+04  0.19923536542E+04  0.25500000920E-02 0. -1.
    10030    2    1    2    0    0  0.00000000000E+00  0.00000000000E+00 -0.85982484861E+03  0.31248824598E+04  0.30042622417E+04 0.  0.
        4    1    3    3  502    0 -0.14772012029E+04 -0.12891453153E+02 -0.71306766691E+03  0.16403526127E+04  0.12699999809E+01 0.  1.
       -4    1    3    3    0  502  0.14772012029E+04  0.12891453153E+02 -0.14675718170E+03  0.14845298471E+04  0.12699999809E+01 0. -1.
</event>
<event>
 5   0  0.3935852E-07  0.3111339E+04  0.7818609E-02  0.8212633E-01
       -1   -1    0    0    0  501  0.00000000000E+00  0.00000000000E+00  0.24426338088E+04  0.24426338088E+04  0.50400001928E-02 0. -1.
        1   -1    0    0  501    0  0.00000000000E+00  0.00000000000E+00 -0.99077798259E+03  0.99077798261E+03  0.50400001928E-02 0.  1.
    10030    2    1    2    0    0  0.00000000000E+00  0.00000000000E+00  0.14518558262E+04  0.34334117914E+04  0.31113391312E+04 0.  0.
        5    1    3    3  502    0  0.64429980911E+03  0.26645763553E+03 -0.80869865497E+03  0.10677722229E+04  0.46999998093E+01 0.  1.
       -5    1    3    3    0  502 -0.64429980911E+03 -0.26645763553E+03  0.22605544812E+04  0.23656395685E+04  0.46999998093E+01 0. -1.
</event>
<event>
 5   0  0.3902375E-07  0.3112211E+04  0.7818609E-02  0.8212395E-01
       -3   -1    0    0    0  501  0.00000000000E+00  0.00000000000E+00  0.10388768988E+04  0.10388769037E+04  0.10100000352E+00 0. -1.
        3   -1    0    0  501    0  0.00000000000E+00  0.00000000000E+00 -0.23308481941E+04  0.23308481963E+04  0.10100000352E+00 0.  1.
    10030    2    1    2    0    0  0.00000000000E+00  0.00000000000E+00 -0.12919712952E+04  0.33697251000E+04  0.31122110182E+04 0.  0.
        4    1    3    3  502    0  0.72195292777E+03 -0.13220713913E+04 -0.10686355747E+04  0.18469088765E+04  0.12699999809E+01 0. -1.
       -4    1    3    3    0  502 -0.72195292777E+03  0.13220713913E+04 -0.22333572056E+03  0.15228162235E+04  0.12699999809E+01 0.  1.
</event>
<event>
 5   0  0.3935852E-07  0.3101020E+04  0.7818609E-02  0.8215458E-01
        1   -1    0    0  501    0  0.00000000000E+00  0.00000000000E+00  0.25539797352E+04  0.25539797352E+04  0.50400001928E-02 0.  1.
       -1   -1    0    0    0  501  0.00000000000E+00  0.00000000000E+00 -0.94130774661E+03  0.94130774662E+03  0.50400001928E-02 0. -1.
    10030    2    1    2    0    0  0.00000000000E+00  0.00000000000E+00  0.16126719885E+04  0.34952874818E+04  0.31010197738E+04 0.  0.
        5    1    3    3  502    0  0.94070236275E+02 -0.14467955505E+04  0.14257432116E+04  0.20334287225E+04  0.46999998093E+01 0. -1.
       -5    1    3    3    0  502 -0.94070236275E+02  0.14467955505E+04  0.18692877700E+03  0.14618587593E+04  0.46999998093E+01 0.  1.
</event>
<event>
 5   0  0.1258262E-06  0.3098956E+04  0.7818609E-02  0.8216024E-01
       -2   -1    0    0    0  501  0.00000000000E+00  0.00000000000E+00  0.10606664908E+04  0.10606664908E+04  0.25500000920E-02 0. -1.
        2   -1    0    0  501    0  0.00000000000E+00  0.00000000000E+00 -0.22635598138E+04  0.22635598138E+04  0.25500000920E-02 0.  1.
    10030    2    1    2    0    0  0.00000000000E+00  0.00000000000E+00 -0.12028933231E+04  0.33242263046E+04  0.30989559818E+04 0.  0.
        1    1    3    3  502    0 -0.21884062913E+02  0.27076848506E+03  0.10349234426E+04  0.10699817834E+04  0.50400001928E-02 0. -1.
       -1    1    3    3    0  502  0.21884062913E+02 -0.27076848506E+03 -0.22378167657E+04  0.22542445212E+04  0.50400001928E-02 0.  1.
</event>
<event>
 5   0  0.1200286E-06  0.3100942E+04  0.7818609E-02  0.8215479E-01
        2   -1    0    0  501    0  0.00000000000E+00  0.00000000000E+00  0.16659198458E+04  0.16659198458E+04  0.25500000920E-02 0. -1.
       -2   -1    0    0    0  501  0.00000000000E+00  0.00000000000E+00 -0.14430229454E+04  0.14430229454E+04  0.25500000920E-02 0.  1.
    10030    2    1    2    0    0  0.00000000000E+00  0.00000000000E+00  0.22289690040E+03  0.31089427911E+04  0.31009421553E+04 0.  0.
        5    1    3    3  502    0  0.83764535973E+03  0.86364147481E+03  0.10919349144E+04  0.16247677659E+04  0.46999998093E+01 0. -1.
       -5    1    3    3    0  502 -0.83764535973E+03 -0.86364147481E+03 -0.86903801404E+03  0.14841750252E+04  0.46999998093E+01 0.  1.
</event>
<event>
 5   0  0.3935852E-07  0.3102349E+04  0.7818609E-02  0.8215094E-01
        1   -1    0    0  501    0  0.00000000000E+00  0.00000000000E+00  0.84549334077E+03  0.84549334079E+03  0.50400001928E-02 0. -1.
       -1   -1    0    0    0  501  0.00000000000E+00  0.00000000000E+00 -0.28458438348E+04  0.28458438348E+04  0.50400001928E-02 0.  1.
    10030    2    1    2    0    0  0.00000000000E+00  0.00000000000E+00 -0.20003504940E+04  0.36913371756E+04  0.31023487948E+04 0.  0.
        5    1    3    3  502    0 -0.60201890013E+03 -0.13402541607E+04 -0.15920140408E+04  0.21663884157E+04  0.46999998093E+01 0.  1.
       -5    1    3    3    0  502  0.60201890013E+03  0.13402541607E+04 -0.40833645321E+03  0.15249487599E+04  0.46999998093E+01 0. -1.
</event>
<event>
 5   0  0.1237580E-06  0.3084458E+04  0.7818609E-02  0.8220016E-01
        2   -1    0    0  501    0  0.00000000000E+00  0.00000000000E+00  0.20319769622E+04  0.20319769622E+04  0.25500000920E-02 0.  1.
       -2   -1    0    0    0  501  0.00000000000E+00  0.00000000000E+00 -0.11705201540E+04  0.11705201540E+04  0.25500000920E-02 0. -1.
    10030    2    1    2    0    0  0.00000000000E+00  0.00000000000E+00  0.86145680818E+03  0.32024971162E+04  0.30844578043E+04 0.  0.
        4    1    3    3  502    0 -0.14093807625E+04  0.51177442795E+03  0.80537118262E+03  0.17020257205E+04  0.12699999809E+01 0.  1.
       -4    1    3    3    0  502  0.14093807625E+04 -0.51177442795E+03  0.56085625564E+02  0.15004713956E+04  0.12699999809E+01 0. -1.
</event>
<event>
 5   0  0.1258262E-06  0.3081603E+04  0.7818609E-02  0.8220805E-01
        2   -1    0    0  501    0  0.00000000000E+00  0.00000000000E+00  0.14218166030E+04  0.14218166030E+04  0.25500000920E-02 0. -1.
       -2   -1    0    0    0  501  0.00000000000E+00  0.00000000000E+00 -0.16697433281E+04  0.16697433282E+04  0.25500000920E-02 0.  1.
    10030    2    1    2    0    0  0.00000000000E+00  0.00000000000E+00 -0.24792672511E+03  0.30915599312E+04  0.30816026913E+04 0.  0.
        1    1    3    3  502    0 -0.92555891448E+03 -0.10698567468E+04  0.48859618076E+03  0.14966559360E+04  0.50400001928E-02 0. -1.
       -1    1    3    3    0  502  0.92555891448E+03  0.10698567468E+04 -0.73652290587E+03  0.15949039952E+04  0.50400001928E-02 0.  1.
</event>
<event>
 5   0  0.4173905E-07  0.3099081E+04  0.7818609E-02  0.8215990E-01
       -1   -1    0    0    0  501  0.00000000000E+00  0.00000000000E+00  0.93631733130E+03  0.93631733131E+03  0.50400001928E-02 0.  1.
        1   -1    0    0  501    0  0.00000000000E+00  0.00000000000E+00 -0.25643831845E+04  0.25643831845E+04  0.50400001928E-02 0. -1.
    10030    2    1    2    0    0  0.00000000000E+00  0.00000000000E+00 -0.16280658532E+04  0.35007005158E+04  0.30990814251E+04 0.  0.
        3    1    3    3  502    0  0.55018606861E+03 -0.25670923088E+03  0.79636893794E+03  0.10014029333E+04  0.10100000352E+00 0.  1.
       -3    1    3    3    0  502 -0.55018606861E+03  0.25670923088E+03 -0.24244347911E+04  0.24992975825E+04  0.10100000352E+00 0. -1.
</event>
<event>
 5   0  0.1193123E-06  0.3090084E+04  0.7818609E-02  0.8218465E-01
       -2   -1    0    0    0  501  0.00000000000E+00  0.00000000000E+00  0.27013357128E+04  0.27013357128E+04  0.25500000920E-02 0.  1.
        2   -1    0    0  501    0  0.00000000000E+00  0.00000000000E+00 -0.88369423789E+03  0.88369423790E+03  0.25500000920E-02 0. -1.
    10030    2    1    2    0    0  0.00000000000E+00  0.00000000000E+00  0.18176414749E+04  0.35850299507E+04  0.30900840144E+04 0.  0.
        3    1    3    3  502    0 -0.34131916482E+01 -0.12108229599E+04  0.20222543237E+04  0.23570355216E+04  0.10100000352E+00 0.  1.
       -3    1    3    3    0  502  0.34131916482E+01  0.12108229599E+04 -0.20461284874E+03  0.12279944292E+04  0.10100000352E+00 0. -1.
</event>
<event>
 5   0  0.4173905E-07  0.3111928E+04  0.7818609E-02  0.8212472E-01
        1   -1    0    0  501    0  0.00000000000E+00  0.00000000000E+00  0.22554020645E+04  0.22554020645E+04  0.50400001928E-02 0. -1.
       -1   -1    0    0    0  501  0.00000000000E+00  0.00000000000E+00 -0.10734332296E+04  0.10734332296E+04  0.50400001928E-02 0.  1.
    10030    2    1    2    0    0  0.00000000000E+00  0.00000000000E+00  0.11819688349E+04  0.33288352941E+04  0.31119277127E+04 0.  0.
        3    1    3    3  502    0  0.26337810042E+03 -0.79364953448E+03 -0.81264066445E+03  0.11660327899E+04  0.10100000352E+00 0.  1.
       -3    1    3    3    0  502 -0.26337810042E+03  0.79364953448E+03  0.19946094993E+04  0.21628025043E+04  0.10100000352E+00 0. -1.
</event>
<event>
 5   0  0.3935852E-07  0.3103984E+04  0.7818609E-02  0.8214645E-01
        1   -1    0    0  501    0  0.00000000000E+00  0.00000000000E+00  0.19964570664E+04  0.19964570664E+04  0.50400001928E-02 0. -1.
       -1   -1    0    0    0  501  0.00000000000E+00  0.00000000000E+00 -0.12064771437E+04  0.12064771437E+04  0.50400001928E-02 0.  1.
    10030    2    1    2    0    0  0.00000000000E+00  0.00000000000E+00  0.78997992274E+03  0.32029342101E+04  0.31039844194E+04 0.  0.
        5    1    3    3  502    0  0.68972831600E+03  0.59377188521E+03 -0.90221181349E+03  0.12815219264E+04  0.46999998093E+01 0.  1.
       -5    1    3    3    0  502 -0.68972831600E+03 -0.59377188521E+03  0.16921917362E+04  0.19214122836E+04  0.46999998093E+01 0. -1.
</event>
<event>
 5   0  0.4330395E-07  0.3225224E+04  0.7818609E-02  0.8182187E-01
        1   -1    0    0  501    0  0.00000000000E+00  0.00000000000E+00  0.11038354038E+04  0.11038354038E+04  0.50400001928E-02 0. -1.
       -1   -1    0    0    0  501  0.00000000000E+00  0.00000000000E+00 -0.23558917385E+04  0.23558917385E+04  0.50400001928E-02 0.  1.
    10030    2    1    2    0    0  0.00000000000E+00  0.00000000000E+00 -0.12520563347E+04  0.34597271423E+04  0.32252235324E+04 0.  0.
        1    1    3    3  502    0 -0.69284001391E+03  0.50655466095E+03 -0.20905382889E+04  0.22598617761E+04  0.50400001928E-02 0.  1.
       -1    1    3    3    0  502  0.69284001391E+03 -0.50655466095E+03  0.83848195423E+03  0.11998653662E+04  0.50400001928E-02 0. -1.
</event>
<event>
 5   0  0.4330395E-07  0.3100502E+04  0.7818609E-02  0.8215600E-01
        1   -1    0    0  501    0  0.00000000000E+00  0.00000000000E+00  0.17056774372E+04  0.17056774372E+04  0.50400001928E-02 0.  1.
       -1   -1    0    0    0  501  0.00000000000E+00  0.00000000000E+00 -0.14089879290E+04  0.14089879291E+04  0.50400001928E-02 0. -1.
    10030    2    1    2    0    0  0.00000000000E+00  0.00000000000E+00  0.29668950815E+03  0.31146653663E+04  0.31005024882E+04 0.  0.
        1    1    3    3  502    0  0.19136589878E+03  0.60430641278E+03 -0.12728514675E+04  0.14219556977E+04  0.50400001928E-02 0. -1.
       -1    1    3    3    0  502 -0.19136589878E+03 -0.60430641278E+03  0.15695409757E+04  0.16927096686E+04  0.50400001928E-02 0.  1.
</event>
<event>
 5   0  0.1193123E-06  0.3108229E+04  0.7818609E-02  0.8213483E-01
       -2   -1    0    0    0  501  0.00000000000E+00  0.00000000000E+00  0.89705950711E+03  0.89705950711E+03  0.25500000920E-02 0.  1.
        2   -1    0    0  501    0  0.00000000000E+00  0.00000000000E+00 -0.26924316643E+04  0.26924316643E+04  0.25500000920E-02 0. -1.
    10030    2    1    2    0    0  0.00000000000E+00  0.00000000000E+00 -0.17953721572E+04  0.35894911714E+04  0.31082287057E+04 0.  0.
        3    1    3    3  502    0  0.92583239446E+03  0.91818084897E+03 -0.18742215929E+04  0.22831838041E+04  0.10100000352E+00 0. -1.
       -3    1    3    3    0  502 -0.92583239446E+03 -0.91818084897E+03  0.78849435703E+02  0.13063073673E+04  0.10100000352E+00 0.  1.
</event>
<event>
 5   0  0.4330395E-07  0.3076732E+04  0.7818609E-02  0.8222153E-01
       -1   -1    0    0    0  501  0.00000000000E+00  0.00000000000E+00  0.21821708269E+04  0.21821708269E+04  0.50400001928E-02 0.  1.
        1   -1    0    0  501    0  0.00000000000E+00  0.00000000000E+00 -0.10845025299E+04  0.10845025299E+04  0.50400001928E-02 0. -1.
    10030    2    1    2    0    0  0.00000000000E+00  0.00000000000E+00  0.10976682970E+04  0.32666733568E+04  0.30767318911E+04 0.  0.
        1    1    3    3  502    0  0.25677633302E+03 -0.41669610660E+03 -0.99962519701E+03  0.11130230298E+04  0.50400001928E-02 0. -1.
       -1    1    3    3    0  502 -0.25677633302E+03  0.41669610660E+03  0.20972934940E+04  0.21536503269E+04  0.50400001928E-02 0.  1.
</event>
<event>
 5   0  0.4134019E-07  0.3108022E+04  0.7818609E-02  0.8213540E-01
       -1   -1    0    0    0  501  0.00000000000E+00  0.00000000000E+00  0.15665029334E+04  0.15665029335E+04  0.50400001928E-02 0. -1.
        1   -1    0    0  501    0  0.00000000000E+00  0.00000000000E+00 -0.15416182733E+04  0.15416182733E+04  0.50400001928E-02 0.  1.
    10030    2    1    2    0    0  0.00000000000E+00  0.00000000000E+00  0.24884660124E+02  0.31081212068E+04  0.31080215877E+04 0.  0.
        2    1    3    3  502    0 -0.55751914172E+03  0.13887183129E+04 -0.40659783182E+03  0.15507056274E+04  0.25500000920E-02 0.  1.
       -2    1    3    3    0  502  0.55751914172E+03 -0.13887183129E+04  0.43148249194E+03  0.15574155794E+04  0.25500000920E-02 0. -1.
</event>
<event>
 5   0  0.3935852E-07  0.3070351E+04  0.7818609E-02  0.8223922E-01
        1   -1    0    0  501    0  0.00000000000E+00  0.00000000000E+00  0.22709606056E+04  0.22709606056E+04  0.50400001928E-02 0.  1.
       -1   -1    0    0    0  501  0.00000000000E+00  0.00000000000E+00 -0.10377829191E+04  0.10377829191E+04  0.50400001928E-02 0. -1.
    10030    2    1    2    0    0  0.00000000000E+00  0.00000000000E+00  0.12331776865E+04  0.33087435248E+04  0.30703512024E+04 0.  0.
        5    1    3    3  502    0 -0.10038810759E+04 -0.11014618086E+04  0.10136338144E+04  0.18023515001E+04  0.46999998093E+01 0. -1.
       -5    1    3    3    0  502  0.10038810759E+04  0.11014618086E+04  0.21954387214E+03  0.15063920247E+04  0.46999998093E+01 0.  1.
</event>
<event>
 5   0  0.1258262E-06  0.3109020E+04  0.7818609E-02  0.8213267E-01
       -2   -1    0    0    0  501  0.00000000000E+00  0.00000000000E+00  0.19475441564E+04  0.19475441564E+04  0.25500000920E-02 0. -1.
        2   -1    0    0  501    0  0.00000000000E+00  0.00000000000E+00 -0.12407944604E+04  0.12407944604E+04  0.25500000920E-02 0.  1.
    10030    2    1    2    0    0  0.00000000000E+00  0.00000000000E+00  0.70674969600E+03  0.31883386167E+04  0.31090204248E+04 0.  0.
        1    1    3    3  502    0  0.15631554472E+03 -0.12070178188E+04  0.13450910524E+04  0.18140001388E+04  0.50400001928E-02 0. -1.
       -1    1    3    3    0  502 -0.15631554472E+03  0.12070178188E+04 -0.63834135641E+03  0.13743384779E+04  0.50400001928E-02 0.  1.
</event>
<event>
 5   0  0.1193123E-06  0.2975112E+04  0.7818609E-02  0.8250874E-01
       -2   -1    0    0    0  501  0.00000000000E+00  0.00000000000E+00  0.18858169459E+04  0.18858169459E+04  0.25500000920E-02 0. -1.
        2   -1    0    0  501    0  0.00000000000E+00  0.00000000000E+00 -0.11734029078E+04  0.11734029078E+04  0.25500000920E-02 0.  1.
    10030    2    1    2    0    0  0.00000000000E+00  0.00000000000E+00  0.71241403805E+03  0.30592198537E+04  0.29751121578E+04 0.  0.
        3    1    3    3  502    0 -0.33980775754E+03  0.12566953747E+04  0.10963264026E+04  0.17019647964E+04  0.10100000352E+00 0. -1.
       -3    1    3    3    0  502  0.33980775754E+03 -0.12566953747E+04 -0.38391236451E+03  0.13572550574E+04  0.10100000352E+00 0.  1.
</event>
<event>
 5   0  0.4330395E-07  0.3092158E+04  0.7818609E-02  0.8217893E-01
        1   -1    0    0  501    0  0.00000000000E+00  0.00000000000E+00  0.14566740423E+04  0.14566740423E+04  0.50400001928E-02 0.  1.
       -1   -1    0    0    0  501  0.00000000000E+00  0.00000000000E+00 -0.16409717431E+04  0.16409717432E+04  0.50400001928E-02 0. -1.
    10030    2    1    2    0    0  0.00000000000E+00  0.00000000000E+00 -0.18429770088E+03  0.30976457854E+04  0.30921584321E+04 0.  0.
        1    1    3    3  502    0 -0.85117350009E+03 -0.76266376731E+03  0.95095233685E+03  0.14867624882E+04  0.50400001928E-02 0.  1.
       -1    1    3    3    0  502  0.85117350009E+03  0.76266376731E+03 -0.11352500377E+04  0.16108832973E+04  0.50400001928E-02 0. -1.
</event>
<event>
 5   0  0.4134019E-07  0.3106886E+04  0.7818609E-02  0.8213851E-01
        1   -1    0    0  501    0  0.00000000000E+00  0.00000000000E+00  0.32758743550E+04  0.32758743550E+04  0.50400001928E-02 0.  1.
       -1   -1    0    0    0  501  0.00000000000E+00  0.00000000000E+00 -0.73665385879E+03  0.73665385880E+03  0.50400001928E-02 0. -1.
    10030    2    1    2    0    0  0.00000000000E+00  0.00000000000E+00  0.25392204962E+04  0.40125282138E+04  0.31068862126E+04 0.  0.
        2    1    3    3  502    0 -0.35569533191E+03  0.34139560243E+03  0.31721518479E+04  0.32102363577E+04  0.25500000920E-02 0.  1.
       -2    1    3    3    0  502  0.35569533191E+03 -0.34139560243E+03 -0.63293135162E+03  0.80229185611E+03  0.25500000920E-02 0. -1.
</event>
<event>
 5   0  0.4219337E-07  0.3120717E+04  0.7818609E-02  0.8210075E-01
       -1   -1    0    0    0  501  0.00000000000E+00  0.00000000000E+00  0.84630426726E+03  0.84630426727E+03  0.50400001928E-02 0. -1.
        1   -1    0    0  501    0  0.00000000000E+00  0.00000000000E+00 -0.28768827754E+04  0.28768827754E+04  0.50400001928E-02 0.  1.
    10030    2    1    2    0    0  0.00000000000E+00  0.00000000000E+00 -0.20305785082E+04  0.37231870427E+04  0.31207166929E+04 0.  0.
        4    1    3    3  502    0  0.10142093328E+04 -0.81665915126E+03 -0.20410140635E+04  0.24210106899E+04  0.12699999809E+01 0.  1.
       -4    1    3    3    0  502 -0.10142093328E+04  0.81665915126E+03  0.10435555343E+02  0.13021763528E+04  0.12699999809E+01 0. -1.
</event>
<event>
 5   0  0.4173905E-07  0.3094856E+04  0.7818609E-02  0.8217151E-01
       -1   -1    0    0    0  501  0.00000000000E+00  0.00000000000E+00  0.20850813526E+04  0.20850813526E+04  0.50400001928E-02 0. -1.
        1   -1    0    0  501    0  0.00000000000E+00  0.00000000000E+00 -0.11484122844E+04  0.11484122845E+04  0.50400001928E-02 0.  1.
    10030    2    1    2    0    0  0.00000000000E+00  0.00000000000E+00  0.93666906811E+03  0.32334936370E+04  0.30948557571E+04 0.  0.
        3    1    3    3  502    0 -0.72782922734E+03  0.13640075267E+04  0.39997329938E+03  0.15969441341E+04  0.10100000352E+00 0.  1.
       -3    1    3    3    0  502  0.72782922734E+03 -0.13640075267E+04  0.53669576873E+03  0.16365495029E+04  0.10100000352E+00 0. -1.
</event>
<event>
 5   0  0.4330395E-07  0.3087521E+04  0.7818609E-02  0.8219171E-01
       -1   -1    0    0    0  501  0.00000000000E+00  0.00000000000E+00  0.24969313845E+04  0.24969313845E+04  0.50400001928E-02 0. -1.
        1   -1    0    0  501    0  0.00000000000E+00  0.00000000000E+00 -0.95445030820E+03  0.95445030821E+03  0.50400001928E-02 0.  1.
    10030    2    1    2    0    0  0.00000000000E+00  0.00000000000E+00  0.15424810763E+04  0.34513816927E+04  0.30875212903E+04 0.  0.
        1    1    3    3  502    0 -0.63868766099E+03  0.26677440908E+03 -0.77127177087E+03  0.10363159066E+04  0.50400001928E-02 0.  1.
       -1    1    3    3    0  502  0.63868766099E+03 -0.26677440908E+03  0.23137528471E+04  0.24150657861E+04  0.50400001928E-02 0. -1.
</event>
<event>
 5   0  0.1237580E-06  0.3093240E+04  0.7818609E-02  0.8217596E-01
       -2   -1    0    0    0  501  0.00000000000E+00  0.00000000000E+00  0.17281702163E+04  0.17281702163E+04  0.25500000920E-02 0. -1.
        2   -1    0    0  501    0  0.00000000000E+00  0.00000000000E+00 -0.13841423014E+04  0.13841423014E+04  0.25500000920E-02 0.  1.
    10030    2    1    2    0    0  0.00000000000E+00  0.00000000000E+00  0.34402791493E+03  0.31123125176E+04  0.30932400491E+04 0.  0.
        4    1    3    3  502    0 -0.10761199372E+04 -0.20923393762E+03 -0.92568436671E+03  0.14348191940E+04  0.12699999809E+01 0.  1.
       -4    1    3    3    0  502  0.10761199372E+04  0.20923393762E+03  0.12697122816E+04  0.16774933236E+04  0.12699999809E+01 0. -1.
</event>
<event>
 5   0  0.1237580E-06  0.3074065E+04  0.7818609E-02  0.8222892E-01
        2   -1    0    0  501    0  0.00000000000E+00  0.00000000000E+00  0.88488906943E+03  0.88488906943E+03  0.25500000920E-02 0. -1.
       -2   -1    0    0    0  501  0.00000000000E+00  0.00000000000E+00 -0.26697903894E+04  0.26697903895E+04  0.25500000920E-02 0.  1.
    10030    2    1    2    0    0  0.00000000000E+00  0.00000000000E+00 -0.17849013200E+04  0.35546794589E+04  0.30740646274E+04 0.  0.
        4    1    3    3  502    0 -0.69951482483E+03 -0.11876289317E+04 -0.16790061018E+04  0.21722906280E+04  0.12699999809E+01 0.  1.
       -4    1    3    3    0  502  0.69951482483E+03  0.11876289317E+04 -0.10589521823E+03  0.13823888309E+04  0.12699999809E+01 0. -1.
</event>
<event>
 5   0  0.4330395E-07  0.3114819E+04  0.7818609E-02  0.8211683E-01
        1   -1    0    0  501    0  0.00000000000E+00  0.00000000000E+00  0.15736447830E+04  0.15736447830E+04  0.50400001928E-02 0. -1.
       -1   -1    0    0    0  501  0.00000000000E+00  0.00000000000E+00 -0.15413419015E+04  0.15413419015E+04  0.50400001928E-02 0.  1.
    10030    2    1    2    0    0  0.00000000000E+00  0.00000000000E+00  0.32302881526E+02  0.31149866846E+04  0.31148191872E+04 0.  0.
        1    1    3    3  502    0 -0.29388700101E+03 -0.79101428171E+03 -0.12929076730E+04  0.15439182019E+04  0.50400001928E-02 0.  1.
       -1    1    3    3    0  502  0.29388700101E+03  0.79101428171E+03  0.13252105546E+04  0.15710684826E+04  0.50400001928E-02 0. -1.
</event>
<event>
 5   0  0.4219337E-07  0.3093723E+04  0.7818609E-02  0.8217463E-01
       -1   -1    0    0    0  501  0.00000000000E+00  0.00000000000E+00  0.16483161155E+04  0.16483161155E+04  0.50400001928E-02 0.  1.
        1   -1    0    0  501    0  0.00000000000E+00  0.00000000000E+00 -0.14516510219E+04  0.14516510219E+04  0.50400001928E-02 0. -1.
    10030    2    1    2    0    0  0.00000000000E+00  0.00000000000E+00  0.19666509364E+03  0.30999671374E+04  0.30937225302E+04 0.  0.
        4    1    3    3  502    0  0.64721959107E+03  0.11131658417E+04  0.95723644279E+03  0.16044733125E+04  0.12699999809E+01 0. -1.
       -4    1    3    3    0  502 -0.64721959107E+03 -0.11131658417E+04 -0.76057134914E+03  0.14954938249E+04  0.12699999809E+01 0.  1.
</event>
<event>
 5   0  0.1237580E-06  0.3108539E+04  0.7818609E-02  0.8213398E-01
        2   -1    0    0  501    0  0.00000000000E+00  0.00000000000E+00  0.26688470147E+04  0.26688470147E+04  0.25500000920E-02 0.  1.
       -2   -1    0    0    0  501  0.00000000000E+00  0.00000000000E+00 -0.90516761004E+03  0.90516761004E+03  0.25500000920E-02 0. -1.
    10030    2    1    2    0    0  0.00000000000E+00  0.00000000000E+00  0.17636794047E+04  0.35740146248E+04  0.31085391256E+04 0.  0.
        4    1    3    3  502    0  0.83197840813E+03 -0.98706722023E+02  0.23869999480E+04  0.25297631220E+04  0.12699999809E+01 0.  1.
       -4    1    3    3    0  502 -0.83197840813E+03  0.98706722023E+02 -0.62332054330E+03  0.10442515028E+04  0.12699999809E+01 0. -1.
</event>
<event>
 5   0  0.1237580E-06  0.3113203E+04  0.7818609E-02  0.8212124E-01
       -2   -1    0    0    0  501  0.00000000000E+00  0.00000000000E+00  0.94298607961E+03  0.94298607961E+03  0.25500000920E-02 0.  1.
        2   -1    0    0  501    0  0.00000000000E+00  0.00000000000E+00 -0.25695059426E+04  0.25695059426E+04  0.25500000920E-02 0. -1.
    10030    2    1    2    0    0  0.00000000000E+00  0.00000000000E+00 -0.16265198630E+04  0.35124920222E+04  0.31132030678E+04 0.  0.
        4    1    3    3  502    0  0.28397640139E+03 -0.98041588172E+03  0.51269308571E+03  0.11422406536E+04  0.12699999809E+01 0.  1.
       -4    1    3    3    0  502 -0.28397640139E+03  0.98041588172E+03 -0.21392129487E+04  0.23702513687E+04  0.12699999809E+01 0. -1.
</event>
<event>
 5   0  0.1200286E-06  0.3081436E+04  0.7818609E-02  0.8220851E-01
       -2   -1    0    0    0  501  0.00000000000E+00  0.00000000000E+00  0.13990304886E+04  0.13990304886E+04  0.25500000920E-02 0. -1.
        2   -1    0    0  501    0  0.00000000000E+00  0.00000000000E+00 -0.16967548994E+04  0.16967548994E+04  0.25500000920E-02 0.  1.
    10030    2    1    2    0    0  0.00000000000E+00  0.00000000000E+00 -0.29772441081E+03  0.30957853880E+04  0.30814359224E+04 0.  0.
        5    1    3    3  502    0 -0.61051290189E+03 -0.12680508989E+04  0.48104288145E+03  0.14873141663E+04  0.46999998093E+01 0. -1.
       -5    1    3    3    0  502  0.61051290189E+03  0.12680508989E+04 -0.77876729226E+03  0.16084712217E+04  0.46999998093E+01 0.  1.
</event>
<event>
 5   0  0.1258262E-06  0.3095170E+04  0.7818609E-02  0.8217065E-01
        2   -1    0    0  501    0  0.00000000000E+00  0.00000000000E+00  0.17389728467E+04  0.17389728467E+04  0.25500000920E-02 0. -1.
       -2   -1    0    0    0  501  0.00000000000E+00  0.00000000000E+00 -0.13772613045E+04  0.13772613045E+04  0.25500000920E-02 0.  1.
    10030    2    1    2    0    0  0.00000000000E+00  0.00000000000E+00  0.36171154221E+03  0.31162341511E+04  0.30951704387E+04 0.  0.
        1    1    3    3  502    0  0.14664688072E+04 -0.29099271511E+03  0.58334185679E+03  0.16048349587E+04  0.50400001928E-02 0. -1.
       -1    1    3    3    0  502 -0.14664688072E+04  0.29099271511E+03 -0.22163031458E+03  0.15113991925E+04  0.50400001928E-02 0.  1.
</event>
<event>
 5   0  0.3935852E-07  0.3099561E+04  0.7818609E-02  0.8215859E-01
        1   -1    0    0  501    0  0.00000000000E+00  0.00000000000E+00  0.18851995014E+04  0.18851995014E+04  0.50400001928E-02 0.  1.
       -1   -1    0    0    0  501  0.00000000000E+00  0.00000000000E+00 -0.12740396628E+04  0.12740396628E+04  0.50400001928E-02 0. -1.
    10030    2    1    2    0    0  0.00000000000E+00  0.00000000000E+00  0.61115983860E+03  0.31592391642E+04  0.30995605734E+04 0.  0.
        5    1    3    3  502    0  0.84199504360E+03 -0.82255684528E+03  0.13330775395E+04  0.17783906302E+04  0.46999998093E+01 0.  1.
       -5    1    3    3    0  502 -0.84199504360E+03  0.82255684528E+03 -0.72191770088E+03  0.13808485341E+04  0.46999998093E+01 0. -1.
</event>
<event>
 5   0  0.1200286E-06  0.3123028E+04  0.7818609E-02  0.8209446E-01
       -2   -1    0    0    0  501  0.00000000000E+00  0.00000000000E+00  0.12673298593E+04  0.12673298593E+04  0.25500000920E-02 0.  1.
        2   -1    0    0  501    0  0.00000000000E+00  0.00000000000E+00 -0.19239865313E+04  0.19239865313E+04  0.25500000920E-02 0. -1.
    10030    2    1    2    0    0  0.00000000000E+00  0.00000000000E+00 -0.65665667198E+03  0.31913163905E+04  0.31230277488E+04 0.  0.
        5    1    3    3  502    0  0.66198632608E+03 -0.10158174118E+04  0.67715504004E+03  0.13887663404E+04  0.46999998093E+01 0.  1.
       -5    1    3    3    0  502 -0.66198632608E+03  0.10158174118E+04 -0.13338117120E+04  0.18025500501E+04  0.46999998093E+01 0. -1.
</event>
<event>
 5   0  0.4134019E-07  0.3104138E+04  0.7818609E-02  0.8214603E-01
        1   -1    0    0  501    0  0.00000000000E+00  0.00000000000E+00  0.19598981923E+04  0.19598981923E+04  0.50400001928E-02 0.  1.
       -1   -1    0    0    0  501  0.00000000000E+00  0.00000000000E+00 -0.12291037761E+04  0.12291037761E+04  0.50400001928E-02 0. -1.
    10030    2    1    2    0    0  0.00000000000E+00  0.00000000000E+00  0.73079441626E+03  0.31890019684E+04  0.31041380568E+04 0.  0.
        2    1    3    3  502    0  0.12617897905E+03 -0.15313482884E+04  0.14038991362E+03  0.15429381203E+04  0.25500000920E-02 0. -1.
       -2    1    3    3    0  502 -0.12617897905E+03  0.15313482884E+04  0.59040450264E+03  0.16460638481E+04  0.25500000920E-02 0.  1.
</event>
<event>
 5   0  0.1200286E-06  0.3102881E+04  0.7818609E-02  0.8214948E-01
        2   -1    0    0  501    0  0.00000000000E+00  0.00000000000E+00  0.20008084401E+04  0.20008084401E+04  0.25500000920E-02 0.  1.
       -2   -1    0    0    0  501  0.00000000000E+00  0.00000000000E+00 -0.12029972390E+04  0.12029972390E+04  0.25500000920E-02 0. -1.
    10030    2    1    2    0    0  0.00000000000E+00  0.00000000000E+00  0.79781120105E+03  0.32038056791E+04  0.31028806159E+04 0.  0.
        5    1    3    3  502    0 -0.12379993121E+03  0.12960731527E+03  0.19900752690E+04  0.19981356675E+04  0.46999998093E+01 0.  1.
       -5    1    3    3    0  502  0.12379993121E+03 -0.12960731527E+03 -0.11922640680E+04  0.12056700116E+04  0.46999998093E+01 0. -1.
</event>
<event>
 5   0  0.4173905E-07  0.3097889E+04  0.7818609E-02  0.8216317E-01
       -1   -1    0    0    0  501  0.00000000000E+00  0.00000000000E+00  0.93997079843E+03  0.93997079844E+03  0.50400001928E-02 0.  1.
        1   -1    0    0  501    0  0.00000000000E+00  0.00000000000E+00 -0.25524510545E+04  0.25524510545E+04  0.50400001928E-02 0. -1.
    10030    2    1    2    0    0  0.00000000000E+00  0.00000000000E+00 -0.16124802561E+04  0.34924218530E+04  0.30978892528E+04 0.  0.
        3    1    3    3  502    0 -0.56301742950E+03 -0.99033706860E+02  0.81669467549E+03  0.99688841110E+03  0.10100000352E+00 0.  1.
       -3    1    3    3    0  502  0.56301742950E+03  0.99033706860E+02 -0.24291749316E+04  0.24955334418E+04  0.10100000352E+00 0. -1.
</event>
<event>
 5   0  0.4219337E-07  0.3091399E+04  0.7818609E-02  0.8218102E-01
        1   -1    0    0  501    0  0.00000000000E+00  0.00000000000E+00  0.13434538152E+04  0.13434538152E+04  0.50400001928E-02 0. -1.
       -1   -1    0    0    0  501  0.00000000000E+00  0.00000000000E+00 -0.17783912517E+04  0.17783912517E+04  0.50400001928E-02 0.  1.
    10030    2    1    2    0    0  0.00000000000E+00  0.00000000000E+00 -0.43493743647E+03  0.31218450669E+04  0.30913987203E+04 0.  0.
        4    1    3    3  502    0 -0.32785932290E+03 -0.86835275581E+03  0.10306882370E+04  0.13870285141E+04  0.12699999809E+01 0. -1.
       -4    1    3    3    0  502  0.32785932290E+03  0.86835275581E+03 -0.14656256735E+04  0.17348165528E+04  0.12699999809E+01 0.  1.
</event>
<event>
 5   0  0.4173905E-07  0.3105163E+04  0.7818609E-02  0.8214322E-01
       -1   -1    0    0    0  501  0.00000000000E+00  0.00000000000E+00  0.11245643052E+04  0.11245643052E+04  0.50400001928E-02 0.  1.
        1   -1    0    0  501    0  0.00000000000E+00  0.00000000000E+00 -0.21435055562E+04  0.21435055562E+04  0.50400001928E-02 0. -1.
    10030    2    1    2    0    0  0.00000000000E+00  0.00000000000E+00 -0.10189412510E+04  0.32680698615E+04  0.31051633365E+04 0.  0.
        3    1    3    3  502    0 -0.62810368577E+03 -0.13500399579E+04 -0.97230041562E+03  0.17783391792E+04  0.10100000352E+00 0.  1.
       -3    1    3    3    0  502  0.62810368577E+03  0.13500399579E+04 -0.46640835398E+02  0.14897306823E+04  0.10100000352E+00 0. -1.
</event>
<event>
 5   0  0.4173905E-07  0.2911657E+04  0.7818609E-02  0.8269418E-01
        1   -1    0    0  501    0  0.00000000000E+00  0.00000000000E+00  0.23591028248E+04  0.23591028248E+04  0.50400001928E-02 0. -1.
       -1   -1    0    0    0  501  0.00000000000E+00  0.00000000000E+00 -0.89840800643E+03  0.89840800645E+03  0.50400001928E-02 0.  1.
    10030    2    1    2    0    0  0.00000000000E+00  0.00000000000E+00  0.14606948184E+04  0.32575108313E+04  0.29116571679E+04 0.  0.
        3    1    3    3  502    0 -0.21297244168E+03  0.10873032283E+04 -0.32620696344E+03  0.11549876901E+04  0.10100000352E+00 0.  1.
       -3    1    3    3    0  502  0.21297244168E+03 -0.10873032283E+04  0.17869017818E+04  0.21025231412E+04  0.10100000352E+00 0. -1.
</event>
<event>
 5   0  0.1176002E-06  0.3046752E+04  0.7818609E-02  0.8230505E-01
       -2   -1    0    0    0  501  0.00000000000E+00  0.00000000000E+00  0.13495734217E+04  0.13495734217E+04  0.25500000920E-02 0. -1.
        2   -1    0    0  501    0  0.00000000000E+00  0.00000000000E+00 -0.17195617521E+04  0.17195617521E+04  0.25500000920E-02 0.  1.
    10030    2    1    2    0    0  0.00000000000E+00  0.00000000000E+00 -0.36998833035E+03  0.30691351738E+04  0.30467522628E+04 0.  0.
        2    1    3    3  502    0 -0.13966560458E+04 -0.49474362485E+03  0.17152036102E+03  0.14915892863E+04  0.25500000920E-02 0.  1.
       -2    1    3    3    0  502  0.13966560458E+04  0.49474362485E+03 -0.54150869137E+03  0.15775458876E+04  0.25500000920E-02 0. -1.
</event>
<event>
 5   0  0.3935852E-07  0.3108840E+04  0.7818609E-02  0.8213316E-01
       -1   -1    0    0    0  501  0.00000000000E+00  0.00000000000E+00  0.25015980195E+04  0.25015980195E+04  0.50400001928E-02 0.  1.
        1   -1    0    0  501    0  0.00000000000E+00  0.00000000000E+00 -0.96587124415E+03  0.96587124417E+03  0.50400001928E-02 0. -1.
    10030    2    1    2    0    0  0.00000000000E+00  0.00000000000E+00  0.15357267753E+04  0.34674692637E+04  0.31088400354E+04 0.  0.
        5    1    3    3  502    0  0.74290930381E+03 -0.31542447804E+03 -0.71383937005E+03  0.10774950447E+04  0.46999998093E+01 0. -1.
       -5    1    3    3    0  502 -0.74290930381E+03  0.31542447804E+03  0.22495661454E+04  0.23899742190E+04  0.46999998093E+01 0.  1.
</event>
<event>
 5   0  0.4134019E-07  0.3094827E+04  0.7818609E-02  0.8217159E-01
        1   -1    0    0  501    0  0.00000000000E+00  0.00000000000E+00  0.14655230805E+04  0.14655230805E+04  0.50400001928E-02 0.  1.
       -1   -1    0    0    0  501  0.00000000000E+00  0.00000000000E+00 -0.16338795846E+04  0.16338795846E+04  0.50400001928E-02 0. -1.
    10030    2    1    2    0    0  0.00000000000E+00  0.00000000000E+00 -0.16835650415E+03  0.30994026651E+04  0.30948268074E+04 0.  0.
        2    1    3    3  502    0 -0.10796165188E+04  0.11050644323E+04 -0.17233689535E+03  0.15544900233E+04  0.25500000920E-02 0.  1.
       -2    1    3    3    0  502  0.10796165188E+04 -0.11050644323E+04  0.39803911984E+01  0.15449126418E+04  0.25500000920E-02 0. -1.
</event>
<event>
 5   0  0.4173905E-07  0.3105243E+04  0.7818609E-02  0.8214300E-01
        1   -1    0    0  501    0  0.00000000000E+00  0.00000000000E+00  0.23242000132E+04  0.23242000132E+04  0.50400001928E-02 0. -1.
       -1   -1    0    0    0  501  0.00000000000E+00  0.00000000000E+00 -0.10371887825E+04  0.10371887825E+04  0.50400001928E-02 0.  1.
    10030    2    1    2    0    0  0.00000000000E+00  0.00000000000E+00  0.12870112307E+04  0.33613887957E+04  0.31052434249E+04 0.  0.
        3    1    3    3  502    0  0.11652029005E+04 -0.90727063214E+03  0.11624187714E+04  0.18793762821E+04  0.10100000352E+00 0. -1.
       -3    1    3    3    0  502 -0.11652029005E+04  0.90727063214E+03  0.12459245929E+03  0.14820125136E+04  0.10100000352E+00 0.  1.
</event>
<event>
 5   0  0.1258262E-06  0.3101135E+04  0.7818609E-02  0.8215426E-01
        2   -1    0    0  501    0  0.00000000000E+00  0.00000000000E+00  0.18996803378E+04  0.18996803378E+04  0.25500000920E-02 0.  1.
       -2   -1    0    0    0  501  0.00000000000E+00  0.00000000000E+00 -0.12656131015E+04  0.12656131015E+04  0.25500000920E-02 0. -1.
    10030    2    1    2    0    0  0.00000000000E+00  0.00000000000E+00  0.63406723636E+03  0.31652934393E+04  0.31011354851E+04 0.  0.
        1    1    3    3  502    0  0.13828730095E+03 -0.15364792511E+04  0.15770005923E+03  0.15507292399E+04  0.50400001928E-02 0.  1.
       -1    1    3    3    0  502 -0.13828730095E+03  0.15364792511E+04  0.47636717712E+03  0.16145641995E+04  0.50400001928E-02 0. -1.
</event>
<event>
 5   0  0.1176002E-06  0.3173658E+04  0.7818609E-02  0.8195809E-01
        2   -1    0    0  501    0  0.00000000000E+00  0.00000000000E+00  0.25912378826E+04  0.25912378826E+04  0.25500000920E-02 0. -1.
       -2   -1    0    0    0  501  0.00000000000E+00  0.00000000000E+00 -0.97174621339E+03  0.97174621340E+03  0.25500000920E-02 0.  1.
    10030    2    1    2    0    0  0.00000000000E+00  0.00000000000E+00  0.16194916692E+04  0.35629840960E+04  0.31736575748E+04 0.  0.
        2    1    3    3  502    0 -0.15042694029E+04 -0.47622471363E+03  0.99897288171E+03  0.18675018696E+04  0.25500000920E-02 0. -1.
       -2    1    3    3    0  502  0.15042694029E+04  0.47622471363E+03  0.62051878754E+03  0.16954822264E+04  0.25500000920E-02 0.  1.
</event>
<event>
 5   0  0.4173905E-07  0.3109836E+04  0.7818609E-02  0.8213044E-01
       -1   -1    0    0    0  501  0.00000000000E+00  0.00000000000E+00  0.12105251711E+04  0.12105251711E+04  0.50400001928E-02 0. -1.
        1   -1    0    0  501    0  0.00000000000E+00  0.00000000000E+00 -0.19972899543E+04  0.19972899543E+04  0.50400001928E-02 0.  1.
    10030    2    1    2    0    0  0.00000000000E+00  0.00000000000E+00 -0.78676478320E+03  0.32078151254E+04  0.31098358566E+04 0.  0.
        3    1    3    3  502    0  0.12644916218E+04 -0.85282911874E+03 -0.81339924846E+02  0.15273744665E+04  0.10100000352E+00 0. -1.
       -3    1    3    3    0  502 -0.12644916218E+04  0.85282911874E+03 -0.70542485835E+03  0.16804406589E+04  0.10100000352E+00 0.  1.
</event>
<event>
 5   0  0.1258262E-06  0.3091605E+04  0.7818609E-02  0.8218046E-01
       -2   -1    0    0    0  501  0.00000000000E+00  0.00000000000E+00  0.13182276388E+04  0.13182276388E+04  0.25500000920E-02 0.  1.
        2   -1    0    0  501    0  0.00000000000E+00  0.00000000000E+00 -0.18126647710E+04  0.18126647710E+04  0.25500000920E-02 0. -1.
    10030    2    1    2    0    0  0.00000000000E+00  0.00000000000E+00 -0.49443713225E+03  0.31308924098E+04  0.30916046326E+04 0.  0.
        1    1    3    3  502    0  0.10291683719E+04 -0.11494312322E+04 -0.15047922030E+03  0.15501689234E+04  0.50400001928E-02 0.  1.
       -1    1    3    3    0  502 -0.10291683719E+04  0.11494312322E+04 -0.34395791194E+03  0.15807234864E+04  0.50400001928E-02 0. -1.
</event>
<event>
 5   0  0.4330395E-07  0.3236077E+04  0.7818609E-02  0.8179354E-01
       -1   -1    0    0    0  501  0.00000000000E+00  0.00000000000E+00  0.11593750407E+04  0.11593750407E+04  0.50400001928E-02 0.  1.
        1   -1    0    0  501    0  0.00000000000E+00  0.00000000000E+00 -0.22581546609E+04  0.22581546609E+04  0.50400001928E-02 0. -1.
    10030    2    1    2    0    0  0.00000000000E+00  0.00000000000E+00 -0.10987796203E+04  0.34175297016E+04  0.32360767308E+04 0.  0.
        1    1    3    3  502    0 -0.84762545000E+03 -0.10298554383E+04  0.41792652319E+03  0.13977602463E+04  0.50400001928E-02 0.  1.
       -1    1    3    3    0  502  0.84762545000E+03  0.10298554383E+04 -0.15167061435E+04  0.20197694554E+04  0.50400001928E-02 0. -1.
</event>
<event>
 5   0  0.4173905E-07  0.3108288E+04  0.7818609E-02  0.8213467E-01
       -1   -1    0    0    0  501  0.00000000000E+00  0.00000000000E+00  0.12849883851E+04  0.12849883851E+04  0.50400001928E-02 0. -1.
        1   -1    0    0  501    0  0.00000000000E+00  0.00000000000E+00 -0.18796779420E+04  0.18796779420E+04  0.50400001928E-02 0.  1.
    10030    2    1    2    0    0  0.00000000000E+00  0.00000000000E+00 -0.59468955684E+03  0.31646663271E+04  0.31082884829E+04 0.  0.
        3    1    3    3  502    0 -0.34475552216E+03  0.44373676444E+03 -0.17726282297E+04  0.18595616518E+04  0.10100000352E+00 0.  1.
       -3    1    3    3    0  502  0.34475552216E+03 -0.44373676444E+03  0.11779386728E+04  0.13051046752E+04  0.10100000352E+00 0. -1.
</event>
<event>
 5   0  0.1237580E-06  0.3107458E+04  0.7818609E-02  0.8213694E-01
       -2   -1    0    0    0  501  0.00000000000E+00  0.00000000000E+00  0.84458052242E+03  0.84458052243E+03  0.25500000920E-02 0. -1.
        2   -1    0    0  501    0  0.00000000000E+00  0.00000000000E+00 -0.28583108655E+04  0.28583108655E+04  0.25500000920E-02 0.  1.
    10030    2    1    2    0    0  0.00000000000E+00  0.00000000000E+00 -0.20137303431E+04  0.37028913879E+04  0.31074579219E+04 0.  0.
        4    1    3    3  502    0 -0.76776701953E+03  0.99967290245E+02  0.59832930291E+03  0.97849845325E+03  0.12699999809E+01 0. -1.
       -4    1    3    3    0  502  0.76776701953E+03 -0.99967290245E+02 -0.26120596460E+04  0.27243929347E+04  0.12699999809E+01 0.  1.
</event>
<event>
 5   0  0.4134019E-07  0.3098284E+04  0.7818609E-02  0.8216209E-01
        1   -1    0    0  501    0  0.00000000000E+00  0.00000000000E+00  0.24180045585E+04  0.24180045585E+04  0.50400001928E-02 0.  1.
       -1   -1    0    0    0  501  0.00000000000E+00  0.00000000000E+00 -0.99248831426E+03  0.99248831428E+03  0.50400001928E-02 0. -1.
    10030    2    1    2    0    0  0.00000000000E+00  0.00000000000E+00  0.14255162443E+04  0.34104928728E+04  0.30982842143E+04 0.  0.
        2    1    3    3  502    0 -0.54336807159E+03  0.49892350422E+03  0.22122565036E+04  0.23320060810E+04  0.25500000920E-02 0.  1.
       -2    1    3    3    0  502  0.54336807159E+03 -0.49892350422E+03 -0.78674025935E+03  0.10784867918E+04  0.25500000920E-02 0. -1.
</event>
<event>
 5   0  0.1258262E-06  0.3133401E+04  0.7818609E-02  0.8206631E-01
       -2   -1    0    0    0  501  0.00000000000E+00  0.00000000000E+00  0.19546165056E+04  0.19546165056E+04  0.25500000920E-02 0.  1.
        2   -1    0    0  501    0  0.00000000000E+00  0.00000000000E+00 -0.12557709283E+04  0.12557709283E+04  0.25500000920E-02 0. -1.
    10030    2    1    2    0    0  0.00000000000E+00  0.00000000000E+00  0.69884557732E+03  0.32103874339E+04  0.31334010811E+04 0.  0.
        1    1    3    3  502    0  0.13331766571E+03  0.78412936928E+03 -0.10335253209E+04  0.13041499364E+04  0.50400001928E-02 0. -1.
       -1    1    3    3    0  502 -0.13331766571E+03 -0.78412936928E+03  0.17323708982E+04  0.19062374975E+04  0.50400001928E-02 0.  1.
</event>
<event>
 5   0  0.1200286E-06  0.3082210E+04  0.7818609E-02  0.8220637E-01
       -2   -1    0    0    0  501  0.00000000000E+00  0.00000000000E+00  0.15561699478E+04  0.15561699478E+04  0.25500000920E-02 0. -1.
        2   -1    0    0  501    0  0.00000000000E+00  0.00000000000E+00 -0.15261854770E+04  0.15261854770E+04  0.25500000920E-02 0.  1.
    10030    2    1    2    0    0  0.00000000000E+00  0.00000000000E+00  0.29984470818E+02  0.30823554248E+04  0.30822095802E+04 0.  0.
        5    1    3    3  502    0 -0.77866867108E+03 -0.59567023384E+03  0.12040959990E+04  0.15527450504E+04  0.46999998093E+01 0. -1.
       -5    1    3    3    0  502  0.77866867108E+03  0.59567023384E+03 -0.11741115282E+04  0.15296103744E+04  0.46999998093E+01 0.  1.
</event>
<event>
 5   0  0.1237580E-06  0.3104972E+04  0.7818609E-02  0.8214375E-01
        2   -1    0    0  501    0  0.00000000000E+00  0.00000000000E+00  0.21027591157E+04  0.21027591157E+04  0.25500000920E-02 0.  1.
       -2   -1    0    0    0  501  0.00000000000E+00  0.00000000000E+00 -0.11462144600E+04  0.11462144600E+04  0.25500000920E-02 0. -1.
    10030    2    1    2    0    0  0.00000000000E+00  0.00000000000E+00  0.95654465565E+03  0.32489735757E+04  0.31049720799E+04 0.  0.
        4    1    3    3  502    0 -0.14889382898E+04 -0.38451870709E+03  0.70127460294E+03  0.16901418723E+04  0.12699999809E+01 0. -1.
       -4    1    3    3    0  502  0.14889382898E+04  0.38451870709E+03  0.25527005271E+03  0.15588317034E+04  0.12699999809E+01 0.  1.
</event>
<event>
 5   0  0.4173905E-07  0.3104872E+04  0.7818609E-02  0.8214402E-01
       -1   -1    0    0    0  501  0.00000000000E+00  0.00000000000E+00  0.29506954941E+04  0.29506954941E+04  0.50400001928E-02 0. -1.
        1   -1    0    0  501    0  0.00000000000E+00  0.00000000000E+00 -0.81677588184E+03  0.81677588185E+03  0.50400001928E-02 0.  1.
    10030    2    1    2    0    0  0.00000000000E+00  0.00000000000E+00  0.21339196123E+04  0.37674713760E+04  0.31048716007E+04 0.  0.
        3    1    3    3  502    0 -0.95551591059E+03 -0.95592197149E+03  0.14026399044E+03  0.13588493177E+04  0.10100000352E+00 0.  1.
       -3    1    3    3    0  502  0.95551591059E+03  0.95592197149E+03  0.19936556218E+04  0.24086220583E+04  0.10100000352E+00 0. -1.
</event>
<event>
 5   0  0.4173905E-07  0.3159472E+04  0.7818609E-02  0.8199603E-01
       -1   -1    0    0    0  501  0.00000000000E+00  0.00000000000E+00  0.10899636404E+04  0.10899636404E+04  0.50400001928E-02 0. -1.
        1   -1    0    0  501    0  0.00000000000E+00  0.00000000000E+00 -0.22895863474E+04  0.22895863474E+04  0.50400001928E-02 0.  1.
    10030    2    1    2    0    0  0.00000000000E+00  0.00000000000E+00 -0.11996227070E+04  0.33795499878E+04  0.31594720256E+04 0.  0.
        3    1    3    3  502    0  0.10421410479E+04 -0.10292475221E+04 -0.12327710190E+04  0.19144536612E+04  0.10100000352E+00 0.  1.
       -3    1    3    3    0  502 -0.10421410479E+04  0.10292475221E+04  0.33148311957E+02  0.14650963266E+04  0.10100000352E+00 0. -1.
</event>
<event>
 5   0  0.1193123E-06  0.3065909E+04  0.7818609E-02  0.8225156E-01
       -2   -1    0    0    0  501  0.00000000000E+00  0.00000000000E+00  0.12138999640E+04  0.12138999640E+04  0.25500000920E-02 0. -1.
        2   -1    0    0  501    0  0.00000000000E+00  0.00000000000E+00 -0.19358680907E+04  0.19358680907E+04  0.25500000920E-02 0.  1.
    10030    2    1    2    0    0  0.00000000000E+00  0.00000000000E+00 -0.72196812674E+03  0.31497680547E+04  0.30659094609E+04 0.  0.
        3    1    3    3  502    0  0.11286812497E+03  0.11432817317E+04  0.68172394156E+03  0.13358816843E+04  0.10100000352E+00 0.  1.
       -3    1    3    3    0  502 -0.11286812497E+03 -0.11432817317E+04 -0.14036920683E+04  0.18138863704E+04  0.10100000352E+00 0. -1.
</event>
<event>
 5   0  0.1237580E-06  0.3111136E+04  0.7818609E-02  0.8212688E-01
        2   -1    0    0  501    0  0.00000000000E+00  0.00000000000E+00  0.18596499926E+04  0.18596499926E+04  0.25500000920E-02 0.  1.
       -2   -1    0    0    0  501  0.00000000000E+00  0.00000000000E+00 -0.13012081382E+04  0.13012081382E+04  0.25500000920E-02 0. -1.
    10030    2    1    2    0    0  0.00000000000E+00  0.00000000000E+00  0.55844185438E+03  0.31608581307E+04  0.31111359369E+04 0.  0.
        4    1    3    3  502    0 -0.11862431333E+04 -0.10060990999E+04  0.25936578426E+03  0.15769211753E+04  0.12699999809E+01 0. -1.
       -4    1    3    3    0  502  0.11862431333E+04  0.10060990999E+04  0.29907607012E+03  0.15839369554E+04  0.12699999809E+01 0.  1.
</event>
<event>
 5   0  0.4219337E-07  0.3103822E+04  0.7818609E-02  0.8214690E-01
       -1   -1    0    0    0  501  0.00000000000E+00  0.00000000000E+00  0.10614404845E+04  0.10614404845E+04  0.50400001928E-02 0. -1.
        1   -1    0    0  501    0  0.00000000000E+00  0.00000000000E+00 -0.22690187500E+04  0.22690187500E+04  0.50400001928E-02 0.  1.
    10030    2    1    2    0    0  0.00000000000E+00  0.00000000000E+00 -0.12075782656E+04  0.33304592345E+04  0.31038223927E+04 0.  0.
        4    1    3    3  502    0  0.10733217860E+04  0.95530002206E+03  0.25377751003E+02  0.14371024430E+04  0.12699999809E+01 0. -1.
       -4    1    3    3    0  502 -0.10733217860E+04 -0.95530002206E+03 -0.12329560166E+04  0.18933567916E+04  0.12699999809E+01 0.  1.
</event>
<event>
 5   0  0.4330395E-07  0.3105913E+04  0.7818609E-02  0.8214117E-01
        1   -1    0    0  501    0  0.00000000000E+00  0.00000000000E+00  0.19747488648E+04  0.19747488648E+04  0.50400001928E-02 0. -1.
       -1   -1    0    0    0  501  0.00000000000E+00  0.00000000000E+00 -0.12212558772E+04  0.12212558772E+04  0.50400001928E-02 0.  1.
    10030    2    1    2    0    0  0.00000000000E+00  0.00000000000E+00  0.75349298760E+03  0.31960047420E+04  0.31059128495E+04 0.  0.
        1    1    3    3  502    0  0.10703044246E+04 -0.51575163158E+03 -0.65232302841E+03  0.13553880036E+04  0.50400001928E-02 0.  1.
       -1    1    3    3    0  502 -0.10703044246E+04  0.51575163158E+03  0.14058160160E+04  0.18406167384E+04  0.50400001928E-02 0. -1.
</event>
<event>
 5   0  0.4134019E-07  0.3110631E+04  0.7818609E-02  0.8212826E-01
        1   -1    0    0  501    0  0.00000000000E+00  0.00000000000E+00  0.13256071114E+04  0.13256071114E+04  0.50400001928E-02 0. -1.
       -1   -1    0    0    0  501  0.00000000000E+00  0.00000000000E+00 -0.18248290207E+04  0.18248290207E+04  0.50400001928E-02 0.  1.
    10030    2    1    2    0    0  0.00000000000E+00  0.00000000000E+00 -0.49922190933E+03  0.31504361321E+04  0.31106310144E+04 0.  0.
        2    1    3    3  502    0  0.85044126752E+03 -0.27118802018E+03 -0.15395706034E+04  0.17796266279E+04  0.25500000920E-02 0.  1.
       -2    1    3    3    0  502 -0.85044126752E+03  0.27118802018E+03  0.10403486941E+04  0.13708095043E+04  0.25500000920E-02 0. -1.
</event>
<event>
 5   0  0.1237580E-06  0.3134004E+04  0.7818609E-02  0.8206467E-01
        2   -1    0    0  501    0  0.00000000000E+00  0.00000000000E+00  0.11473625579E+04  0.11473625579E+04  0.25500000920E-02 0. -1.
       -2   -1    0    0    0  501  0.00000000000E+00  0.00000000000E+00 -0.21401220551E+04  0.21401220551E+04  0.25500000920E-02 0.  1.
    10030    2    1    2    0    0  0.00000000000E+00  0.00000000000E+00 -0.99275949715E+03  0.32874846130E+04  0.31340044132E+04 0.  0.
        4    1    3    3  502    0  0.16823781549E+03 -0.18405377246E+03  0.11264165765E+04  0.11536878566E+04  0.12699999809E+01 0. -1.
       -4    1    3    3    0  502 -0.16823781549E+03  0.18405377246E+03 -0.21191760737E+04  0.21337967564E+04  0.12699999809E+01 0.  1.
</event>
<event>
 5   0  0.1237580E-06  0.3058566E+04  0.7818609E-02  0.8227202E-01
       -2   -1    0    0    0  501  0.00000000000E+00  0.00000000000E+00  0.10375829511E+04  0.10375829511E+04  0.25500000920E-02 0. -1.
        2   -1    0    0  501    0  0.00000000000E+00  0.00000000000E+00 -0.22539954474E+04  0.22539954474E+04  0.25500000920E-02 0.  1.
    10030    2    1    2    0    0  0.00000000000E+00  0.00000000000E+00 -0.12164124962E+04  0.32915783985E+04  0.30585664931E+04 0.  0.
        4    1    3    3  502    0 -0.56032073380E+02  0.42085050730E+03 -0.21892990563E+04  0.22300867054E+04  0.12699999809E+01 0.  1.
       -4    1    3    3    0  502  0.56032073380E+02 -0.42085050730E+03  0.97288656010E+03  0.10614916931E+04  0.12699999809E+01 0. -1.
</event>
<event>
 5   0  0.1200286E-06  0.3097008E+04  0.7818609E-02  0.8216560E-01
        2   -1    0    0  501    0  0.00000000000E+00  0.00000000000E+00  0.22097242942E+04  0.22097242942E+04  0.25500000920E-02 0. -1.
       -2   -1    0    0    0  501  0.00000000000E+00  0.00000000000E+00 -0.10851419028E+04  0.10851419028E+04  0.25500000920E-02 0.  1.
    10030    2    1    2    0    0  0.00000000000E+00  0.00000000000E+00  0.11245823914E+04  0.32948661970E+04  0.30970078626E+04 0.  0.
        5    1    3    3  502    0 -0.72834960056E+03  0.18778083349E+03 -0.87772901334E+03  0.11559347269E+04  0.46999998093E+01 0.  1.
       -5    1    3    3    0  502  0.72834960056E+03 -0.18778083349E+03  0.20023114047E+04  0.21389314700E+04  0.46999998093E+01 0. -1.
</event>
<event>
 5   0  0.4173905E-07  0.3018773E+04  0.7818609E-02  0.8238390E-01
       -1   -1    0    0    0  501  0.00000000000E+00  0.00000000000E+00  0.74827821915E+03  0.74827821917E+03  0.50400001928E-02 0. -1.
        1   -1    0    0  501    0  0.00000000000E+00  0.00000000000E+00 -0.30446536160E+04  0.30446536160E+04  0.50400001928E-02 0.  1.
    10030    2    1    2    0    0  0.00000000000E+00  0.00000000000E+00 -0.22963753969E+04  0.37929318352E+04  0.30187732513E+04 0.  0.
        3    1    3    3  502    0 -0.47423587048E+03 -0.13323679707E+04 -0.48554514968E+03  0.14952786271E+04  0.10100000352E+00 0. -1.
       -3    1    3    3    0  502  0.47423587048E+03  0.13323679707E+04 -0.18108302472E+04  0.22976532081E+04  0.10100000352E+00 0.  1.
</event>
<event>
 5   0  0.4134019E-07  0.3101736E+04  0.7818609E-02  0.8215262E-01
       -1   -1    0    0    0  501  0.00000000000E+00  0.00000000000E+00  0.13766383622E+04  0.13766383622E+04  0.50400001928E-02 0. -1.
        1   -1    0    0  501    0  0.00000000000E+00  0.00000000000E+00 -0.17471485949E+04  0.17471485949E+04  0.50400001928E-02 0.  1.
    10030    2    1    2    0    0  0.00000000000E+00  0.00000000000E+00 -0.37051023268E+03  0.31237869571E+04  0.31017361462E+04 0.  0.
        2    1    3    3  502    0 -0.92641971495E+03 -0.28128155690E+02 -0.14375366055E+04  0.17104257288E+04  0.25500000920E-02 0.  1.
       -2    1    3    3    0  502  0.92641971495E+03  0.28128155690E+02  0.10670263728E+04  0.14133612283E+04  0.25500000920E-02 0. -1.
</event>
<event>
 5   0  0.1258262E-06  0.3102851E+04  0.7818609E-02  0.8214956E-01
       -2   -1    0    0    0  501  0.00000000000E+00  0.00000000000E+00  0.86507659722E+03  0.86507659722E+03  0.25500000920E-02 0. -1.
        2   -1    0    0  501    0  0.00000000000E+00  0.00000000000E+00 -0.27823216267E+04  0.27823216267E+04  0.25500000920E-02 0.  1.
    10030    2    1    2    0    0  0.00000000000E+00  0.00000000000E+00 -0.19172450295E+04  0.36473982239E+04  0.31028511567E+04 0.  0.
        1    1    3    3  502    0  0.14870641461E+04  0.38455834337E+03 -0.70195310680E+03  0.16887815306E+04  0.50400001928E-02 0.  1.
       -1    1    3    3    0  502 -0.14870641461E+04 -0.38455834337E+03 -0.12152919227E+04  0.19586166933E+04  0.50400001928E-02 0. -1.
</event>
<event>
 5   0  0.4219337E-07  0.3099934E+04  0.7818609E-02  0.8215756E-01
       -1   -1    0    0    0  501  0.00000000000E+00  0.00000000000E+00  0.15478442468E+04  0.15478442468E+04  0.50400001928E-02 0.  1.
        1   -1    0    0  501    0  0.00000000000E+00  0.00000000000E+00 -0.15520928038E+04  0.15520928038E+04  0.50400001928E-02 0. -1.
    10030    2    1    2    0    0  0.00000000000E+00  0.00000000000E+00 -0.42485569910E+01  0.30999370507E+04  0.30999341393E+04 0.  0.
        4    1    3    3  502    0 -0.23264484989E+03  0.10458142634E+04 -0.11221901519E+04  0.15515036093E+04  0.12699999809E+01 0. -1.
       -4    1    3    3    0  502  0.23264484989E+03 -0.10458142634E+04  0.11179415950E+04  0.15484334414E+04  0.12699999809E+01 0.  1.
</event>
<event>
 5   0  0.1258262E-06  0.3121632E+04  0.7818609E-02  0.8209826E-01
       -2   -1    0    0    0  501  0.00000000000E+00  0.00000000000E+00  0.12466079868E+04  0.12466079868E+04  0.25500000920E-02 0. -1.
        2   -1    0    0  501    0  0.00000000000E+00  0.00000000000E+00 -0.19542207811E+04  0.19542207811E+04  0.25500000920E-02 0.  1.
    10030    2    1    2    0    0  0.00000000000E+00  0.00000000000E+00 -0.70761279435E+03  0.32008287679E+04  0.31216324150E+04 0.  0.
        1    1    3    3  502    0  0.60225900766E+03 -0.18836248871E+03 -0.18175922230E+04  0.19240160676E+04  0.50400001928E-02 0.  1.
       -1    1    3    3    0  502 -0.60225900766E+03  0.18836248871E+03  0.11099794286E+04  0.12768127002E+04  0.50400001928E-02 0. -1.
</event>
<event>
 5   0  0.1176002E-06  0.3094686E+04  0.7818609E-02  0.8217198E-01
       -2   -1    0    0    0  501  0.00000000000E+00  0.00000000000E+00  0.81083791081E+03  0.81083791082E+03  0.25500000920E-02 0. -1.
        2   -1    0    0  501    0  0.00000000000E+00  0.00000000000E+00 -0.29528347428E+04  0.29528347428E+04  0.25500000920E-02 0.  1.
    10030    2    1    2    0    0  0.00000000000E+00  0.00000000000E+00 -0.21419968320E+04  0.37636726537E+04  0.30946859963E+04 0.  0.
        2    1    3    3  502    0  0.24795171974E+03  0.65171884044E+03 -0.27509255851E+04  0.28379233741E+04  0.25500000920E-02 0.  1.
       -2    1    3    3    0  502 -0.24795171974E+03 -0.65171884044E+03  0.60892875309E+03  0.92574927958E+03  0.25500000920E-02 0. -1.
</event>
<event>
 5   0  0.4219337E-07  0.3083566E+04  0.7818609E-02  0.8220263E-01
       -1   -1    0    0    0  501  0.00000000000E+00  0.00000000000E+00  0.20792551953E+04  0.20792551953E+04  0.50400001928E-02 0. -1.
        1   -1    0    0  501    0  0.00000000000E+00  0.00000000000E+00 -0.11432432640E+04  0.11432432640E+04  0.50400001928E-02 0.  1.
    10030    2    1    2    0    0  0.00000000000E+00  0.00000000000E+00  0.93601193132E+03  0.32224984592E+04  0.30835657905E+04 0.  0.
        4    1    3    3  502    0 -0.10344856823E+04  0.31212141509E+03  0.16173357891E+04  0.19450853637E+04  0.12699999809E+01 0. -1.
       -4    1    3    3    0  502  0.10344856823E+04 -0.31212141509E+03 -0.68132385778E+03  0.12774130955E+04  0.12699999809E+01 0.  1.
</event>
<event>
 5   0  0.1237580E-06  0.3114204E+04  0.7818609E-02  0.8211851E-01
       -2   -1    0    0    0  501  0.00000000000E+00  0.00000000000E+00  0.13887343263E+04  0.13887343263E+04  0.25500000920E-02 0. -1.
        2   -1    0    0  501    0  0.00000000000E+00  0.00000000000E+00 -0.17458817792E+04  0.17458817792E+04  0.25500000920E-02 0.  1.
    10030    2    1    2    0    0  0.00000000000E+00  0.00000000000E+00 -0.35714745289E+03  0.31346161055E+04  0.31142035620E+04 0.  0.
        4    1    3    3  502    0  0.15515335599E+04 -0.12130431285E+03 -0.22983117915E+03  0.15731481519E+04  0.12699999809E+01 0. -1.
       -4    1    3    3    0  502 -0.15515335599E+04  0.12130431285E+03 -0.12731627373E+03  0.15614679537E+04  0.12699999809E+01 0.  1.
</event>
<event>
 5   0  0.4173905E-07  0.3099218E+04  0.7818609E-02  0.8215952E-01
        1   -1    0    0  501    0  0.00000000000E+00  0.00000000000E+00  0.16392641028E+04  0.16392641028E+04  0.50400001928E-02 0.  1.
       -1   -1    0    0    0  501  0.00000000000E+00  0.00000000000E+00 -0.14648577330E+04  0.14648577330E+04  0.50400001928E-02 0. -1.
    10030    2    1    2    0    0  0.00000000000E+00  0.00000000000E+00  0.17440636982E+03  0.31041218358E+04  0.30992184159E+04 0.  0.
        3    1    3    3  502    0 -0.29536883182E+03  0.76058772849E+03  0.14066911123E+04  0.16261968931E+04  0.10100000352E+00 0.  1.
       -3    1    3    3    0  502  0.29536883182E+03 -0.76058772849E+03 -0.12322847425E+04  0.14779249427E+04  0.10100000352E+00 0. -1.
</event>
<event>
 5   0  0.1200286E-06  0.3065204E+04  0.7818609E-02  0.8225353E-01
       -2   -1    0    0    0  501  0.00000000000E+00  0.00000000000E+00  0.96239289162E+03  0.96239289162E+03  0.25500000920E-02 0. -1.
        2   -1    0    0  501    0  0.00000000000E+00  0.00000000000E+00 -0.24406550376E+04  0.24406550376E+04  0.25500000920E-02 0.  1.
    10030    2    1    2    0    0  0.00000000000E+00  0.00000000000E+00 -0.14782621460E+04  0.34030479292E+04  0.30652041101E+04 0.  0.
        5    1    3    3  502    0 -0.15725766815E+03  0.12560962928E+04  0.21999735473E+03  0.12848847408E+04  0.46999998093E+01 0. -1.
       -5    1    3    3    0  502  0.15725766815E+03 -0.12560962928E+04 -0.16982595007E+04  0.21181631884E+04  0.46999998093E+01 0.  1.
</event>
<event>
 5   0  0.1200286E-06  0.3102734E+04  0.7818609E-02  0.8214988E-01
       -2   -1    0    0    0  501  0.00000000000E+00  0.00000000000E+00  0.12818292494E+04  0.12818292494E+04  0.25500000920E-02 0. -1.
        2   -1    0    0  501    0  0.00000000000E+00  0.00000000000E+00 -0.18775822434E+04  0.18775822434E+04  0.25500000920E-02 0.  1.
    10030    2    1    2    0    0  0.00000000000E+00  0.00000000000E+00 -0.59575299402E+03  0.31594114927E+04  0.31027341734E+04 0.  0.
        5    1    3    3  502    0  0.41899433121E+03  0.52790376094E+03  0.11249594322E+04  0.13114093352E+04  0.46999998093E+01 0. -1.
       -5    1    3    3    0  502 -0.41899433121E+03 -0.52790376094E+03 -0.17207124262E+04  0.18480021575E+04  0.46999998093E+01 0.  1.
</event>
<event>
 5   0  0.1258262E-06  0.3090725E+04  0.7818609E-02  0.8218288E-01
       -2   -1    0    0    0  501  0.00000000000E+00  0.00000000000E+00  0.15807418839E+04  0.15807418839E+04  0.25500000920E-02 0.  1.
        2   -1    0    0  501    0  0.00000000000E+00  0.00000000000E+00 -0.15107749458E+04  0.15107749458E+04  0.25500000920E-02 0. -1.
    10030    2    1    2    0    0  0.00000000000E+00  0.00000000000E+00  0.69966938120E+02  0.30915168296E+04  0.30907249854E+04 0.  0.
        1    1    3    3  502    0 -0.15075459008E+04  0.27961385607E+03 -0.15811179337E+03  0.15413882998E+04  0.50400001928E-02 0. -1.
       -1    1    3    3    0  502  0.15075459008E+04 -0.27961385607E+03  0.22807873149E+03  0.15501285299E+04  0.50400001928E-02 0.  1.
</event>
<event>
 5   0  0.4219337E-07  0.3101293E+04  0.7818609E-02  0.8215383E-01
        1   -1    0    0  501    0  0.00000000000E+00  0.00000000000E+00  0.78624519136E+03  0.78624519138E+03  0.50400001928E-02 0. -1.
       -1   -1    0    0    0  501  0.00000000000E+00  0.00000000000E+00 -0.30582117968E+04  0.30582117968E+04  0.50400001928E-02 0.  1.
    10030    2    1    2    0    0  0.00000000000E+00  0.00000000000E+00 -0.22719666055E+04  0.38444569882E+04  0.31012928398E+04 0.  0.
        4    1    3    3  502    0  0.12526329196E+04 -0.91117860748E+03 -0.12250904052E+04  0.19748883006E+04  0.12699999809E+01 0. -1.
       -4    1    3    3    0  502 -0.12526329196E+04  0.91117860748E+03 -0.10468762003E+04  0.18695686876E+04  0.12699999809E+01 0.  1.
</event>
<event>
 5   0  0.4173905E-07  0.3097730E+04  0.7818609E-02  0.8216361E-01
       -1   -1    0    0    0  501  0.00000000000E+00  0.00000000000E+00  0.19853772643E+04  0.19853772643E+04  0.50400001928E-02 0.  1.
        1   -1    0    0  501    0  0.00000000000E+00  0.00000000000E+00 -0.12083257506E+04  0.12083257506E+04  0.50400001928E-02 0. -1.
    10030    2    1    2    0    0  0.00000000000E+00  0.00000000000E+00  0.77705151370E+03  0.31937030148E+04  0.30977297965E+04 0.  0.
        3    1    3    3  502    0  0.56419486542E+03  0.50287821078E+03  0.17823659057E+04  0.19359831025E+04  0.10100000352E+00 0.  1.
       -3    1    3    3    0  502 -0.56419486542E+03 -0.50287821078E+03 -0.10053143920E+04  0.12577199124E+04  0.10100000352E+00 0. -1.
</event>
<event>
 5   0  0.4173905E-07  0.3025954E+04  0.7818609E-02  0.8236358E-01
        1   -1    0    0  501    0  0.00000000000E+00  0.00000000000E+00  0.15219615965E+04  0.15219615965E+04  0.50400001928E-02 0. -1.
       -1   -1    0    0    0  501  0.00000000000E+00  0.00000000000E+00 -0.15040454190E+04  0.15040454190E+04  0.50400001928E-02 0.  1.
    10030    2    1    2    0    0  0.00000000000E+00  0.00000000000E+00  0.17916177539E+02  0.30260070155E+04  0.30259539766E+04 0.  0.
        3    1    3    3  502    0 -0.50594259255E+03  0.88799281870E+03 -0.11066734968E+04  0.15063981518E+04  0.10100000352E+00 0.  1.
       -3    1    3    3    0  502  0.50594259255E+03 -0.88799281870E+03  0.11245896743E+04  0.15196088637E+04  0.10100000352E+00 0. -1.
</event>
<event>
 5   0  0.1237580E-06  0.3119699E+04  0.7818609E-02  0.8210352E-01
       -2   -1    0    0    0  501  0.00000000000E+00  0.00000000000E+00  0.12327215931E+04  0.12327215931E+04  0.25500000920E-02 0. -1.
        2   -1    0    0  501    0  0.00000000000E+00  0.00000000000E+00 -0.19737875381E+04  0.19737875381E+04  0.25500000920E-02 0.  1.
    10030    2    1    2    0    0  0.00000000000E+00  0.00000000000E+00 -0.74106594502E+03  0.32065091312E+04  0.31196990357E+04 0.  0.
        4    1    3    3  502    0  0.90321021231E+03  0.10573819246E+04  0.35572927465E+03  0.14354059188E+04  0.12699999809E+01 0.  1.
       -4    1    3    3    0  502 -0.90321021231E+03 -0.10573819246E+04 -0.10967952197E+04  0.17711032124E+04  0.12699999809E+01 0. -1.
</event>
<event>
 5   0  0.3935852E-07  0.3108588E+04  0.7818609E-02  0.8213385E-01
        1   -1    0    0  501    0  0.00000000000E+00  0.00000000000E+00  0.98808697189E+03  0.98808697190E+03  0.50400001928E-02 0.  1.
       -1   -1    0    0    0  501  0.00000000000E+00  0.00000000000E+00 -0.24449563169E+04  0.24449563170E+04  0.50400001928E-02 0. -1.
    10030    2    1    2    0    0  0.00000000000E+00  0.00000000000E+00 -0.14568693451E+04  0.34330432889E+04  0.31085877717E+04 0.  0.
        5    1    3    3  502    0  0.11989204370E+04  0.52681192829E+02  0.36239491509E+03  0.12536098623E+04  0.46999998093E+01 0.  1.
       -5    1    3    3    0  502 -0.11989204370E+04 -0.52681192829E+02 -0.18192642602E+04  0.21794334265E+04  0.46999998093E+01 0. -1.
</event>
<event>
 5   0  0.4330395E-07  0.3085827E+04  0.7818609E-02  0.8219638E-01
       -1   -1    0    0    0  501  0.00000000000E+00  0.00000000000E+00  0.20878207540E+04  0.20878207540E+04  0.50400001928E-02 0.  1.
        1   -1    0    0  501    0  0.00000000000E+00  0.00000000000E+00 -0.11402235941E+04  0.11402235941E+04  0.50400001928E-02 0. -1.
    10030    2    1    2    0    0  0.00000000000E+00  0.00000000000E+00  0.94759715988E+03  0.32280443481E+04  0.30858272693E+04 0.  0.
        1    1    3    3  502    0 -0.14399174771E+04  0.54769887890E+03  0.56284561813E+03  0.16401620629E+04  0.50400001928E-02 0. -1.
       -1    1    3    3    0  502  0.14399174771E+04 -0.54769887890E+03  0.38475154176E+03  0.15878822852E+04  0.50400001928E-02 0.  1.
</event>
<event>
 5   0  0.4134019E-07  0.3097467E+04  0.7818609E-02  0.8216433E-01
       -1   -1    0    0    0  501  0.00000000000E+00  0.00000000000E+00  0.98786804607E+03  0.98786804608E+03  0.50400001928E-02 0. -1.
        1   -1    0    0  501    0  0.00000000000E+00  0.00000000000E+00 -0.24280323188E+04  0.24280323188E+04  0.50400001928E-02 0.  1.
    10030    2    1    2    0    0  0.00000000000E+00  0.00000000000E+00 -0.14401642728E+04  0.34159003649E+04  0.30974670572E+04 0.  0.
        2    1    3    3  502    0  0.85875683687E+03 -0.26979219582E+03  0.66976841442E+03  0.11219807765E+04  0.25500000920E-02 0. -1.
       -2    1    3    3    0  502 -0.85875683687E+03  0.26979219582E+03 -0.21099326872E+04  0.22939195884E+04  0.25500000920E-02 0.  1.
</event>
<event>
 5   0  0.1193123E-06  0.3093169E+04  0.7818609E-02  0.8217615E-01
        2   -1    0    0  501    0  0.00000000000E+00  0.00000000000E+00  0.14869095327E+04  0.14869095327E+04  0.25500000920E-02 0. -1.
       -2   -1    0    0    0  501  0.00000000000E+00  0.00000000000E+00 -0.16086540140E+04  0.16086540140E+04  0.25500000920E-02 0.  1.
    10030    2    1    2    0    0  0.00000000000E+00  0.00000000000E+00 -0.12174448127E+03  0.30955635467E+04  0.30931685943E+04 0.  0.
        3    1    3    3  502    0 -0.10830399649E+04  0.14752674000E+03  0.10341336410E+04  0.15047166186E+04  0.10100000352E+00 0. -1.
       -3    1    3    3    0  502  0.10830399649E+04 -0.14752674000E+03 -0.11558781223E+04  0.15908469280E+04  0.10100000352E+00 0.  1.
</event>
<event>
 5   0  0.1237580E-06  0.2919893E+04  0.7818609E-02  0.8266983E-01
       -2   -1    0    0    0  501  0.00000000000E+00  0.00000000000E+00  0.92032091380E+03  0.92032091381E+03  0.25500000920E-02 0. -1.
        2   -1    0    0  501    0  0.00000000000E+00  0.00000000000E+00 -0.23159781139E+04  0.23159781139E+04  0.25500000920E-02 0.  1.
    10030    2    1    2    0    0  0.00000000000E+00  0.00000000000E+00 -0.13956572000E+04  0.32362990277E+04  0.29198925282E+04 0.  0.
        4    1    3    3  502    0 -0.42322831561E+03 -0.46489375241E+03  0.76260153435E+03  0.98833755431E+03  0.12699999809E+01 0. -1.
       -4    1    3    3    0  502  0.42322831561E+03  0.46489375241E+03 -0.21582587344E+04  0.22479614734E+04  0.12699999809E+01 0.  1.
</event>
<event>
 5   0  0.1193123E-06  0.3100985E+04  0.7818609E-02  0.8215468E-01
       -2   -1    0    0    0  501  0.00000000000E+00  0.00000000000E+00  0.20348874017E+04  0.20348874017E+04  0.25500000920E-02 0.  1.
        2   -1    0    0  501    0  0.00000000000E+00  0.00000000000E+00 -0.11814055753E+04  0.11814055753E+04  0.25500000920E-02 0. -1.
    10030    2    1    2    0    0  0.00000000000E+00  0.00000000000E+00  0.85348182646E+03  0.32162929770E+04  0.31009852121E+04 0.  0.
        3    1    3    3  502    0  0.29684369887E+03 -0.15003334121E+04  0.69099050683E+03  0.16782682801E+04  0.10100000352E+00 0.  1.
       -3    1    3    3    0  502 -0.29684369887E+03  0.15003334121E+04  0.16249131963E+03  0.15380246969E+04  0.10100000352E+00 0. -1.
</event>
<event>
 5   0  0.1193123E-06  0.3102640E+04  0.7818609E-02  0.8215014E-01
        2   -1    0    0  501    0  0.00000000000E+00  0.00000000000E+00  0.13826783997E+04  0.13826783997E+04  0.25500000920E-02 0.  1.
       -2   -1    0    0    0  501  0.00000000000E+00  0.00000000000E+00 -0.17405298586E+04  0.17405298586E+04  0.25500000920E-02 0. -1.
    10030    2    1    2    0    0  0.00000000000E+00  0.00000000000E+00 -0.35785145885E+03  0.31232082583E+04  0.31026395469E+04 0.  0.
        3    1    3    3  502    0 -0.10918307284E+04 -0.46898598123E+03 -0.11828087636E+04  0.16766272011E+04  0.10100000352E+00 0. -1.
       -3    1    3    3    0  502  0.10918307284E+04  0.46898598123E+03  0.82495730473E+03  0.14465810572E+04  0.10100000352E+00 0.  1.
</event>
<event>
 5   0  0.3935852E-07  0.3103992E+04  0.7818609E-02  0.8214643E-01
       -1   -1    0    0    0  501  0.00000000000E+00  0.00000000000E+00  0.11559869898E+04  0.11559869898E+04  0.50400001928E-02 0. -1.
        1   -1    0    0  501    0  0.00000000000E+00  0.00000000000E+00 -0.20836664256E+04  0.20836664256E+04  0.50400001928E-02 0.  1.
    10030    2    1    2    0    0  0.00000000000E+00  0.00000000000E+00 -0.92767943579E+03  0.32396534154E+04  0.31039918036E+04 0.  0.
        5    1    3    3  502    0 -0.93866245126E+03 -0.12006475400E+04 -0.76996315218E+03  0.17074855954E+04  0.46999998093E+01 0.  1.
       -5    1    3    3    0  502  0.93866245126E+03  0.12006475400E+04 -0.15771628361E+03  0.15321678201E+04  0.46999998093E+01 0. -1.
</event>
<event>
 5   0  0.4219337E-07  0.3092957E+04  0.7818609E-02  0.8217674E-01
       -1   -1    0    0    0  501  0.00000000000E+00  0.00000000000E+00  0.13683893871E+04  0.13683893871E+04  0.50400001928E-02 0. -1.
        1   -1    0    0  501    0  0.00000000000E+00  0.00000000000E+00 -0.17477446465E+04  0.17477446465E+04  0.50400001928E-02 0.  1.
    10030    2    1    2    0    0  0.00000000000E+00  0.00000000000E+00 -0.37935525947E+03  0.31161340336E+04  0.30929566603E+04 0.  0.
        4    1    3    3  502    0  0.93341637532E+03 -0.38526364371E+03  0.99038057661E+03  0.14144078281E+04  0.12699999809E+01 0. -1.
       -4    1    3    3    0  502 -0.93341637532E+03  0.38526364371E+03 -0.13697358361E+04  0.17017262055E+04  0.12699999809E+01 0.  1.
</event>
<event>
 5   0  0.3935852E-07  0.3095183E+04  0.7818609E-02  0.8217061E-01
        1   -1    0    0  501    0  0.00000000000E+00  0.00000000000E+00  0.10672009697E+04  0.10672009697E+04  0.50400001928E-02 0.  1.
       -1   -1    0    0    0  501  0.00000000000E+00  0.00000000000E+00 -0.22442248770E+04  0.22442248770E+04  0.50400001928E-02 0. -1.
    10030    2    1    2    0    0  0.00000000000E+00  0.00000000000E+00 -0.11770239074E+04  0.33114258467E+04  0.30951826860E+04 0.  0.
        5    1    3    3  502    0 -0.95479413551E+03  0.81615475754E+03  0.37868125443E+03  0.13119306430E+04  0.46999998093E+01 0.  1.
       -5    1    3    3    0  502  0.95479413551E+03 -0.81615475754E+03 -0.15557051618E+04  0.19994952038E+04  0.46999998093E+01 0. -1.
</event>
<event>
 5   0  0.4173905E-07  0.3116155E+04  0.7818609E-02  0.8211318E-01
        1   -1    0    0  501    0  0.00000000000E+00  0.00000000000E+00  0.23505865693E+04  0.23505865694E+04  0.50400001928E-02 0.  1.
       -1   -1    0    0    0  501  0.00000000000E+00  0.00000000000E+00 -0.10327655247E+04  0.10327655247E+04  0.50400001928E-02 0. -1.
    10030    2    1    2    0    0  0.00000000000E+00  0.00000000000E+00  0.13178210446E+04  0.33833520941E+04  0.31161545352E+04 0.  0.
        3    1    3    3  502    0 -0.38510469096E+03 -0.11412383106E+04  0.17320286748E+04  0.21096572814E+04  0.10100000352E+00 0.  1.
       -3    1    3    3    0  502  0.38510469096E+03  0.11412383106E+04 -0.41420763016E+03  0.12736948126E+04  0.10100000352E+00 0. -1.
</event>
<event>
 5   0  0.1237580E-06  0.3099728E+04  0.7818609E-02  0.8215813E-01
       -2   -1    0    0    0  501  0.00000000000E+00  0.00000000000E+00  0.13686835519E+04  0.13686835519E+04  0.25500000920E-02 0.  1.
        2   -1    0    0  501    0  0.00000000000E+00  0.00000000000E+00 -0.17550280382E+04  0.17550280382E+04  0.25500000920E-02 0. -1.
    10030    2    1    2    0    0  0.00000000000E+00  0.00000000000E+00 -0.38634448630E+03  0.31237115901E+04  0.30997277358E+04 0.  0.
        4    1    3    3  502    0  0.58348341581E+03  0.11457071025E+03  0.12491591335E+04  0.13834664788E+04  0.12699999809E+01 0.  1.
       -4    1    3    3    0  502 -0.58348341581E+03 -0.11457071025E+03 -0.16355036198E+04  0.17402451113E+04  0.12699999809E+01 0. -1.
</event>
<event>
 5   0  0.1258262E-06  0.2924801E+04  0.7818609E-02  0.8265537E-01
        2   -1    0    0  501    0  0.00000000000E+00  0.00000000000E+00  0.19047852286E+04  0.19047852286E+04  0.25500000920E-02 0. -1.
       -2   -1    0    0    0  501  0.00000000000E+00  0.00000000000E+00 -0.11227589009E+04  0.11227589009E+04  0.25500000920E-02 0.  1.
    10030    2    1    2    0    0  0.00000000000E+00  0.00000000000E+00  0.78202632775E+03  0.30275441295E+04  0.29248005536E+04 0.  0.
        1    1    3    3  502    0 -0.46073315721E+03  0.73411627206E+03 -0.82824894804E+03  0.11988319578E+04  0.50400001928E-02 0.  1.
       -1    1    3    3    0  502  0.46073315721E+03 -0.73411627206E+03  0.16102752758E+04  0.18287121717E+04  0.50400001928E-02 0. -1.
</event>
<event>
 5   0  0.1176002E-06  0.3115934E+04  0.7818609E-02  0.8211379E-01
       -2   -1    0    0    0  501  0.00000000000E+00  0.00000000000E+00  0.12384182373E+04  0.12384182373E+04  0.25500000920E-02 0.  1.
        2   -1    0    0  501    0  0.00000000000E+00  0.00000000000E+00 -0.19599684266E+04  0.19599684266E+04  0.25500000920E-02 0. -1.
    10030    2    1    2    0    0  0.00000000000E+00  0.00000000000E+00 -0.72155018929E+03  0.31983866639E+04  0.31159336604E+04 0.  0.
        2    1    3    3  502    0  0.88232163169E+03 -0.76866863158E+03 -0.14165436144E+04  0.18373727816E+04  0.25500000920E-02 0. -1.
       -2    1    3    3    0  502 -0.88232163169E+03  0.76866863158E+03  0.69499342514E+03  0.13610138823E+04  0.25500000920E-02 0.  1.
</event>
<event>
 5   0  0.4173905E-07  0.3111336E+04  0.7818609E-02  0.8212634E-01
       -1   -1    0    0    0  501  0.00000000000E+00  0.00000000000E+00  0.14487421085E+04  0.14487421085E+04  0.50400001928E-02 0.  1.
        1   -1    0    0  501    0  0.00000000000E+00  0.00000000000E+00 -0.16704859062E+04  0.16704859062E+04  0.50400001928E-02 0. -1.
    10030    2    1    2    0    0  0.00000000000E+00  0.00000000000E+00 -0.22174379763E+03  0.31192280147E+04  0.31113362236E+04 0.  0.
        3    1    3    3  502    0 -0.17546564718E+01 -0.43239620420E+03 -0.16090296340E+04  0.16661170216E+04  0.10100000352E+00 0. -1.
       -3    1    3    3    0  502  0.17546564718E+01  0.43239620420E+03  0.13872858364E+04  0.14531109931E+04  0.10100000352E+00 0.  1.
</event>
<event>
 5   0  0.1193123E-06  0.3110025E+04  0.7818609E-02  0.8212992E-01
        2   -1    0    0  501    0  0.00000000000E+00  0.00000000000E+00  0.15099424797E+04  0.15099424797E+04  0.25500000920E-02 0.  1.
       -2   -1    0    0    0  501  0.00000000000E+00  0.00000000000E+00 -0.16014276509E+04  0.16014276509E+04  0.25500000920E-02 0. -1.
    10030    2    1    2    0    0  0.00000000000E+00  0.00000000000E+00 -0.91485171173E+02  0.31113701306E+04  0.31100248477E+04 0.  0.
        3    1    3    3  502    0 -0.47248298279E+03  0.88824369858E+03 -0.12319394873E+04  0.15905634057E+04  0.10100000352E+00 0. -1.
       -3    1    3    3    0  502  0.47248298279E+03 -0.88824369858E+03  0.11404543161E+04  0.15208067249E+04  0.10100000352E+00 0.  1.
</event>
<event>
 5   0  0.1200286E-06  0.3085053E+04  0.7818609E-02  0.8219852E-01
       -2   -1    0    0    0  501  0.00000000000E+00  0.00000000000E+00  0.26637717843E+04  0.26637717843E+04  0.25500000920E-02 0. -1.
        2   -1    0    0  501    0  0.00000000000E+00  0.00000000000E+00 -0.89323993424E+03  0.89323993424E+03  0.25500000920E-02 0.  1.
    10030    2    1    2    0    0  0.00000000000E+00  0.00000000000E+00  0.17705318500E+04  0.35570117185E+04  0.30850525658E+04 0.  0.
        5    1    3    3  502    0  0.15934876410E+03  0.44007503818E+03 -0.80938589250E+03  0.93497897347E+03  0.46999998093E+01 0.  1.
       -5    1    3    3    0  502 -0.15934876410E+03 -0.44007503818E+03  0.25799177425E+04  0.26220327450E+04  0.46999998093E+01 0. -1.
</event>
<event>
 5   0  0.1258262E-06  0.3097648E+04  0.7818609E-02  0.8216384E-01
       -2   -1    0    0    0  501  0.00000000000E+00  0.00000000000E+00  0.17608247688E+04  0.17608247688E+04  0.25500000920E-02 0. -1.
        2   -1    0    0  501    0  0.00000000000E+00  0.00000000000E+00 -0.13623476507E+04  0.13623476507E+04  0.25500000920E-02 0.  1.
    10030    2    1    2    0    0  0.00000000000E+00  0.00000000000E+00  0.39847711804E+03  0.31231724195E+04  0.30976478090E+04 0.  0.
        1    1    3    3  502    0  0.13840199195E+04 -0.48710422914E+03 -0.30090724239E+03  0.14977739603E+04  0.50400001928E-02 0.  1.
       -1    1    3    3    0  502 -0.13840199195E+04  0.48710422914E+03  0.69938436042E+03  0.16253984592E+04  0.50400001928E-02 0. -1.
</event>
<event>
 5   0  0.4173905E-07  0.3103203E+04  0.7818609E-02  0.8214860E-01
       -1   -1    0    0    0  501  0.00000000000E+00  0.00000000000E+00  0.16276429783E+04  0.16276429784E+04  0.50400001928E-02 0.  1.
        1   -1    0    0  501    0  0.00000000000E+00  0.00000000000E+00 -0.14791122803E+04  0.14791122803E+04  0.50400001928E-02 0. -1.
    10030    2    1    2    0    0  0.00000000000E+00  0.00000000000E+00  0.14853069806E+03  0.31067552587E+04  0.31032026793E+04 0.  0.
        3    1    3    3  502    0 -0.60353919270E+03 -0.14290714092E+04  0.10531790663E+03  0.15548622194E+04  0.10100000352E+00 0. -1.
       -3    1    3    3    0  502  0.60353919270E+03  0.14290714092E+04  0.43212791432E+02  0.15518930392E+04  0.10100000352E+00 0.  1.
</event>
<event>
 5   0  0.4219337E-07  0.3097355E+04  0.7818609E-02  0.8216464E-01
        1   -1    0    0  501    0  0.00000000000E+00  0.00000000000E+00  0.12956707816E+04  0.12956707816E+04  0.50400001928E-02 0. -1.
       -1   -1    0    0    0  501  0.00000000000E+00  0.00000000000E+00 -0.18510891172E+04  0.18510891172E+04  0.50400001928E-02 0.  1.
    10030    2    1    2    0    0  0.00000000000E+00  0.00000000000E+00 -0.55541833565E+03  0.31467598988E+04  0.30973550544E+04 0.  0.
        4    1    3    3  502    0 -0.14070091281E+04  0.49772257083E+03  0.14240580856E+03  0.14992276250E+04  0.12699999809E+01 0. -1.
       -4    1    3    3    0  502  0.14070091281E+04 -0.49772257083E+03 -0.69782414421E+03  0.16475322738E+04  0.12699999809E+01 0.  1.
</event>
<event>
 5   0  0.4173905E-07  0.3125868E+04  0.7818609E-02  0.8208674E-01
        1   -1    0    0  501    0  0.00000000000E+00  0.00000000000E+00  0.19533984824E+04  0.19533984824E+04  0.50400001928E-02 0. -1.
       -1   -1    0    0    0  501  0.00000000000E+00  0.00000000000E+00 -0.12505190136E+04  0.12505190136E+04  0.50400001928E-02 0.  1.
    10030    2    1    2    0    0  0.00000000000E+00  0.00000000000E+00  0.70287946879E+03  0.32039174960E+04  0.31258675233E+04 0.  0.
        3    1    3    3  502    0 -0.12034859340E+04  0.99200497801E+03  0.24736795044E+03  0.15791273485E+04  0.10100000352E+00 0. -1.
       -3    1    3    3    0  502  0.12034859340E+04 -0.99200497801E+03  0.45551151835E+03  0.16247901474E+04  0.10100000352E+00 0.  1.
</event>
<event>
 5   0  0.1237580E-06  0.3020487E+04  0.7818609E-02  0.8237905E-01
       -2   -1    0    0    0  501  0.00000000000E+00  0.00000000000E+00  0.12397732986E+04  0.12397732986E+04  0.25500000920E-02 0.  1.
        2   -1    0    0  501    0  0.00000000000E+00  0.00000000000E+00 -0.18397191763E+04  0.18397191763E+04  0.25500000920E-02 0. -1.
    10030    2    1    2    0    0  0.00000000000E+00  0.00000000000E+00 -0.59994587771E+03  0.30794924748E+04  0.30204865248E+04 0.  0.
        4    1    3    3  502    0  0.11664323866E+04  0.75220772417E+03 -0.90696224164E+03  0.16579997266E+04  0.12699999809E+01 0. -1.
       -4    1    3    3    0  502 -0.11664323866E+04 -0.75220772417E+03  0.30701636394E+03  0.14214927483E+04  0.12699999809E+01 0.  1.
</event>
<event>
 5   0  0.1200286E-06  0.3112716E+04  0.7818609E-02  0.8212257E-01
        2   -1    0    0  501    0  0.00000000000E+00  0.00000000000E+00  0.12999203059E+04  0.12999203059E+04  0.25500000920E-02 0. -1.
       -2   -1    0    0    0  501  0.00000000000E+00  0.00000000000E+00 -0.18633838702E+04  0.18633838702E+04  0.25500000920E-02 0.  1.
    10030    2    1    2    0    0  0.00000000000E+00  0.00000000000E+00 -0.56346356434E+03  0.31633041761E+04  0.31127161969E+04 0.  0.
        5    1    3    3  502    0 -0.30852962701E+03  0.10642422157E+04 -0.13923917767E+04  0.17794884024E+04  0.46999998093E+01 0.  1.
       -5    1    3    3    0  502  0.30852962701E+03 -0.10642422157E+04  0.82892821237E+03  0.13838157737E+04  0.46999998093E+01 0. -1.
</event>
<event>
 5   0  0.1176002E-06  0.3100348E+04  0.7818609E-02  0.8215642E-01
       -2   -1    0    0    0  501  0.00000000000E+00  0.00000000000E+00  0.10480567123E+04  0.10480567123E+04  0.25500000920E-02 0. -1.
        2   -1    0    0  501    0  0.00000000000E+00  0.00000000000E+00 -0.22928529142E+04  0.22928529142E+04  0.25500000920E-02 0.  1.
    10030    2    1    2    0    0  0.00000000000E+00  0.00000000000E+00 -0.12447962019E+04  0.33409096265E+04  0.31003482947E+04 0.  0.
        2    1    3    3  502    0 -0.75699549901E+03  0.51330149015E+03  0.72632288420E+03  0.11679321630E+04  0.25500000920E-02 0. -1.
       -2    1    3    3    0  502  0.75699549901E+03 -0.51330149015E+03 -0.19711190860E+04  0.21729774635E+04  0.25500000920E-02 0.  1.
</event>
<event>
 5   0  0.1193123E-06  0.3093286E+04  0.7818609E-02  0.8217583E-01
        2   -1    0    0  501    0  0.00000000000E+00  0.00000000000E+00  0.18845098632E+04  0.18845098632E+04  0.25500000920E-02 0. -1.
       -2   -1    0    0    0  501  0.00000000000E+00  0.00000000000E+00 -0.12693511759E+04  0.12693511759E+04  0.25500000920E-02 0.  1.
    10030    2    1    2    0    0  0.00000000000E+00  0.00000000000E+00  0.61515868732E+03  0.31538610391E+04  0.30932861561E+04 0.  0.
        3    1    3    3  502    0 -0.47125137239E+03  0.35136876655E+03 -0.11510180488E+04  0.12924319808E+04  0.10100000352E+00 0.  1.
       -3    1    3    3    0  502  0.47125137239E+03 -0.35136876655E+03  0.17661767361E+04  0.18614290584E+04  0.10100000352E+00 0. -1.
</event>
<event>
 5   0  0.1176002E-06  0.3068416E+04  0.7818609E-02  0.8224460E-01
        2   -1    0    0  501    0  0.00000000000E+00  0.00000000000E+00  0.17242681296E+04  0.17242681296E+04  0.25500000920E-02 0.  1.
       -2   -1    0    0    0  501  0.00000000000E+00  0.00000000000E+00 -0.13650973166E+04  0.13650973166E+04  0.25500000920E-02 0. -1.
    10030    2    1    2    0    0  0.00000000000E+00  0.00000000000E+00  0.35917081304E+03  0.30893654462E+04  0.30684157455E+04 0.  0.
        2    1    3    3  502    0  0.13145576640E+04 -0.77122982749E+03  0.24967849952E+01  0.15240943320E+04  0.25500000920E-02 0.  1.
       -2    1    3    3    0  502 -0.13145576640E+04  0.77122982749E+03  0.35667402805E+03  0.15652711142E+04  0.25500000920E-02 0. -1.
</event>
<event>
 5   0  0.1193123E-06  0.3102428E+04  0.7818609E-02  0.8215072E-01
       -2   -1    0    0    0  501  0.00000000000E+00  0.00000000000E+00  0.17470207319E+04  0.17470207319E+04  0.25500000920E-02 0.  1.
        2   -1    0    0  501    0  0.00000000000E+00  0.00000000000E+00 -0.13773533865E+04  0.13773533865E+04  0.25500000920E-02 0. -1.
    10030    2    1    2    0    0  0.00000000000E+00  0.00000000000E+00  0.36966734536E+03  0.31243741184E+04  0.31024280307E+04 0.  0.
        3    1    3    3  502    0 -0.10049303591E+04 -0.11716104094E+04  0.29767409369E+02  0.15438400458E+04  0.10100000352E+00 0. -1.
       -3    1    3    3    0  502  0.10049303591E+04  0.11716104094E+04  0.33989993599E+03  0.15805340726E+04  0.10100000352E+00 0.  1.
</event>
<event>
 5   0  0.1193123E-06  0.3104943E+04  0.7818609E-02  0.8214383E-01
       -2   -1    0    0    0  501  0.00000000000E+00  0.00000000000E+00  0.89979776119E+03  0.89979776120E+03  0.25500000920E-02 0.  1.
        2   -1    0    0  501    0  0.00000000000E+00  0.00000000000E+00 -0.26785656046E+04  0.26785656046E+04  0.25500000920E-02 0. -1.
    10030    2    1    2    0    0  0.00000000000E+00  0.00000000000E+00 -0.17787678434E+04  0.35783633658E+04  0.31049427268E+04 0.  0.
        3    1    3    3  502    0  0.65138264635E+03  0.25582364662E+03 -0.24864732511E+04  0.25830784596E+04  0.10100000352E+00 0. -1.
       -3    1    3    3    0  502 -0.65138264635E+03 -0.25582364662E+03  0.70770540768E+03  0.99528490615E+03  0.10100000352E+00 0.  1.
</event>
<event>
 5   0  0.1237580E-06  0.3096079E+04  0.7818609E-02  0.8216815E-01
       -2   -1    0    0    0  501  0.00000000000E+00  0.00000000000E+00  0.98236666388E+03  0.98236666388E+03  0.25500000920E-02 0. -1.
        2   -1    0    0  501    0  0.00000000000E+00  0.00000000000E+00 -0.24394421461E+04  0.24394421461E+04  0.25500000920E-02 0.  1.
    10030    2    1    2    0    0  0.00000000000E+00  0.00000000000E+00 -0.14570754823E+04  0.34218088100E+04  0.30960792256E+04 0.  0.
        4    1    3    3  502    0  0.13359918029E+03  0.11773750412E+04 -0.18295172631E+04  0.21797237801E+04  0.12699999809E+01 0.  1.
       -4    1    3    3    0  502 -0.13359918029E+03 -0.11773750412E+04  0.37244178084E+03  0.12420850299E+04  0.12699999809E+01 0. -1.
</event>
<event>
 5   0  0.3935852E-07  0.3095499E+04  0.7818609E-02  0.8216974E-01
       -1   -1    0    0    0  501  0.00000000000E+00  0.00000000000E+00  0.96736587537E+03  0.96736587538E+03  0.50400001928E-02 0.  1.
        1   -1    0    0  501    0  0.00000000000E+00  0.00000000000E+00 -0.24763410058E+04  0.24763410058E+04  0.50400001928E-02 0. -1.
    10030    2    1    2    0    0  0.00000000000E+00  0.00000000000E+00 -0.15089751305E+04  0.34437068812E+04  0.30954985284E+04 0.  0.
        5    1    3    3  502    0 -0.70173728038E+03  0.86471983689E+03 -0.19502602220E+04  0.22458211484E+04  0.46999998093E+01 0. -1.
       -5    1    3    3    0  502  0.70173728038E+03 -0.86471983689E+03  0.44128509152E+03  0.11978857329E+04  0.46999998093E+01 0.  1.
</event>
<event>
 5   0  0.4134019E-07  0.3090843E+04  0.7818609E-02  0.8218255E-01
       -1   -1    0    0    0  501  0.00000000000E+00  0.00000000000E+00  0.13615606341E+04  0.13615606341E+04  0.50400001928E-02 0.  1.
        1   -1    0    0  501    0  0.00000000000E+00  0.00000000000E+00 -0.17541109027E+04  0.17541109027E+04  0.50400001928E-02 0. -1.
    10030    2    1    2    0    0  0.00000000000E+00  0.00000000000E+00 -0.39255026868E+03  0.31156715368E+04  0.30908434790E+04 0.  0.
        2    1    3    3  502    0 -0.17381869609E+03  0.15259318632E+04 -0.22707922100E+02  0.15359676559E+04  0.25500000920E-02 0.  1.
       -2    1    3    3    0  502  0.17381869609E+03 -0.15259318632E+04 -0.36984234658E+03  0.15797038809E+04  0.25500000920E-02 0. -1.
</event>
<event>
 5   0  0.4134019E-07  0.3112364E+04  0.7818609E-02  0.8212353E-01
        1   -1    0    0  501    0  0.00000000000E+00  0.00000000000E+00  0.18437638364E+04  0.18437638364E+04  0.50400001928E-02 0. -1.
       -1   -1    0    0    0  501  0.00000000000E+00  0.00000000000E+00 -0.13134562661E+04  0.13134562661E+04  0.50400001928E-02 0.  1.
    10030    2    1    2    0    0  0.00000000000E+00  0.00000000000E+00  0.53030757030E+03  0.31572201024E+04  0.31123644800E+04 0.  0.
        2    1    3    3  502    0 -0.13449164198E+04  0.13530044051E+03 -0.51706039568E+03  0.14472241838E+04  0.25500000920E-02 0.  1.
       -2    1    3    3    0  502  0.13449164198E+04 -0.13530044051E+03  0.10473679660E+04  0.17099959186E+04  0.25500000920E-02 0. -1.
</event>
<event>
 5   0  0.4173905E-07  0.3128728E+04  0.7818609E-02  0.8207898E-01
        1   -1    0    0  501    0  0.00000000000E+00  0.00000000000E+00  0.14402282294E+04  0.14402282294E+04  0.50400001928E-02 0.  1.
       -1   -1    0    0    0  501  0.00000000000E+00  0.00000000000E+00 -0.16991996750E+04  0.16991996750E+04  0.50400001928E-02 0. -1.
    10030    2    1    2    0    0  0.00000000000E+00  0.00000000000E+00 -0.25897144562E+03  0.31394279044E+04  0.31287283930E+04 0.  0.
        3    1    3    3  502    0  0.13391375800E+04  0.31389937792E+03 -0.87729472899E+03  0.16314007261E+04  0.10100000352E+00 0. -1.
       -3    1    3    3    0  502 -0.13391375800E+04 -0.31389937792E+03  0.61832328338E+03  0.15080271783E+04  0.10100000352E+00 0.  1.
</event>
<event>
 5   0  0.1258262E-06  0.3106913E+04  0.7818609E-02  0.8213843E-01
       -2   -1    0    0    0  501  0.00000000000E+00  0.00000000000E+00  0.12597861821E+04  0.12597861821E+04  0.25500000920E-02 0.  1.
        2   -1    0    0  501    0  0.00000000000E+00  0.00000000000E+00 -0.19155851982E+04  0.19155851982E+04  0.25500000920E-02 0. -1.
    10030    2    1    2    0    0  0.00000000000E+00  0.00000000000E+00 -0.65579901606E+03  0.31753713803E+04  0.31069134287E+04 0.  0.
        1    1    3    3  502    0  0.13379667221E+04 -0.67167146413E+03 -0.75168055689E+03  0.16752077975E+04  0.50400001928E-02 0. -1.
       -1    1    3    3    0  502 -0.13379667221E+04  0.67167146413E+03  0.95881540828E+02  0.15001635828E+04  0.50400001928E-02 0.  1.
</event>
<event>
 5   0  0.4173905E-07  0.3098325E+04  0.7818609E-02  0.8216198E-01
        1   -1    0    0  501    0  0.00000000000E+00  0.00000000000E+00  0.14814091319E+04  0.14814091319E+04  0.50400001928E-02 0.  1.
       -1   -1    0    0    0  501  0.00000000000E+00  0.00000000000E+00 -0.16200146682E+04  0.16200146682E+04  0.50400001928E-02 0. -1.
    10030    2    1    2    0    0  0.00000000000E+00  0.00000000000E+00 -0.13860553632E+03  0.31014238001E+04  0.30983250464E+04 0.  0.
        3    1    3    3  502    0  0.50468880929E+03 -0.75315495518E+03  0.11881188994E+04  0.14945165473E+04  0.10100000352E+00 0.  1.
       -3    1    3    3    0  502 -0.50468880929E+03  0.75315495518E+03 -0.13267244357E+04  0.16069072528E+04  0.10100000352E+00 0. -1.
</event>
<event>
 5   0  0.1193123E-06  0.3076956E+04  0.7818609E-02  0.8222091E-01
       -2   -1    0    0    0  501  0.00000000000E+00  0.00000000000E+00  0.10263262209E+04  0.10263262210E+04  0.25500000920E-02 0.  1.
        2   -1    0    0  501    0  0.00000000000E+00  0.00000000000E+00 -0.23062015669E+04  0.23062015669E+04  0.25500000920E-02 0. -1.
    10030    2    1    2    0    0  0.00000000000E+00  0.00000000000E+00 -0.12798753459E+04  0.33325277878E+04  0.30769563785E+04 0.  0.
        3    1    3    3  502    0  0.16564446737E+03 -0.76393932926E+03  0.79521823105E+03  0.11150844962E+04  0.10100000352E+00 0.  1.
       -3    1    3    3    0  502 -0.16564446737E+03  0.76393932926E+03 -0.20750935770E+04  0.22174432917E+04  0.10100000352E+00 0. -1.
</event>
<event>
 5   0  0.4330395E-07  0.3096230E+04  0.7818609E-02  0.8216773E-01
        1   -1    0    0  501    0  0.00000000000E+00  0.00000000000E+00  0.21584301642E+04  0.21584301643E+04  0.50400001928E-02 0. -1.
       -1   -1    0    0    0  501  0.00000000000E+00  0.00000000000E+00 -0.11103717529E+04  0.11103717529E+04  0.50400001928E-02 0.  1.
    10030    2    1    2    0    0  0.00000000000E+00  0.00000000000E+00  0.10480584114E+04  0.32688019171E+04  0.30962298913E+04 0.  0.
        1    1    3    3  502    0 -0.88490351828E+03 -0.67388553140E+03 -0.61278050197E+03  0.12699117645E+04  0.50400001928E-02 0.  1.
       -1    1    3    3    0  502  0.88490351828E+03  0.67388553140E+03  0.16608389133E+04  0.19988901526E+04  0.50400001928E-02 0. -1.
</event>
<event>
 5   0  0.1237580E-06  0.3097783E+04  0.7818609E-02  0.8216346E-01
        2   -1    0    0  501    0  0.00000000000E+00  0.00000000000E+00  0.11375468963E+04  0.11375468963E+04  0.25500000920E-02 0.  1.
       -2   -1    0    0    0  501  0.00000000000E+00  0.00000000000E+00 -0.21089816499E+04  0.21089816499E+04  0.25500000920E-02 0. -1.
    10030    2    1    2    0    0  0.00000000000E+00  0.00000000000E+00 -0.97143475360E+03  0.32465285462E+04  0.30977834206E+04 0.  0.
        4    1    3    3  502    0 -0.86447569542E+03  0.10024553234E+04  0.35715713459E+03  0.13710571597E+04  0.12699999809E+01 0.  1.
       -4    1    3    3    0  502  0.86447569542E+03 -0.10024553234E+04 -0.13285918882E+04  0.18754713865E+04  0.12699999809E+01 0. -1.
</event>
<event>
 5   0  0.1237580E-06  0.3078596E+04  0.7818609E-02  0.8221637E-01
       -2   -1    0    0    0  501  0.00000000000E+00  0.00000000000E+00  0.95589240528E+03  0.95589240529E+03  0.25500000920E-02 0. -1.
        2   -1    0    0  501    0  0.00000000000E+00  0.00000000000E+00 -0.24787704357E+04  0.24787704357E+04  0.25500000920E-02 0.  1.
    10030    2    1    2    0    0  0.00000000000E+00  0.00000000000E+00 -0.15228780304E+04  0.34346628410E+04  0.30785956759E+04 0.  0.
        4    1    3    3  502    0  0.41499767848E+03  0.14656749797E+04 -0.10084258565E+04  0.18268416845E+04  0.12699999809E+01 0.  1.
       -4    1    3    3    0  502 -0.41499767848E+03 -0.14656749797E+04 -0.51445217396E+03  0.16078211565E+04  0.12699999809E+01 0. -1.
</event>
<event>
 5   0  0.3935852E-07  0.3115334E+04  0.7818609E-02  0.8211542E-01
       -1   -1    0    0    0  501  0.00000000000E+00  0.00000000000E+00  0.13946545457E+04  0.13946545457E+04  0.50400001928E-02 0. -1.
        1   -1    0    0  501    0  0.00000000000E+00  0.00000000000E+00 -0.17397324223E+04  0.17397324223E+04  0.50400001928E-02 0.  1.
    10030    2    1    2    0    0  0.00000000000E+00  0.00000000000E+00 -0.34507787661E+03  0.31343869680E+04  0.31153335174E+04 0.  0.
        5    1    3    3  502    0  0.71194960760E+03 -0.12092367420E+03  0.12160502096E+04  0.14143178501E+04  0.46999998093E+01 0. -1.
       -5    1    3    3    0  502 -0.71194960760E+03  0.12092367420E+03 -0.15611280863E+04  0.17200691179E+04  0.46999998093E+01 0.  1.
</event>
<event>
 5   0  0.4173905E-07  0.3098451E+04  0.7818609E-02  0.8216163E-01
        1   -1    0    0  501    0  0.00000000000E+00  0.00000000000E+00  0.19911918563E+04  0.19911918563E+04  0.50400001928E-02 0.  1.
       -1   -1    0    0    0  501  0.00000000000E+00  0.00000000000E+00 -0.12053581889E+04  0.12053581889E+04  0.50400001928E-02 0. -1.
    10030    2    1    2    0    0  0.00000000000E+00  0.00000000000E+00  0.78583366749E+03  0.31965500452E+04  0.30984508450E+04 0.  0.
        3    1    3    3  502    0  0.14593205051E+04  0.89047453427E+01  0.92938414901E+03  0.17301591076E+04  0.10100000352E+00 0. -1.
       -3    1    3    3    0  502 -0.14593205051E+04 -0.89047453427E+01 -0.14355048152E+03  0.14663909376E+04  0.10100000352E+00 0.  1.
</event>
<event>
 5   0  0.4134019E-07  0.3101388E+04  0.7818609E-02  0.8215357E-01
       -1   -1    0    0    0  501  0.00000000000E+00  0.00000000000E+00  0.12302475521E+04  0.12302475522E+04  0.50400001928E-02 0. -1.
        1   -1    0    0  501    0  0.00000000000E+00  0.00000000000E+00 -0.19546081247E+04  0.19546081247E+04  0.50400001928E-02 0.  1.
    10030    2    1    2    0    0  0.00000000000E+00  0.00000000000E+00 -0.72436057252E+03  0.31848556768E+04  0.31013879866E+04 0.  0.
        2    1    3    3  502    0  0.15012156554E+04 -0.38714829416E+03 -0.39654146127E+03  0.16002429117E+04  0.25500000920E-02 0.  1.
       -2    1    3    3    0  502 -0.15012156554E+04  0.38714829416E+03 -0.32781911126E+03  0.15846127652E+04  0.25500000920E-02 0. -1.
</event>
<event>
 5   0  0.1237580E-06  0.3118588E+04  0.7818609E-02  0.8210655E-01
        2   -1    0    0  501    0  0.00000000000E+00  0.00000000000E+00  0.21913858607E+04  0.21913858607E+04  0.25500000920E-02 0.  1.
       -2   -1    0    0    0  501  0.00000000000E+00  0.00000000000E+00 -0.11095253871E+04  0.11095253871E+04  0.25500000920E-02 0. -1.
    10030    2    1    2    0    0  0.00000000000E+00  0.00000000000E+00  0.10818604736E+04  0.33009112478E+04  0.31185882995E+04 0.  0.
        4    1    3    3  502    0  0.12389699855E+04 -0.94026598428E+03  0.42378036140E+03  0.16120602203E+04  0.12699999809E+01 0. -1.
       -4    1    3    3    0  502 -0.12389699855E+04  0.94026598428E+03  0.65808011218E+03  0.16888510275E+04  0.12699999809E+01 0.  1.
</event>
<event>
 5   0  0.4173905E-07  0.3104619E+04  0.7818609E-02  0.8214471E-01
        1   -1    0    0  501    0  0.00000000000E+00  0.00000000000E+00  0.14012664910E+04  0.14012664910E+04  0.50400001928E-02 0. -1.
       -1   -1    0    0    0  501  0.00000000000E+00  0.00000000000E+00 -0.17196334809E+04  0.17196334809E+04  0.50400001928E-02 0.  1.
    10030    2    1    2    0    0  0.00000000000E+00  0.00000000000E+00 -0.31836698984E+03  0.31208999719E+04  0.31046189934E+04 0.  0.
        3    1    3    3  502    0  0.98496710261E+03 -0.86125342268E+03  0.68050956363E+03  0.14747918252E+04  0.10100000352E+00 0. -1.
       -3    1    3    3    0  502 -0.98496710261E+03  0.86125342268E+03 -0.99887655346E+03  0.16461081467E+04  0.10100000352E+00 0.  1.
</event>
<event>
 5   0  0.1176002E-06  0.3302617E+04  0.7818609E-02  0.8162230E-01
       -2   -1    0    0    0  501  0.00000000000E+00  0.00000000000E+00  0.18974107856E+04  0.18974107856E+04  0.25500000920E-02 0. -1.
        2   -1    0    0  501    0  0.00000000000E+00  0.00000000000E+00 -0.14371265014E+04  0.14371265014E+04  0.25500000920E-02 0.  1.
    10030    2    1    2    0    0  0.00000000000E+00  0.00000000000E+00  0.46028428420E+03  0.33345372870E+04  0.33026167347E+04 0.  0.
        2    1    3    3  502    0  0.16385767019E+04 -0.16809109434E+02  0.24202187930E+02  0.16388416336E+04  0.25500000920E-02 0. -1.
       -2    1    3    3    0  502 -0.16385767019E+04  0.16809109434E+02  0.43608209627E+03  0.16956956534E+04  0.25500000920E-02 0.  1.
</event>
<event>
 5   0  0.1237580E-06  0.3099352E+04  0.7818609E-02  0.8215916E-01
        2   -1    0    0  501    0  0.00000000000E+00  0.00000000000E+00  0.22638888141E+04  0.22638888141E+04  0.25500000920E-02 0.  1.
       -2   -1    0    0    0  501  0.00000000000E+00  0.00000000000E+00 -0.10607831172E+04  0.10607831172E+04  0.25500000920E-02 0. -1.
    10030    2    1    2    0    0  0.00000000000E+00  0.00000000000E+00  0.12031056969E+04  0.33246719314E+04  0.30993515666E+04 0.  0.
        4    1    3    3  502    0 -0.18914684057E+03 -0.12624156829E+04 -0.34097290419E+03  0.13212622821E+04  0.12699999809E+01 0.  1.
       -4    1    3    3    0  502  0.18914684057E+03  0.12624156829E+04  0.15440786011E+04  0.20034096493E+04  0.12699999809E+01 0. -1.
</event>
<event>
 5   0  0.3935852E-07  0.3040546E+04  0.7818609E-02  0.8232247E-01
        1   -1    0    0  501    0  0.00000000000E+00  0.00000000000E+00  0.21425108777E+04  0.21425108777E+04  0.50400001928E-02 0.  1.
       -1   -1    0    0    0  501  0.00000000000E+00  0.00000000000E+00 -0.10787483120E+04  0.10787483120E+04  0.50400001928E-02 0. -1.
    10030    2    1    2    0    0  0.00000000000E+00  0.00000000000E+00  0.10637625657E+04  0.32212591897E+04  0.30405459988E+04 0.  0.
        5    1    3    3  502    0 -0.24498178128E+03 -0.68942096654E+03  0.19437105869E+04  0.20768606785E+04  0.46999998093E+01 0.  1.
       -5    1    3    3    0  502  0.24498178128E+03  0.68942096654E+03 -0.87994802125E+03  0.11443985112E+04  0.46999998093E+01 0. -1.
</event>
<event>
 5   0  0.4134019E-07  0.3123035E+04  0.7818609E-02  0.8209445E-01
        1   -1    0    0  501    0  0.00000000000E+00  0.00000000000E+00  0.17962081848E+04  0.17962081848E+04  0.50400001928E-02 0.  1.
       -1   -1    0    0    0  501  0.00000000000E+00  0.00000000000E+00 -0.13574910660E+04  0.13574910660E+04  0.50400001928E-02 0. -1.
    10030    2    1    2    0    0  0.00000000000E+00  0.00000000000E+00  0.43871711878E+03  0.31536992508E+04  0.31230347827E+04 0.  0.
        2    1    3    3  502    0 -0.10089622717E+04  0.11136094705E+04 -0.20931593983E+03  0.15172158981E+04  0.25500000920E-02 0. -1.
       -2    1    3    3    0  502  0.10089622717E+04 -0.11136094705E+04  0.64803305861E+03  0.16364833527E+04  0.25500000920E-02 0.  1.
</event>
<event>
 5   0  0.1176002E-06  0.3088692E+04  0.7818609E-02  0.8218848E-01
        2   -1    0    0  501    0  0.00000000000E+00  0.00000000000E+00  0.11498397469E+04  0.11498397469E+04  0.25500000920E-02 0.  1.
       -2   -1    0    0    0  501  0.00000000000E+00  0.00000000000E+00 -0.20742065326E+04  0.20742065326E+04  0.25500000920E-02 0. -1.
    10030    2    1    2    0    0  0.00000000000E+00  0.00000000000E+00 -0.92436678563E+03  0.32240462795E+04  0.30886923541E+04 0.  0.
        2    1    3    3  502    0  0.11243870428E+04  0.30654725199E+02 -0.15667720142E+04  0.19287199068E+04  0.25500000920E-02 0. -1.
       -2    1    3    3    0  502 -0.11243870428E+04 -0.30654725199E+02  0.64240522860E+03  0.12953263727E+04  0.25500000920E-02 0.  1.
</event>
<event>
 5   0  0.1193123E-06  0.3095102E+04  0.7818609E-02  0.8217084E-01
       -2   -1    0    0    0  501  0.00000000000E+00  0.00000000000E+00  0.13594229533E+04  0.13594229533E+04  0.25500000920E-02 0. -1.
        2   -1    0    0  501    0  0.00000000000E+00  0.00000000000E+00 -0.17617132686E+04  0.17617132686E+04  0.25500000920E-02 0.  1.
    10030    2    1    2    0    0  0.00000000000E+00  0.00000000000E+00 -0.40229031529E+03  0.31211362218E+04  0.30951015843E+04 0.  0.
        3    1    3    3  502    0  0.71197283515E+03 -0.10727440118E+04  0.66469724007E+03  0.14489677236E+04  0.10100000352E+00 0. -1.
       -3    1    3    3    0  502 -0.71197283515E+03  0.10727440118E+04 -0.10669875554E+04  0.16721684982E+04  0.10100000352E+00 0.  1.
</event>
<event>
 5   0  0.1200286E-06  0.3092836E+04  0.7818609E-02  0.8217707E-01
       -2   -1    0    0    0  501  0.00000000000E+00  0.00000000000E+00  0.17777336297E+04  0.17777336297E+04  0.25500000920E-02 0. -1.
        2   -1    0    0  501    0  0.00000000000E+00  0.00000000000E+00 -0.13452005596E+04  0.13452005596E+04  0.25500000920E-02 0.  1.
    10030    2    1    2    0    0  0.00000000000E+00  0.00000000000E+00  0.43253307014E+03  0.31229341893E+04  0.30928357690E+04 0.  0.
        5    1    3    3  502    0  0.16560137006E+03  0.14896459776E+04  0.60065114128E+03  0.16147051854E+04  0.46999998093E+01 0. -1.
       -5    1    3    3    0  502 -0.16560137006E+03 -0.14896459776E+04 -0.16811807114E+03  0.15082290039E+04  0.46999998093E+01 0.  1.
</event>
<event>
 5   0  0.4134019E-07  0.3096441E+04  0.7818609E-02  0.8216715E-01
       -1   -1    0    0    0  501  0.00000000000E+00  0.00000000000E+00  0.99862395551E+03  0.99862395552E+03  0.50400001928E-02 0. -1.
        1   -1    0    0  501    0  0.00000000000E+00  0.00000000000E+00 -0.24002894927E+04  0.24002894927E+04  0.50400001928E-02 0.  1.
    10030    2    1    2    0    0  0.00000000000E+00  0.00000000000E+00 -0.14016655372E+04  0.33989134482E+04  0.30964409167E+04 0.  0.
        2    1    3    3  502    0 -0.15115818984E+04  0.51731121776E+02 -0.10639499377E+04  0.18492012909E+04  0.25500000920E-02 0. -1.
       -2    1    3    3    0  502  0.15115818984E+04 -0.51731121776E+02 -0.33771559953E+03  0.15497121573E+04  0.25500000920E-02 0.  1.
</event>
<event>
 5   0  0.1176002E-06  0.3198371E+04  0.7818609E-02  0.8189248E-01
        2   -1    0    0  501    0  0.00000000000E+00  0.00000000000E+00  0.91794400293E+03  0.91794400293E+03  0.25500000920E-02 0.  1.
       -2   -1    0    0    0  501  0.00000000000E+00  0.00000000000E+00 -0.27860019296E+04  0.27860019296E+04  0.25500000920E-02 0. -1.
    10030    2    1    2    0    0  0.00000000000E+00  0.00000000000E+00 -0.18680579266E+04  0.37039459325E+04  0.31983706873E+04 0.  0.
        2    1    3    3  502    0 -0.94161889905E+03  0.79616237816E+03 -0.21132592955E+04  0.24467091232E+04  0.25500000920E-02 0. -1.
       -2    1    3    3    0  502  0.94161889905E+03 -0.79616237816E+03  0.24520136884E+03  0.12572368093E+04  0.25500000920E-02 0.  1.
</event>
<event>
 5   0  0.4134019E-07  0.3097882E+04  0.7818609E-02  0.8216319E-01
       -1   -1    0    0    0  501  0.00000000000E+00  0.00000000000E+00  0.22593443773E+04  0.22593443773E+04  0.50400001928E-02 0. -1.
        1   -1    0    0  501    0  0.00000000000E+00  0.00000000000E+00 -0.10619090567E+04  0.10619090567E+04  0.50400001928E-02 0.  1.
    10030    2    1    2    0    0  0.00000000000E+00  0.00000000000E+00  0.11974353206E+04  0.33212534339E+04  0.30978820225E+04 0.  0.
        2    1    3    3  502    0  0.10224954916E+04 -0.88021053424E+03  0.14144692180E+04  0.19547354766E+04  0.25500000920E-02 0. -1.
       -2    1    3    3    0  502 -0.10224954916E+04  0.88021053424E+03 -0.21703389741E+03  0.13665179573E+04  0.25500000920E-02 0.  1.
</event>
<event>
 5   0  0.1200286E-06  0.3065912E+04  0.7818609E-02  0.8225156E-01
        2   -1    0    0  501    0  0.00000000000E+00  0.00000000000E+00  0.17369693727E+04  0.17369693728E+04  0.25500000920E-02 0.  1.
       -2   -1    0    0    0  501  0.00000000000E+00  0.00000000000E+00 -0.13529048901E+04  0.13529048901E+04  0.25500000920E-02 0. -1.
    10030    2    1    2    0    0  0.00000000000E+00  0.00000000000E+00  0.38406448260E+03  0.30898742629E+04  0.30659121699E+04 0.  0.
        5    1    3    3  502    0 -0.21191420631E+03  0.78376829403E+03  0.15024762538E+04  0.17078224008E+04  0.46999998093E+01 0.  1.
       -5    1    3    3    0  502  0.21191420631E+03 -0.78376829403E+03 -0.11184117712E+04  0.13820518621E+04  0.46999998093E+01 0. -1.
</event>
<event>
 5   0  0.4330395E-07  0.3098731E+04  0.7818609E-02  0.8216086E-01
        1   -1    0    0  501    0  0.00000000000E+00  0.00000000000E+00  0.19536450685E+04  0.19536450685E+04  0.50400001928E-02 0. -1.
       -1   -1    0    0    0  501  0.00000000000E+00  0.00000000000E+00 -0.12287459838E+04  0.12287459839E+04  0.50400001928E-02 0.  1.
    10030    2    1    2    0    0  0.00000000000E+00  0.00000000000E+00  0.72489908462E+03  0.31823910523E+04  0.30987310511E+04 0.  0.
        1    1    3    3  502    0  0.14657887047E+04  0.25180096380E+03  0.80844739428E+03  0.16927868860E+04  0.50400001928E-02 0. -1.
       -1    1    3    3    0  502 -0.14657887047E+04 -0.25180096380E+03 -0.83548309652E+02  0.14896041663E+04  0.50400001928E-02 0.  1.
</event>
<event>
 5   0  0.4219337E-07  0.3086226E+04  0.7818609E-02  0.8219528E-01
       -1   -1    0    0    0  501  0.00000000000E+00  0.00000000000E+00  0.19721942632E+04  0.19721942632E+04  0.50400001928E-02 0.  1.
        1   -1    0    0  501    0  0.00000000000E+00  0.00000000000E+00 -0.12073846760E+04  0.12073846760E+04  0.50400001928E-02 0. -1.
    10030    2    1    2    0    0  0.00000000000E+00  0.00000000000E+00  0.76480958723E+03  0.31795789393E+04  0.30862256117E+04 0.  0.
        4    1    3    3  502    0 -0.76950501178E+03 -0.10286402260E+04 -0.49841650623E+03  0.13779184680E+04  0.12699999809E+01 0. -1.
       -4    1    3    3    0  502  0.76950501178E+03  0.10286402260E+04  0.12632260935E+04  0.18016604713E+04  0.12699999809E+01 0.  1.
</event>
<event>
 5   0  0.4330395E-07  0.3099550E+04  0.7818609E-02  0.8215861E-01
       -1   -1    0    0    0  501  0.00000000000E+00  0.00000000000E+00  0.23099457581E+04  0.23099457581E+04  0.50400001928E-02 0. -1.
        1   -1    0    0  501    0  0.00000000000E+00  0.00000000000E+00 -0.10397658511E+04  0.10397658511E+04  0.50400001928E-02 0.  1.
    10030    2    1    2    0    0  0.00000000000E+00  0.00000000000E+00  0.12701799070E+04  0.33497116092E+04  0.30995501074E+04 0.  0.
        1    1    3    3  502    0 -0.11014650922E+04  0.10383518999E+04  0.27600384592E+03  0.15386936474E+04  0.50400001928E-02 0.  1.
       -1    1    3    3    0  502  0.11014650922E+04 -0.10383518999E+04  0.99417606112E+03  0.18110179618E+04  0.50400001928E-02 0. -1.
</event>
<event>
 5   0  0.1200286E-06  0.3105075E+04  0.7818609E-02  0.8214346E-01
       -2   -1    0    0    0  501  0.00000000000E+00  0.00000000000E+00  0.16840823167E+04  0.16840823167E+04  0.25500000920E-02 0.  1.
        2   -1    0    0  501    0  0.00000000000E+00  0.00000000000E+00 -0.14312678544E+04  0.14312678544E+04  0.25500000920E-02 0. -1.
    10030    2    1    2    0    0  0.00000000000E+00  0.00000000000E+00  0.25281446230E+03  0.31153501712E+04  0.31050751258E+04 0.  0.
        5    1    3    3  502    0  0.75142043575E+03 -0.36569101691E+03 -0.11863521816E+04  0.14511430597E+04  0.46999998093E+01 0. -1.
       -5    1    3    3    0  502 -0.75142043575E+03  0.36569101691E+03  0.14391666439E+04  0.16642071115E+04  0.46999998093E+01 0.  1.
</event>
<event>
 5   0  0.3935852E-07  0.3089275E+04  0.7818609E-02  0.8218688E-01
       -1   -1    0    0    0  501  0.00000000000E+00  0.00000000000E+00  0.18716419792E+04  0.18716419792E+04  0.50400001928E-02 0. -1.
        1   -1    0    0  501    0  0.00000000000E+00  0.00000000000E+00 -0.12747655019E+04  0.12747655019E+04  0.50400001928E-02 0.  1.
    10030    2    1    2    0    0  0.00000000000E+00  0.00000000000E+00  0.59687647737E+03  0.31464074811E+04  0.30892747544E+04 0.  0.
        5    1    3    3  502    0 -0.11927827984E+04 -0.72435009540E+03 -0.37597752861E+03  0.14452664311E+04  0.46999998093E+01 0.  1.
       -5    1    3    3    0  502  0.11927827984E+04  0.72435009540E+03  0.97285400599E+03  0.17011410500E+04  0.46999998093E+01 0. -1.
</event>
<event>
 5   0  0.4173905E-07  0.3160446E+04  0.7818609E-02  0.8199342E-01
        1   -1    0    0  501    0  0.00000000000E+00  0.00000000000E+00  0.12313540330E+04  0.12313540330E+04  0.50400001928E-02 0.  1.
       -1   -1    0    0    0  501  0.00000000000E+00  0.00000000000E+00 -0.20279340076E+04  0.20279340076E+04  0.50400001928E-02 0. -1.
    10030    2    1    2    0    0  0.00000000000E+00  0.00000000000E+00 -0.79657997462E+03  0.32592880406E+04  0.31604459931E+04 0.  0.
        3    1    3    3  502    0  0.23062359025E+03  0.10079668272E+04 -0.16306181120E+04  0.19308287864E+04  0.10100000352E+00 0. -1.
       -3    1    3    3    0  502 -0.23062359025E+03 -0.10079668272E+04  0.83403813739E+03  0.13284592541E+04  0.10100000352E+00 0.  1.
</event>
<event>
 5   0  0.1258262E-06  0.3093234E+04  0.7818609E-02  0.8217597E-01
       -2   -1    0    0    0  501  0.00000000000E+00  0.00000000000E+00  0.14888398634E+04  0.14888398634E+04  0.25500000920E-02 0.  1.
        2   -1    0    0  501    0  0.00000000000E+00  0.00000000000E+00 -0.16066361634E+04  0.16066361634E+04  0.25500000920E-02 0. -1.
    10030    2    1    2    0    0  0.00000000000E+00  0.00000000000E+00 -0.11779630001E+03  0.30954760268E+04  0.30932338845E+04 0.  0.
        1    1    3    3  502    0 -0.31019030380E+03  0.13189492188E+04  0.68741645444E+03  0.15193375030E+04  0.50400001928E-02 0.  1.
       -1    1    3    3    0  502  0.31019030380E+03 -0.13189492188E+04 -0.80521275445E+03  0.15761385238E+04  0.50400001928E-02 0. -1.
</event>
<event>
 5   0  0.4173905E-07  0.3103300E+04  0.7818609E-02  0.8214833E-01
       -1   -1    0    0    0  501  0.00000000000E+00  0.00000000000E+00  0.82790003933E+03  0.82790003934E+03  0.50400001928E-02 0. -1.
        1   -1    0    0  501    0  0.00000000000E+00  0.00000000000E+00 -0.29081026858E+04  0.29081026858E+04  0.50400001928E-02 0.  1.
    10030    2    1    2    0    0  0.00000000000E+00  0.00000000000E+00 -0.20802026465E+04  0.37360027252E+04  0.31033003902E+04 0.  0.
        3    1    3    3  502    0  0.81932422001E+03 -0.20603737788E+02  0.54605476791E+03  0.98483120953E+03  0.10100000352E+00 0. -1.
       -3    1    3    3    0  502 -0.81932422001E+03  0.20603737788E+02 -0.26262574144E+04  0.27511715156E+04  0.10100000352E+00 0.  1.
</event>
<event>
 5   0  0.1193123E-06  0.3096667E+04  0.7818609E-02  0.8216653E-01
       -2   -1    0    0    0  501  0.00000000000E+00  0.00000000000E+00  0.16152924678E+04  0.16152924678E+04  0.25500000920E-02 0. -1.
        2   -1    0    0  501    0  0.00000000000E+00  0.00000000000E+00 -0.14841498164E+04  0.14841498164E+04  0.25500000920E-02 0.  1.
    10030    2    1    2    0    0  0.00000000000E+00  0.00000000000E+00  0.13114265143E+03  0.30994422842E+04  0.30966666075E+04 0.  0.
        3    1    3    3  502    0 -0.43427237565E+03  0.91704752787E+03  0.12361354726E+04  0.15992496933E+04  0.10100000352E+00 0. -1.
       -3    1    3    3    0  502  0.43427237565E+03 -0.91704752787E+03 -0.11049928212E+04  0.15001925909E+04  0.10100000352E+00 0.  1.
</event>
<event>
 5   0  0.4330395E-07  0.3097041E+04  0.7818609E-02  0.8216550E-01
        1   -1    0    0  501    0  0.00000000000E+00  0.00000000000E+00  0.10207743091E+04  0.10207743091E+04  0.50400001928E-02 0. -1.
       -1   -1    0    0    0  501  0.00000000000E+00  0.00000000000E+00 -0.23491144240E+04  0.23491144240E+04  0.50400001928E-02 0.  1.
    10030    2    1    2    0    0  0.00000000000E+00  0.00000000000E+00 -0.13283401149E+04  0.33698887331E+04  0.30970409446E+04 0.  0.
        1    1    3    3  502    0  0.15507529013E+03  0.74140502161E+03  0.80544354144E+03  0.11056532233E+04  0.50400001928E-02 0. -1.
       -1    1    3    3    0  502 -0.15507529013E+03 -0.74140502161E+03 -0.21337836564E+04  0.22642355098E+04  0.50400001928E-02 0.  1.
</event>
<event>
 5   0  0.4330395E-07  0.3071115E+04  0.7818609E-02  0.8223710E-01
       -1   -1    0    0    0  501  0.00000000000E+00  0.00000000000E+00  0.15513639944E+04  0.15513639944E+04  0.50400001928E-02 0. -1.
        1   -1    0    0  501    0  0.00000000000E+00  0.00000000000E+00 -0.15199120127E+04  0.15199120127E+04  0.50400001928E-02 0.  1.
    10030    2    1    2    0    0  0.00000000000E+00  0.00000000000E+00  0.31451981712E+02  0.30712760071E+04  0.30711149579E+04 0.  0.
        1    1    3    3  502    0 -0.50778138243E+03  0.11474620304E+04 -0.86943382255E+03  0.15265733574E+04  0.50400001928E-02 0.  1.
       -1    1    3    3    0  502  0.50778138243E+03 -0.11474620304E+04  0.90088580426E+03  0.15447026497E+04  0.50400001928E-02 0. -1.
</event>
<event>
 5   0  0.1258262E-06  0.3128158E+04  0.7818609E-02  0.8208052E-01
       -2   -1    0    0    0  501  0.00000000000E+00  0.00000000000E+00  0.10960722580E+04  0.10960722580E+04  0.25500000920E-02 0. -1.
        2   -1    0    0  501    0  0.00000000000E+00  0.00000000000E+00 -0.22319173858E+04  0.22319173858E+04  0.25500000920E-02 0.  1.
    10030    2    1    2    0    0  0.00000000000E+00  0.00000000000E+00 -0.11358451278E+04  0.33279896439E+04  0.31281577510E+04 0.  0.
        1    1    3    3  502    0 -0.14355225468E+04  0.55589758255E+03 -0.27348358741E+03  0.15635025991E+04  0.50400001928E-02 0. -1.
       -1    1    3    3    0  502  0.14355225468E+04 -0.55589758255E+03 -0.86236154038E+03  0.17644870448E+04  0.50400001928E-02 0.  1.
</event>
<event>
 5   0  0.4173905E-07  0.3112632E+04  0.7818609E-02  0.8212280E-01
       -1   -1    0    0    0  501  0.00000000000E+00  0.00000000000E+00  0.12523037920E+04  0.12523037920E+04  0.50400001928E-02 0.  1.
        1   -1    0    0  501    0  0.00000000000E+00  0.00000000000E+00 -0.19341305338E+04  0.19341305338E+04  0.50400001928E-02 0. -1.
    10030    2    1    2    0    0  0.00000000000E+00  0.00000000000E+00 -0.68182674182E+03  0.31864343258E+04  0.31126316851E+04 0.  0.
        3    1    3    3  502    0 -0.17124673201E+03  0.97801593410E+03  0.88595098631E+03  0.13306952209E+04  0.10100000352E+00 0.  1.
       -3    1    3    3    0  502  0.17124673201E+03 -0.97801593410E+03 -0.15677777281E+04  0.18557391049E+04  0.10100000352E+00 0. -1.
</event>
<event>
 5   0  0.4330395E-07  0.3111741E+04  0.7818609E-02  0.8212523E-01
        1   -1    0    0  501    0  0.00000000000E+00  0.00000000000E+00  0.16697310441E+04  0.16697310441E+04  0.50400001928E-02 0. -1.
       -1   -1    0    0    0  501  0.00000000000E+00  0.00000000000E+00 -0.14497746639E+04  0.14497746639E+04  0.50400001928E-02 0.  1.
    10030    2    1    2    0    0  0.00000000000E+00  0.00000000000E+00  0.21995638018E+03  0.31195057080E+04  0.31117414824E+04 0.  0.
        1    1    3    3  502    0  0.12366924830E+04 -0.74347556801E+03 -0.47334094133E+03  0.15186230159E+04  0.50400001928E-02 0.  1.
       -1    1    3    3    0  502 -0.12366924830E+04  0.74347556801E+03  0.69329732152E+03  0.16008826921E+04  0.50400001928E-02 0. -1.
</event>
<event>
 5   0  0.1193123E-06  0.3096915E+04  0.7818609E-02  0.8216585E-01
       -2   -1    0    0    0  501  0.00000000000E+00  0.00000000000E+00  0.84867515922E+03  0.84867515922E+03  0.25500000920E-02 0.  1.
        2   -1    0    0  501    0  0.00000000000E+00  0.00000000000E+00 -0.28252510718E+04  0.28252510718E+04  0.25500000920E-02 0. -1.
    10030    2    1    2    0    0  0.00000000000E+00  0.00000000000E+00 -0.19765759126E+04  0.36739262310E+04  0.30969148540E+04 0.  0.
        3    1    3    3  502    0  0.62194664975E+03 -0.13920053699E+04 -0.66727148114E+03  0.16642559373E+04  0.10100000352E+00 0.  1.
       -3    1    3    3    0  502 -0.62194664975E+03  0.13920053699E+04 -0.13093044315E+04  0.20096702937E+04  0.10100000352E+00 0. -1.
</event>
<event>
 5   0  0.1200286E-06  0.3080159E+04  0.7818609E-02  0.8221204E-01
        2   -1    0    0  501    0  0.00000000000E+00  0.00000000000E+00  0.17317619398E+04  0.17317619398E+04  0.25500000920E-02 0. -1.
       -2   -1    0    0    0  501  0.00000000000E+00  0.00000000000E+00 -0.13696140744E+04  0.13696140744E+04  0.25500000920E-02 0.  1.
    10030    2    1    2    0    0  0.00000000000E+00  0.00000000000E+00  0.36214786539E+03  0.31013760142E+04  0.30801594285E+04 0.  0.
        5    1    3    3  502    0 -0.97440241088E+03 -0.74795375688E+03  0.11164120817E+04  0.16599074995E+04  0.46999998093E+01 0. -1.
       -5    1    3    3    0  502  0.97440241088E+03  0.74795375688E+03 -0.75426421633E+03  0.14414685147E+04  0.46999998093E+01 0.  1.
</event>
<event>
 5   0  0.1176002E-06  0.3109206E+04  0.7818609E-02  0.8213216E-01
        2   -1    0    0  501    0  0.00000000000E+00  0.00000000000E+00  0.14768431877E+04  0.14768431877E+04  0.25500000920E-02 0. -1.
       -2   -1    0    0    0  501  0.00000000000E+00  0.00000000000E+00 -0.16364574709E+04  0.16364574709E+04  0.25500000920E-02 0.  1.
    10030    2    1    2    0    0  0.00000000000E+00  0.00000000000E+00 -0.15961428316E+03  0.31133006586E+04  0.31092063732E+04 0.  0.
        2    1    3    3  502    0  0.93143590656E+03  0.52663470328E+02 -0.13250060250E+04  0.16204898196E+04  0.25500000920E-02 0.  1.
       -2    1    3    3    0  502 -0.93143590656E+03 -0.52663470328E+02  0.11653917418E+04  0.14928108390E+04  0.25500000920E-02 0. -1.
</event>
<event>
 5   0  0.1176002E-06  0.3105471E+04  0.7818609E-02  0.8214238E-01
       -2   -1    0    0    0  501  0.00000000000E+00  0.00000000000E+00  0.79619869097E+03  0.79619869097E+03  0.25500000920E-02 0.  1.
        2   -1    0    0  501    0  0.00000000000E+00  0.00000000000E+00 -0.30281234610E+04  0.30281234610E+04  0.25500000920E-02 0. -1.
    10030    2    1    2    0    0  0.00000000000E+00  0.00000000000E+00 -0.22319247700E+04  0.38243221520E+04  0.31054712594E+04 0.  0.
        2    1    3    3  502    0  0.13313932095E+04  0.68866367081E+03 -0.61706538509E+03  0.16209982169E+04  0.25500000920E-02 0.  1.
       -2    1    3    3    0  502 -0.13313932095E+04 -0.68866367081E+03 -0.16148593850E+04  0.22033239351E+04  0.25500000920E-02 0. -1.
</event>
<event>
 5   0  0.1193123E-06  0.3067593E+04  0.7818609E-02  0.8224689E-01
       -2   -1    0    0    0  501  0.00000000000E+00  0.00000000000E+00  0.21740178920E+04  0.21740178920E+04  0.25500000920E-02 0.  1.
        2   -1    0    0  501    0  0.00000000000E+00  0.00000000000E+00 -0.10821120496E+04  0.10821120497E+04  0.25500000920E-02 0. -1.
    10030    2    1    2    0    0  0.00000000000E+00  0.00000000000E+00  0.10919058423E+04  0.32561299416E+04  0.30675925134E+04 0.  0.
        3    1    3    3  502    0  0.11545621267E+04  0.89084019129E+03  0.10504775316E+04  0.17972515142E+04  0.10100000352E+00 0.  1.
       -3    1    3    3    0  502 -0.11545621267E+04 -0.89084019129E+03  0.41428310686E+02  0.14588784274E+04  0.10100000352E+00 0. -1.
</event>
<event>
 5   0  0.4134019E-07  0.3100974E+04  0.7818609E-02  0.8215471E-01
        1   -1    0    0  501    0  0.00000000000E+00  0.00000000000E+00  0.22393580131E+04  0.22393580131E+04  0.50400001928E-02 0. -1.
       -1   -1    0    0    0  501  0.00000000000E+00  0.00000000000E+00 -0.10735263754E+04  0.10735263754E+04  0.50400001928E-02 0.  1.
    10030    2    1    2    0    0  0.00000000000E+00  0.00000000000E+00  0.11658316378E+04  0.33128843885E+04  0.31009739702E+04 0.  0.
        2    1    3    3  502    0 -0.30850787076E+03  0.11224292580E+04 -0.51127450543E+03  0.12713874962E+04  0.25500000920E-02 0.  1.
       -2    1    3    3    0  502  0.30850787076E+03 -0.11224292580E+04  0.16771061432E+04  0.20414968923E+04  0.25500000920E-02 0. -1.
</event>
<event>
 5   0  0.1258262E-06  0.3092977E+04  0.7818609E-02  0.8217668E-01
       -2   -1    0    0    0  501  0.00000000000E+00  0.00000000000E+00  0.11653248778E+04  0.11653248778E+04  0.25500000920E-02 0.  1.
        2   -1    0    0  501    0  0.00000000000E+00  0.00000000000E+00 -0.20523260748E+04  0.20523260748E+04  0.25500000920E-02 0. -1.
    10030    2    1    2    0    0  0.00000000000E+00  0.00000000000E+00 -0.88700119691E+03  0.32176509526E+04  0.30929769688E+04 0.  0.
        1    1    3    3  502    0  0.58565607666E+03 -0.86175229727E+03  0.74537547815E+03  0.12810912011E+04  0.50400001928E-02 0.  1.
       -1    1    3    3    0  502 -0.58565607666E+03  0.86175229727E+03 -0.16323766751E+04  0.19365597515E+04  0.50400001928E-02 0. -1.
</event>
<event>
 5   0  0.4173905E-07  0.3151472E+04  0.7818609E-02  0.8201752E-01
       -1   -1    0    0    0  501  0.00000000000E+00  0.00000000000E+00  0.14107859654E+04  0.14107859654E+04  0.50400001928E-02 0. -1.
        1   -1    0    0  501    0  0.00000000000E+00  0.00000000000E+00 -0.17599722859E+04  0.17599722859E+04  0.50400001928E-02 0.  1.
    10030    2    1    2    0    0  0.00000000000E+00  0.00000000000E+00 -0.34918632050E+03  0.31707582513E+04  0.31514721642E+04 0.  0.
        3    1    3    3  502    0  0.10226935468E+04  0.35635028693E+03  0.97698834395E+03  0.14585588271E+04  0.10100000352E+00 0. -1.
       -3    1    3    3    0  502 -0.10226935468E+04 -0.35635028693E+03 -0.13261746644E+04  0.17121994243E+04  0.10100000352E+00 0.  1.
</event>
<event>
 5   0  0.4173905E-07  0.3023670E+04  0.7818609E-02  0.8237004E-01
        1   -1    0    0  501    0  0.00000000000E+00  0.00000000000E+00  0.24834070929E+04  0.24834070929E+04  0.50400001928E-02 0.  1.
       -1   -1    0    0    0  501  0.00000000000E+00  0.00000000000E+00 -0.92036677518E+03  0.92036677519E+03  0.50400001928E-02 0. -1.
    10030    2    1    2    0    0  0.00000000000E+00  0.00000000000E+00  0.15630403177E+04  0.34037738681E+04  0.30236702053E+04 0.  0.
        3    1    3    3  502    0  0.35181691223E+02  0.16020926451E+03 -0.91032050480E+03  0.92498010329E+03  0.10100000352E+00 0. -1.
       -3    1    3    3    0  502 -0.35181691223E+02 -0.16020926451E+03  0.24733608225E+04  0.24787937648E+04  0.10100000352E+00 0.  1.
</event>
<event>
 5   0  0.4219337E-07  0.3103051E+04  0.7818609E-02  0.8214901E-01
        1   -1    0    0  501    0  0.00000000000E+00  0.00000000000E+00  0.23284368700E+04  0.23284368700E+04  0.50400001928E-02 0. -1.
       -1   -1    0    0    0  501  0.00000000000E+00  0.00000000000E+00 -0.10338402671E+04  0.10338402671E+04  0.50400001928E-02 0.  1.
    10030    2    1    2    0    0  0.00000000000E+00  0.00000000000E+00  0.12945966030E+04  0.33622771371E+04  0.31030512697E+04 0.  0.
        4    1    3    3  502    0 -0.90670155411E+03  0.12316686815E+04  0.36450762452E+03  0.15722540731E+04  0.12699999809E+01 0. -1.
       -4    1    3    3    0  502  0.90670155411E+03 -0.12316686815E+04  0.93008897844E+03  0.17900230640E+04  0.12699999809E+01 0.  1.
</event>
<event>
 5   0  0.1237580E-06  0.3090713E+04  0.7818609E-02  0.8218291E-01
        2   -1    0    0  501    0  0.00000000000E+00  0.00000000000E+00  0.18082135730E+04  0.18082135730E+04  0.25500000920E-02 0. -1.
       -2   -1    0    0    0  501  0.00000000000E+00  0.00000000000E+00 -0.13207105881E+04  0.13207105881E+04  0.25500000920E-02 0.  1.
    10030    2    1    2    0    0  0.00000000000E+00  0.00000000000E+00  0.48750298493E+03  0.31289241612E+04  0.30907130643E+04 0.  0.
        4    1    3    3  502    0 -0.94178007646E+03  0.86307374289E+03 -0.63664322323E+03  0.14272919129E+04  0.12699999809E+01 0.  1.
       -4    1    3    3    0  502  0.94178007646E+03 -0.86307374289E+03  0.11241462082E+04  0.17016322483E+04  0.12699999809E+01 0. -1.
</event>
<event>
 5   0  0.4173905E-07  0.3038279E+04  0.7818609E-02  0.8232884E-01
        1   -1    0    0  501    0  0.00000000000E+00  0.00000000000E+00  0.26853836241E+04  0.26853836241E+04  0.50400001928E-02 0.  1.
       -1   -1    0    0    0  501  0.00000000000E+00  0.00000000000E+00 -0.85938765413E+03  0.85938765415E+03  0.50400001928E-02 0. -1.
    10030    2    1    2    0    0  0.00000000000E+00  0.00000000000E+00  0.18259959699E+04  0.35447712782E+04  0.30382794692E+04 0.  0.
        3    1    3    3  502    0  0.11582267457E+04 -0.92059403121E+03  0.13151350710E+04  0.19795360138E+04  0.10100000352E+00 0. -1.
       -3    1    3    3    0  502 -0.11582267457E+04  0.92059403121E+03  0.51086089893E+03  0.15652352644E+04  0.10100000352E+00 0.  1.
</event>
<event>
 5   0  0.1200286E-06  0.2964521E+04  0.7818609E-02  0.8253935E-01
        2   -1    0    0  501    0  0.00000000000E+00  0.00000000000E+00  0.20029557377E+04  0.20029557377E+04  0.25500000920E-02 0. -1.
       -2   -1    0    0    0  501  0.00000000000E+00  0.00000000000E+00 -0.10969270408E+04  0.10969270408E+04  0.25500000920E-02 0.  1.
    10030    2    1    2    0    0  0.00000000000E+00  0.00000000000E+00  0.90602869690E+03  0.30998827785E+04  0.29645210812E+04 0.  0.
        5    1    3    3  502    0 -0.80177894088E+03  0.11833839004E+04  0.42897672217E+02  0.14300731541E+04  0.46999998093E+01 0. -1.
       -5    1    3    3    0  502  0.80177894088E+03 -0.11833839004E+04  0.86313102469E+03  0.16698096244E+04  0.46999998093E+01 0.  1.
</event>
<event>
 5   0  0.4173905E-07  0.3094580E+04  0.7818609E-02  0.8217227E-01
        1   -1    0    0  501    0  0.00000000000E+00  0.00000000000E+00  0.16189259750E+04  0.16189259750E+04  0.50400001928E-02 0. -1.
       -1   -1    0    0    0  501  0.00000000000E+00  0.00000000000E+00 -0.14788242228E+04  0.14788242228E+04  0.50400001928E-02 0.  1.
    10030    2    1    2    0    0  0.00000000000E+00  0.00000000000E+00  0.14010175224E+03  0.30977501978E+04  0.30945803895E+04 0.  0.
        3    1    3    3  502    0 -0.74438166892E+03 -0.71178605740E+03  0.12259472508E+04  0.16011527511E+04  0.10100000352E+00 0. -1.
       -3    1    3    3    0  502  0.74438166892E+03  0.71178605740E+03 -0.10858454986E+04  0.14965974467E+04  0.10100000352E+00 0.  1.
</event>
<event>
 5   0  0.1258262E-06  0.3034303E+04  0.7818609E-02  0.8234003E-01
       -2   -1    0    0    0  501  0.00000000000E+00  0.00000000000E+00  0.98235999665E+03  0.98235999666E+03  0.25500000920E-02 0.  1.
        2   -1    0    0  501    0  0.00000000000E+00  0.00000000000E+00 -0.23430803556E+04  0.23430803556E+04  0.25500000920E-02 0. -1.
    10030    2    1    2    0    0  0.00000000000E+00  0.00000000000E+00 -0.13607203590E+04  0.33254403523E+04  0.30343028262E+04 0.  0.
        1    1    3    3  502    0 -0.10091973473E+04  0.57182911896E+03 -0.17520840644E+04  0.21012535296E+04  0.50400001928E-02 0.  1.
       -1    1    3    3    0  502  0.10091973473E+04 -0.57182911896E+03  0.39136370537E+03  0.12241868227E+04  0.50400001928E-02 0. -1.
</event>
<event>
 5   0  0.4173905E-07  0.3164641E+04  0.7818609E-02  0.8198218E-01
       -1   -1    0    0    0  501  0.00000000000E+00  0.00000000000E+00  0.13904281518E+04  0.13904281518E+04  0.50400001928E-02 0. -1.
        1   -1    0    0  501    0  0.00000000000E+00  0.00000000000E+00 -0.18006953830E+04  0.18006953830E+04  0.50400001928E-02 0.  1.
    10030    2    1    2    0    0  0.00000000000E+00  0.00000000000E+00 -0.41026723119E+03  0.31911235348E+04  0.31646406136E+04 0.  0.
        3    1    3    3  502    0  0.45767633242E+03 -0.25906284372E+03  0.12997211010E+04  0.14020899161E+04  0.10100000352E+00 0. -1.
       -3    1    3    3    0  502 -0.45767633242E+03  0.25906284372E+03 -0.17099883322E+04  0.17890336187E+04  0.10100000352E+00 0.  1.
</event>
<event>
 5   0  0.1200286E-06  0.3093326E+04  0.7818609E-02  0.8217572E-01
        2   -1    0    0  501    0  0.00000000000E+00  0.00000000000E+00  0.24928250542E+04  0.24928250542E+04  0.25500000920E-02 0. -1.
       -2   -1    0    0    0  501  0.00000000000E+00  0.00000000000E+00 -0.95962088188E+03  0.95962088188E+03  0.25500000920E-02 0.  1.
    10030    2    1    2    0    0  0.00000000000E+00  0.00000000000E+00  0.15332041723E+04  0.34524459361E+04  0.30933263500E+04 0.  0.
        5    1    3    3  502    0 -0.90246256905E+03 -0.20654773778E+03  0.21494091589E+04  0.23403167475E+04  0.46999998093E+01 0. -1.
       -5    1    3    3    0  502  0.90246256905E+03  0.20654773778E+03 -0.61620498657E+03  0.11121291885E+04  0.46999998093E+01 0.  1.
</event>
<event>
 5   0  0.1193123E-06  0.3105352E+04  0.7818609E-02  0.8214271E-01
        2   -1    0    0  501    0  0.00000000000E+00  0.00000000000E+00  0.25244708769E+04  0.25244708769E+04  0.25500000920E-02 0.  1.
       -2   -1    0    0    0  501  0.00000000000E+00  0.00000000000E+00 -0.95497367963E+03  0.95497367963E+03  0.25500000920E-02 0. -1.
    10030    2    1    2    0    0  0.00000000000E+00  0.00000000000E+00  0.15694971972E+04  0.34794445565E+04  0.31053523101E+04 0.  0.
        3    1    3    3  502    0  0.31857548400E+02  0.22436960444E+03  0.25058407284E+04  0.25160672466E+04  0.10100000352E+00 0.  1.
       -3    1    3    3    0  502 -0.31857548400E+02 -0.22436960444E+03 -0.93634353117E+03  0.96337730996E+03  0.10100000352E+00 0. -1.
</event>
<event>
 5   0  0.1193123E-06  0.3101035E+04  0.7818609E-02  0.8215454E-01
        2   -1    0    0  501    0  0.00000000000E+00  0.00000000000E+00  0.18972512907E+04  0.18972512907E+04  0.25500000920E-02 0. -1.
       -2   -1    0    0    0  501  0.00000000000E+00  0.00000000000E+00 -0.12671513539E+04  0.12671513539E+04  0.25500000920E-02 0.  1.
    10030    2    1    2    0    0  0.00000000000E+00  0.00000000000E+00  0.63009993678E+03  0.31644026446E+04  0.31010350154E+04 0.  0.
        3    1    3    3  502    0  0.72127076551E+02  0.31062713055E+03  0.18634268674E+04  0.18905161279E+04  0.10100000352E+00 0. -1.
       -3    1    3    3    0  502 -0.72127076551E+02 -0.31062713055E+03 -0.12333269306E+04  0.12738865167E+04  0.10100000352E+00 0.  1.
</event>
<event>
 5   0  0.4330395E-07  0.3108172E+04  0.7818609E-02  0.8213499E-01
       -1   -1    0    0    0  501  0.00000000000E+00  0.00000000000E+00  0.11658104929E+04  0.11658104929E+04  0.50400001928E-02 0. -1.
        1   -1    0    0  501    0  0.00000000000E+00  0.00000000000E+00 -0.20716772901E+04  0.20716772901E+04  0.50400001928E-02 0.  1.
    10030    2    1    2    0    0  0.00000000000E+00  0.00000000000E+00 -0.90586679721E+03  0.32374877830E+04  0.31081718888E+04 0.  0.
        1    1    3    3  502    0  0.94281899996E+03  0.33696432197E+03 -0.16909679662E+04  0.19651527380E+04  0.50400001928E-02 0.  1.
       -1    1    3    3    0  502 -0.94281899996E+03 -0.33696432197E+03  0.78510116901E+03  0.12723350449E+04  0.50400001928E-02 0. -1.
</event>
<event>
 5   0  0.4219337E-07  0.3081406E+04  0.7818609E-02  0.8220860E-01
        1   -1    0    0  501    0  0.00000000000E+00  0.00000000000E+00  0.27152377210E+04  0.27152377210E+04  0.50400001928E-02 0. -1.
       -1   -1    0    0    0  501  0.00000000000E+00  0.00000000000E+00 -0.87423850558E+03  0.87423850560E+03  0.50400001928E-02 0.  1.
    10030    2    1    2    0    0  0.00000000000E+00  0.00000000000E+00  0.18409992154E+04  0.35894762266E+04  0.30814057620E+04 0.  0.
        4    1    3    3  502    0  0.84639378543E+03 -0.31780259371E+03  0.23737498564E+04  0.25400926995E+04  0.12699999809E+01 0. -1.
       -4    1    3    3    0  502 -0.84639378543E+03  0.31780259371E+03 -0.53275064096E+03  0.10493835271E+04  0.12699999809E+01 0.  1.
</event>
<event>
 5   0  0.4330395E-07  0.3145578E+04  0.7818609E-02  0.8203339E-01
       -1   -1    0    0    0  501  0.00000000000E+00  0.00000000000E+00  0.16201940091E+04  0.16201940091E+04  0.50400001928E-02 0. -1.
        1   -1    0    0  501    0  0.00000000000E+00  0.00000000000E+00 -0.15267713941E+04  0.15267713941E+04  0.50400001928E-02 0.  1.
    10030    2    1    2    0    0  0.00000000000E+00  0.00000000000E+00  0.93422615016E+02  0.31469654032E+04  0.31455783989E+04 0.  0.
        1    1    3    3  502    0 -0.17447604072E+02  0.79557370683E+03  0.14039317416E+04  0.16137739237E+04  0.50400001928E-02 0. -1.
       -1    1    3    3    0  502  0.17447604072E+02 -0.79557370683E+03 -0.13105091265E+04  0.15331914795E+04  0.50400001928E-02 0.  1.
</event>
<event>
 5   0  0.3902375E-07  0.3091971E+04  0.7818609E-02  0.8217945E-01
        3   -1    0    0  501    0  0.00000000000E+00  0.00000000000E+00  0.13444615869E+04  0.13444615907E+04  0.10100000352E+00 0. -1.
       -3   -1    0    0    0  501  0.00000000000E+00  0.00000000000E+00 -0.17777158322E+04  0.17777158351E+04  0.10100000352E+00 0.  1.
    10030    2    1    2    0    0  0.00000000000E+00  0.00000000000E+00 -0.43325424532E+03  0.31221774258E+04  0.30919706721E+04 0.  0.
        4    1    3    3  502    0  0.15190516193E+03  0.14667006341E+04 -0.68568987280E+03  0.16261790009E+04  0.12699999809E+01 0.  1.
       -4    1    3    3    0  502 -0.15190516193E+03 -0.14667006341E+04  0.25243562749E+03  0.14959984249E+04  0.12699999809E+01 0. -1.
</event>
<event>
 5   0  0.3935852E-07  0.3100754E+04  0.7818609E-02  0.8215531E-01
       -1   -1    0    0    0  501  0.00000000000E+00  0.00000000000E+00  0.90230617800E+03  0.90230617801E+03  0.50400001928E-02 0.  1.
        1   -1    0    0  501    0  0.00000000000E+00  0.00000000000E+00 -0.26639165360E+04  0.26639165360E+04  0.50400001928E-02 0. -1.
    10030    2    1    2    0    0  0.00000000000E+00  0.00000000000E+00 -0.17616103580E+04  0.35662227140E+04  0.31007536814E+04 0.  0.
        5    1    3    3  502    0  0.11688949180E+04 -0.84608750655E+03 -0.15328978181E+04  0.21052261658E+04  0.46999998093E+01 0. -1.
       -5    1    3    3    0  502 -0.11688949180E+04  0.84608750655E+03 -0.22871253987E+03  0.14609965483E+04  0.46999998093E+01 0.  1.
</event>
<event>
 5   0  0.4219337E-07  0.3153564E+04  0.7818609E-02  0.8201190E-01
       -1   -1    0    0    0  501  0.00000000000E+00  0.00000000000E+00  0.15803346828E+04  0.15803346828E+04  0.50400001928E-02 0. -1.
        1   -1    0    0  501    0  0.00000000000E+00  0.00000000000E+00 -0.15732371380E+04  0.15732371380E+04  0.50400001928E-02 0.  1.
    10030    2    1    2    0    0  0.00000000000E+00  0.00000000000E+00  0.70975447899E+01  0.31535718208E+04  0.31535638338E+04 0.  0.
        4    1    3    3  502    0  0.60918911502E+03  0.44062492771E+03 -0.13824482068E+04  0.15736665346E+04  0.12699999809E+01 0.  1.
       -4    1    3    3    0  502 -0.60918911502E+03 -0.44062492771E+03  0.13895457516E+04  0.15799052862E+04  0.12699999809E+01 0. -1.
</event>
<event>
 5   0  0.4134019E-07  0.3096104E+04  0.7818609E-02  0.8216808E-01
        1   -1    0    0  501    0  0.00000000000E+00  0.00000000000E+00  0.19362765218E+04  0.19362765218E+04  0.50400001928E-02 0. -1.
       -1   -1    0    0    0  501  0.00000000000E+00  0.00000000000E+00 -0.12376668161E+04  0.12376668161E+04  0.50400001928E-02 0.  1.
    10030    2    1    2    0    0  0.00000000000E+00  0.00000000000E+00  0.69860970571E+03  0.31739433380E+04  0.30961041313E+04 0.  0.
        2    1    3    3  502    0 -0.92646073976E+03  0.25369827533E+03  0.15938162861E+04  0.18608983506E+04  0.25500000920E-02 0. -1.
       -2    1    3    3    0  502  0.92646073976E+03 -0.25369827533E+03 -0.89520658043E+03  0.13130449874E+04  0.25500000920E-02 0.  1.
</event>
<event>
 5   0  0.1176002E-06  0.3111501E+04  0.7818609E-02  0.8212589E-01
       -2   -1    0    0    0  501  0.00000000000E+00  0.00000000000E+00  0.90398653189E+03  0.90398653189E+03  0.25500000920E-02 0.  1.
        2   -1    0    0  501    0  0.00000000000E+00  0.00000000000E+00 -0.26774287234E+04  0.26774287234E+04  0.25500000920E-02 0. -1.
    10030    2    1    2    0    0  0.00000000000E+00  0.00000000000E+00 -0.17734421915E+04  0.35814152553E+04  0.31115009279E+04 0.  0.
        2    1    3    3  502    0  0.10928604952E+03 -0.14873698803E+04 -0.13964925043E+04  0.20431358047E+04  0.25500000920E-02 0. -1.
       -2    1    3    3    0  502 -0.10928604952E+03  0.14873698803E+04 -0.37694968716E+03  0.15382794506E+04  0.25500000920E-02 0.  1.
</event>
<event>
 5   0  0.3935852E-07  0.3098264E+04  0.7818609E-02  0.8216214E-01
       -1   -1    0    0    0  501  0.00000000000E+00  0.00000000000E+00  0.12762873304E+04  0.12762873304E+04  0.50400001928E-02 0.  1.
        1   -1    0    0  501    0  0.00000000000E+00  0.00000000000E+00 -0.18803059677E+04  0.18803059677E+04  0.50400001928E-02 0. -1.
    10030    2    1    2    0    0  0.00000000000E+00  0.00000000000E+00 -0.60401863737E+03  0.31565932981E+04  0.30982644715E+04 0.  0.
        5    1    3    3  502    0  0.12166808161E+04 -0.39670069458E+03 -0.11914306332E+04  0.17484886883E+04  0.46999998093E+01 0. -1.
       -5    1    3    3    0  502 -0.12166808161E+04  0.39670069458E+03  0.58741199581E+03  0.14081046098E+04  0.46999998093E+01 0.  1.
</event>
<event>
 5   0  0.4173905E-07  0.3091470E+04  0.7818609E-02  0.8218083E-01
        1   -1    0    0  501    0  0.00000000000E+00  0.00000000000E+00  0.17327600039E+04  0.17327600039E+04  0.50400001928E-02 0. -1.
       -1   -1    0    0    0  501  0.00000000000E+00  0.00000000000E+00 -0.13788962955E+04  0.13788962955E+04  0.50400001928E-02 0.  1.
    10030    2    1    2    0    0  0.00000000000E+00  0.00000000000E+00  0.35386370836E+03  0.31116562994E+04  0.30914697802E+04 0.  0.
        3    1    3    3  502    0 -0.28486953023E+03  0.13896601363E+04 -0.44107281822E+03  0.14855474361E+04  0.10100000352E+00 0.  1.
       -3    1    3    3    0  502  0.28486953023E+03 -0.13896601363E+04  0.79493652658E+03  0.16261088633E+04  0.10100000352E+00 0. -1.
</event>
<event>
 5   0  0.1176002E-06  0.3110979E+04  0.7818609E-02  0.8212731E-01
       -2   -1    0    0    0  501  0.00000000000E+00  0.00000000000E+00  0.15851966313E+04  0.15851966313E+04  0.25500000920E-02 0. -1.
        2   -1    0    0  501    0  0.00000000000E+00  0.00000000000E+00 -0.15263393462E+04  0.15263393462E+04  0.25500000920E-02 0.  1.
    10030    2    1    2    0    0  0.00000000000E+00  0.00000000000E+00  0.58857285089E+02  0.31115359775E+04  0.31109792605E+04 0.  0.
        2    1    3    3  502    0 -0.49805630766E+03 -0.10020195119E+04  0.11101055939E+04  0.15762098901E+04  0.25500000920E-02 0. -1.
       -2    1    3    3    0  502  0.49805630766E+03  0.10020195119E+04 -0.10512483088E+04  0.15353260874E+04  0.25500000920E-02 0.  1.
</event>
<event>
 5   0  0.4134019E-07  0.3108698E+04  0.7818609E-02  0.8213355E-01
        1   -1    0    0  501    0  0.00000000000E+00  0.00000000000E+00  0.22008196064E+04  0.22008196064E+04  0.50400001928E-02 0.  1.
       -1   -1    0    0    0  501  0.00000000000E+00  0.00000000000E+00 -0.10977730944E+04  0.10977730944E+04  0.50400001928E-02 0. -1.
    10030    2    1    2    0    0  0.00000000000E+00  0.00000000000E+00  0.11030465120E+04  0.32985927008E+04  0.31086978300E+04 0.  0.
        2    1    3    3  502    0 -0.26484430369E+03  0.15213824470E+04  0.73910884617E+03  0.17120248076E+04  0.25500000920E-02 0. -1.
       -2    1    3    3    0  502  0.26484430369E+03 -0.15213824470E+04  0.36393766579E+03  0.15865678932E+04  0.25500000920E-02 0.  1.
</event>
<event>
 5   0  0.3935852E-07  0.3103742E+04  0.7818609E-02  0.8214712E-01
        1   -1    0    0  501    0  0.00000000000E+00  0.00000000000E+00  0.20725302831E+04  0.20725302831E+04  0.50400001928E-02 0.  1.
       -1   -1    0    0    0  501  0.00000000000E+00  0.00000000000E+00 -0.11620114678E+04  0.11620114678E+04  0.50400001928E-02 0. -1.
    10030    2    1    2    0    0  0.00000000000E+00  0.00000000000E+00  0.91051881527E+03  0.32345417509E+04  0.31037422292E+04 0.  0.
        5    1    3    3  502    0  0.10377036113E+04 -0.85961983015E+03  0.12574430395E+04  0.18430844053E+04  0.46999998093E+01 0.  1.
       -5    1    3    3    0  502 -0.10377036113E+04  0.85961983015E+03 -0.34692422422E+03  0.13914573456E+04  0.46999998093E+01 0. -1.
</event>
<event>
 5   0  0.1258262E-06  0.3099792E+04  0.7818609E-02  0.8215795E-01
        2   -1    0    0  501    0  0.00000000000E+00  0.00000000000E+00  0.21150794769E+04  0.21150794769E+04  0.25500000920E-02 0. -1.
       -2   -1    0    0    0  501  0.00000000000E+00  0.00000000000E+00 -0.11357383613E+04  0.11357383613E+04  0.25500000920E-02 0.  1.
    10030    2    1    2    0    0  0.00000000000E+00  0.00000000000E+00  0.97934111560E+03  0.32508178382E+04  0.30997915408E+04 0.  0.
        1    1    3    3  502    0 -0.17355833397E+03  0.10899072634E+04 -0.65153718147E+03  0.12816087691E+04  0.50400001928E-02 0.  1.
       -1    1    3    3    0  502  0.17355833397E+03 -0.10899072634E+04  0.16308782971E+04  0.19692090691E+04  0.50400001928E-02 0. -1.
</event>
<event>
 5   0  0.1176002E-06  0.3062974E+04  0.7818609E-02  0.8225973E-01
       -2   -1    0    0    0  501  0.00000000000E+00  0.00000000000E+00  0.22283665099E+04  0.22283665099E+04  0.25500000920E-02 0. -1.
        2   -1    0    0  501    0  0.00000000000E+00  0.00000000000E+00 -0.10525434597E+04  0.10525434597E+04  0.25500000920E-02 0.  1.
    10030    2    1    2    0    0  0.00000000000E+00  0.00000000000E+00  0.11758230502E+04  0.32809099696E+04  0.30629741075E+04 0.  0.
        2    1    3    3  502    0  0.11240109117E+04  0.44864321449E+03 -0.41735812940E+03  0.12801832180E+04  0.25500000920E-02 0.  1.
       -2    1    3    3    0  502 -0.11240109117E+04 -0.44864321449E+03  0.15931811796E+04  0.20007267516E+04  0.25500000920E-02 0. -1.
</event>
<event>
 5   0  0.1237580E-06  0.3103126E+04  0.7818609E-02  0.8214880E-01
        2   -1    0    0  501    0  0.00000000000E+00  0.00000000000E+00  0.23166042406E+04  0.23166042406E+04  0.25500000920E-02 0.  1.
       -2   -1    0    0    0  501  0.00000000000E+00  0.00000000000E+00 -0.10391711862E+04  0.10391711862E+04  0.25500000920E-02 0. -1.
    10030    2    1    2    0    0  0.00000000000E+00  0.00000000000E+00  0.12774330545E+04  0.33557754268E+04  0.31031264084E+04 0.  0.
        4    1    3    3  502    0  0.13947370912E+03 -0.14525172215E+04  0.12089913661E+04  0.18949725408E+04  0.12699999809E+01 0.  1.
       -4    1    3    3    0  502 -0.13947370912E+03  0.14525172215E+04  0.68441688359E+02  0.14608028860E+04  0.12699999809E+01 0. -1.
</event>
<event>
 5   0  0.1200286E-06  0.3119053E+04  0.7818609E-02  0.8210528E-01
        2   -1    0    0  501    0  0.00000000000E+00  0.00000000000E+00  0.20207620058E+04  0.20207620058E+04  0.25500000920E-02 0. -1.
       -2   -1    0    0    0  501  0.00000000000E+00  0.00000000000E+00 -0.12035674737E+04  0.12035674737E+04  0.25500000920E-02 0.  1.
    10030    2    1    2    0    0  0.00000000000E+00  0.00000000000E+00  0.81719453210E+03  0.32243294794E+04  0.31190533321E+04 0.  0.
        5    1    3    3  502    0 -0.61732743359E+03  0.80132971855E+03  0.16356223432E+04  0.19231497647E+04  0.46999998093E+01 0.  1.
       -5    1    3    3    0  502  0.61732743359E+03 -0.80132971855E+03 -0.81842781106E+03  0.13011797147E+04  0.46999998093E+01 0. -1.
</event>
<event>
 5   0  0.1237580E-06  0.3100953E+04  0.7818609E-02  0.8215476E-01
        2   -1    0    0  501    0  0.00000000000E+00  0.00000000000E+00  0.18852924543E+04  0.18852924543E+04  0.25500000920E-02 0.  1.
       -2   -1    0    0    0  501  0.00000000000E+00  0.00000000000E+00 -0.12751218990E+04  0.12751218990E+04  0.25500000920E-02 0. -1.
    10030    2    1    2    0    0  0.00000000000E+00  0.00000000000E+00  0.61017055524E+03  0.31604143533E+04  0.31009532047E+04 0.  0.
        4    1    3    3  502    0 -0.71655707593E+03 -0.63029959721E+03 -0.94033022823E+03  0.13397589994E+04  0.12699999809E+01 0. -1.
       -4    1    3    3    0  502  0.71655707593E+03  0.63029959721E+03  0.15505007835E+04  0.18206553539E+04  0.12699999809E+01 0.  1.
</event>
<event>
 5   0  0.1258262E-06  0.3092140E+04  0.7818609E-02  0.8217898E-01
        2   -1    0    0  501    0  0.00000000000E+00  0.00000000000E+00  0.21238380424E+04  0.21238380424E+04  0.25500000920E-02 0.  1.
       -2   -1    0    0    0  501  0.00000000000E+00  0.00000000000E+00 -0.11254774795E+04  0.11254774795E+04  0.25500000920E-02 0. -1.
    10030    2    1    2    0    0  0.00000000000E+00  0.00000000000E+00  0.99836056284E+03  0.32493155219E+04  0.30921396390E+04 0.  0.
        1    1    3    3  502    0  0.60465969413E+03 -0.77213140590E+03 -0.75678524151E+03  0.12387591192E+04  0.50400001928E-02 0. -1.
       -1    1    3    3    0  502 -0.60465969413E+03  0.77213140590E+03  0.17551458044E+04  0.20105564027E+04  0.50400001928E-02 0.  1.
</event>
<event>
 5   0  0.4219337E-07  0.3099706E+04  0.7818609E-02  0.8215819E-01
        1   -1    0    0  501    0  0.00000000000E+00  0.00000000000E+00  0.25395276780E+04  0.25395276780E+04  0.50400001928E-02 0.  1.
       -1   -1    0    0    0  501  0.00000000000E+00  0.00000000000E+00 -0.94586256576E+03  0.94586256577E+03  0.50400001928E-02 0. -1.
    10030    2    1    2    0    0  0.00000000000E+00  0.00000000000E+00  0.15936651123E+04  0.34853902438E+04  0.30997058992E+04 0.  0.
        4    1    3    3  502    0  0.77954683942E+03  0.46318470176E+02  0.23021379839E+04  0.24309832549E+04  0.12699999809E+01 0.  1.
       -4    1    3    3    0  502 -0.77954683942E+03 -0.46318470176E+02 -0.70847287166E+03  0.10544069889E+04  0.12699999809E+01 0. -1.
</event>
<event>
 5   0  0.1176002E-06  0.3161425E+04  0.7818609E-02  0.8199080E-01
        2   -1    0    0  501    0  0.00000000000E+00  0.00000000000E+00  0.24790022681E+04  0.24790022681E+04  0.25500000920E-02 0. -1.
       -2   -1    0    0    0  501  0.00000000000E+00  0.00000000000E+00 -0.10079267886E+04  0.10079267886E+04  0.25500000920E-02 0.  1.
    10030    2    1    2    0    0  0.00000000000E+00  0.00000000000E+00  0.14710754795E+04  0.34869290567E+04  0.31614254980E+04 0.  0.
        2    1    3    3  502    0  0.67000847191E+03  0.87706234764E+03 -0.51256539409E+03  0.12169112528E+04  0.25500000920E-02 0.  1.
       -2    1    3    3    0  502 -0.67000847191E+03 -0.87706234764E+03  0.19836408736E+04  0.22700178038E+04  0.25500000920E-02 0. -1.
</event>
<event>
 5   0  0.1193123E-06  0.3102146E+04  0.7818609E-02  0.8215149E-01
        2   -1    0    0  501    0  0.00000000000E+00  0.00000000000E+00  0.17333767258E+04  0.17333767258E+04  0.25500000920E-02 0.  1.
       -2   -1    0    0    0  501  0.00000000000E+00  0.00000000000E+00 -0.13879428581E+04  0.13879428581E+04  0.25500000920E-02 0. -1.
    10030    2    1    2    0    0  0.00000000000E+00  0.00000000000E+00  0.34543386769E+03  0.31213195839E+04  0.31021462550E+04 0.  0.
        3    1    3    3  502    0  0.68081520740E+02 -0.11525469233E+04 -0.86945910794E+03  0.14453230277E+04  0.10100000352E+00 0. -1.
       -3    1    3    3    0  502 -0.68081520740E+02  0.11525469233E+04  0.12148929756E+04  0.16759965562E+04  0.10100000352E+00 0.  1.
</event>
<event>
 5   0  0.4134019E-07  0.3076944E+04  0.7818609E-02  0.8222094E-01
        1   -1    0    0  501    0  0.00000000000E+00  0.00000000000E+00  0.19019859053E+04  0.19019859053E+04  0.50400001928E-02 0. -1.
       -1   -1    0    0    0  501  0.00000000000E+00  0.00000000000E+00 -0.12444343051E+04  0.12444343051E+04  0.50400001928E-02 0.  1.
    10030    2    1    2    0    0  0.00000000000E+00  0.00000000000E+00  0.65755160020E+03  0.31464202104E+04  0.30769442688E+04 0.  0.
        2    1    3    3  502    0  0.16310978278E+03 -0.36384266183E+03 -0.11906790445E+04  0.12556682965E+04  0.25500000920E-02 0.  1.
       -2    1    3    3    0  502 -0.16310978278E+03  0.36384266183E+03  0.18482306447E+04  0.18907519139E+04  0.25500000920E-02 0. -1.
</event>
<event>
 5   0  0.1258262E-06  0.3106276E+04  0.7818609E-02  0.8214018E-01
        2   -1    0    0  501    0  0.00000000000E+00  0.00000000000E+00  0.14218800902E+04  0.14218800902E+04  0.25500000920E-02 0. -1.
       -2   -1    0    0    0  501  0.00000000000E+00  0.00000000000E+00 -0.16965127589E+04  0.16965127589E+04  0.25500000920E-02 0.  1.
    10030    2    1    2    0    0  0.00000000000E+00  0.00000000000E+00 -0.27463266877E+03  0.31183928491E+04  0.31062760435E+04 0.  0.
        1    1    3    3  502    0 -0.13294475324E+04  0.23840142048E+03 -0.90710055328E+03  0.16269902865E+04  0.50400001928E-02 0.  1.
       -1    1    3    3    0  502  0.13294475324E+04 -0.23840142048E+03  0.63246788451E+03  0.14914025626E+04  0.50400001928E-02 0. -1.
</event>
<event>
 5   0  0.4330395E-07  0.3093441E+04  0.7818609E-02  0.8217540E-01
       -1   -1    0    0    0  501  0.00000000000E+00  0.00000000000E+00  0.24000130039E+04  0.24000130040E+04  0.50400001928E-02 0. -1.
        1   -1    0    0  501    0  0.00000000000E+00  0.00000000000E+00 -0.99680458479E+03  0.99680458480E+03  0.50400001928E-02 0.  1.
    10030    2    1    2    0    0  0.00000000000E+00  0.00000000000E+00  0.14032084192E+04  0.33968175888E+04  0.30934407807E+04 0.  0.
        1    1    3    3  502    0 -0.68367662820E+03 -0.90968076522E+03 -0.44870633588E+03  0.12232212402E+04  0.50400001928E-02 0.  1.
       -1    1    3    3    0  502  0.68367662820E+03  0.90968076522E+03  0.18519147550E+04  0.21735963486E+04  0.50400001928E-02 0. -1.
</event>
<event>
 5   0  0.1176002E-06  0.3106760E+04  0.7818609E-02  0.8213885E-01
        2   -1    0    0  501    0  0.00000000000E+00  0.00000000000E+00  0.17863991388E+04  0.17863991388E+04  0.25500000920E-02 0. -1.
       -2   -1    0    0    0  501  0.00000000000E+00  0.00000000000E+00 -0.13507558052E+04  0.13507558052E+04  0.25500000920E-02 0.  1.
    10030    2    1    2    0    0  0.00000000000E+00  0.00000000000E+00  0.43564333360E+03  0.31371549440E+04  0.31067597314E+04 0.  0.
        2    1    3    3  502    0 -0.64715198025E+03 -0.63584195325E+03  0.14910655919E+04  0.17453874281E+04  0.25500000920E-02 0. -1.
       -2    1    3    3    0  502  0.64715198025E+03  0.63584195325E+03 -0.10554222583E+04  0.13917675159E+04  0.25500000920E-02 0.  1.
</event>
<event>
 5   0  0.3935852E-07  0.3014426E+04  0.7818609E-02  0.8239623E-01
       -1   -1    0    0    0  501  0.00000000000E+00  0.00000000000E+00  0.14653592083E+04  0.14653592083E+04  0.50400001928E-02 0.  1.
        1   -1    0    0  501    0  0.00000000000E+00  0.00000000000E+00 -0.15502621103E+04  0.15502621103E+04  0.50400001928E-02 0. -1.
    10030    2    1    2    0    0  0.00000000000E+00  0.00000000000E+00 -0.84902902060E+02  0.30156213186E+04  0.30144258881E+04 0.  0.
        5    1    3    3  502    0 -0.53429514994E+03  0.13815715157E+04 -0.32087389156E+03  0.15156494662E+04  0.46999998093E+01 0. -1.
       -5    1    3    3    0  502  0.53429514994E+03 -0.13815715157E+04  0.23597098950E+03  0.14999718524E+04  0.46999998093E+01 0.  1.
</event>
<event>
 5   0  0.1200286E-06  0.3097595E+04  0.7818609E-02  0.8216398E-01
        2   -1    0    0  501    0  0.00000000000E+00  0.00000000000E+00  0.27016374804E+04  0.27016374804E+04  0.25500000920E-02 0. -1.
       -2   -1    0    0    0  501  0.00000000000E+00  0.00000000000E+00 -0.88789612341E+03  0.88789612341E+03  0.25500000920E-02 0.  1.
    10030    2    1    2    0    0  0.00000000000E+00  0.00000000000E+00  0.18137413570E+04  0.35895336038E+04  0.30975948384E+04 0.  0.
        5    1    3    3  502    0 -0.99017105638E+03  0.39479086854E+02 -0.47243537032E+03  0.10978226580E+04  0.46999998093E+01 0.  1.
       -5    1    3    3    0  502  0.99017105638E+03 -0.39479086854E+02  0.22861767273E+04  0.24917109458E+04  0.46999998093E+01 0. -1.
</event>
<event>
 5   0  0.4219337E-07  0.3101749E+04  0.7818609E-02  0.8215258E-01
        1   -1    0    0  501    0  0.00000000000E+00  0.00000000000E+00  0.22577386286E+04  0.22577386286E+04  0.50400001928E-02 0.  1.
       -1   -1    0    0    0  501  0.00000000000E+00  0.00000000000E+00 -0.10653188337E+04  0.10653188337E+04  0.50400001928E-02 0. -1.
    10030    2    1    2    0    0  0.00000000000E+00  0.00000000000E+00  0.11924197950E+04  0.33230574623E+04  0.31017488503E+04 0.  0.
        4    1    3    3  502    0  0.52119071881E+03 -0.13328906181E+04 -0.43891427249E+02  0.14318398079E+04  0.12699999809E+01 0. -1.
       -4    1    3    3    0  502 -0.52119071881E+03  0.13328906181E+04  0.12363112222E+04  0.18912176544E+04  0.12699999809E+01 0.  1.
</event>
<event>
 5   0  0.1237580E-06  0.3096163E+04  0.7818609E-02  0.8216792E-01
       -2   -1    0    0    0  501  0.00000000000E+00  0.00000000000E+00  0.15352532304E+04  0.15352532305E+04  0.25500000920E-02 0.  1.
        2   -1    0    0  501    0  0.00000000000E+00  0.00000000000E+00 -0.15610171258E+04  0.15610171258E+04  0.25500000920E-02 0. -1.
    10030    2    1    2    0    0  0.00000000000E+00  0.00000000000E+00 -0.25763895386E+02  0.30962703563E+04  0.30961631645E+04 0.  0.
        4    1    3    3  502    0 -0.38658011518E+03 -0.69514926073E+03 -0.13410387262E+04  0.15591866977E+04  0.12699999809E+01 0. -1.
       -4    1    3    3    0  502  0.38658011518E+03  0.69514926073E+03  0.13152748308E+04  0.15370836586E+04  0.12699999809E+01 0.  1.
</event>
<event>
 5   0  0.4330395E-07  0.3027249E+04  0.7818609E-02  0.8235992E-01
        1   -1    0    0  501    0  0.00000000000E+00  0.00000000000E+00  0.13711358412E+04  0.13711358412E+04  0.50400001928E-02 0.  1.
       -1   -1    0    0    0  501  0.00000000000E+00  0.00000000000E+00 -0.16709208388E+04  0.16709208388E+04  0.50400001928E-02 0. -1.
    10030    2    1    2    0    0  0.00000000000E+00  0.00000000000E+00 -0.29978499754E+03  0.30420566800E+04  0.30272492133E+04 0.  0.
        1    1    3    3  502    0  0.33344132794E+03  0.14751197977E+04 -0.87153844758E+02  0.15148456454E+04  0.50400001928E-02 0. -1.
       -1    1    3    3    0  502 -0.33344132794E+03 -0.14751197977E+04 -0.21263115278E+03  0.15272110345E+04  0.50400001928E-02 0.  1.
</event>
<event>
 5   0  0.1258262E-06  0.3052629E+04  0.7818609E-02  0.8228860E-01
       -2   -1    0    0    0  501  0.00000000000E+00  0.00000000000E+00  0.31046979834E+04  0.31046979834E+04  0.25500000920E-02 0.  1.
        2   -1    0    0  501    0  0.00000000000E+00  0.00000000000E+00 -0.75035840404E+03  0.75035840404E+03  0.25500000920E-02 0. -1.
    10030    2    1    2    0    0  0.00000000000E+00  0.00000000000E+00  0.23543395793E+04  0.38550563874E+04  0.30526291775E+04 0.  0.
        1    1    3    3  502    0 -0.14233694392E+04  0.37020742788E+03  0.16926321409E+04  0.22423286255E+04  0.50400001928E-02 0.  1.
       -1    1    3    3    0  502  0.14233694392E+04 -0.37020742788E+03  0.66170743839E+03  0.16127277619E+04  0.50400001928E-02 0. -1.
</event>
<event>
 5   0  0.4219337E-07  0.3102911E+04  0.7818609E-02  0.8214939E-01
        1   -1    0    0  501    0  0.00000000000E+00  0.00000000000E+00  0.21344987183E+04  0.21344987183E+04  0.50400001928E-02 0. -1.
       -1   -1    0    0    0  501  0.00000000000E+00  0.00000000000E+00 -0.11276721489E+04  0.11276721489E+04  0.50400001928E-02 0.  1.
    10030    2    1    2    0    0  0.00000000000E+00  0.00000000000E+00  0.10068265695E+04  0.32621708672E+04  0.31029113790E+04 0.  0.
        4    1    3    3  502    0 -0.81292852525E+03  0.10178897438E+03  0.18885323113E+04  0.20585843889E+04  0.12699999809E+01 0. -1.
       -4    1    3    3    0  502  0.81292852525E+03 -0.10178897438E+03 -0.88170574189E+03  0.12035864783E+04  0.12699999809E+01 0.  1.
</event>
<event>
 5   0  0.1193123E-06  0.3126097E+04  0.7818609E-02  0.8208612E-01
       -2   -1    0    0    0  501  0.00000000000E+00  0.00000000000E+00  0.92511644777E+03  0.92511644777E+03  0.25500000920E-02 0. -1.
        2   -1    0    0  501    0  0.00000000000E+00  0.00000000000E+00 -0.26408789497E+04  0.26408789497E+04  0.25500000920E-02 0.  1.
    10030    2    1    2    0    0  0.00000000000E+00  0.00000000000E+00 -0.17157625019E+04  0.35659953975E+04  0.31260969613E+04 0.  0.
        3    1    3    3  502    0 -0.12522424774E+04  0.93231995187E+03 -0.94467204296E+03  0.18247566944E+04  0.10100000352E+00 0. -1.
       -3    1    3    3    0  502  0.12522424774E+04 -0.93231995187E+03 -0.77109045895E+03  0.17412387030E+04  0.10100000352E+00 0.  1.
</event>
<event>
 5   0  0.4173905E-07  0.3060343E+04  0.7818609E-02  0.8226706E-01
       -1   -1    0    0    0  501  0.00000000000E+00  0.00000000000E+00  0.13934495824E+04  0.13934495824E+04  0.50400001928E-02 0.  1.
        1   -1    0    0  501    0  0.00000000000E+00  0.00000000000E+00 -0.16803081981E+04  0.16803081981E+04  0.50400001928E-02 0. -1.
    10030    2    1    2    0    0  0.00000000000E+00  0.00000000000E+00 -0.28685861571E+03  0.30737577806E+04  0.30603429592E+04 0.  0.
        3    1    3    3  502    0  0.14480490730E+03 -0.92143609782E+03 -0.13617641380E+04  0.16505800560E+04  0.10100000352E+00 0. -1.
       -3    1    3    3    0  502 -0.14480490730E+03  0.92143609782E+03  0.10749055223E+04  0.14231777245E+04  0.10100000352E+00 0.  1.
</event>
<event>
 5   0  0.1258262E-06  0.3094845E+04  0.7818609E-02  0.8217154E-01
       -2   -1    0    0    0  501  0.00000000000E+00  0.00000000000E+00  0.14556153966E+04  0.14556153966E+04  0.25500000920E-02 0.  1.
        2   -1    0    0  501    0  0.00000000000E+00  0.00000000000E+00 -0.16450203231E+04  0.16450203231E+04  0.25500000920E-02 0. -1.
    10030    2    1    2    0    0  0.00000000000E+00  0.00000000000E+00 -0.18940492649E+03  0.31006357197E+04  0.30948453338E+04 0.  0.
        1    1    3    3  502    0  0.13035370774E+04  0.28703291692E+03 -0.87905937662E+03  0.15982309580E+04  0.50400001928E-02 0. -1.
       -1    1    3    3    0  502 -0.13035370774E+04 -0.28703291692E+03  0.68965445013E+03  0.15024047617E+04  0.50400001928E-02 0.  1.
</event>
<event>
 5   0  0.4219337E-07  0.3127232E+04  0.7818609E-02  0.8208304E-01
        1   -1    0    0  501    0  0.00000000000E+00  0.00000000000E+00  0.22561022529E+04  0.22561022529E+04  0.50400001928E-02 0. -1.
       -1   -1    0    0    0  501  0.00000000000E+00  0.00000000000E+00 -0.10836807812E+04  0.10836807812E+04  0.50400001928E-02 0.  1.
    10030    2    1    2    0    0  0.00000000000E+00  0.00000000000E+00  0.11724214717E+04  0.33397830342E+04  0.31272317803E+04 0.  0.
        4    1    3    3  502    0  0.18371319844E+03  0.68884444686E+03  0.20724275293E+04  0.21916237561E+04  0.12699999809E+01 0. -1.
       -4    1    3    3    0  502 -0.18371319844E+03 -0.68884444686E+03 -0.90000605758E+03  0.11481592781E+04  0.12699999809E+01 0.  1.
</event>
<event>
 5   0  0.1193123E-06  0.3117352E+04  0.7818609E-02  0.8210992E-01
        2   -1    0    0  501    0  0.00000000000E+00  0.00000000000E+00  0.14019219848E+04  0.14019219848E+04  0.25500000920E-02 0. -1.
       -2   -1    0    0    0  501  0.00000000000E+00  0.00000000000E+00 -0.17329567666E+04  0.17329567666E+04  0.25500000920E-02 0.  1.
    10030    2    1    2    0    0  0.00000000000E+00  0.00000000000E+00 -0.33103478175E+03  0.31348787514E+04  0.31173515617E+04 0.  0.
        3    1    3    3  502    0  0.34332710211E+03  0.10045455183E+04 -0.13131987492E+04  0.16886314466E+04  0.10100000352E+00 0.  1.
       -3    1    3    3    0  502 -0.34332710211E+03 -0.10045455183E+04  0.98216396742E+03  0.14462473048E+04  0.10100000352E+00 0. -1.
</event>
<event>
 5   0  0.4219337E-07  0.3110048E+04  0.7818609E-02  0.8212986E-01
       -1   -1    0    0    0  501  0.00000000000E+00  0.00000000000E+00  0.11374524744E+04  0.11374524744E+04  0.50400001928E-02 0. -1.
        1   -1    0    0  501    0  0.00000000000E+00  0.00000000000E+00 -0.21258911775E+04  0.21258911775E+04  0.50400001928E-02 0.  1.
    10030    2    1    2    0    0  0.00000000000E+00  0.00000000000E+00 -0.98843870308E+03  0.32633436520E+04  0.31100483471E+04 0.  0.
        4    1    3    3  502    0  0.73652697751E+03  0.11430000697E+04 -0.12858443517E+04  0.18714482246E+04  0.12699999809E+01 0.  1.
       -4    1    3    3    0  502 -0.73652697751E+03 -0.11430000697E+04  0.29740564858E+03  0.13918954273E+04  0.12699999809E+01 0. -1.
</event>
<event>
 5   0  0.3902375E-07  0.3085923E+04  0.7818609E-02  0.8219612E-01
        3   -1    0    0  501    0  0.00000000000E+00  0.00000000000E+00  0.13944489428E+04  0.13944489464E+04  0.10100000352E+00 0. -1.
       -3   -1    0    0    0  501  0.00000000000E+00  0.00000000000E+00 -0.17072915235E+04  0.17072915265E+04  0.10100000352E+00 0.  1.
    10030    2    1    2    0    0  0.00000000000E+00  0.00000000000E+00 -0.31284258075E+03  0.31017404729E+04  0.30859234406E+04 0.  0.
        4    1    3    3  502    0  0.13982973198E+04 -0.62544063635E+03 -0.34262164045E+03  0.15696504660E+04  0.12699999809E+01 0.  1.
       -4    1    3    3    0  502 -0.13982973198E+04  0.62544063635E+03  0.29779059698E+02  0.15320900069E+04  0.12699999809E+01 0. -1.
</event>
<event>
 5   0  0.4219337E-07  0.3100624E+04  0.7818609E-02  0.8215567E-01
       -1   -1    0    0    0  501  0.00000000000E+00  0.00000000000E+00  0.15040177109E+04  0.15040177109E+04  0.50400001928E-02 0. -1.
        1   -1    0    0  501    0  0.00000000000E+00  0.00000000000E+00 -0.15980308465E+04  0.15980308465E+04  0.50400001928E-02 0.  1.
    10030    2    1    2    0    0  0.00000000000E+00  0.00000000000E+00 -0.94013135519E+02  0.31020485574E+04  0.31006236119E+04 0.  0.
        4    1    3    3  502    0  0.17605760176E+03  0.40987441471E+03 -0.15324352736E+04  0.15960428552E+04  0.12699999809E+01 0.  1.
       -4    1    3    3    0  502 -0.17605760176E+03 -0.40987441471E+03  0.14384221381E+04  0.15060057022E+04  0.12699999809E+01 0. -1.
</event>
<event>
 5   0  0.3935852E-07  0.3045244E+04  0.7818609E-02  0.8230928E-01
        1   -1    0    0  501    0  0.00000000000E+00  0.00000000000E+00  0.20321839962E+04  0.20321839962E+04  0.50400001928E-02 0. -1.
       -1   -1    0    0    0  501  0.00000000000E+00  0.00000000000E+00 -0.11408309879E+04  0.11408309879E+04  0.50400001928E-02 0.  1.
    10030    2    1    2    0    0  0.00000000000E+00  0.00000000000E+00  0.89135300829E+03  0.31730149841E+04  0.30452444736E+04 0.  0.
        5    1    3    3  502    0  0.91851132790E+02  0.98671617058E+03 -0.75881495134E+03  0.12481456855E+04  0.46999998093E+01 0.  1.
       -5    1    3    3    0  502 -0.91851132790E+02 -0.98671617058E+03  0.16501679596E+04  0.19248692986E+04  0.46999998093E+01 0. -1.
</event>
<event>
 5   0  0.1176002E-06  0.3092923E+04  0.7818609E-02  0.8217683E-01
        2   -1    0    0  501    0  0.00000000000E+00  0.00000000000E+00  0.13006946649E+04  0.13006946649E+04  0.25500000920E-02 0.  1.
       -2   -1    0    0    0  501  0.00000000000E+00  0.00000000000E+00 -0.18386656716E+04  0.18386656716E+04  0.25500000920E-02 0. -1.
    10030    2    1    2    0    0  0.00000000000E+00  0.00000000000E+00 -0.53797100675E+03  0.31393603365E+04  0.30929226499E+04 0.  0.
        2    1    3    3  502    0 -0.97237338111E+03  0.21726520996E+03 -0.14694638715E+04  0.17753980493E+04  0.25500000920E-02 0. -1.
       -2    1    3    3    0  502  0.97237338111E+03 -0.21726520996E+03  0.93149286475E+03  0.13639622872E+04  0.25500000920E-02 0.  1.
</event>
<event>
 5   0  0.1237580E-06  0.3093725E+04  0.7818609E-02  0.8217462E-01
        2   -1    0    0  501    0  0.00000000000E+00  0.00000000000E+00  0.20797018983E+04  0.20797018983E+04  0.25500000920E-02 0.  1.
       -2   -1    0    0    0  501  0.00000000000E+00  0.00000000000E+00 -0.11505417043E+04  0.11505417043E+04  0.25500000920E-02 0. -1.
    10030    2    1    2    0    0  0.00000000000E+00  0.00000000000E+00  0.92916019397E+03  0.32302436025E+04  0.30937251115E+04 0.  0.
        4    1    3    3  502    0 -0.15335906171E+04  0.50453575599E+02  0.26014320492E+03  0.15563167557E+04  0.12699999809E+01 0. -1.
       -4    1    3    3    0  502  0.15335906171E+04 -0.50453575599E+02  0.66901698905E+03  0.16739268469E+04  0.12699999809E+01 0.  1.
</event>
<event>
 5   0  0.1200286E-06  0.3100257E+04  0.7818609E-02  0.8215667E-01
        2   -1    0    0  501    0  0.00000000000E+00  0.00000000000E+00  0.23139026951E+04  0.23139026951E+04  0.25500000920E-02 0. -1.
       -2   -1    0    0    0  501  0.00000000000E+00  0.00000000000E+00 -0.10384612356E+04  0.10384612356E+04  0.25500000920E-02 0.  1.
    10030    2    1    2    0    0  0.00000000000E+00  0.00000000000E+00  0.12754414595E+04  0.33523639307E+04  0.31002569260E+04 0.  0.
        5    1    3    3  502    0 -0.20896404060E+03 -0.52480343173E+03  0.21986406000E+04  0.22700500413E+04  0.46999998093E+01 0. -1.
       -5    1    3    3    0  502  0.20896404060E+03  0.52480343173E+03 -0.92319914045E+03  0.10823138894E+04  0.46999998093E+01 0.  1.
</event>
<event>
 5   0  0.3902375E-07  0.3091109E+04  0.7818609E-02  0.8218182E-01
        4   -1    0    0  501    0  0.00000000000E+00  0.00000000000E+00  0.14685922228E+04  0.14685927719E+04  0.12699999809E+01 0.  1.
       -4   -1    0    0    0  501  0.00000000000E+00  0.00000000000E+00 -0.16265491768E+04  0.16265496726E+04  0.12699999809E+01 0. -1.
    10030    2    1    2    0    0  0.00000000000E+00  0.00000000000E+00 -0.15795695403E+03  0.30951424446E+04  0.30911092431E+04 0.  0.
        4    1    3    3  502    0 -0.84384327273E+03 -0.11609681195E+04 -0.65315411330E+03  0.15768736005E+04  0.12699999809E+01 0. -1.
       -4    1    3    3    0  502  0.84384327273E+03  0.11609681195E+04  0.49519715927E+03  0.15182688441E+04  0.12699999809E+01 0.  1.
</event>
<event>
 5   0  0.4219337E-07  0.3050013E+04  0.7818609E-02  0.8229592E-01
       -1   -1    0    0    0  501  0.00000000000E+00  0.00000000000E+00  0.16169145318E+04  0.16169145318E+04  0.50400001928E-02 0. -1.
        1   -1    0    0  501    0  0.00000000000E+00  0.00000000000E+00 -0.14383226983E+04  0.14383226983E+04  0.50400001928E-02 0.  1.
    10030    2    1    2    0    0  0.00000000000E+00  0.00000000000E+00  0.17859183345E+03  0.30552372301E+04  0.30500130310E+04 0.  0.
        4    1    3    3  502    0 -0.35449420222E+03 -0.96635624928E+03 -0.10378570507E+04  0.14617316479E+04  0.12699999809E+01 0.  1.
       -4    1    3    3    0  502  0.35449420222E+03  0.96635624928E+03  0.12164488841E+04  0.15935055822E+04  0.12699999809E+01 0. -1.
</event>
<event>
 5   0  0.4330395E-07  0.3100707E+04  0.7818609E-02  0.8215544E-01
        1   -1    0    0  501    0  0.00000000000E+00  0.00000000000E+00  0.17877862329E+04  0.17877862329E+04  0.50400001928E-02 0. -1.
       -1   -1    0    0    0  501  0.00000000000E+00  0.00000000000E+00 -0.13444536247E+04  0.13444536247E+04  0.50400001928E-02 0.  1.
    10030    2    1    2    0    0  0.00000000000E+00  0.00000000000E+00  0.44333260823E+03  0.31322398576E+04  0.31007068104E+04 0.  0.
        1    1    3    3  502    0 -0.53310917045E+03 -0.42183639078E+02  0.16916664694E+04  0.17741815834E+04  0.50400001928E-02 0. -1.
       -1    1    3    3    0  502  0.53310917045E+03  0.42183639078E+02 -0.12483338612E+04  0.13580582742E+04  0.50400001928E-02 0.  1.
</event>
<event>
 5   0  0.1193123E-06  0.3102565E+04  0.7818609E-02  0.8215034E-01
        2   -1    0    0  501    0  0.00000000000E+00  0.00000000000E+00  0.75770821046E+03  0.75770821046E+03  0.25500000920E-02 0.  1.
       -2   -1    0    0    0  501  0.00000000000E+00  0.00000000000E+00 -0.31759954748E+04  0.31759954748E+04  0.25500000920E-02 0. -1.
    10030    2    1    2    0    0  0.00000000000E+00  0.00000000000E+00 -0.24182872643E+04  0.39337036853E+04  0.31025652919E+04 0.  0.
        3    1    3    3  502    0 -0.46436206910E+03 -0.14641311995E+04 -0.93378854540E+03  0.17975742984E+04  0.10100000352E+00 0. -1.
       -3    1    3    3    0  502  0.46436206910E+03  0.14641311995E+04 -0.14844987189E+04  0.21361293868E+04  0.10100000352E+00 0.  1.
</event>
<event>
 5   0  0.1258262E-06  0.3075213E+04  0.7818609E-02  0.8222573E-01
       -2   -1    0    0    0  501  0.00000000000E+00  0.00000000000E+00  0.15460847314E+04  0.15460847314E+04  0.25500000920E-02 0. -1.
        2   -1    0    0  501    0  0.00000000000E+00  0.00000000000E+00 -0.15291751617E+04  0.15291751617E+04  0.25500000920E-02 0.  1.
    10030    2    1    2    0    0  0.00000000000E+00  0.00000000000E+00  0.16909569624E+02  0.30752598931E+04  0.30752134034E+04 0.  0.
        1    1    3    3  502    0  0.21797902009E+03 -0.76411245877E+03  0.13248529235E+04  0.15448682701E+04  0.50400001928E-02 0. -1.
       -1    1    3    3    0  502 -0.21797902009E+03  0.76411245877E+03 -0.13079433539E+04  0.15303916231E+04  0.50400001928E-02 0.  1.
</event>
<event>
 5   0  0.1200286E-06  0.3094141E+04  0.7818609E-02  0.8217348E-01
       -2   -1    0    0    0  501  0.00000000000E+00  0.00000000000E+00  0.13273349980E+04  0.13273349980E+04  0.25500000920E-02 0.  1.
        2   -1    0    0  501    0  0.00000000000E+00  0.00000000000E+00 -0.18031819514E+04  0.18031819514E+04  0.25500000920E-02 0. -1.
    10030    2    1    2    0    0  0.00000000000E+00  0.00000000000E+00 -0.47584695334E+03  0.31305169494E+04  0.30941405992E+04 0.  0.
        5    1    3    3  502    0 -0.11354427884E+04 -0.10301748915E+04 -0.44751535319E+03  0.15971170008E+04  0.46999998093E+01 0. -1.
       -5    1    3    3    0  502  0.11354427884E+04  0.10301748915E+04 -0.28331600150E+02  0.15333999486E+04  0.46999998093E+01 0.  1.
</event>
<event>
 5   0  0.4173905E-07  0.3100365E+04  0.7818609E-02  0.8215638E-01
        1   -1    0    0  501    0  0.00000000000E+00  0.00000000000E+00  0.15839364223E+04  0.15839364223E+04  0.50400001928E-02 0. -1.
       -1   -1    0    0    0  501  0.00000000000E+00  0.00000000000E+00 -0.15171478654E+04  0.15171478654E+04  0.50400001928E-02 0.  1.
    10030    2    1    2    0    0  0.00000000000E+00  0.00000000000E+00  0.66788556844E+02  0.31010842877E+04  0.31003649863E+04 0.  0.
        3    1    3    3  502    0  0.13752686609E+04  0.47747047828E+03 -0.49938660609E+03  0.15390675553E+04  0.10100000352E+00 0.  1.
       -3    1    3    3    0  502 -0.13752686609E+04 -0.47747047828E+03  0.56617516293E+03  0.15620167325E+04  0.10100000352E+00 0. -1.
</event>
<event>
 5   0  0.1176002E-06  0.3097187E+04  0.7818609E-02  0.8216510E-01
       -2   -1    0    0    0  501  0.00000000000E+00  0.00000000000E+00  0.12982618474E+04  0.12982618474E+04  0.25500000920E-02 0.  1.
        2   -1    0    0  501    0  0.00000000000E+00  0.00000000000E+00 -0.18471940272E+04  0.18471940272E+04  0.25500000920E-02 0. -1.
    10030    2    1    2    0    0  0.00000000000E+00  0.00000000000E+00 -0.54893217987E+03  0.31454558746E+04  0.30971868076E+04 0.  0.
        2    1    3    3  502    0 -0.10197100101E+04  0.95157887761E+03  0.40894828737E+03  0.14534612368E+04  0.25500000920E-02 0.  1.
       -2    1    3    3    0  502  0.10197100101E+04 -0.95157887761E+03 -0.95788046724E+03  0.16919946379E+04  0.25500000920E-02 0. -1.
</event>
<event>
 5   0  0.4330395E-07  0.3093915E+04  0.7818609E-02  0.8217410E-01
       -1   -1    0    0    0  501  0.00000000000E+00  0.00000000000E+00  0.22352880856E+04  0.22352880856E+04  0.50400001928E-02 0.  1.
        1   -1    0    0  501    0  0.00000000000E+00  0.00000000000E+00 -0.10705900591E+04  0.10705900591E+04  0.50400001928E-02 0. -1.
    10030    2    1    2    0    0  0.00000000000E+00  0.00000000000E+00  0.11646980265E+04  0.33058781446E+04  0.30939148040E+04 0.  0.
        1    1    3    3  502    0 -0.81770541955E+03  0.78775291773E+03 -0.54028837072E+03  0.12574213041E+04  0.50400001928E-02 0. -1.
       -1    1    3    3    0  502  0.81770541955E+03 -0.78775291773E+03  0.17049863972E+04  0.20484568405E+04  0.50400001928E-02 0.  1.
</event>
<event>
 5   0  0.1193123E-06  0.3096968E+04  0.7818609E-02  0.8216571E-01
        2   -1    0    0  501    0  0.00000000000E+00  0.00000000000E+00  0.15452555193E+04  0.15452555193E+04  0.25500000920E-02 0.  1.
       -2   -1    0    0    0  501  0.00000000000E+00  0.00000000000E+00 -0.15517191365E+04  0.15517191365E+04  0.25500000920E-02 0. -1.
    10030    2    1    2    0    0  0.00000000000E+00  0.00000000000E+00 -0.64636172654E+01  0.30969746558E+04  0.30969679108E+04 0.  0.
        3    1    3    3  502    0  0.14245136520E+04  0.50706227395E+03  0.33061207841E+03  0.15477905708E+04  0.10100000352E+00 0.  1.
       -3    1    3    3    0  502 -0.14245136520E+04 -0.50706227395E+03 -0.33707569567E+03  0.15491840850E+04  0.10100000352E+00 0. -1.
</event>
<event>
 5   0  0.1176002E-06  0.3104880E+04  0.7818609E-02  0.8214400E-01
       -2   -1    0    0    0  501  0.00000000000E+00  0.00000000000E+00  0.21426988224E+04  0.21426988224E+04  0.25500000920E-02 0.  1.
        2   -1    0    0  501    0  0.00000000000E+00  0.00000000000E+00 -0.11247826173E+04  0.11247826173E+04  0.25500000920E-02 0. -1.
    10030    2    1    2    0    0  0.00000000000E+00  0.00000000000E+00  0.10179162051E+04  0.32674814396E+04  0.31048802807E+04 0.  0.
        2    1    3    3  502    0  0.11091866727E+04 -0.77438677729E+03 -0.29257205120E+03  0.13840405922E+04  0.25500000920E-02 0. -1.
       -2    1    3    3    0  502 -0.11091866727E+04  0.77438677729E+03  0.13104882563E+04  0.18834408474E+04  0.25500000920E-02 0.  1.
</event>
<event>
 5   0  0.4173905E-07  0.3096998E+04  0.7818609E-02  0.8216562E-01
       -1   -1    0    0    0  501  0.00000000000E+00  0.00000000000E+00  0.14783442521E+04  0.14783442521E+04  0.50400001928E-02 0. -1.
        1   -1    0    0  501    0  0.00000000000E+00  0.00000000000E+00 -0.16219833641E+04  0.16219833642E+04  0.50400001928E-02 0.  1.
    10030    2    1    2    0    0  0.00000000000E+00  0.00000000000E+00 -0.14363911208E+03  0.31003276162E+04  0.30969984071E+04 0.  0.
        3    1    3    3  502    0 -0.37629681281E+03  0.14399906374E+04  0.35604772008E+03  0.15303405884E+04  0.10100000352E+00 0. -1.
       -3    1    3    3    0  502  0.37629681281E+03 -0.14399906374E+04 -0.49968683216E+03  0.15699870279E+04  0.10100000352E+00 0.  1.
</event>
<event>
 5   0  0.1200286E-06  0.3103463E+04  0.7818609E-02  0.8214788E-01
       -2   -1    0    0    0  501  0.00000000000E+00  0.00000000000E+00  0.24956536118E+04  0.24956536118E+04  0.25500000920E-02 0. -1.
        2   -1    0    0  501    0  0.00000000000E+00  0.00000000000E+00 -0.96482590373E+03  0.96482590373E+03  0.25500000920E-02 0.  1.
    10030    2    1    2    0    0  0.00000000000E+00  0.00000000000E+00  0.15308277081E+04  0.34604795155E+04  0.31034633888E+04 0.  0.
        5    1    3    3  502    0 -0.41515741365E+03 -0.13240545305E+04 -0.90144002778E+01  0.13876524879E+04  0.46999998093E+01 0.  1.
       -5    1    3    3    0  502  0.41515741365E+03  0.13240545305E+04  0.15398421084E+04  0.20728270276E+04  0.46999998093E+01 0. -1.
</event>
<event>
 5   0  0.1176002E-06  0.3082314E+04  0.7818609E-02  0.8220608E-01
       -2   -1    0    0    0  501  0.00000000000E+00  0.00000000000E+00  0.91242926155E+03  0.91242926155E+03  0.25500000920E-02 0. -1.
        2   -1    0    0  501    0  0.00000000000E+00  0.00000000000E+00 -0.26031222226E+04  0.26031222226E+04  0.25500000920E-02 0.  1.
    10030    2    1    2    0    0  0.00000000000E+00  0.00000000000E+00 -0.16906929610E+04  0.35155514841E+04  0.30823139926E+04 0.  0.
        2    1    3    3  502    0  0.85556116078E+03  0.26263050465E+03  0.58567863718E+03  0.10695696087E+04  0.25500000920E-02 0. -1.
       -2    1    3    3    0  502 -0.85556116078E+03 -0.26263050465E+03 -0.22763715982E+04  0.24459818754E+04  0.25500000920E-02 0.  1.
</event>
<event>
 5   0  0.1200286E-06  0.3107423E+04  0.7818609E-02  0.8213704E-01
       -2   -1    0    0    0  501  0.00000000000E+00  0.00000000000E+00  0.16860902152E+04  0.16860902152E+04  0.25500000920E-02 0.  1.
        2   -1    0    0  501    0  0.00000000000E+00  0.00000000000E+00 -0.14317261428E+04  0.14317261428E+04  0.25500000920E-02 0. -1.
    10030    2    1    2    0    0  0.00000000000E+00  0.00000000000E+00  0.25436407245E+03  0.31178163580E+04  0.31074230096E+04 0.  0.
        5    1    3    3  502    0 -0.73041479633E+03 -0.13603825612E+04  0.30053393256E+03  0.15730509280E+04  0.46999998093E+01 0. -1.
       -5    1    3    3    0  502  0.73041479633E+03  0.13603825612E+04 -0.46169860111E+02  0.15447654300E+04  0.46999998093E+01 0.  1.
</event>
<event>
 5   0  0.4330395E-07  0.3097372E+04  0.7818609E-02  0.8216460E-01
       -1   -1    0    0    0  501  0.00000000000E+00  0.00000000000E+00  0.15744116998E+04  0.15744116998E+04  0.50400001928E-02 0.  1.
        1   -1    0    0  501    0  0.00000000000E+00  0.00000000000E+00 -0.15233802032E+04  0.15233802032E+04  0.50400001928E-02 0. -1.
    10030    2    1    2    0    0  0.00000000000E+00  0.00000000000E+00  0.51031496637E+02  0.30977919030E+04  0.30973715407E+04 0.  0.
        1    1    3    3  502    0  0.36528729677E+03 -0.14938544289E+04 -0.15724315160E+03  0.15458852715E+04  0.50400001928E-02 0.  1.
       -1    1    3    3    0  502 -0.36528729677E+03  0.14938544289E+04  0.20827464824E+03  0.15519066315E+04  0.50400001928E-02 0. -1.
</event>
<event>
 5   0  0.1237580E-06  0.2909256E+04  0.7818609E-02  0.8270129E-01
        2   -1    0    0  501    0  0.00000000000E+00  0.00000000000E+00  0.15494742299E+04  0.15494742299E+04  0.25500000920E-02 0. -1.
       -2   -1    0    0    0  501  0.00000000000E+00  0.00000000000E+00 -0.13655874330E+04  0.13655874330E+04  0.25500000920E-02 0.  1.
    10030    2    1    2    0    0  0.00000000000E+00  0.00000000000E+00  0.18388679692E+03  0.29150616630E+04  0.29092559435E+04 0.  0.
        4    1    3    3  502    0  0.82330312180E+03 -0.38072546548E+03  0.12313851190E+04  0.15294086552E+04  0.12699999809E+01 0. -1.
       -4    1    3    3    0  502 -0.82330312180E+03  0.38072546548E+03 -0.10474983220E+04  0.13856530078E+04  0.12699999809E+01 0.  1.
</event>
<event>
 5   0  0.1193123E-06  0.3090143E+04  0.7818609E-02  0.8218448E-01
       -2   -1    0    0    0  501  0.00000000000E+00  0.00000000000E+00  0.15593519564E+04  0.15593519564E+04  0.25500000920E-02 0.  1.
        2   -1    0    0  501    0  0.00000000000E+00  0.00000000000E+00 -0.15309217579E+04  0.15309217579E+04  0.25500000920E-02 0. -1.
    10030    2    1    2    0    0  0.00000000000E+00  0.00000000000E+00  0.28430198531E+02  0.30902737142E+04  0.30901429340E+04 0.  0.
        3    1    3    3  502    0  0.35732017789E+03  0.10881463284E+04 -0.10228946938E+04  0.15355955543E+04  0.10100000352E+00 0. -1.
       -3    1    3    3    0  502 -0.35732017789E+03 -0.10881463284E+04  0.10513248924E+04  0.15546781599E+04  0.10100000352E+00 0.  1.
</event>
<event>
 5   0  0.3902375E-07  0.3076822E+04  0.7818609E-02  0.8222128E-01
        4   -1    0    0  501    0  0.00000000000E+00  0.00000000000E+00  0.70483706468E+03  0.70483820884E+03  0.12699999809E+01 0. -1.
       -4   -1    0    0    0  501  0.00000000000E+00  0.00000000000E+00 -0.33578062837E+04  0.33578065239E+04  0.12699999809E+01 0.  1.
    10030    2    1    2    0    0  0.00000000000E+00  0.00000000000E+00 -0.26529692191E+04  0.40626447327E+04  0.30768224757E+04 0.  0.
        2    1    3    3  502    0 -0.53889527244E+03 -0.84325728971E+03  0.21630759548E+03  0.10238554328E+04  0.25500000920E-02 0. -1.
       -2    1    3    3    0  502  0.53889527244E+03  0.84325728971E+03 -0.28692768145E+04  0.30387893000E+04  0.25500000920E-02 0.  1.
</event>
<event>
 5   0  0.1193123E-06  0.3101838E+04  0.7818609E-02  0.8215234E-01
        2   -1    0    0  501    0  0.00000000000E+00  0.00000000000E+00  0.28992020455E+04  0.28992020455E+04  0.25500000920E-02 0.  1.
       -2   -1    0    0    0  501  0.00000000000E+00  0.00000000000E+00 -0.82965930044E+03  0.82965930045E+03  0.25500000920E-02 0. -1.
    10030    2    1    2    0    0  0.00000000000E+00  0.00000000000E+00  0.20695427450E+04  0.37288613459E+04  0.31018381266E+04 0.  0.
        3    1    3    3  502    0  0.63638722858E+03  0.81301303206E+03 -0.35648624897E+03  0.10922734781E+04  0.10100000352E+00 0. -1.
       -3    1    3    3    0  502 -0.63638722858E+03 -0.81301303206E+03  0.24260289940E+04  0.26365878679E+04  0.10100000352E+00 0.  1.
</event>
<event>
 5   0  0.4173905E-07  0.3095082E+04  0.7818609E-02  0.8217089E-01
       -1   -1    0    0    0  501  0.00000000000E+00  0.00000000000E+00  0.15430000643E+04  0.15430000643E+04  0.50400001928E-02 0. -1.
        1   -1    0    0  501    0  0.00000000000E+00  0.00000000000E+00 -0.15520957969E+04  0.15520957969E+04  0.50400001928E-02 0.  1.
    10030    2    1    2    0    0  0.00000000000E+00  0.00000000000E+00 -0.90957325626E+01  0.30950958612E+04  0.30950824961E+04 0.  0.
        3    1    3    3  502    0  0.11013342210E+04  0.10871573147E+04 -0.10532125279E+02  0.15475655169E+04  0.10100000352E+00 0.  1.
       -3    1    3    3    0  502 -0.11013342210E+04 -0.10871573147E+04  0.14363927162E+01  0.15475303443E+04  0.10100000352E+00 0. -1.
</event>
<event>
 5   0  0.4173905E-07  0.3105698E+04  0.7818609E-02  0.8214176E-01
       -1   -1    0    0    0  501  0.00000000000E+00  0.00000000000E+00  0.11666322208E+04  0.11666322208E+04  0.50400001928E-02 0.  1.
        1   -1    0    0  501    0  0.00000000000E+00  0.00000000000E+00 -0.20669239688E+04  0.20669239688E+04  0.50400001928E-02 0. -1.
    10030    2    1    2    0    0  0.00000000000E+00  0.00000000000E+00 -0.90029174800E+03  0.32335561895E+04  0.31056980535E+04 0.  0.
        3    1    3    3  502    0  0.73560302052E+02  0.40512877105E+02  0.11642662024E+04  0.11672909713E+04  0.10100000352E+00 0.  1.
       -3    1    3    3    0  502 -0.73560302052E+02 -0.40512877105E+02 -0.20645579504E+04  0.20662652183E+04  0.10100000352E+00 0. -1.
</event>
<event>
 5   0  0.1237580E-06  0.3103248E+04  0.7818609E-02  0.8214847E-01
       -2   -1    0    0    0  501  0.00000000000E+00  0.00000000000E+00  0.11142932245E+04  0.11142932245E+04  0.25500000920E-02 0.  1.
        2   -1    0    0  501    0  0.00000000000E+00  0.00000000000E+00 -0.21605955769E+04  0.21605955769E+04  0.25500000920E-02 0. -1.
    10030    2    1    2    0    0  0.00000000000E+00  0.00000000000E+00 -0.10463023523E+04  0.32748888014E+04  0.31032479838E+04 0.  0.
        4    1    3    3  502    0  0.72415500675E+02 -0.81010153861E+03 -0.19176095043E+04  0.20829633534E+04  0.12699999809E+01 0. -1.
       -4    1    3    3    0  502 -0.72415500675E+02  0.81010153861E+03  0.87130715199E+03  0.11919254480E+04  0.12699999809E+01 0.  1.
</event>
<event>
 5   0  0.3935852E-07  0.3019209E+04  0.7818609E-02  0.8238267E-01
       -1   -1    0    0    0  501  0.00000000000E+00  0.00000000000E+00  0.11435720384E+04  0.11435720384E+04  0.50400001928E-02 0.  1.
        1   -1    0    0  501    0  0.00000000000E+00  0.00000000000E+00 -0.19927953613E+04  0.19927953613E+04  0.50400001928E-02 0. -1.
    10030    2    1    2    0    0  0.00000000000E+00  0.00000000000E+00 -0.84922332290E+03  0.31363673996E+04  0.30192085409E+04 0.  0.
        5    1    3    3  502    0  0.12786873476E+04 -0.10033285324E+03 -0.12516037485E+04  0.17921054790E+04  0.46999998093E+01 0. -1.
       -5    1    3    3    0  502 -0.12786873476E+04  0.10033285324E+03  0.40238042561E+03  0.13442619207E+04  0.46999998093E+01 0.  1.
</event>
<event>
 5   0  0.3935852E-07  0.3093402E+04  0.7818609E-02  0.8217551E-01
        1   -1    0    0  501    0  0.00000000000E+00  0.00000000000E+00  0.27037052713E+04  0.27037052713E+04  0.50400001928E-02 0.  1.
       -1   -1    0    0    0  501  0.00000000000E+00  0.00000000000E+00 -0.88481680360E+03  0.88481680361E+03  0.50400001928E-02 0. -1.
    10030    2    1    2    0    0  0.00000000000E+00  0.00000000000E+00  0.18188884677E+04  0.35885220750E+04  0.30934019177E+04 0.  0.
        5    1    3    3  502    0  0.94771269522E+02  0.74872359196E+03 -0.65671549666E+03  0.10004328784E+04  0.46999998093E+01 0. -1.
       -5    1    3    3    0  502 -0.94771269522E+02 -0.74872359196E+03  0.24756039644E+04  0.25880891965E+04  0.46999998093E+01 0.  1.
</event>
<event>
 5   0  0.3902375E-07  0.3117417E+04  0.7818609E-02  0.8210974E-01
        3   -1    0    0  501    0  0.00000000000E+00  0.00000000000E+00  0.15856946381E+04  0.15856946413E+04  0.10100000352E+00 0. -1.
       -3   -1    0    0    0  501  0.00000000000E+00  0.00000000000E+00 -0.15321814852E+04  0.15321814885E+04  0.10100000352E+00 0.  1.
    10030    2    1    2    0    0  0.00000000000E+00  0.00000000000E+00  0.53513152903E+02  0.31178761298E+04  0.31174168639E+04 0.  0.
        3    1    3    3  502    0 -0.42398708101E+02  0.15238938694E+04  0.35164560952E+03  0.15645142443E+04  0.10100000352E+00 0. -1.
       -3    1    3    3    0  502  0.42398708101E+02 -0.15238938694E+04 -0.29813245662E+03  0.15533618856E+04  0.10100000352E+00 0.  1.
</event>
<event>
 5   0  0.4173905E-07  0.3100940E+04  0.7818609E-02  0.8215480E-01
        1   -1    0    0  501    0  0.00000000000E+00  0.00000000000E+00  0.84880677615E+03  0.84880677616E+03  0.50400001928E-02 0. -1.
       -1   -1    0    0    0  501  0.00000000000E+00  0.00000000000E+00 -0.28321610042E+04  0.28321610042E+04  0.50400001928E-02 0.  1.
    10030    2    1    2    0    0  0.00000000000E+00  0.00000000000E+00 -0.19833542280E+04  0.36809677803E+04  0.31009401487E+04 0.  0.
        3    1    3    3  502    0  0.10673788106E+04  0.98597387364E+03 -0.16336889383E+04  0.21864083704E+04  0.10100000352E+00 0.  1.
       -3    1    3    3    0  502 -0.10673788106E+04 -0.98597387364E+03 -0.34966528973E+03  0.14945594099E+04  0.10100000352E+00 0. -1.
</event>
<event>
 5   0  0.1258262E-06  0.3106191E+04  0.7818609E-02  0.8214041E-01
       -2   -1    0    0    0  501  0.00000000000E+00  0.00000000000E+00  0.91947068208E+03  0.91947068209E+03  0.25500000920E-02 0. -1.
        2   -1    0    0  501    0  0.00000000000E+00  0.00000000000E+00 -0.26233631017E+04  0.26233631018E+04  0.25500000920E-02 0.  1.
    10030    2    1    2    0    0  0.00000000000E+00  0.00000000000E+00 -0.17038924197E+04  0.35428337838E+04  0.31061908895E+04 0.  0.
        1    1    3    3  502    0 -0.10738134709E+04 -0.10770431254E+04 -0.12108336090E+04  0.19440203942E+04  0.50400001928E-02 0.  1.
       -1    1    3    3    0  502  0.10738134709E+04  0.10770431254E+04 -0.49305881069E+03  0.15988133897E+04  0.50400001928E-02 0. -1.
</event>
<event>
 5   0  0.4134019E-07  0.3096435E+04  0.7818609E-02  0.8216717E-01
        1   -1    0    0  501    0  0.00000000000E+00  0.00000000000E+00  0.19074476750E+04  0.19074476750E+04  0.50400001928E-02 0.  1.
       -1   -1    0    0    0  501  0.00000000000E+00  0.00000000000E+00 -0.12566415418E+04  0.12566415418E+04  0.50400001928E-02 0. -1.
    10030    2    1    2    0    0  0.00000000000E+00  0.00000000000E+00  0.65080613322E+03  0.31640892168E+04  0.30964353616E+04 0.  0.
        2    1    3    3  502    0  0.55896381235E+03 -0.71335723524E+03  0.16080815375E+04  0.18458725091E+04  0.25500000920E-02 0.  1.
       -2    1    3    3    0  502 -0.55896381235E+03  0.71335723524E+03 -0.95727540432E+03  0.13182167076E+04  0.25500000920E-02 0. -1.
</event>
<event>
 5   0  0.4173905E-07  0.3084518E+04  0.7818609E-02  0.8220000E-01
        1   -1    0    0  501    0  0.00000000000E+00  0.00000000000E+00  0.13560513435E+04  0.13560513435E+04  0.50400001928E-02 0. -1.
       -1   -1    0    0    0  501  0.00000000000E+00  0.00000000000E+00 -0.17540357898E+04  0.17540357898E+04  0.50400001928E-02 0.  1.
    10030    2    1    2    0    0  0.00000000000E+00  0.00000000000E+00 -0.39798444623E+03  0.31100871333E+04  0.30845178484E+04 0.  0.
        3    1    3    3  502    0 -0.67638232586E+03  0.91009281448E+03 -0.12530289187E+04  0.16899240998E+04  0.10100000352E+00 0.  1.
       -3    1    3    3    0  502  0.67638232586E+03 -0.91009281448E+03  0.85504447246E+03  0.14201630335E+04  0.10100000352E+00 0. -1.
</event>
<event>
 5   0  0.4134019E-07  0.3105579E+04  0.7818609E-02  0.8214208E-01
       -1   -1    0    0    0  501  0.00000000000E+00  0.00000000000E+00  0.18766954244E+04  0.18766954244E+04  0.50400001928E-02 0.  1.
        1   -1    0    0  501    0  0.00000000000E+00  0.00000000000E+00 -0.12847880990E+04  0.12847880990E+04  0.50400001928E-02 0. -1.
    10030    2    1    2    0    0  0.00000000000E+00  0.00000000000E+00  0.59190732544E+03  0.31614835234E+04  0.31055794607E+04 0.  0.
        2    1    3    3  502    0  0.10391674050E+04 -0.56961799469E+02  0.14691055622E+04  0.18003845965E+04  0.25500000920E-02 0.  1.
       -2    1    3    3    0  502 -0.10391674050E+04  0.56961799469E+02 -0.87719823679E+03  0.13610989269E+04  0.25500000920E-02 0. -1.
</event>
<event>
 5   0  0.4173905E-07  0.3047946E+04  0.7818609E-02  0.8230171E-01
        1   -1    0    0  501    0  0.00000000000E+00  0.00000000000E+00  0.12760591065E+04  0.12760591065E+04  0.50400001928E-02 0.  1.
       -1   -1    0    0    0  501  0.00000000000E+00  0.00000000000E+00 -0.18200517257E+04  0.18200517257E+04  0.50400001928E-02 0. -1.
    10030    2    1    2    0    0  0.00000000000E+00  0.00000000000E+00 -0.54399261921E+03  0.30961108323E+04  0.30479459175E+04 0.  0.
        3    1    3    3  502    0  0.19937317528E+03 -0.53936775467E+03 -0.17056193655E+04  0.17999457403E+04  0.10100000352E+00 0. -1.
       -3    1    3    3    0  502 -0.19937317528E+03  0.53936775467E+03  0.11616267463E+04  0.12961650920E+04  0.10100000352E+00 0.  1.
</event>
<event>
 5   0  0.1200286E-06  0.3097239E+04  0.7818609E-02  0.8216496E-01
        2   -1    0    0  501    0  0.00000000000E+00  0.00000000000E+00  0.16732547874E+04  0.16732547874E+04  0.25500000920E-02 0. -1.
       -2   -1    0    0    0  501  0.00000000000E+00  0.00000000000E+00 -0.14332675030E+04  0.14332675030E+04  0.25500000920E-02 0.  1.
    10030    2    1    2    0    0  0.00000000000E+00  0.00000000000E+00  0.23998728444E+03  0.31065222903E+04  0.30972385836E+04 0.  0.
        5    1    3    3  502    0  0.18861936043E+03 -0.35172889584E+03 -0.13807898641E+04  0.14373215431E+04  0.46999998093E+01 0.  1.
       -5    1    3    3    0  502 -0.18861936043E+03  0.35172889584E+03  0.16207771486E+04  0.16692007473E+04  0.46999998093E+01 0. -1.
</event>
<event>
 5   0  0.1258262E-06  0.3108637E+04  0.7818609E-02  0.8213371E-01
       -2   -1    0    0    0  501  0.00000000000E+00  0.00000000000E+00  0.14600349043E+04  0.14600349043E+04  0.25500000920E-02 0. -1.
        2   -1    0    0  501    0  0.00000000000E+00  0.00000000000E+00 -0.16546910527E+04  0.16546910527E+04  0.25500000920E-02 0.  1.
    10030    2    1    2    0    0  0.00000000000E+00  0.00000000000E+00 -0.19465614837E+03  0.31147259570E+04  0.31086374461E+04 0.  0.
        1    1    3    3  502    0 -0.62594861510E+03 -0.65144570930E+03 -0.13646030948E+04  0.16365618801E+04  0.50400001928E-02 0.  1.
       -1    1    3    3    0  502  0.62594861510E+03  0.65144570930E+03  0.11699469464E+04  0.14781640770E+04  0.50400001928E-02 0. -1.
</event>
<event>
 5   0  0.4330395E-07  0.3122559E+04  0.7818609E-02  0.8209574E-01
        1   -1    0    0  501    0  0.00000000000E+00  0.00000000000E+00  0.82707572437E+03  0.82707572439E+03  0.50400001928E-02 0.  1.
       -1   -1    0    0    0  501  0.00000000000E+00  0.00000000000E+00 -0.29472444205E+04  0.29472444205E+04  0.50400001928E-02 0. -1.
    10030    2    1    2    0    0  0.00000000000E+00  0.00000000000E+00 -0.21201686961E+04  0.37743201449E+04  0.31225594080E+04 0.  0.
        1    1    3    3  502    0  0.70259272389E+03 -0.84795388538E+03 -0.23978622355E+04  0.26386370777E+04  0.50400001928E-02 0. -1.
       -1    1    3    3    0  502 -0.70259272389E+03  0.84795388538E+03  0.27769353933E+03  0.11356830672E+04  0.50400001928E-02 0.  1.
</event>
<event>
 5   0  0.1176002E-06  0.3105690E+04  0.7818609E-02  0.8214178E-01
        2   -1    0    0  501    0  0.00000000000E+00  0.00000000000E+00  0.17114086193E+04  0.17114086193E+04  0.25500000920E-02 0. -1.
       -2   -1    0    0    0  501  0.00000000000E+00  0.00000000000E+00 -0.14089722199E+04  0.14089722199E+04  0.25500000920E-02 0.  1.
    10030    2    1    2    0    0  0.00000000000E+00  0.00000000000E+00  0.30243639944E+03  0.31203808392E+04  0.31056897472E+04 0.  0.
        2    1    3    3  502    0  0.25227762754E+03  0.90734145521E+03 -0.10892941604E+04  0.14399563485E+04  0.25500000920E-02 0.  1.
       -2    1    3    3    0  502 -0.25227762754E+03 -0.90734145521E+03  0.13917305598E+04  0.16804244907E+04  0.25500000920E-02 0. -1.
</event>
<event>
 5   0  0.1200286E-06  0.3099059E+04  0.7818609E-02  0.8215996E-01
       -2   -1    0    0    0  501  0.00000000000E+00  0.00000000000E+00  0.12594493596E+04  0.12594493596E+04  0.25500000920E-02 0.  1.
        2   -1    0    0  501    0  0.00000000000E+00  0.00000000000E+00 -0.19064222167E+04  0.19064222167E+04  0.25500000920E-02 0. -1.
    10030    2    1    2    0    0  0.00000000000E+00  0.00000000000E+00 -0.64697285704E+03  0.31658715763E+04  0.30990593670E+04 0.  0.
        5    1    3    3  502    0 -0.96109857776E+03  0.74968368070E+03  0.65384383168E+03  0.13832100142E+04  0.46999998093E+01 0.  1.
       -5    1    3    3    0  502  0.96109857776E+03 -0.74968368070E+03 -0.13008166887E+04  0.17826615621E+04  0.46999998093E+01 0. -1.
</event>
<event>
 5   0  0.4134019E-07  0.3106644E+04  0.7818609E-02  0.8213917E-01
        1   -1    0    0  501    0  0.00000000000E+00  0.00000000000E+00  0.11435607665E+04  0.11435607665E+04  0.50400001928E-02 0. -1.
       -1   -1    0    0    0  501  0.00000000000E+00  0.00000000000E+00 -0.21099086504E+04  0.21099086504E+04  0.50400001928E-02 0.  1.
    10030    2    1    2    0    0  0.00000000000E+00  0.00000000000E+00 -0.96634788383E+03  0.32534694169E+04  0.31066436896E+04 0.  0.
        2    1    3    3  502    0 -0.11843686198E+04 -0.13598163947E+03  0.55967420049E+03  0.13169871847E+04  0.25500000920E-02 0. -1.
       -2    1    3    3    0  502  0.11843686198E+04  0.13598163947E+03 -0.15260220843E+04  0.19364822322E+04  0.25500000920E-02 0.  1.
</event>
<event>
 5   0  0.1176002E-06  0.3090933E+04  0.7818609E-02  0.8218231E-01
       -2   -1    0    0    0  501  0.00000000000E+00  0.00000000000E+00  0.16289702105E+04  0.16289702105E+04  0.25500000920E-02 0. -1.
        2   -1    0    0  501    0  0.00000000000E+00  0.00000000000E+00 -0.14662433177E+04  0.14662433177E+04  0.25500000920E-02 0.  1.
    10030    2    1    2    0    0  0.00000000000E+00  0.00000000000E+00  0.16272689273E+03  0.30952135282E+04  0.30909329892E+04 0.  0.
        2    1    3    3  502    0 -0.50865963763E+02  0.26016505113E+03  0.16060334838E+04  0.16277643414E+04  0.25500000920E-02 0. -1.
       -2    1    3    3    0  502  0.50865963763E+02 -0.26016505113E+03 -0.14433065911E+04  0.14674491868E+04  0.25500000920E-02 0.  1.
</event>
<event>
 5   0  0.1193123E-06  0.3132565E+04  0.7818609E-02  0.8206857E-01
       -2   -1    0    0    0  501  0.00000000000E+00  0.00000000000E+00  0.83056677020E+03  0.83056677021E+03  0.25500000920E-02 0.  1.
        2   -1    0    0  501    0  0.00000000000E+00  0.00000000000E+00 -0.29536951606E+04  0.29536951606E+04  0.25500000920E-02 0. -1.
    10030    2    1    2    0    0  0.00000000000E+00  0.00000000000E+00 -0.21231283904E+04  0.37842619308E+04  0.31325651149E+04 0.  0.
        3    1    3    3  502    0 -0.14030515875E+04 -0.45214068293E+03 -0.42203760357E+03  0.15333299395E+04  0.10100000352E+00 0.  1.
       -3    1    3    3    0  502  0.14030515875E+04  0.45214068293E+03 -0.17010907869E+04  0.22509319913E+04  0.10100000352E+00 0. -1.
</event>
<event>
 5   0  0.3902375E-07  0.3113823E+04  0.7818609E-02  0.8211955E-01
        3   -1    0    0  501    0  0.00000000000E+00  0.00000000000E+00  0.25560556199E+04  0.25560556219E+04  0.10100000352E+00 0.  1.
       -3   -1    0    0    0  501  0.00000000000E+00  0.00000000000E+00 -0.94832554190E+03  0.94832554728E+03  0.10100000352E+00 0. -1.
    10030    2    1    2    0    0  0.00000000000E+00  0.00000000000E+00  0.16077300780E+04  0.35043811692E+04  0.31138226307E+04 0.  0.
        4    1    3    3  502    0  0.46275143317E+03  0.14776937934E+04  0.62151317685E+03  0.16685317132E+04  0.12699999809E+01 0.  1.
       -4    1    3    3    0  502 -0.46275143317E+03 -0.14776937934E+04  0.98621690116E+03  0.18358494560E+04  0.12699999809E+01 0. -1.
</event>
<event>
 5   0  0.3935852E-07  0.3077961E+04  0.7818609E-02  0.8221813E-01
       -1   -1    0    0    0  501  0.00000000000E+00  0.00000000000E+00  0.17497466410E+04  0.17497466410E+04  0.50400001928E-02 0.  1.
        1   -1    0    0  501    0  0.00000000000E+00  0.00000000000E+00 -0.13536018864E+04  0.13536018864E+04  0.50400001928E-02 0. -1.
    10030    2    1    2    0    0  0.00000000000E+00  0.00000000000E+00  0.39614475463E+03  0.31033485274E+04  0.30779605936E+04 0.  0.
        5    1    3    3  502    0  0.11314508647E+03 -0.14327697586E+04 -0.35674575714E+03  0.14808513149E+04  0.46999998093E+01 0. -1.
       -5    1    3    3    0  502 -0.11314508647E+03  0.14327697586E+04  0.75289051177E+03  0.16224972124E+04  0.46999998093E+01 0.  1.
</event>
<event>
 5   0  0.1258262E-06  0.3090249E+04  0.7818609E-02  0.8218419E-01
        2   -1    0    0  501    0  0.00000000000E+00  0.00000000000E+00  0.22540926410E+04  0.22540926410E+04  0.25500000920E-02 0.  1.
       -2   -1    0    0    0  501  0.00000000000E+00  0.00000000000E+00 -0.10591444388E+04  0.10591444388E+04  0.25500000920E-02 0. -1.
    10030    2    1    2    0    0  0.00000000000E+00  0.00000000000E+00  0.11949482022E+04  0.33132370798E+04  0.30902489772E+04 0.  0.
        1    1    3    3  502    0 -0.66293034837E+03 -0.63698768987E+03 -0.73398103039E+03  0.11764174926E+04  0.50400001928E-02 0. -1.
       -1    1    3    3    0  502  0.66293034837E+03  0.63698768987E+03  0.19289292326E+04  0.21368195872E+04  0.50400001928E-02 0.  1.
</event>
<event>
 5   0  0.4219337E-07  0.3092480E+04  0.7818609E-02  0.8217805E-01
       -1   -1    0    0    0  501  0.00000000000E+00  0.00000000000E+00  0.16359885421E+04  0.16359885421E+04  0.50400001928E-02 0. -1.
        1   -1    0    0  501    0  0.00000000000E+00  0.00000000000E+00 -0.14614149096E+04  0.14614149096E+04  0.50400001928E-02 0.  1.
    10030    2    1    2    0    0  0.00000000000E+00  0.00000000000E+00  0.17457363256E+03  0.30974034517E+04  0.30924799417E+04 0.  0.
        4    1    3    3  502    0 -0.13968425899E+04 -0.57143258856E+03  0.42420311724E+03  0.15676907609E+04  0.12699999809E+01 0.  1.
       -4    1    3    3    0  502  0.13968425899E+04  0.57143258856E+03 -0.24962948467E+03  0.15297126909E+04  0.12699999809E+01 0. -1.
</event>
<event>
 5   0  0.4134019E-07  0.3118653E+04  0.7818609E-02  0.8210637E-01
       -1   -1    0    0    0  501  0.00000000000E+00  0.00000000000E+00  0.17526086907E+04  0.17526086908E+04  0.50400001928E-02 0. -1.
        1   -1    0    0  501    0  0.00000000000E+00  0.00000000000E+00 -0.13873603803E+04  0.13873603803E+04  0.50400001928E-02 0.  1.
    10030    2    1    2    0    0  0.00000000000E+00  0.00000000000E+00  0.36524831041E+03  0.31399690711E+04  0.31186534657E+04 0.  0.
        2    1    3    3  502    0 -0.97680759120E+03  0.11294906764E+04 -0.26944089303E+03  0.15173993058E+04  0.25500000920E-02 0.  1.
       -2    1    3    3    0  502  0.97680759120E+03 -0.11294906764E+04  0.63468920344E+03  0.16225697653E+04  0.25500000920E-02 0. -1.
</event>
<event>
 5   0  0.1237580E-06  0.3095625E+04  0.7818609E-02  0.8216940E-01
       -2   -1    0    0    0  501  0.00000000000E+00  0.00000000000E+00  0.11607408110E+04  0.11607408110E+04  0.25500000920E-02 0. -1.
        2   -1    0    0  501    0  0.00000000000E+00  0.00000000000E+00 -0.20639607764E+04  0.20639607764E+04  0.25500000920E-02 0.  1.
    10030    2    1    2    0    0  0.00000000000E+00  0.00000000000E+00 -0.90321996546E+03  0.32247015874E+04  0.30956249808E+04 0.  0.
        4    1    3    3  502    0 -0.10256004538E+04  0.32149285950E+03 -0.16118316280E+04  0.19373220588E+04  0.12699999809E+01 0.  1.
       -4    1    3    3    0  502  0.10256004538E+04 -0.32149285950E+03  0.70861166258E+03  0.12873795286E+04  0.12699999809E+01 0. -1.
</event>
<event>
 5   0  0.1176002E-06  0.3088701E+04  0.7818609E-02  0.8218846E-01
        2   -1    0    0  501    0  0.00000000000E+00  0.00000000000E+00  0.22922087342E+04  0.22922087342E+04  0.25500000920E-02 0.  1.
       -2   -1    0    0    0  501  0.00000000000E+00  0.00000000000E+00 -0.10404894528E+04  0.10404894528E+04  0.25500000920E-02 0. -1.
    10030    2    1    2    0    0  0.00000000000E+00  0.00000000000E+00  0.12517192814E+04  0.33326981870E+04  0.30887013527E+04 0.  0.
        2    1    3    3  502    0 -0.14390988043E+04 -0.24413046368E+03  0.11700997382E+04  0.18707587897E+04  0.25500000920E-02 0.  1.
       -2    1    3    3    0  502  0.14390988043E+04  0.24413046368E+03  0.81619543232E+02  0.14619393974E+04  0.25500000920E-02 0. -1.
</event>
<event>
 5   0  0.1200286E-06  0.3106774E+04  0.7818609E-02  0.8213881E-01
       -2   -1    0    0    0  501  0.00000000000E+00  0.00000000000E+00  0.12283728794E+04  0.12283728794E+04  0.25500000920E-02 0. -1.
        2   -1    0    0  501    0  0.00000000000E+00  0.00000000000E+00 -0.19643957614E+04  0.19643957614E+04  0.25500000920E-02 0.  1.
    10030    2    1    2    0    0  0.00000000000E+00  0.00000000000E+00 -0.73602288207E+03  0.31927686408E+04  0.31067735532E+04 0.  0.
        5    1    3    3  502    0 -0.42549063645E+03 -0.14638675014E+04 -0.61359543953E+02  0.15256924418E+04  0.46999998093E+01 0. -1.
       -5    1    3    3    0  502  0.42549063645E+03  0.14638675014E+04 -0.67466333811E+03  0.16670761990E+04  0.46999998093E+01 0.  1.
</event>
<event>
 5   0  0.4134019E-07  0.3146606E+04  0.7818609E-02  0.8203063E-01
        1   -1    0    0  501    0  0.00000000000E+00  0.00000000000E+00  0.17834003080E+04  0.17834003080E+04  0.50400001928E-02 0.  1.
       -1   -1    0    0    0  501  0.00000000000E+00  0.00000000000E+00 -0.13879563084E+04  0.13879563084E+04  0.50400001928E-02 0. -1.
    10030    2    1    2    0    0  0.00000000000E+00  0.00000000000E+00  0.39544399958E+03  0.31713566164E+04  0.31466056047E+04 0.  0.
        2    1    3    3  502    0 -0.59051622016E+03  0.17754065240E+03 -0.12610927065E+04  0.14037752327E+04  0.25500000920E-02 0. -1.
       -2    1    3    3    0  502  0.59051622016E+03 -0.17754065240E+03  0.16565367061E+04  0.17675813837E+04  0.25500000920E-02 0.  1.
</event>
<event>
 5   0  0.1237580E-06  0.3104344E+04  0.7818609E-02  0.8214547E-01
       -2   -1    0    0    0  501  0.00000000000E+00  0.00000000000E+00  0.14674131892E+04  0.14674131892E+04  0.25500000920E-02 0. -1.
        2   -1    0    0  501    0  0.00000000000E+00  0.00000000000E+00 -0.16418270641E+04  0.16418270641E+04  0.25500000920E-02 0.  1.
    10030    2    1    2    0    0  0.00000000000E+00  0.00000000000E+00 -0.17441387496E+03  0.31092402533E+04  0.31043444965E+04 0.  0.
        4    1    3    3  502    0  0.25114402400E+03 -0.47385811317E+03  0.13716691359E+04  0.14727839840E+04  0.12699999809E+01 0. -1.
       -4    1    3    3    0  502 -0.25114402400E+03  0.47385811317E+03 -0.15460830108E+04  0.16364562693E+04  0.12699999809E+01 0.  1.
</event>
<event>
 5   0  0.1193123E-06  0.3102002E+04  0.7818609E-02  0.8215189E-01
        2   -1    0    0  501    0  0.00000000000E+00  0.00000000000E+00  0.15403965599E+04  0.15403965599E+04  0.25500000920E-02 0. -1.
       -2   -1    0    0    0  501  0.00000000000E+00  0.00000000000E+00 -0.15616784010E+04  0.15616784010E+04  0.25500000920E-02 0.  1.
    10030    2    1    2    0    0  0.00000000000E+00  0.00000000000E+00 -0.21281841071E+02  0.31020749609E+04  0.31020019578E+04 0.  0.
        3    1    3    3  502    0 -0.71549962637E+03 -0.10970850137E+03  0.13611159537E+04  0.15416265177E+04  0.10100000352E+00 0. -1.
       -3    1    3    3    0  502  0.71549962637E+03  0.10970850137E+03 -0.13823977948E+04  0.15604484432E+04  0.10100000352E+00 0.  1.
</event>
<event>
 5   0  0.4173905E-07  0.3096650E+04  0.7818609E-02  0.8216658E-01
        1   -1    0    0  501    0  0.00000000000E+00  0.00000000000E+00  0.27792292285E+04  0.27792292285E+04  0.50400001928E-02 0. -1.
       -1   -1    0    0    0  501  0.00000000000E+00  0.00000000000E+00 -0.86258079782E+03  0.86258079784E+03  0.50400001928E-02 0.  1.
    10030    2    1    2    0    0  0.00000000000E+00  0.00000000000E+00  0.19166484307E+04  0.36418100264E+04  0.30966496510E+04 0.  0.
        3    1    3    3  502    0 -0.98360388171E+03 -0.10541517574E+04  0.16221379181E+04  0.21702635691E+04  0.10100000352E+00 0. -1.
       -3    1    3    3    0  502  0.98360388171E+03  0.10541517574E+04  0.29451051266E+03  0.14715464573E+04  0.10100000352E+00 0.  1.
</event>
<event>
 5   0  0.1193123E-06  0.3094204E+04  0.7818609E-02  0.8217330E-01
        2   -1    0    0  501    0  0.00000000000E+00  0.00000000000E+00  0.17095428638E+04  0.17095428638E+04  0.25500000920E-02 0.  1.
       -2   -1    0    0    0  501  0.00000000000E+00  0.00000000000E+00 -0.14000966779E+04  0.14000966779E+04  0.25500000920E-02 0. -1.
    10030    2    1    2    0    0  0.00000000000E+00  0.00000000000E+00  0.30944618589E+03  0.31096395417E+04  0.30942044434E+04 0.  0.
        3    1    3    3  502    0  0.47823533664E+03 -0.74908186902E+03 -0.11179639011E+04  0.14281722508E+04  0.10100000352E+00 0. -1.
       -3    1    3    3    0  502 -0.47823533664E+03  0.74908186902E+03  0.14274100870E+04  0.16814672909E+04  0.10100000352E+00 0.  1.
</event>
<event>
 5   0  0.4134019E-07  0.3101018E+04  0.7818609E-02  0.8215459E-01
       -1   -1    0    0    0  501  0.00000000000E+00  0.00000000000E+00  0.12445936420E+04  0.12445936420E+04  0.50400001928E-02 0.  1.
        1   -1    0    0  501    0  0.00000000000E+00  0.00000000000E+00 -0.19316167611E+04  0.19316167612E+04  0.50400001928E-02 0. -1.
    10030    2    1    2    0    0  0.00000000000E+00  0.00000000000E+00 -0.68702311918E+03  0.31762104031E+04  0.31010178585E+04 0.  0.
        2    1    3    3  502    0  0.72759734018E+03 -0.80191169626E+03 -0.14802039540E+04  0.18339749190E+04  0.25500000920E-02 0. -1.
       -2    1    3    3    0  502 -0.72759734018E+03  0.80191169626E+03  0.79318083486E+03  0.13422354841E+04  0.25500000920E-02 0.  1.
</event>
<event>
 5   0  0.4330395E-07  0.3135842E+04  0.7818609E-02  0.8205970E-01
       -1   -1    0    0    0  501  0.00000000000E+00  0.00000000000E+00  0.17815463387E+04  0.17815463387E+04  0.50400001928E-02 0.  1.
        1   -1    0    0  501    0  0.00000000000E+00  0.00000000000E+00 -0.13799115021E+04  0.13799115021E+04  0.50400001928E-02 0. -1.
    10030    2    1    2    0    0  0.00000000000E+00  0.00000000000E+00  0.40163483653E+03  0.31614578408E+04  0.31358420141E+04 0.  0.
        1    1    3    3  502    0  0.61493939046E+03  0.13386705237E+04 -0.34039837094E+03  0.15119723132E+04  0.50400001928E-02 0. -1.
       -1    1    3    3    0  502 -0.61493939046E+03 -0.13386705237E+04  0.74203320746E+03  0.16494855276E+04  0.50400001928E-02 0.  1.
</event>
<event>
 5   0  0.1237580E-06  0.3098299E+04  0.7818609E-02  0.8216205E-01
        2   -1    0    0  501    0  0.00000000000E+00  0.00000000000E+00  0.14408301129E+04  0.14408301129E+04  0.25500000920E-02 0. -1.
       -2   -1    0    0    0  501  0.00000000000E+00  0.00000000000E+00 -0.16656126889E+04  0.16656126889E+04  0.25500000920E-02 0.  1.
    10030    2    1    2    0    0  0.00000000000E+00  0.00000000000E+00 -0.22478257600E+03  0.31064428018E+04  0.30982994810E+04 0.  0.
        4    1    3    3  502    0 -0.35994730577E+03 -0.51125050479E+03 -0.15334817956E+04  0.16560516815E+04  0.12699999809E+01 0.  1.
       -4    1    3    3    0  502  0.35994730577E+03  0.51125050479E+03  0.13086992196E+04  0.14503911203E+04  0.12699999809E+01 0. -1.
</event>
<event>
 5   0  0.1237580E-06  0.3099835E+04  0.7818609E-02  0.8215783E-01
        2   -1    0    0  501    0  0.00000000000E+00  0.00000000000E+00  0.17736815843E+04  0.17736815843E+04  0.25500000920E-02 0.  1.
       -2   -1    0    0    0  501  0.00000000000E+00  0.00000000000E+00 -0.13543832470E+04  0.13543832470E+04  0.25500000920E-02 0. -1.
    10030    2    1    2    0    0  0.00000000000E+00  0.00000000000E+00  0.41929833730E+03  0.31280648313E+04  0.30998352365E+04 0.  0.
        4    1    3    3  502    0  0.47049980603E+03 -0.80838435761E+03 -0.10374809724E+04  0.13968620970E+04  0.12699999809E+01 0. -1.
       -4    1    3    3    0  502 -0.47049980603E+03  0.80838435761E+03  0.14567793097E+04  0.17312027343E+04  0.12699999809E+01 0.  1.
</event>
<event>
 5   0  0.1237580E-06  0.3092948E+04  0.7818609E-02  0.8217676E-01
       -2   -1    0    0    0  501  0.00000000000E+00  0.00000000000E+00  0.16590452953E+04  0.16590452953E+04  0.25500000920E-02 0. -1.
        2   -1    0    0  501    0  0.00000000000E+00  0.00000000000E+00 -0.14415414331E+04  0.14415414331E+04  0.25500000920E-02 0.  1.
    10030    2    1    2    0    0  0.00000000000E+00  0.00000000000E+00  0.21750386215E+03  0.31005867284E+04  0.30929484526E+04 0.  0.
        4    1    3    3  502    0  0.10336087370E+04  0.10708998524E+04  0.52979799016E+03  0.15798294333E+04  0.12699999809E+01 0.  1.
       -4    1    3    3    0  502 -0.10336087370E+04 -0.10708998524E+04 -0.31229412800E+03  0.15207572950E+04  0.12699999809E+01 0. -1.
</event>
<event>
 5   0  0.4173905E-07  0.3104529E+04  0.7818609E-02  0.8214496E-01
        1   -1    0    0  501    0  0.00000000000E+00  0.00000000000E+00  0.11357723939E+04  0.11357723939E+04  0.50400001928E-02 0. -1.
       -1   -1    0    0    0  501  0.00000000000E+00  0.00000000000E+00 -0.21214858691E+04  0.21214858691E+04  0.50400001928E-02 0.  1.
    10030    2    1    2    0    0  0.00000000000E+00  0.00000000000E+00 -0.98571347521E+03  0.32572582631E+04  0.31045290041E+04 0.  0.
        3    1    3    3  502    0 -0.31236035843E+03 -0.13780706591E+04  0.18130949571E+03  0.14246125363E+04  0.10100000352E+00 0. -1.
       -3    1    3    3    0  502  0.31236035843E+03  0.13780706591E+04 -0.11670229709E+04  0.18326457268E+04  0.10100000352E+00 0.  1.
</event>
<event>
 5   0  0.1193123E-06  0.3074390E+04  0.7818609E-02  0.8222802E-01
       -2   -1    0    0    0  501  0.00000000000E+00  0.00000000000E+00  0.79887602978E+03  0.79887602979E+03  0.25500000920E-02 0. -1.
        2   -1    0    0  501    0  0.00000000000E+00  0.00000000000E+00 -0.29578654724E+04  0.29578654724E+04  0.25500000920E-02 0.  1.
    10030    2    1    2    0    0  0.00000000000E+00  0.00000000000E+00 -0.21589894427E+04  0.37567415022E+04  0.30743895819E+04 0.  0.
        3    1    3    3  502    0 -0.10370137390E+04  0.94739692615E+03 -0.18426096359E+04  0.23169308818E+04  0.10100000352E+00 0.  1.
       -3    1    3    3    0  502  0.10370137390E+04 -0.94739692615E+03 -0.31637980681E+03  0.14398106205E+04  0.10100000352E+00 0. -1.
</event>
<event>
 5   0  0.1193123E-06  0.3100528E+04  0.7818609E-02  0.8215593E-01
        2   -1    0    0  501    0  0.00000000000E+00  0.00000000000E+00  0.15844581179E+04  0.15844581179E+04  0.25500000920E-02 0.  1.
       -2   -1    0    0    0  501  0.00000000000E+00  0.00000000000E+00 -0.15168079036E+04  0.15168079036E+04  0.25500000920E-02 0. -1.
    10030    2    1    2    0    0  0.00000000000E+00  0.00000000000E+00  0.67650214267E+02  0.31012660215E+04  0.31005280816E+04 0.  0.
        3    1    3    3  502    0  0.36754179351E+02 -0.72140415643E+02  0.15823419762E+04  0.15844119569E+04  0.10100000352E+00 0.  1.
       -3    1    3    3    0  502 -0.36754179351E+02  0.72140415643E+02 -0.15146917620E+04  0.15168540646E+04  0.10100000352E+00 0. -1.
</event>
<event>
 5   0  0.4134019E-07  0.3104763E+04  0.7818609E-02  0.8214432E-01
        1   -1    0    0  501    0  0.00000000000E+00  0.00000000000E+00  0.15371321314E+04  0.15371321314E+04  0.50400001928E-02 0. -1.
       -1   -1    0    0    0  501  0.00000000000E+00  0.00000000000E+00 -0.15677826473E+04  0.15677826473E+04  0.50400001928E-02 0.  1.
    10030    2    1    2    0    0  0.00000000000E+00  0.00000000000E+00 -0.30650515871E+02  0.31049147787E+04  0.31047634900E+04 0.  0.
        2    1    3    3  502    0 -0.14617718760E+04 -0.11659935692E+03  0.49412733740E+03  0.15474282707E+04  0.25500000920E-02 0. -1.
       -2    1    3    3    0  502  0.14617718760E+04  0.11659935692E+03 -0.52477785327E+03  0.15574865080E+04  0.25500000920E-02 0.  1.
</event>
<event>
 5   0  0.4330395E-07  0.3105783E+04  0.7818609E-02  0.8214153E-01
       -1   -1    0    0    0  501  0.00000000000E+00  0.00000000000E+00  0.11433424552E+04  0.11433424553E+04  0.50400001928E-02 0.  1.
        1   -1    0    0  501    0  0.00000000000E+00  0.00000000000E+00 -0.21091426069E+04  0.21091426069E+04  0.50400001928E-02 0. -1.
    10030    2    1    2    0    0  0.00000000000E+00  0.00000000000E+00 -0.96580015164E+03  0.32524850622E+04  0.31057831777E+04 0.  0.
        1    1    3    3  502    0 -0.13584704973E+04 -0.66035867485E+03 -0.10537711288E+03  0.15141400224E+04  0.50400001928E-02 0. -1.
       -1    1    3    3    0  502  0.13584704973E+04  0.66035867485E+03 -0.86042303875E+03  0.17383450397E+04  0.50400001928E-02 0.  1.
</event>
<event>
 5   0  0.4134019E-07  0.3099104E+04  0.7818609E-02  0.8215984E-01
       -1   -1    0    0    0  501  0.00000000000E+00  0.00000000000E+00  0.22342725966E+04  0.22342725966E+04  0.50400001928E-02 0. -1.
        1   -1    0    0  501    0  0.00000000000E+00  0.00000000000E+00 -0.10746727572E+04  0.10746727572E+04  0.50400001928E-02 0.  1.
    10030    2    1    2    0    0  0.00000000000E+00  0.00000000000E+00  0.11595998393E+04  0.33089453538E+04  0.30991043169E+04 0.  0.
        2    1    3    3  502    0 -0.30160221822E+03  0.47871563340E+03  0.21200359690E+04  0.21942390630E+04  0.25500000920E-02 0. -1.
       -2    1    3    3    0  502  0.30160221822E+03 -0.47871563340E+03 -0.96043612963E+03  0.11147062908E+04  0.25500000920E-02 0.  1.
</event>
<event>
 5   0  0.1193123E-06  0.3074981E+04  0.7818609E-02  0.8222638E-01
        2   -1    0    0  501    0  0.00000000000E+00  0.00000000000E+00  0.11367979454E+04  0.11367979454E+04  0.25500000920E-02 0.  1.
       -2   -1    0    0    0  501  0.00000000000E+00  0.00000000000E+00 -0.20794167055E+04  0.20794167055E+04  0.25500000920E-02 0. -1.
    10030    2    1    2    0    0  0.00000000000E+00  0.00000000000E+00 -0.94261876008E+03  0.32162146509E+04  0.30749807404E+04 0.  0.
        3    1    3    3  502    0 -0.31738340344E+02  0.13687395226E+04  0.26040925344E+03  0.13936528235E+04  0.10100000352E+00 0. -1.
       -3    1    3    3    0  502  0.31738340344E+02 -0.13687395226E+04 -0.12030280135E+04  0.18225618274E+04  0.10100000352E+00 0.  1.
</event>
<event>
 5   0  0.4134019E-07  0.3100423E+04  0.7818609E-02  0.8215622E-01
        1   -1    0    0  501    0  0.00000000000E+00  0.00000000000E+00  0.17104359425E+04  0.17104359425E+04  0.50400001928E-02 0. -1.
       -1   -1    0    0    0  501  0.00000000000E+00  0.00000000000E+00 -0.14049957341E+04  0.14049957342E+04  0.50400001928E-02 0.  1.
    10030    2    1    2    0    0  0.00000000000E+00  0.00000000000E+00  0.30544020834E+03  0.31154316767E+04  0.31004226826E+04 0.  0.
        2    1    3    3  502    0  0.12908752257E+04 -0.85704423776E+03  0.20061138611E+03  0.15624111501E+04  0.25500000920E-02 0.  1.
       -2    1    3    3    0  502 -0.12908752257E+04  0.85704423776E+03  0.10482882223E+03  0.15530205265E+04  0.25500000920E-02 0. -1.
</event>
<event>
 5   0  0.1176002E-06  0.3131246E+04  0.7818609E-02  0.8207215E-01
       -2   -1    0    0    0  501  0.00000000000E+00  0.00000000000E+00  0.11964974891E+04  0.11964974891E+04  0.25500000920E-02 0.  1.
        2   -1    0    0  501    0  0.00000000000E+00  0.00000000000E+00 -0.20486256528E+04  0.20486256528E+04  0.25500000920E-02 0. -1.
    10030    2    1    2    0    0  0.00000000000E+00  0.00000000000E+00 -0.85212816370E+03  0.32451231419E+04  0.31312460458E+04 0.  0.
        2    1    3    3  502    0  0.11810201559E+04  0.18312634398E+03  0.62206809015E+03  0.13473353611E+04  0.25500000920E-02 0.  1.
       -2    1    3    3    0  502 -0.11810201559E+04 -0.18312634398E+03 -0.14741962538E+04  0.18977877809E+04  0.25500000920E-02 0. -1.
</event>
<event>
 5   0  0.4173905E-07  0.3103511E+04  0.7818609E-02  0.8214775E-01
       -1   -1    0    0    0  501  0.00000000000E+00  0.00000000000E+00  0.12181553550E+04  0.12181553550E+04  0.50400001928E-02 0.  1.
        1   -1    0    0  501    0  0.00000000000E+00  0.00000000000E+00 -0.19767140112E+04  0.19767140112E+04  0.50400001928E-02 0. -1.
    10030    2    1    2    0    0  0.00000000000E+00  0.00000000000E+00 -0.75855865614E+03  0.31948693662E+04  0.31035107592E+04 0.  0.
        3    1    3    3  502    0 -0.48822915943E+03 -0.65076040804E+03  0.98101505445E+03  0.12744596377E+04  0.10100000352E+00 0.  1.
       -3    1    3    3    0  502  0.48822915943E+03  0.65076040804E+03 -0.17395737106E+04  0.19204097286E+04  0.10100000352E+00 0. -1.
</event>
<event>
 5   0  0.4330395E-07  0.3100620E+04  0.7818609E-02  0.8215568E-01
        1   -1    0    0  501    0  0.00000000000E+00  0.00000000000E+00  0.19057354793E+04  0.19057354793E+04  0.50400001928E-02 0. -1.
       -1   -1    0    0    0  501  0.00000000000E+00  0.00000000000E+00 -0.12611727722E+04  0.12611727722E+04  0.50400001928E-02 0.  1.
    10030    2    1    2    0    0  0.00000000000E+00  0.00000000000E+00  0.64456270712E+03  0.31669082515E+04  0.31006203879E+04 0.  0.
        1    1    3    3  502    0 -0.87836657095E+03  0.11655652726E+04  0.85632820047E+03  0.16921489959E+04  0.50400001928E-02 0. -1.
       -1    1    3    3    0  502  0.87836657095E+03 -0.11655652726E+04 -0.21176549335E+03  0.14747592555E+04  0.50400001928E-02 0.  1.
</event>
<event>
 5   0  0.1237580E-06  0.3152823E+04  0.7818609E-02  0.8201389E-01
       -2   -1    0    0    0  501  0.00000000000E+00  0.00000000000E+00  0.12586815831E+04  0.12586815831E+04  0.25500000920E-02 0. -1.
        2   -1    0    0  501    0  0.00000000000E+00  0.00000000000E+00 -0.19743458447E+04  0.19743458447E+04  0.25500000920E-02 0.  1.
    10030    2    1    2    0    0  0.00000000000E+00  0.00000000000E+00 -0.71566426156E+03  0.32330274278E+04  0.31528227057E+04 0.  0.
        4    1    3    3  502    0 -0.46900282202E+03 -0.12023788564E+04  0.57039840814E+03  0.14110402256E+04  0.12699999809E+01 0. -1.
       -4    1    3    3    0  502  0.46900282202E+03  0.12023788564E+04 -0.12860626697E+04  0.18219872021E+04  0.12699999809E+01 0.  1.
</event>
<event>
 5   0  0.1200286E-06  0.3055303E+04  0.7818609E-02  0.8228113E-01
       -2   -1    0    0    0  501  0.00000000000E+00  0.00000000000E+00  0.17287895045E+04  0.17287895045E+04  0.25500000920E-02 0. -1.
        2   -1    0    0  501    0  0.00000000000E+00  0.00000000000E+00 -0.13499153691E+04  0.13499153691E+04  0.25500000920E-02 0.  1.
    10030    2    1    2    0    0  0.00000000000E+00  0.00000000000E+00  0.37887413538E+03  0.30787048736E+04  0.30553032727E+04 0.  0.
        5    1    3    3  502    0  0.97816734897E+03 -0.10849096622E+04  0.63991499729E+03  0.15947895258E+04  0.46999998093E+01 0. -1.
       -5    1    3    3    0  502 -0.97816734897E+03  0.10849096622E+04 -0.26104086191E+03  0.14839153478E+04  0.46999998093E+01 0.  1.
</event>
<event>
 5   0  0.4134019E-07  0.3103683E+04  0.7818609E-02  0.8214728E-01
       -1   -1    0    0    0  501  0.00000000000E+00  0.00000000000E+00  0.12923556380E+04  0.12923556380E+04  0.50400001928E-02 0.  1.
        1   -1    0    0  501    0  0.00000000000E+00  0.00000000000E+00 -0.18634278139E+04  0.18634278139E+04  0.50400001928E-02 0. -1.
    10030    2    1    2    0    0  0.00000000000E+00  0.00000000000E+00 -0.57107217596E+03  0.31557834519E+04  0.31036826135E+04 0.  0.
        2    1    3    3  502    0  0.94451596252E+03  0.18487969963E+02  0.96629289491E+03  0.13513601175E+04  0.25500000920E-02 0.  1.
       -2    1    3    3    0  502 -0.94451596252E+03 -0.18487969963E+02 -0.15373650709E+04  0.18044233344E+04  0.25500000920E-02 0. -1.
</event>
<event>
 5   0  0.4219337E-07  0.3043657E+04  0.7818609E-02  0.8231373E-01
       -1   -1    0    0    0  501  0.00000000000E+00  0.00000000000E+00  0.14019970111E+04  0.14019970111E+04  0.50400001928E-02 0.  1.
        1   -1    0    0  501    0  0.00000000000E+00  0.00000000000E+00 -0.16519025407E+04  0.16519025407E+04  0.50400001928E-02 0. -1.
    10030    2    1    2    0    0  0.00000000000E+00  0.00000000000E+00 -0.24990552961E+03  0.30538995518E+04  0.30436572899E+04 0.  0.
        4    1    3    3  502    0  0.49770623220E+03  0.14230349835E+04 -0.33354837608E+03  0.15440194914E+04  0.12699999809E+01 0. -1.
       -4    1    3    3    0  502 -0.49770623220E+03 -0.14230349835E+04  0.83642846469E+02  0.15098800603E+04  0.12699999809E+01 0.  1.
</event>
<event>
 5   0  0.4330395E-07  0.3077777E+04  0.7818609E-02  0.8221863E-01
       -1   -1    0    0    0  501  0.00000000000E+00  0.00000000000E+00  0.26548122597E+04  0.26548122597E+04  0.50400001928E-02 0. -1.
        1   -1    0    0  501    0  0.00000000000E+00  0.00000000000E+00 -0.89203235600E+03  0.89203235601E+03  0.50400001928E-02 0.  1.
    10030    2    1    2    0    0  0.00000000000E+00  0.00000000000E+00  0.17627799037E+04  0.35468446157E+04  0.30777774024E+04 0.  0.
        1    1    3    3  502    0  0.74148378853E+03  0.21318075263E+03  0.24158347318E+04  0.25360405543E+04  0.50400001928E-02 0. -1.
       -1    1    3    3    0  502 -0.74148378853E+03 -0.21318075263E+03 -0.65305482809E+03  0.10108040614E+04  0.50400001928E-02 0.  1.
</event>
<event>
 5   0  0.3935852E-07  0.3110835E+04  0.7818609E-02  0.8212771E-01
        1   -1    0    0  501    0  0.00000000000E+00  0.00000000000E+00  0.12686517217E+04  0.12686517217E+04  0.50400001928E-02 0. -1.
       -1   -1    0    0    0  501  0.00000000000E+00  0.00000000000E+00 -0.19070031542E+04  0.19070031542E+04  0.50400001928E-02 0.  1.
    10030    2    1    2    0    0  0.00000000000E+00  0.00000000000E+00 -0.63835143258E+03  0.31756548759E+04  0.31108345085E+04 0.  0.
        5    1    3    3  502    0 -0.12510760884E+03  0.50638131323E+02 -0.19010068613E+04  0.19057978148E+04  0.46999998093E+01 0.  1.
       -5    1    3    3    0  502  0.12510760884E+03 -0.50638131323E+02  0.12626554287E+04  0.12698570612E+04  0.46999998093E+01 0. -1.
</event>
<event>
 5   0  0.4173905E-07  0.3100265E+04  0.7818609E-02  0.8215665E-01
        1   -1    0    0  501    0  0.00000000000E+00  0.00000000000E+00  0.22227368169E+04  0.22227368169E+04  0.50400001928E-02 0.  1.
       -1   -1    0    0    0  501  0.00000000000E+00  0.00000000000E+00 -0.10810593987E+04  0.10810593987E+04  0.50400001928E-02 0. -1.
    10030    2    1    2    0    0  0.00000000000E+00  0.00000000000E+00  0.11416774183E+04  0.33037962156E+04  0.31002648446E+04 0.  0.
        3    1    3    3  502    0  0.48048486110E+03  0.13909093870E+04  0.51597265391E+02  0.14724662687E+04  0.10100000352E+00 0. -1.
       -3    1    3    3    0  502 -0.48048486110E+03 -0.13909093870E+04  0.10900801529E+04  0.18313299469E+04  0.10100000352E+00 0.  1.
</event>
<event>
 5   0  0.1258262E-06  0.3055027E+04  0.7818609E-02  0.8228190E-01
       -2   -1    0    0    0  501  0.00000000000E+00  0.00000000000E+00  0.17670317107E+04  0.17670317107E+04  0.25500000920E-02 0. -1.
        2   -1    0    0  501    0  0.00000000000E+00  0.00000000000E+00 -0.13204616819E+04  0.13204616819E+04  0.25500000920E-02 0.  1.
    10030    2    1    2    0    0  0.00000000000E+00  0.00000000000E+00  0.44657002881E+03  0.30874933925E+04  0.30550271125E+04 0.  0.
        1    1    3    3  502    0  0.24275434919E+03 -0.95098196788E+03 -0.95962431121E+03  0.13726526130E+04  0.50400001928E-02 0.  1.
       -1    1    3    3    0  502 -0.24275434919E+03  0.95098196788E+03  0.14061943400E+04  0.17148407795E+04  0.50400001928E-02 0. -1.
</event>
<event>
 5   0  0.3935852E-07  0.3109023E+04  0.7818609E-02  0.8213266E-01
       -1   -1    0    0    0  501  0.00000000000E+00  0.00000000000E+00  0.93204815361E+03  0.93204815362E+03  0.50400001928E-02 0.  1.
        1   -1    0    0  501    0  0.00000000000E+00  0.00000000000E+00 -0.25926833142E+04  0.25926833142E+04  0.50400001928E-02 0. -1.
    10030    2    1    2    0    0  0.00000000000E+00  0.00000000000E+00 -0.16606351606E+04  0.35247314678E+04  0.31090228021E+04 0.  0.
        5    1    3    3  502    0 -0.12448010210E+04 -0.64862995344E+03 -0.15876439373E+04  0.21191710077E+04  0.46999998093E+01 0. -1.
       -5    1    3    3    0  502  0.12448010210E+04  0.64862995344E+03 -0.72991223277E+02  0.14055604601E+04  0.46999998093E+01 0.  1.
</event>
<event>
 5   0  0.4330395E-07  0.3076038E+04  0.7818609E-02  0.8222345E-01
        1   -1    0    0  501    0  0.00000000000E+00  0.00000000000E+00  0.12045491920E+04  0.12045491921E+04  0.50400001928E-02 0.  1.
       -1   -1    0    0    0  501  0.00000000000E+00  0.00000000000E+00 -0.19638071449E+04  0.19638071449E+04  0.50400001928E-02 0. -1.
    10030    2    1    2    0    0  0.00000000000E+00  0.00000000000E+00 -0.75925795284E+03  0.31683563370E+04  0.30760379125E+04 0.  0.
        1    1    3    3  502    0 -0.45536028201E+03 -0.13952208492E+04 -0.85333165795E+03  0.16976952385E+04  0.50400001928E-02 0.  1.
       -1    1    3    3    0  502  0.45536028201E+03  0.13952208492E+04  0.94073705108E+02  0.14706610984E+04  0.50400001928E-02 0. -1.
</event>
<event>
 5   0  0.4173905E-07  0.3098244E+04  0.7818609E-02  0.8216220E-01
        1   -1    0    0  501    0  0.00000000000E+00  0.00000000000E+00  0.11406004491E+04  0.11406004491E+04  0.50400001928E-02 0.  1.
       -1   -1    0    0    0  501  0.00000000000E+00  0.00000000000E+00 -0.21039617214E+04  0.21039617214E+04  0.50400001928E-02 0. -1.
    10030    2    1    2    0    0  0.00000000000E+00  0.00000000000E+00 -0.96336127228E+03  0.32445621705E+04  0.30982444606E+04 0.  0.
        3    1    3    3  502    0 -0.22912105517E+03  0.12596356623E+04  0.43163086294E+03  0.13511046117E+04  0.10100000352E+00 0.  1.
       -3    1    3    3    0  502  0.22912105517E+03 -0.12596356623E+04 -0.13949921352E+04  0.18934575589E+04  0.10100000352E+00 0. -1.
</event>
<event>
 5   0  0.4219337E-07  0.2948842E+04  0.7818609E-02  0.8258492E-01
        1   -1    0    0  501    0  0.00000000000E+00  0.00000000000E+00  0.18539050543E+04  0.18539050543E+04  0.50400001928E-02 0. -1.
       -1   -1    0    0    0  501  0.00000000000E+00  0.00000000000E+00 -0.11726150892E+04  0.11726150892E+04  0.50400001928E-02 0.  1.
    10030    2    1    2    0    0  0.00000000000E+00  0.00000000000E+00  0.68128996513E+03  0.30265201435E+04  0.29488418341E+04 0.  0.
        4    1    3    3  502    0  0.32752222343E+03 -0.61066048658E+03  0.16763644495E+04  0.18139394745E+04  0.12699999809E+01 0. -1.
       -4    1    3    3    0  502 -0.32752222343E+03  0.61066048658E+03 -0.99507448433E+03  0.12125806691E+04  0.12699999809E+01 0.  1.
</event>
<event>
 5   0  0.4173905E-07  0.3098552E+04  0.7818609E-02  0.8216135E-01
        1   -1    0    0  501    0  0.00000000000E+00  0.00000000000E+00  0.12831694694E+04  0.12831694694E+04  0.50400001928E-02 0.  1.
       -1   -1    0    0    0  501  0.00000000000E+00  0.00000000000E+00 -0.18705686857E+04  0.18705686857E+04  0.50400001928E-02 0. -1.
    10030    2    1    2    0    0  0.00000000000E+00  0.00000000000E+00 -0.58739921624E+03  0.31537381551E+04  0.30985523251E+04 0.  0.
        3    1    3    3  502    0 -0.31070049232E+03 -0.41800244975E+03  0.11913952608E+04  0.13002628664E+04  0.10100000352E+00 0.  1.
       -3    1    3    3    0  502  0.31070049232E+03  0.41800244975E+03 -0.17787944771E+04  0.18534752887E+04  0.10100000352E+00 0. -1.
</event>
<event>
 5   0  0.1258262E-06  0.3106305E+04  0.7818609E-02  0.8214010E-01
       -2   -1    0    0    0  501  0.00000000000E+00  0.00000000000E+00  0.12541155420E+04  0.12541155420E+04  0.25500000920E-02 0.  1.
        2   -1    0    0  501    0  0.00000000000E+00  0.00000000000E+00 -0.19234929985E+04  0.19234929985E+04  0.25500000920E-02 0. -1.
    10030    2    1    2    0    0  0.00000000000E+00  0.00000000000E+00 -0.66937745650E+03  0.31776085405E+04  0.31063048558E+04 0.  0.
        1    1    3    3  502    0  0.78838910152E+03 -0.64449902048E+03 -0.15343601653E+04  0.18415204261E+04  0.50400001928E-02 0. -1.
       -1    1    3    3    0  502 -0.78838910152E+03  0.64449902048E+03  0.86498270882E+03  0.13360881144E+04  0.50400001928E-02 0.  1.
</event>
<event>
 5   0  0.1193123E-06  0.3103028E+04  0.7818609E-02  0.8214907E-01
        2   -1    0    0  501    0  0.00000000000E+00  0.00000000000E+00  0.20282986569E+04  0.20282986569E+04  0.25500000920E-02 0. -1.
       -2   -1    0    0    0  501  0.00000000000E+00  0.00000000000E+00 -0.11868056549E+04  0.11868056549E+04  0.25500000920E-02 0.  1.
    10030    2    1    2    0    0  0.00000000000E+00  0.00000000000E+00  0.84149300197E+03  0.32151043117E+04  0.31030284019E+04 0.  0.
        3    1    3    3  502    0  0.20914302669E+03  0.87913410144E+02  0.20110198190E+04  0.20237762465E+04  0.10100000352E+00 0. -1.
       -3    1    3    3    0  502 -0.20914302669E+03 -0.87913410144E+02 -0.11695268170E+04  0.11913280653E+04  0.10100000352E+00 0.  1.
</event>
<event>
 5   0  0.4173905E-07  0.3122494E+04  0.7818609E-02  0.8209592E-01
       -1   -1    0    0    0  501  0.00000000000E+00  0.00000000000E+00  0.18803905017E+04  0.18803905017E+04  0.50400001928E-02 0. -1.
        1   -1    0    0  501    0  0.00000000000E+00  0.00000000000E+00 -0.12962687675E+04  0.12962687675E+04  0.50400001928E-02 0.  1.
    10030    2    1    2    0    0  0.00000000000E+00  0.00000000000E+00  0.58412173417E+03  0.31766592692E+04  0.31224935408E+04 0.  0.
        3    1    3    3  502    0  0.12839720692E+04 -0.82123115491E+03 -0.52167283543E+02  0.15250332193E+04  0.10100000352E+00 0.  1.
       -3    1    3    3    0  502 -0.12839720692E+04  0.82123115491E+03  0.63628901771E+03  0.16516260499E+04  0.10100000352E+00 0. -1.
</event>
<event>
 5   0  0.4134019E-07  0.3110095E+04  0.7818609E-02  0.8212973E-01
        1   -1    0    0  501    0  0.00000000000E+00  0.00000000000E+00  0.26294133460E+04  0.26294133460E+04  0.50400001928E-02 0.  1.
       -1   -1    0    0    0  501  0.00000000000E+00  0.00000000000E+00 -0.91966258546E+03  0.91966258547E+03  0.50400001928E-02 0. -1.
    10030    2    1    2    0    0  0.00000000000E+00  0.00000000000E+00  0.17097507606E+04  0.35490759315E+04  0.31100952243E+04 0.  0.
        2    1    3    3  502    0  0.11528203512E+04  0.79104595087E+03  0.78036140219E+02  0.14002992886E+04  0.25500000920E-02 0. -1.
       -2    1    3    3    0  502 -0.11528203512E+04 -0.79104595087E+03  0.16317146203E+04  0.21487766428E+04  0.25500000920E-02 0.  1.
</event>
<event>
 5   0  0.4219337E-07  0.3106855E+04  0.7818609E-02  0.8213859E-01
        1   -1    0    0  501    0  0.00000000000E+00  0.00000000000E+00  0.17719409827E+04  0.17719409827E+04  0.50400001928E-02 0.  1.
       -1   -1    0    0    0  501  0.00000000000E+00  0.00000000000E+00 -0.13618608530E+04  0.13618608530E+04  0.50400001928E-02 0. -1.
    10030    2    1    2    0    0  0.00000000000E+00  0.00000000000E+00  0.41008012970E+03  0.31338018357E+04  0.31068550389E+04 0.  0.
        4    1    3    3  502    0 -0.27887166384E+03 -0.11664965093E+04 -0.79076725635E+03  0.14365924884E+04  0.12699999809E+01 0. -1.
       -4    1    3    3    0  502  0.27887166384E+03  0.11664965093E+04  0.12008473861E+04  0.16972093473E+04  0.12699999809E+01 0.  1.
</event>
<event>
 5   0  0.4134019E-07  0.3070625E+04  0.7818609E-02  0.8223846E-01
       -1   -1    0    0    0  501  0.00000000000E+00  0.00000000000E+00  0.73436005619E+03  0.73436005621E+03  0.50400001928E-02 0. -1.
        1   -1    0    0  501    0  0.00000000000E+00  0.00000000000E+00 -0.32098480129E+04  0.32098480129E+04  0.50400001928E-02 0.  1.
    10030    2    1    2    0    0  0.00000000000E+00  0.00000000000E+00 -0.24754879567E+04  0.39442080691E+04  0.30706248010E+04 0.  0.
        2    1    3    3  502    0  0.22330496819E+03  0.10020239135E+04  0.22864701913E+03  0.10517587611E+04  0.25500000920E-02 0. -1.
       -2    1    3    3    0  502 -0.22330496819E+03 -0.10020239135E+04 -0.27041349758E+04  0.28924493080E+04  0.25500000920E-02 0.  1.
</event>
<event>
 5   0  0.4330395E-07  0.3107242E+04  0.7818609E-02  0.8213753E-01
        1   -1    0    0  501    0  0.00000000000E+00  0.00000000000E+00  0.12197816076E+04  0.12197816076E+04  0.50400001928E-02 0. -1.
       -1   -1    0    0    0  501  0.00000000000E+00  0.00000000000E+00 -0.19788280012E+04  0.19788280012E+04  0.50400001928E-02 0.  1.
    10030    2    1    2    0    0  0.00000000000E+00  0.00000000000E+00 -0.75904639358E+03  0.31986096088E+04  0.31072418641E+04 0.  0.
        1    1    3    3  502    0  0.50333854530E+03  0.14683262904E+04 -0.31119200776E+03  0.15830894643E+04  0.50400001928E-02 0. -1.
       -1    1    3    3    0  502 -0.50333854530E+03 -0.14683262904E+04 -0.44785438581E+03  0.16155201445E+04  0.50400001928E-02 0.  1.
</event>
<event>
 5   0  0.3935852E-07  0.3104849E+04  0.7818609E-02  0.8214409E-01
        1   -1    0    0  501    0  0.00000000000E+00  0.00000000000E+00  0.23747901106E+04  0.23747901107E+04  0.50400001928E-02 0.  1.
       -1   -1    0    0    0  501  0.00000000000E+00  0.00000000000E+00 -0.10148354622E+04  0.10148354622E+04  0.50400001928E-02 0. -1.
    10030    2    1    2    0    0  0.00000000000E+00  0.00000000000E+00  0.13599546484E+04  0.33896255729E+04  0.31048486080E+04 0.  0.
        5    1    3    3  502    0 -0.58927281514E+03  0.11098975640E+04  0.16751112140E+04  0.20940713270E+04  0.46999998093E+01 0.  1.
       -5    1    3    3    0  502  0.58927281514E+03 -0.11098975640E+04 -0.31515656560E+03  0.12955542459E+04  0.46999998093E+01 0. -1.
</event>
<event>
 5   0  0.1200286E-06  0.3100302E+04  0.7818609E-02  0.8215655E-01
       -2   -1    0    0    0  501  0.00000000000E+00  0.00000000000E+00  0.16980194348E+04  0.16980194348E+04  0.25500000920E-02 0. -1.
        2   -1    0    0  501    0  0.00000000000E+00  0.00000000000E+00 -0.14151591776E+04  0.14151591776E+04  0.25500000920E-02 0.  1.
    10030    2    1    2    0    0  0.00000000000E+00  0.00000000000E+00  0.28286025715E+03  0.31131786124E+04  0.31003017833E+04 0.  0.
        5    1    3    3  502    0  0.11236400180E+04 -0.87908285878E+03 -0.46738182776E+03  0.15012732681E+04  0.46999998093E+01 0.  1.
       -5    1    3    3    0  502 -0.11236400180E+04  0.87908285878E+03  0.75024208491E+03  0.16119053442E+04  0.46999998093E+01 0. -1.
</event>
<event>
 5   0  0.1237580E-06  0.3093261E+04  0.7818609E-02  0.8217590E-01
       -2   -1    0    0    0  501  0.00000000000E+00  0.00000000000E+00  0.17736904403E+04  0.17736904403E+04  0.25500000920E-02 0.  1.
        2   -1    0    0  501    0  0.00000000000E+00  0.00000000000E+00 -0.13486378741E+04  0.13486378741E+04  0.25500000920E-02 0. -1.
    10030    2    1    2    0    0  0.00000000000E+00  0.00000000000E+00  0.42505256614E+03  0.31223283144E+04  0.30932611301E+04 0.  0.
        4    1    3    3  502    0  0.55311360150E+03 -0.39858461441E+03 -0.11887770432E+04  0.13704002417E+04  0.12699999809E+01 0. -1.
       -4    1    3    3    0  502 -0.55311360150E+03  0.39858461441E+03  0.16138296094E+04  0.17519280727E+04  0.12699999809E+01 0.  1.
</event>
<event>
 5   0  0.3935852E-07  0.3088766E+04  0.7818609E-02  0.8218828E-01
       -1   -1    0    0    0  501  0.00000000000E+00  0.00000000000E+00  0.15212826726E+04  0.15212826726E+04  0.50400001928E-02 0.  1.
        1   -1    0    0  501    0  0.00000000000E+00  0.00000000000E+00 -0.15678344798E+04  0.15678344798E+04  0.50400001928E-02 0. -1.
    10030    2    1    2    0    0  0.00000000000E+00  0.00000000000E+00 -0.46551807230E+02  0.30891171524E+04  0.30887663735E+04 0.  0.
        5    1    3    3  502    0 -0.12059728102E+04  0.38385281424E+03  0.86191440215E+03  0.15312190988E+04  0.46999998093E+01 0.  1.
       -5    1    3    3    0  502  0.12059728102E+04 -0.38385281424E+03 -0.90846620938E+03  0.15578980536E+04  0.46999998093E+01 0. -1.
</event>
<event>
 5   0  0.3902375E-07  0.3097839E+04  0.7818609E-02  0.8216331E-01
       -3   -1    0    0    0  501  0.00000000000E+00  0.00000000000E+00  0.11251480061E+04  0.11251480107E+04  0.10100000352E+00 0.  1.
        3   -1    0    0  501    0  0.00000000000E+00  0.00000000000E+00 -0.21322987688E+04  0.21322987712E+04  0.10100000352E+00 0. -1.
    10030    2    1    2    0    0  0.00000000000E+00  0.00000000000E+00 -0.10071507626E+04  0.32574467819E+04  0.30978390659E+04 0.  0.
        1    1    3    3  502    0  0.73904094382E+03 -0.13290884523E+04 -0.81282679308E+03  0.17243390114E+04  0.50400001928E-02 0.  1.
       -1    1    3    3    0  502 -0.73904094382E+03  0.13290884523E+04 -0.19432396955E+03  0.15331077705E+04  0.50400001928E-02 0. -1.
</event>
<event>
 5   0  0.1193123E-06  0.3110306E+04  0.7818609E-02  0.8212915E-01
        2   -1    0    0  501    0  0.00000000000E+00  0.00000000000E+00  0.22192604318E+04  0.22192604318E+04  0.25500000920E-02 0. -1.
       -2   -1    0    0    0  501  0.00000000000E+00  0.00000000000E+00 -0.10897781116E+04  0.10897781116E+04  0.25500000920E-02 0.  1.
    10030    2    1    2    0    0  0.00000000000E+00  0.00000000000E+00  0.11294823202E+04  0.33090385434E+04  0.31103063788E+04 0.  0.
        3    1    3    3  502    0 -0.26903265469E+03  0.12511682316E+04  0.15047696154E+04  0.19753815121E+04  0.10100000352E+00 0. -1.
       -3    1    3    3    0  502  0.26903265469E+03 -0.12511682316E+04 -0.37528729514E+03  0.13336570313E+04  0.10100000352E+00 0.  1.
</event>
<event>
 5   0  0.1237580E-06  0.3081593E+04  0.7818609E-02  0.8220808E-01
       -2   -1    0    0    0  501  0.00000000000E+00  0.00000000000E+00  0.19231598841E+04  0.19231598841E+04  0.25500000920E-02 0.  1.
        2   -1    0    0  501    0  0.00000000000E+00  0.00000000000E+00 -0.12344543799E+04  0.12344543799E+04  0.25500000920E-02 0. -1.
    10030    2    1    2    0    0  0.00000000000E+00  0.00000000000E+00  0.68870550420E+03  0.31576142640E+04  0.30815925377E+04 0.  0.
        4    1    3    3  502    0 -0.14842534190E+04 -0.41257441781E+03  0.31490945846E+03  0.15723852715E+04  0.12699999809E+01 0. -1.
       -4    1    3    3    0  502  0.14842534190E+04  0.41257441781E+03  0.37379604573E+03  0.15852289925E+04  0.12699999809E+01 0.  1.
</event>
<event>
 5   0  0.1237580E-06  0.3103416E+04  0.7818609E-02  0.8214801E-01
       -2   -1    0    0    0  501  0.00000000000E+00  0.00000000000E+00  0.28182996589E+04  0.28182996589E+04  0.25500000920E-02 0.  1.
        2   -1    0    0  501    0  0.00000000000E+00  0.00000000000E+00 -0.85434429272E+03  0.85434429272E+03  0.25500000920E-02 0. -1.
    10030    2    1    2    0    0  0.00000000000E+00  0.00000000000E+00  0.19639553662E+04  0.36726439516E+04  0.31034163296E+04 0.  0.
        4    1    3    3  502    0  0.13432798572E+03 -0.93376010499E+03 -0.47600528902E+03  0.10566620034E+04  0.12699999809E+01 0. -1.
       -4    1    3    3    0  502 -0.13432798572E+03  0.93376010499E+03  0.24399606552E+04  0.26159819482E+04  0.12699999809E+01 0.  1.
</event>
<event>
 5   0  0.4330395E-07  0.3100605E+04  0.7818609E-02  0.8215572E-01
        1   -1    0    0  501    0  0.00000000000E+00  0.00000000000E+00  0.21087502759E+04  0.21087502759E+04  0.50400001928E-02 0. -1.
       -1   -1    0    0    0  501  0.00000000000E+00  0.00000000000E+00 -0.11397449749E+04  0.11397449749E+04  0.50400001928E-02 0.  1.
    10030    2    1    2    0    0  0.00000000000E+00  0.00000000000E+00  0.96900530096E+03  0.32484952508E+04  0.31006047993E+04 0.  0.
        1    1    3    3  502    0 -0.14487876687E+04  0.42522996861E+03  0.11611926866E+03  0.15143612250E+04  0.50400001928E-02 0.  1.
       -1    1    3    3    0  502  0.14487876687E+04 -0.42522996861E+03  0.85288603230E+03  0.17341340258E+04  0.50400001928E-02 0. -1.
</event>
<event>
 5   0  0.3935852E-07  0.3101195E+04  0.7818609E-02  0.8215410E-01
        1   -1    0    0  501    0  0.00000000000E+00  0.00000000000E+00  0.17598086663E+04  0.17598086663E+04  0.50400001928E-02 0.  1.
       -1   -1    0    0    0  501  0.00000000000E+00  0.00000000000E+00 -0.13662583349E+04  0.13662583349E+04  0.50400001928E-02 0. -1.
    10030    2    1    2    0    0  0.00000000000E+00  0.00000000000E+00  0.39355033133E+03  0.31260670012E+04  0.31011954200E+04 0.  0.
        5    1    3    3  502    0 -0.28952578211E+03 -0.12477477408E+04 -0.68409334292E+03  0.14521382148E+04  0.46999998093E+01 0. -1.
       -5    1    3    3    0  502  0.28952578211E+03  0.12477477408E+04  0.10776436743E+04  0.16739287864E+04  0.46999998093E+01 0.  1.
</event>
<event>
 5   0  0.4173905E-07  0.3101532E+04  0.7818609E-02  0.8215318E-01
        1   -1    0    0  501    0  0.00000000000E+00  0.00000000000E+00  0.26013384128E+04  0.26013384128E+04  0.50400001928E-02 0.  1.
       -1   -1    0    0    0  501  0.00000000000E+00  0.00000000000E+00 -0.92447599858E+03  0.92447599859E+03  0.50400001928E-02 0. -1.
    10030    2    1    2    0    0  0.00000000000E+00  0.00000000000E+00  0.16768624142E+04  0.35258144114E+04  0.31015318324E+04 0.  0.
        3    1    3    3  502    0 -0.13896206328E+04 -0.54132335647E+03  0.35506026193E+03  0.15330180296E+04  0.10100000352E+00 0. -1.
       -3    1    3    3    0  502  0.13896206328E+04  0.54132335647E+03  0.13218021523E+04  0.19927963818E+04  0.10100000352E+00 0.  1.
</event>
<event>
 5   0  0.1237580E-06  0.3119637E+04  0.7818609E-02  0.8210369E-01
       -2   -1    0    0    0  501  0.00000000000E+00  0.00000000000E+00  0.11578366108E+04  0.11578366108E+04  0.25500000920E-02 0.  1.
        2   -1    0    0  501    0  0.00000000000E+00  0.00000000000E+00 -0.21013618123E+04  0.21013618124E+04  0.25500000920E-02 0. -1.
    10030    2    1    2    0    0  0.00000000000E+00  0.00000000000E+00 -0.94352520152E+03  0.32591984232E+04  0.31196369269E+04 0.  0.
        4    1    3    3  502    0 -0.12470424346E+04  0.85661828168E+03 -0.86838054504E+03  0.17444185559E+04  0.12699999809E+01 0. -1.
       -4    1    3    3    0  502  0.12470424346E+04 -0.85661828168E+03 -0.75144656478E+02  0.15147798673E+04  0.12699999809E+01 0.  1.
</event>
<event>
 5   0  0.4219337E-07  0.3113255E+04  0.7818609E-02  0.8212110E-01
        1   -1    0    0  501    0  0.00000000000E+00  0.00000000000E+00  0.13995698432E+04  0.13995698432E+04  0.50400001928E-02 0. -1.
       -1   -1    0    0    0  501  0.00000000000E+00  0.00000000000E+00 -0.17313102813E+04  0.17313102813E+04  0.50400001928E-02 0.  1.
    10030    2    1    2    0    0  0.00000000000E+00  0.00000000000E+00 -0.33174043806E+03  0.31308801245E+04  0.31132553117E+04 0.  0.
        4    1    3    3  502    0  0.15268112309E+04  0.86524686752E+02 -0.45811645837E+03  0.15964057625E+04  0.12699999809E+01 0.  1.
       -4    1    3    3    0  502 -0.15268112309E+04 -0.86524686752E+02  0.12637602032E+03  0.15344743620E+04  0.12699999809E+01 0. -1.
</event>
<event>
 5   0  0.1193123E-06  0.3094275E+04  0.7818609E-02  0.8217311E-01
       -2   -1    0    0    0  501  0.00000000000E+00  0.00000000000E+00  0.10974352173E+04  0.10974352173E+04  0.25500000920E-02 0. -1.
        2   -1    0    0  501    0  0.00000000000E+00  0.00000000000E+00 -0.21811172959E+04  0.21811172959E+04  0.25500000920E-02 0.  1.
    10030    2    1    2    0    0  0.00000000000E+00  0.00000000000E+00 -0.10836820786E+04  0.32785525132E+04  0.30942753166E+04 0.  0.
        3    1    3    3  502    0  0.12676027395E+04 -0.84393766965E+03 -0.83121270679E+03  0.17349242259E+04  0.10100000352E+00 0.  1.
       -3    1    3    3    0  502 -0.12676027395E+04  0.84393766965E+03 -0.25246937183E+03  0.15436282873E+04  0.10100000352E+00 0. -1.
</event>
<event>
 5   0  0.3935852E-07  0.3076086E+04  0.7818609E-02  0.8222332E-01
        1   -1    0    0  501    0  0.00000000000E+00  0.00000000000E+00  0.17253942096E+04  0.17253942096E+04  0.50400001928E-02 0. -1.
       -1   -1    0    0    0  501  0.00000000000E+00  0.00000000000E+00 -0.13710354622E+04  0.13710354622E+04  0.50400001928E-02 0.  1.
    10030    2    1    2    0    0  0.00000000000E+00  0.00000000000E+00  0.35435874742E+03  0.30964296718E+04  0.30760862457E+04 0.  0.
        5    1    3    3  502    0  0.11697108551E+04  0.98436201469E+03  0.76539080246E+01  0.15288141590E+04  0.46999998093E+01 0. -1.
       -5    1    3    3    0  502 -0.11697108551E+04 -0.98436201469E+03  0.34670483939E+03  0.15676155128E+04  0.46999998093E+01 0.  1.
</event>
<event>
 5   0  0.1193123E-06  0.3077337E+04  0.7818609E-02  0.8221985E-01
        2   -1    0    0  501    0  0.00000000000E+00  0.00000000000E+00  0.24931453816E+04  0.24931453816E+04  0.25500000920E-02 0. -1.
       -2   -1    0    0    0  501  0.00000000000E+00  0.00000000000E+00 -0.94960395198E+03  0.94960395199E+03  0.25500000920E-02 0.  1.
    10030    2    1    2    0    0  0.00000000000E+00  0.00000000000E+00  0.15435414296E+04  0.34427493336E+04  0.30773369703E+04 0.  0.
        3    1    3    3  502    0 -0.13581325573E+04 -0.47086520470E+03  0.13858196290E+04  0.19966807803E+04  0.10100000352E+00 0. -1.
       -3    1    3    3    0  502  0.13581325573E+04  0.47086520470E+03  0.15772180063E+03  0.14460685533E+04  0.10100000352E+00 0.  1.
</event>
<event>
 5   0  0.1258262E-06  0.3097561E+04  0.7818609E-02  0.8216407E-01
       -2   -1    0    0    0  501  0.00000000000E+00  0.00000000000E+00  0.10691270175E+04  0.10691270175E+04  0.25500000920E-02 0.  1.
        2   -1    0    0  501    0  0.00000000000E+00  0.00000000000E+00 -0.22436263948E+04  0.22436263948E+04  0.25500000920E-02 0. -1.
    10030    2    1    2    0    0  0.00000000000E+00  0.00000000000E+00 -0.11744993773E+04  0.33127534123E+04  0.30975613607E+04 0.  0.
        1    1    3    3  502    0  0.76244080044E+03 -0.43844813019E+03  0.77613507944E+03  0.11730040062E+04  0.50400001928E-02 0.  1.
       -1    1    3    3    0  502 -0.76244080044E+03  0.43844813019E+03 -0.19506344567E+04  0.21397494061E+04  0.50400001928E-02 0. -1.
</event>
<event>
 5   0  0.3935852E-07  0.3092595E+04  0.7818609E-02  0.8217773E-01
       -1   -1    0    0    0  501  0.00000000000E+00  0.00000000000E+00  0.11556234156E+04  0.11556234156E+04  0.50400001928E-02 0.  1.
        1   -1    0    0  501    0  0.00000000000E+00  0.00000000000E+00 -0.20690440290E+04  0.20690440290E+04  0.50400001928E-02 0. -1.
    10030    2    1    2    0    0  0.00000000000E+00  0.00000000000E+00 -0.91342061335E+03  0.32246674446E+04  0.30925948508E+04 0.  0.
        5    1    3    3  502    0  0.38129823052E+03 -0.14983680335E+04 -0.43296650197E+03  0.16056080425E+04  0.46999998093E+01 0.  1.
       -5    1    3    3    0  502 -0.38129823052E+03  0.14983680335E+04 -0.48045411138E+03  0.16190594021E+04  0.46999998093E+01 0. -1.
</event>
<event>
 5   0  0.4134019E-07  0.3082199E+04  0.7818609E-02  0.8220640E-01
       -1   -1    0    0    0  501  0.00000000000E+00  0.00000000000E+00  0.23631784493E+04  0.23631784493E+04  0.50400001928E-02 0. -1.
        1   -1    0    0  501    0  0.00000000000E+00  0.00000000000E+00 -0.10049972175E+04  0.10049972175E+04  0.50400001928E-02 0.  1.
    10030    2    1    2    0    0  0.00000000000E+00  0.00000000000E+00  0.13581812318E+04  0.33681756669E+04  0.30821990631E+04 0.  0.
        2    1    3    3  502    0 -0.43253274734E+03 -0.67788856489E+03 -0.75756423998E+03  0.11047719501E+04  0.25500000920E-02 0.  1.
       -2    1    3    3    0  502  0.43253274734E+03  0.67788856489E+03  0.21157454718E+04  0.22634037168E+04  0.25500000920E-02 0. -1.
</event>
<event>
 5   0  0.1176002E-06  0.3166666E+04  0.7818609E-02  0.8197677E-01
       -2   -1    0    0    0  501  0.00000000000E+00  0.00000000000E+00  0.13658541218E+04  0.13658541218E+04  0.25500000920E-02 0. -1.
        2   -1    0    0  501    0  0.00000000000E+00  0.00000000000E+00 -0.18354395104E+04  0.18354395104E+04  0.25500000920E-02 0.  1.
    10030    2    1    2    0    0  0.00000000000E+00  0.00000000000E+00 -0.46958538857E+03  0.32012936322E+04  0.31666655148E+04 0.  0.
        2    1    3    3  502    0  0.75434490953E+03  0.10285448955E+04 -0.11831349291E+04  0.17397554728E+04  0.25500000920E-02 0.  1.
       -2    1    3    3    0  502 -0.75434490953E+03 -0.10285448955E+04  0.71354954055E+03  0.14615381594E+04  0.25500000920E-02 0. -1.
</event>
<event>
 5   0  0.1176002E-06  0.3099819E+04  0.7818609E-02  0.8215788E-01
       -2   -1    0    0    0  501  0.00000000000E+00  0.00000000000E+00  0.10973829552E+04  0.10973829552E+04  0.25500000920E-02 0.  1.
        2   -1    0    0  501    0  0.00000000000E+00  0.00000000000E+00 -0.21890434536E+04  0.21890434536E+04  0.25500000920E-02 0. -1.
    10030    2    1    2    0    0  0.00000000000E+00  0.00000000000E+00 -0.10916604984E+04  0.32864264088E+04  0.30998186877E+04 0.  0.
        2    1    3    3  502    0 -0.17629053869E+03  0.99917472855E+03  0.69636467223E+03  0.12305902035E+04  0.25500000920E-02 0.  1.
       -2    1    3    3    0  502  0.17629053869E+03 -0.99917472855E+03 -0.17880251706E+04  0.20558362053E+04  0.25500000920E-02 0. -1.
</event>
<event>
 5   0  0.4173905E-07  0.3092514E+04  0.7818609E-02  0.8217795E-01
       -1   -1    0    0    0  501  0.00000000000E+00  0.00000000000E+00  0.19888377601E+04  0.19888377601E+04  0.50400001928E-02 0.  1.
        1   -1    0    0  501    0  0.00000000000E+00  0.00000000000E+00 -0.12021648049E+04  0.12021648050E+04  0.50400001928E-02 0. -1.
    10030    2    1    2    0    0  0.00000000000E+00  0.00000000000E+00  0.78667295517E+03  0.31910025651E+04  0.30925140310E+04 0.  0.
        3    1    3    3  502    0  0.44909983407E+02 -0.15182310155E+04  0.69215995625E+03  0.16691697752E+04  0.10100000352E+00 0. -1.
       -3    1    3    3    0  502 -0.44909983407E+02  0.15182310155E+04  0.94512998913E+02  0.15218327899E+04  0.10100000352E+00 0.  1.
</event>
<event>
 5   0  0.4134019E-07  0.3110646E+04  0.7818609E-02  0.8212822E-01
       -1   -1    0    0    0  501  0.00000000000E+00  0.00000000000E+00  0.24103642844E+04  0.24103642844E+04  0.50400001928E-02 0. -1.
        1   -1    0    0  501    0  0.00000000000E+00  0.00000000000E+00 -0.10035949994E+04  0.10035949995E+04  0.50400001928E-02 0.  1.
    10030    2    1    2    0    0  0.00000000000E+00  0.00000000000E+00  0.14067692849E+04  0.34139592838E+04  0.31106459411E+04 0.  0.
        2    1    3    3  502    0  0.92588472186E+03  0.90020775671E+03 -0.24796757202E+03  0.13149617638E+04  0.25500000920E-02 0.  1.
       -2    1    3    3    0  502 -0.92588472186E+03 -0.90020775671E+03  0.16547368570E+04  0.20989975201E+04  0.25500000920E-02 0. -1.
</event>
<event>
 5   0  0.1258262E-06  0.3085272E+04  0.7818609E-02  0.8219792E-01
        2   -1    0    0  501    0  0.00000000000E+00  0.00000000000E+00  0.18160666002E+04  0.18160666002E+04  0.25500000920E-02 0. -1.
       -2   -1    0    0    0  501  0.00000000000E+00  0.00000000000E+00 -0.13103736386E+04  0.13103736387E+04  0.25500000920E-02 0.  1.
    10030    2    1    2    0    0  0.00000000000E+00  0.00000000000E+00  0.50569296155E+03  0.31264402389E+04  0.30852719808E+04 0.  0.
        1    1    3    3  502    0  0.10525090250E+04  0.98676074679E+03 -0.30056689886E+03  0.14737070536E+04  0.50400001928E-02 0. -1.
       -1    1    3    3    0  502 -0.10525090250E+04 -0.98676074679E+03  0.80625986041E+03  0.16527331853E+04  0.50400001928E-02 0.  1.
</event>
<event>
 5   0  0.4219337E-07  0.3099241E+04  0.7818609E-02  0.8215946E-01
        1   -1    0    0  501    0  0.00000000000E+00  0.00000000000E+00  0.21730087839E+04  0.21730087839E+04  0.50400001928E-02 0.  1.
       -1   -1    0    0    0  501  0.00000000000E+00  0.00000000000E+00 -0.11050686791E+04  0.11050686791E+04  0.50400001928E-02 0. -1.
    10030    2    1    2    0    0  0.00000000000E+00  0.00000000000E+00  0.10679401048E+04  0.32780774631E+04  0.30992411630E+04 0.  0.
        4    1    3    3  502    0  0.59813939810E+02 -0.71434903436E+03  0.19870903792E+04  0.21124398307E+04  0.12699999809E+01 0.  1.
       -4    1    3    3    0  502 -0.59813939810E+02  0.71434903436E+03 -0.91915027437E+03  0.11656376324E+04  0.12699999809E+01 0. -1.
</event>
<event>
 5   0  0.1258262E-06  0.3039294E+04  0.7818609E-02  0.8232598E-01
        2   -1    0    0  501    0  0.00000000000E+00  0.00000000000E+00  0.19433949693E+04  0.19433949693E+04  0.25500000920E-02 0. -1.
       -2   -1    0    0    0  501  0.00000000000E+00  0.00000000000E+00 -0.11882954105E+04  0.11882954105E+04  0.25500000920E-02 0.  1.
    10030    2    1    2    0    0  0.00000000000E+00  0.00000000000E+00  0.75509955883E+03  0.31316903798E+04  0.30392942094E+04 0.  0.
        1    1    3    3  502    0 -0.97939039693E+03  0.93367064069E+03  0.10902271925E+04  0.17376828670E+04  0.50400001928E-02 0. -1.
       -1    1    3    3    0  502  0.97939039693E+03 -0.93367064069E+03 -0.33512763365E+03  0.13940075128E+04  0.50400001928E-02 0.  1.
</event>
<event>
 5   0  0.4330395E-07  0.3096656E+04  0.7818609E-02  0.8216656E-01
       -1   -1    0    0    0  501  0.00000000000E+00  0.00000000000E+00  0.16857917991E+04  0.16857917991E+04  0.50400001928E-02 0.  1.
        1   -1    0    0  501    0  0.00000000000E+00  0.00000000000E+00 -0.14220730358E+04  0.14220730358E+04  0.50400001928E-02 0. -1.
    10030    2    1    2    0    0  0.00000000000E+00  0.00000000000E+00  0.26371876328E+03  0.31078648349E+04  0.30966556550E+04 0.  0.
        1    1    3    3  502    0  0.53618505627E+03 -0.11664982398E+04 -0.73678295250E+03  0.14802235227E+04  0.50400001928E-02 0. -1.
       -1    1    3    3    0  502 -0.53618505627E+03  0.11664982398E+04  0.10005017158E+04  0.16276413122E+04  0.50400001928E-02 0.  1.
</event>
<event>
 5   0  0.1237580E-06  0.3128549E+04  0.7818609E-02  0.8207946E-01
        2   -1    0    0  501    0  0.00000000000E+00  0.00000000000E+00  0.13889636812E+04  0.13889636812E+04  0.25500000920E-02 0.  1.
       -2   -1    0    0    0  501  0.00000000000E+00  0.00000000000E+00 -0.17617129021E+04  0.17617129021E+04  0.25500000920E-02 0. -1.
    10030    2    1    2    0    0  0.00000000000E+00  0.00000000000E+00 -0.37274922085E+03  0.31506765833E+04  0.31285493365E+04 0.  0.
        4    1    3    3  502    0 -0.14592992978E+04 -0.56316845786E+03 -0.20199146121E+03  0.15771858850E+04  0.12699999809E+01 0.  1.
       -4    1    3    3    0  502  0.14592992978E+04  0.56316845786E+03 -0.17075775964E+03  0.15734906983E+04  0.12699999809E+01 0. -1.
</event>
<event>
 5   0  0.3902375E-07  0.3079411E+04  0.7818609E-02  0.8221411E-01
        3   -1    0    0  501    0  0.00000000000E+00  0.00000000000E+00  0.19453280678E+04  0.19453280704E+04  0.10100000352E+00 0. -1.
       -3   -1    0    0    0  501  0.00000000000E+00  0.00000000000E+00 -0.12186596731E+04  0.12186596773E+04  0.10100000352E+00 0.  1.
    10030    2    1    2    0    0  0.00000000000E+00  0.00000000000E+00  0.72666839464E+03  0.31639877477E+04  0.30794109033E+04 0.  0.
        1    1    3    3  502    0  0.14238878053E+03  0.11636227414E+04 -0.66228018589E+03  0.13464425327E+04  0.50400001928E-02 0.  1.
       -1    1    3    3    0  502 -0.14238878053E+03 -0.11636227414E+04  0.13889485805E+04  0.18175452150E+04  0.50400001928E-02 0. -1.
</event>
<event>
 5   0  0.1193123E-06  0.3064305E+04  0.7818609E-02  0.8225603E-01
       -2   -1    0    0    0  501  0.00000000000E+00  0.00000000000E+00  0.10385030830E+04  0.10385030830E+04  0.25500000920E-02 0.  1.
        2   -1    0    0  501    0  0.00000000000E+00  0.00000000000E+00 -0.22604560285E+04  0.22604560285E+04  0.25500000920E-02 0. -1.
    10030    2    1    2    0    0  0.00000000000E+00  0.00000000000E+00 -0.12219529456E+04  0.32989591115E+04  0.30643045244E+04 0.  0.
        3    1    3    3  502    0 -0.12145341462E+04  0.93145672908E+03 -0.53650012497E+03  0.16218930991E+04  0.10100000352E+00 0.  1.
       -3    1    3    3    0  502  0.12145341462E+04 -0.93145672908E+03 -0.68545282061E+03  0.16770660124E+04  0.10100000352E+00 0. -1.
</event>
<event>
 5   0  0.1176002E-06  0.3101961E+04  0.7818609E-02  0.8215200E-01
       -2   -1    0    0    0  501  0.00000000000E+00  0.00000000000E+00  0.14478611035E+04  0.14478611035E+04  0.25500000920E-02 0. -1.
        2   -1    0    0  501    0  0.00000000000E+00  0.00000000000E+00 -0.16614437917E+04  0.16614437917E+04  0.25500000920E-02 0.  1.
    10030    2    1    2    0    0  0.00000000000E+00  0.00000000000E+00 -0.21358268821E+03  0.31093048952E+04  0.31019605682E+04 0.  0.
        2    1    3    3  502    0 -0.30855320861E+03 -0.64607009456E+03 -0.14858861014E+04  0.16493844779E+04  0.25500000920E-02 0.  1.
       -2    1    3    3    0  502  0.30855320861E+03  0.64607009456E+03  0.12723034132E+04  0.14599204173E+04  0.25500000920E-02 0. -1.
</event>
<event>
 5   0  0.1258262E-06  0.3111019E+04  0.7818609E-02  0.8212720E-01
        2   -1    0    0  501    0  0.00000000000E+00  0.00000000000E+00  0.13717275854E+04  0.13717275854E+04  0.25500000920E-02 0.  1.
       -2   -1    0    0    0  501  0.00000000000E+00  0.00000000000E+00 -0.17639141304E+04  0.17639141304E+04  0.25500000920E-02 0. -1.
    10030    2    1    2    0    0  0.00000000000E+00  0.00000000000E+00 -0.39218654494E+03  0.31356417158E+04  0.31110189141E+04 0.  0.
        1    1    3    3  502    0 -0.16853832046E+03  0.13600576225E+04  0.54556196211E+03  0.14750592383E+04  0.50400001928E-02 0.  1.
       -1    1    3    3    0  502  0.16853832046E+03 -0.13600576225E+04 -0.93774850705E+03  0.16605824775E+04  0.50400001928E-02 0. -1.
</event>
<event>
 5   0  0.4219337E-07  0.3079668E+04  0.7818609E-02  0.8221340E-01
       -1   -1    0    0    0  501  0.00000000000E+00  0.00000000000E+00  0.19347478492E+04  0.19347478492E+04  0.50400001928E-02 0.  1.
        1   -1    0    0  501    0  0.00000000000E+00  0.00000000000E+00 -0.12255286146E+04  0.12255286146E+04  0.50400001928E-02 0. -1.
    10030    2    1    2    0    0  0.00000000000E+00  0.00000000000E+00  0.70921923458E+03  0.31602764639E+04  0.30796680674E+04 0.  0.
        4    1    3    3  502    0 -0.13637754077E+04 -0.69619343120E+03  0.52171726157E+03  0.16176400002E+04  0.12699999809E+01 0. -1.
       -4    1    3    3    0  502  0.13637754077E+04  0.69619343120E+03  0.18750197301E+03  0.15426364637E+04  0.12699999809E+01 0.  1.
</event>
<event>
 5   0  0.1176002E-06  0.3107092E+04  0.7818609E-02  0.8213794E-01
        2   -1    0    0  501    0  0.00000000000E+00  0.00000000000E+00  0.27001651910E+04  0.27001651910E+04  0.25500000920E-02 0. -1.
       -2   -1    0    0    0  501  0.00000000000E+00  0.00000000000E+00 -0.89383628371E+03  0.89383628372E+03  0.25500000920E-02 0.  1.
    10030    2    1    2    0    0  0.00000000000E+00  0.00000000000E+00  0.18063289073E+04  0.35940014747E+04  0.31070922868E+04 0.  0.
        2    1    3    3  502    0  0.10188918901E+04  0.10253663227E+04  0.24476551260E+03  0.14660924035E+04  0.25500000920E-02 0.  1.
       -2    1    3    3    0  502 -0.10188918901E+04 -0.10253663227E+04  0.15615633947E+04  0.21279090712E+04  0.25500000920E-02 0. -1.
</event>
<event>
 5   0  0.3935852E-07  0.3101035E+04  0.7818609E-02  0.8215454E-01
       -1   -1    0    0    0  501  0.00000000000E+00  0.00000000000E+00  0.20372227772E+04  0.20372227772E+04  0.50400001928E-02 0.  1.
        1   -1    0    0  501    0  0.00000000000E+00  0.00000000000E+00 -0.11800890029E+04  0.11800890029E+04  0.50400001928E-02 0. -1.
    10030    2    1    2    0    0  0.00000000000E+00  0.00000000000E+00  0.85713377435E+03  0.32173117801E+04  0.31010347923E+04 0.  0.
        5    1    3    3  502    0 -0.10602457525E+04 -0.20808607896E+03 -0.72518356370E+03  0.13012817385E+04  0.46999998093E+01 0. -1.
       -5    1    3    3    0  502  0.10602457525E+04  0.20808607896E+03  0.15823173380E+04  0.19160300416E+04  0.46999998093E+01 0.  1.
</event>
<event>
 5   0  0.4219337E-07  0.3099513E+04  0.7818609E-02  0.8215872E-01
        1   -1    0    0  501    0  0.00000000000E+00  0.00000000000E+00  0.27913951537E+04  0.27913951537E+04  0.50400001928E-02 0. -1.
       -1   -1    0    0    0  501  0.00000000000E+00  0.00000000000E+00 -0.86041015711E+03  0.86041015712E+03  0.50400001928E-02 0.  1.
    10030    2    1    2    0    0  0.00000000000E+00  0.00000000000E+00  0.19309849966E+04  0.36518053108E+04  0.30995126990E+04 0.  0.
        4    1    3    3  502    0 -0.51281355587E+02 -0.81394675302E+03 -0.58712543753E+03  0.10049164077E+04  0.12699999809E+01 0.  1.
       -4    1    3    3    0  502  0.51281355587E+02  0.81394675302E+03  0.25181104341E+04  0.26468889031E+04  0.12699999809E+01 0. -1.
</event>
<event>
 5   0  0.4134019E-07  0.3103443E+04  0.7818609E-02  0.8214794E-01
        1   -1    0    0  501    0  0.00000000000E+00  0.00000000000E+00  0.17286565160E+04  0.17286565160E+04  0.50400001928E-02 0. -1.
       -1   -1    0    0    0  501  0.00000000000E+00  0.00000000000E+00 -0.13928969394E+04  0.13928969394E+04  0.50400001928E-02 0.  1.
    10030    2    1    2    0    0  0.00000000000E+00  0.00000000000E+00  0.33575957662E+03  0.31215534554E+04  0.31034434878E+04 0.  0.
        2    1    3    3  502    0 -0.58644468218E+03  0.19433695520E+03 -0.12638576828E+04  0.14067766204E+04  0.25500000920E-02 0.  1.
       -2    1    3    3    0  502  0.58644468218E+03 -0.19433695520E+03  0.15996172594E+04  0.17147768350E+04  0.25500000920E-02 0. -1.
</event>
<event>
 5   0  0.3935852E-07  0.3103166E+04  0.7818609E-02  0.8214869E-01
        1   -1    0    0  501    0  0.00000000000E+00  0.00000000000E+00  0.74377920994E+03  0.74377920996E+03  0.50400001928E-02 0. -1.
       -1   -1    0    0    0  501  0.00000000000E+00  0.00000000000E+00 -0.32367272694E+04  0.32367272694E+04  0.50400001928E-02 0.  1.
    10030    2    1    2    0    0  0.00000000000E+00  0.00000000000E+00 -0.24929480595E+04  0.39805064794E+04  0.31031664160E+04 0.  0.
        5    1    3    3  502    0  0.71725132525E+03 -0.89893836581E+03  0.89561038400E+02  0.11535089591E+04  0.46999998093E+01 0. -1.
       -5    1    3    3    0  502 -0.71725132525E+03  0.89893836581E+03 -0.25825090979E+04  0.28269975203E+04  0.46999998093E+01 0.  1.
</event>
<event>
 5   0  0.1193123E-06  0.3101400E+04  0.7818609E-02  0.8215354E-01
       -2   -1    0    0    0  501  0.00000000000E+00  0.00000000000E+00  0.13289143374E+04  0.13289143374E+04  0.25500000920E-02 0.  1.
        2   -1    0    0  501    0  0.00000000000E+00  0.00000000000E+00 -0.18094999152E+04  0.18094999152E+04  0.25500000920E-02 0. -1.
    10030    2    1    2    0    0  0.00000000000E+00  0.00000000000E+00 -0.48058557773E+03  0.31384142526E+04  0.31013999296E+04 0.  0.
        3    1    3    3  502    0  0.49844946610E+02  0.11721150389E+04 -0.12664625423E+04  0.17263445671E+04  0.10100000352E+00 0. -1.
       -3    1    3    3    0  502 -0.49844946610E+02 -0.11721150389E+04  0.78587696459E+03  0.14120696855E+04  0.10100000352E+00 0.  1.
</event>
<event>
 5   0  0.1237580E-06  0.3092743E+04  0.7818609E-02  0.8217732E-01
        2   -1    0    0  501    0  0.00000000000E+00  0.00000000000E+00  0.21775652010E+04  0.21775652010E+04  0.25500000920E-02 0. -1.
       -2   -1    0    0    0  501  0.00000000000E+00  0.00000000000E+00 -0.10981369033E+04  0.10981369033E+04  0.25500000920E-02 0.  1.
    10030    2    1    2    0    0  0.00000000000E+00  0.00000000000E+00  0.10794282976E+04  0.32757021043E+04  0.30927429292E+04 0.  0.
        4    1    3    3  502    0 -0.54005534738E+03 -0.66277451363E+03  0.19044802003E+04  0.20875766525E+04  0.12699999809E+01 0. -1.
       -4    1    3    3    0  502  0.54005534738E+03  0.66277451363E+03 -0.82505190263E+03  0.11881254517E+04  0.12699999809E+01 0.  1.
</event>
<event>
 5   0  0.1200286E-06  0.3103488E+04  0.7818609E-02  0.8214781E-01
       -2   -1    0    0    0  501  0.00000000000E+00  0.00000000000E+00  0.11292929479E+04  0.11292929479E+04  0.25500000920E-02 0.  1.
        2   -1    0    0  501    0  0.00000000000E+00  0.00000000000E+00 -0.21322278756E+04  0.21322278756E+04  0.25500000920E-02 0. -1.
    10030    2    1    2    0    0  0.00000000000E+00  0.00000000000E+00 -0.10029349278E+04  0.32615208235E+04  0.31034882975E+04 0.  0.
        5    1    3    3  502    0 -0.11965488817E+04  0.71166501027E+03 -0.12217060655E+04  0.18522375964E+04  0.46999998093E+01 0. -1.
       -5    1    3    3    0  502  0.11965488817E+04 -0.71166501027E+03  0.21877113773E+03  0.14092832270E+04  0.46999998093E+01 0.  1.
</event>
<event>
 5   0  0.4134019E-07  0.3092650E+04  0.7818609E-02  0.8217758E-01
       -1   -1    0    0    0  501  0.00000000000E+00  0.00000000000E+00  0.14983936946E+04  0.14983936947E+04  0.50400001928E-02 0. -1.
        1   -1    0    0  501    0  0.00000000000E+00  0.00000000000E+00 -0.15957895082E+04  0.15957895082E+04  0.50400001928E-02 0.  1.
    10030    2    1    2    0    0  0.00000000000E+00  0.00000000000E+00 -0.97395813579E+02  0.30941832029E+04  0.30926499557E+04 0.  0.
        2    1    3    3  502    0  0.50765163416E+02  0.55632175211E+03  0.13939080412E+04  0.15016825966E+04  0.25500000920E-02 0. -1.
       -2    1    3    3    0  502 -0.50765163416E+02 -0.55632175211E+03 -0.14913038548E+04  0.15925006063E+04  0.25500000920E-02 0.  1.
</event>
<event>
 5   0  0.4134019E-07  0.3101389E+04  0.7818609E-02  0.8215357E-01
       -1   -1    0    0    0  501  0.00000000000E+00  0.00000000000E+00  0.10573012776E+04  0.10573012776E+04  0.50400001928E-02 0. -1.
        1   -1    0    0  501    0  0.00000000000E+00  0.00000000000E+00 -0.22743312489E+04  0.22743312489E+04  0.50400001928E-02 0.  1.
    10030    2    1    2    0    0  0.00000000000E+00  0.00000000000E+00 -0.12170299713E+04  0.33316325265E+04  0.31013889373E+04 0.  0.
        2    1    3    3  502    0 -0.11883452360E+04 -0.94697949704E+03 -0.27616213472E+03  0.15444093021E+04  0.25500000920E-02 0. -1.
       -2    1    3    3    0  502  0.11883452360E+04  0.94697949704E+03 -0.94086783661E+03  0.17872232244E+04  0.25500000920E-02 0.  1.
</event>
<event>
 5   0  0.3902375E-07  0.3079849E+04  0.7818609E-02  0.8221290E-01
       -3   -1    0    0    0  501  0.00000000000E+00  0.00000000000E+00  0.12300553406E+04  0.12300553447E+04  0.10100000352E+00 0. -1.
        3   -1    0    0  501    0  0.00000000000E+00  0.00000000000E+00 -0.19278542084E+04  0.19278542110E+04  0.10100000352E+00 0.  1.
    10030    2    1    2    0    0  0.00000000000E+00  0.00000000000E+00 -0.69779886783E+03  0.31579095557E+04  0.30798489415E+04 0.  0.
        5    1    3    3  502    0  0.36292219737E+03  0.13381505890E+04  0.33814774007E+03  0.14271389226E+04  0.46999998093E+01 0. -1.
       -5    1    3    3    0  502 -0.36292219737E+03 -0.13381505890E+04 -0.10359466079E+04  0.17307706332E+04  0.46999998093E+01 0.  1.
</event>
<event>
 5   0  0.3902375E-07  0.3126358E+04  0.7818609E-02  0.8208541E-01
        3   -1    0    0  501    0  0.00000000000E+00  0.00000000000E+00  0.22108822803E+04  0.22108822826E+04  0.10100000352E+00 0.  1.
       -3   -1    0    0    0  501  0.00000000000E+00  0.00000000000E+00 -0.11052277275E+04  0.11052277321E+04  0.10100000352E+00 0. -1.
    10030    2    1    2    0    0  0.00000000000E+00  0.00000000000E+00  0.11056545529E+04  0.33161100147E+04  0.31263578873E+04 0.  0.
        1    1    3    3  502    0 -0.45119536392E+03 -0.63501759200E+03  0.19903337255E+04  0.21373471729E+04  0.50400001928E-02 0.  1.
       -1    1    3    3    0  502  0.45119536392E+03  0.63501759200E+03 -0.88467917266E+03  0.11787628418E+04  0.50400001928E-02 0. -1.
</event>
<event>
 5   0  0.4219337E-07  0.3099241E+04  0.7818609E-02  0.8215946E-01
        1   -1    0    0  501    0  0.00000000000E+00  0.00000000000E+00  0.18824036568E+04  0.18824036568E+04  0.50400001928E-02 0. -1.
       -1   -1    0    0    0  501  0.00000000000E+00  0.00000000000E+00 -0.12756688594E+04  0.12756688594E+04  0.50400001928E-02 0.  1.
    10030    2    1    2    0    0  0.00000000000E+00  0.00000000000E+00  0.60673479737E+03  0.31580725162E+04  0.30992410205E+04 0.  0.
        4    1    3    3  502    0  0.16997742219E+03  0.97845716810E+03 -0.90877278268E+03  0.13461576198E+04  0.12699999809E+01 0.  1.
       -4    1    3    3    0  502 -0.16997742219E+03 -0.97845716810E+03  0.15155075800E+04  0.18119148964E+04  0.12699999809E+01 0. -1.
</event>
<event>
 5   0  0.4173905E-07  0.3120653E+04  0.7818609E-02  0.8210093E-01
        1   -1    0    0  501    0  0.00000000000E+00  0.00000000000E+00  0.17683993715E+04  0.17683993716E+04  0.50400001928E-02 0.  1.
       -1   -1    0    0    0  501  0.00000000000E+00  0.00000000000E+00 -0.13767355367E+04  0.13767355367E+04  0.50400001928E-02 0. -1.
    10030    2    1    2    0    0  0.00000000000E+00  0.00000000000E+00  0.39166383489E+03  0.31451349082E+04  0.31206526611E+04 0.  0.
        3    1    3    3  502    0  0.55555098989E+03  0.13718144834E+04  0.69377923921E+03  0.16345768633E+04  0.10100000352E+00 0.  1.
       -3    1    3    3    0  502 -0.55555098989E+03 -0.13718144834E+04 -0.30211540431E+03  0.15105580449E+04  0.10100000352E+00 0. -1.
</event>
<event>
 5   0  0.1237580E-06  0.3103637E+04  0.7818609E-02  0.8214740E-01
        2   -1    0    0  501    0  0.00000000000E+00  0.00000000000E+00  0.23079885816E+04  0.23079885816E+04  0.25500000920E-02 0. -1.
       -2   -1    0    0    0  501  0.00000000000E+00  0.00000000000E+00 -0.10433937754E+04  0.10433937754E+04  0.25500000920E-02 0.  1.
    10030    2    1    2    0    0  0.00000000000E+00  0.00000000000E+00  0.12645948062E+04  0.33513823570E+04  0.31036371693E+04 0.  0.
        4    1    3    3  502    0 -0.60705275571E+03  0.92608705167E+03 -0.54168005468E+03  0.12327080636E+04  0.12699999809E+01 0.  1.
       -4    1    3    3    0  502  0.60705275571E+03 -0.92608705167E+03  0.18062748609E+04  0.21186742934E+04  0.12699999809E+01 0. -1.
</event>
<event>
 5   0  0.1200286E-06  0.3121376E+04  0.7818609E-02  0.8209896E-01
        2   -1    0    0  501    0  0.00000000000E+00  0.00000000000E+00  0.29526167459E+04  0.29526167459E+04  0.25500000920E-02 0. -1.
       -2   -1    0    0    0  501  0.00000000000E+00  0.00000000000E+00 -0.82494502916E+03  0.82494502916E+03  0.25500000920E-02 0.  1.
    10030    2    1    2    0    0  0.00000000000E+00  0.00000000000E+00  0.21276717168E+04  0.37775617751E+04  0.31213756631E+04 0.  0.
        5    1    3    3  502    0 -0.84582881669E+02  0.13937162110E+04  0.19076360836E+04  0.23640424400E+04  0.46999998093E+01 0. -1.
       -5    1    3    3    0  502  0.84582881669E+02 -0.13937162110E+04  0.22003563316E+03  0.14135193351E+04  0.46999998093E+01 0.  1.
</event>
<event>
 5   0  0.3935852E-07  0.3097940E+04  0.7818609E-02  0.8216303E-01
       -1   -1    0    0    0  501  0.00000000000E+00  0.00000000000E+00  0.12538352493E+04  0.12538352493E+04  0.50400001928E-02 0. -1.
        1   -1    0    0  501    0  0.00000000000E+00  0.00000000000E+00 -0.19135757679E+04  0.19135757679E+04  0.50400001928E-02 0.  1.
    10030    2    1    2    0    0  0.00000000000E+00  0.00000000000E+00 -0.65974051866E+03  0.31674110172E+04  0.30979404449E+04 0.  0.
        5    1    3    3  502    0 -0.13660019084E+04 -0.57565244247E+03 -0.78933583354E+03  0.16794076624E+04  0.46999998093E+01 0. -1.
       -5    1    3    3    0  502  0.13660019084E+04  0.57565244247E+03  0.12959531488E+03  0.14880033548E+04  0.46999998093E+01 0.  1.
</event>
<event>
 5   0  0.1258262E-06  0.3195929E+04  0.7818609E-02  0.8189893E-01
        2   -1    0    0  501    0  0.00000000000E+00  0.00000000000E+00  0.20461936704E+04  0.20461936704E+04  0.25500000920E-02 0.  1.
       -2   -1    0    0    0  501  0.00000000000E+00  0.00000000000E+00 -0.12479222598E+04  0.12479222598E+04  0.25500000920E-02 0. -1.
    10030    2    1    2    0    0  0.00000000000E+00  0.00000000000E+00  0.79827141064E+03  0.32941159302E+04  0.31959290537E+04 0.  0.
        1    1    3    3  502    0  0.52655427932E+03 -0.11761737914E+04 -0.57479965347E+03  0.14110417564E+04  0.50400001928E-02 0. -1.
       -1    1    3    3    0  502 -0.52655427932E+03  0.11761737914E+04  0.13730710641E+04  0.18830741738E+04  0.50400001928E-02 0.  1.
</event>
<event>
 5   0  0.1176002E-06  0.3098759E+04  0.7818609E-02  0.8216078E-01
        2   -1    0    0  501    0  0.00000000000E+00  0.00000000000E+00  0.13435294664E+04  0.13435294664E+04  0.25500000920E-02 0. -1.
       -2   -1    0    0    0  501  0.00000000000E+00  0.00000000000E+00 -0.17867695576E+04  0.17867695576E+04  0.25500000920E-02 0.  1.
    10030    2    1    2    0    0  0.00000000000E+00  0.00000000000E+00 -0.44324009122E+03  0.31302990241E+04  0.30987594617E+04 0.  0.
        2    1    3    3  502    0 -0.14920154866E+04 -0.37875971126E+03 -0.39950440885E+03  0.15903373554E+04  0.25500000920E-02 0. -1.
       -2    1    3    3    0  502  0.14920154866E+04  0.37875971126E+03 -0.43735682371E+02  0.15399616687E+04  0.25500000920E-02 0.  1.
</event>
<event>
 5   0  0.1176002E-06  0.3235340E+04  0.7818609E-02  0.8179546E-01
       -2   -1    0    0    0  501  0.00000000000E+00  0.00000000000E+00  0.88844231859E+03  0.88844231859E+03  0.25500000920E-02 0. -1.
        2   -1    0    0  501    0  0.00000000000E+00  0.00000000000E+00 -0.29454426809E+04  0.29454426809E+04  0.25500000920E-02 0.  1.
    10030    2    1    2    0    0  0.00000000000E+00  0.00000000000E+00 -0.20570003623E+04  0.38338849995E+04  0.32353398120E+04 0.  0.
        2    1    3    3  502    0  0.12875071747E+04 -0.97598881222E+03 -0.93203314889E+03  0.18651848909E+04  0.25500000920E-02 0.  1.
       -2    1    3    3    0  502 -0.12875071747E+04  0.97598881222E+03 -0.11249672135E+04  0.19687001087E+04  0.25500000920E-02 0. -1.
</event>
<event>
 5   0  0.4219337E-07  0.3096940E+04  0.7818609E-02  0.8216578E-01
        1   -1    0    0  501    0  0.00000000000E+00  0.00000000000E+00  0.11520501833E+04  0.11520501833E+04  0.50400001928E-02 0. -1.
       -1   -1    0    0    0  501  0.00000000000E+00  0.00000000000E+00 -0.20812977396E+04  0.20812977396E+04  0.50400001928E-02 0.  1.
    10030    2    1    2    0    0  0.00000000000E+00  0.00000000000E+00 -0.92924755632E+03  0.32333479230E+04  0.30969400656E+04 0.  0.
        4    1    3    3  502    0  0.68813393957E+03 -0.13438053816E+04 -0.10534964906E+03  0.15134204254E+04  0.12699999809E+01 0. -1.
       -4    1    3    3    0  502 -0.68813393957E+03  0.13438053816E+04 -0.82389790726E+03  0.17199274976E+04  0.12699999809E+01 0.  1.
</event>
<event>
 5   0  0.4330395E-07  0.3086770E+04  0.7818609E-02  0.8219378E-01
        1   -1    0    0  501    0  0.00000000000E+00  0.00000000000E+00  0.13452499202E+04  0.13452499203E+04  0.50400001928E-02 0.  1.
       -1   -1    0    0    0  501  0.00000000000E+00  0.00000000000E+00 -0.17707027538E+04  0.17707027538E+04  0.50400001928E-02 0. -1.
    10030    2    1    2    0    0  0.00000000000E+00  0.00000000000E+00 -0.42545283354E+03  0.31159526740E+04  0.30867703111E+04 0.  0.
        1    1    3    3  502    0 -0.27152170816E+03 -0.38966658639E+03 -0.16951032408E+04  0.17603803804E+04  0.50400001928E-02 0. -1.
       -1    1    3    3    0  502  0.27152170816E+03  0.38966658639E+03  0.12696504073E+04  0.13555722937E+04  0.50400001928E-02 0.  1.
</event>
<event>
 5   0  0.1200286E-06  0.3103214E+04  0.7818609E-02  0.8214856E-01
        2   -1    0    0  501    0  0.00000000000E+00  0.00000000000E+00  0.20904554305E+04  0.20904554305E+04  0.25500000920E-02 0. -1.
       -2   -1    0    0    0  501  0.00000000000E+00  0.00000000000E+00 -0.11516553711E+04  0.11516553711E+04  0.25500000920E-02 0.  1.
    10030    2    1    2    0    0  0.00000000000E+00  0.00000000000E+00  0.93880005932E+03  0.32421108016E+04  0.31032139627E+04 0.  0.
        5    1    3    3  502    0  0.86698690950E+03  0.24098800263E+03 -0.85118555413E+03  0.12386607511E+04  0.46999998093E+01 0.  1.
       -5    1    3    3    0  502 -0.86698690950E+03 -0.24098800263E+03  0.17899856134E+04  0.20034500505E+04  0.46999998093E+01 0. -1.
</event>
<event>
 5   0  0.3935852E-07  0.3097528E+04  0.7818609E-02  0.8216417E-01
        1   -1    0    0  501    0  0.00000000000E+00  0.00000000000E+00  0.20391642227E+04  0.20391642227E+04  0.50400001928E-02 0. -1.
       -1   -1    0    0    0  501  0.00000000000E+00  0.00000000000E+00 -0.11763006571E+04  0.11763006571E+04  0.50400001928E-02 0.  1.
    10030    2    1    2    0    0  0.00000000000E+00  0.00000000000E+00  0.86286356561E+03  0.32154648798E+04  0.30975281856E+04 0.  0.
        5    1    3    3  502    0  0.66515992602E+03  0.12868564130E+03  0.18771719064E+04  0.19956939088E+04  0.46999998093E+01 0. -1.
       -5    1    3    3    0  502 -0.66515992602E+03 -0.12868564130E+03 -0.10143083408E+04  0.12197709710E+04  0.46999998093E+01 0.  1.
</event>
<event>
 5   0  0.1176002E-06  0.3100545E+04  0.7818609E-02  0.8215588E-01
        2   -1    0    0  501    0  0.00000000000E+00  0.00000000000E+00  0.17247435668E+04  0.17247435668E+04  0.25500000920E-02 0. -1.
       -2   -1    0    0    0  501  0.00000000000E+00  0.00000000000E+00 -0.13934502638E+04  0.13934502638E+04  0.25500000920E-02 0.  1.
    10030    2    1    2    0    0  0.00000000000E+00  0.00000000000E+00  0.33129330301E+03  0.31181938306E+04  0.31005447122E+04 0.  0.
        2    1    3    3  502    0 -0.46883424084E+03  0.84205867215E+03  0.13868386979E+04  0.16888427774E+04  0.25500000920E-02 0. -1.
       -2    1    3    3    0  502  0.46883424084E+03 -0.84205867215E+03 -0.10555453949E+04  0.14293510532E+04  0.25500000920E-02 0.  1.
</event>
<event>
 5   0  0.1237580E-06  0.3093972E+04  0.7818609E-02  0.8217394E-01
        2   -1    0    0  501    0  0.00000000000E+00  0.00000000000E+00  0.12178219057E+04  0.12178219057E+04  0.25500000920E-02 0.  1.
       -2   -1    0    0    0  501  0.00000000000E+00  0.00000000000E+00 -0.19651194377E+04  0.19651194377E+04  0.25500000920E-02 0. -1.
    10030    2    1    2    0    0  0.00000000000E+00  0.00000000000E+00 -0.74729753199E+03  0.31829413433E+04  0.30939718799E+04 0.  0.
        4    1    3    3  502    0 -0.11615480557E+04 -0.28758667190E+03  0.63498520420E+03  0.13546615083E+04  0.12699999809E+01 0.  1.
       -4    1    3    3    0  502  0.11615480557E+04  0.28758667190E+03 -0.13822827362E+04  0.18282798350E+04  0.12699999809E+01 0. -1.
</event>
<event>
 5   0  0.4219337E-07  0.3132742E+04  0.7818609E-02  0.8206809E-01
       -1   -1    0    0    0  501  0.00000000000E+00  0.00000000000E+00  0.11912287385E+04  0.11912287385E+04  0.50400001928E-02 0. -1.
        1   -1    0    0  501    0  0.00000000000E+00  0.00000000000E+00 -0.20596533941E+04  0.20596533941E+04  0.50400001928E-02 0.  1.
    10030    2    1    2    0    0  0.00000000000E+00  0.00000000000E+00 -0.86842465562E+03  0.32508821327E+04  0.31327421308E+04 0.  0.
        4    1    3    3  502    0 -0.12078738864E+04 -0.43451706370E+03 -0.13657005158E+04  0.18742742371E+04  0.12699999809E+01 0.  1.
       -4    1    3    3    0  502  0.12078738864E+04  0.43451706370E+03  0.49727586020E+03  0.13766078956E+04  0.12699999809E+01 0. -1.
</event>
<event>
 5   0  0.1200286E-06  0.3038162E+04  0.7818609E-02  0.8232917E-01
       -2   -1    0    0    0  501  0.00000000000E+00  0.00000000000E+00  0.13873711569E+04  0.13873711569E+04  0.25500000920E-02 0.  1.
        2   -1    0    0  501    0  0.00000000000E+00  0.00000000000E+00 -0.16632944416E+04  0.16632944416E+04  0.25500000920E-02 0. -1.
    10030    2    1    2    0    0  0.00000000000E+00  0.00000000000E+00 -0.27592328468E+03  0.30506655985E+04  0.30381617691E+04 0.  0.
        5    1    3    3  502    0  0.63391102018E+03  0.93611785789E+03 -0.11567430893E+04  0.16174784357E+04  0.46999998093E+01 0. -1.
       -5    1    3    3    0  502 -0.63391102018E+03 -0.93611785789E+03  0.88081980463E+03  0.14331871628E+04  0.46999998093E+01 0.  1.
</event>
<event>
 5   0  0.1193123E-06  0.3100857E+04  0.7818609E-02  0.8215503E-01
       -2   -1    0    0    0  501  0.00000000000E+00  0.00000000000E+00  0.13998782821E+04  0.13998782821E+04  0.25500000920E-02 0. -1.
        2   -1    0    0  501    0  0.00000000000E+00  0.00000000000E+00 -0.17171701984E+04  0.17171701984E+04  0.25500000920E-02 0.  1.
    10030    2    1    2    0    0  0.00000000000E+00  0.00000000000E+00 -0.31729191633E+03  0.31170484805E+04  0.31008574733E+04 0.  0.
        3    1    3    3  502    0  0.27753458028E+03  0.14478775114E+03 -0.16850741086E+04  0.17139030597E+04  0.10100000352E+00 0.  1.
       -3    1    3    3    0  502 -0.27753458028E+03 -0.14478775114E+03  0.13677821923E+04  0.14031454208E+04  0.10100000352E+00 0. -1.
</event>
<event>
 5   0  0.1237580E-06  0.3101210E+04  0.7818609E-02  0.8215406E-01
        2   -1    0    0  501    0  0.00000000000E+00  0.00000000000E+00  0.15199274406E+04  0.15199274406E+04  0.25500000920E-02 0.  1.
       -2   -1    0    0    0  501  0.00000000000E+00  0.00000000000E+00 -0.15819017619E+04  0.15819017619E+04  0.25500000920E-02 0. -1.
    10030    2    1    2    0    0  0.00000000000E+00  0.00000000000E+00 -0.61974321269E+02  0.31018292025E+04  0.31012100195E+04 0.  0.
        4    1    3    3  502    0 -0.22987534229E+03  0.42735229736E+03 -0.15040003276E+04  0.15803452969E+04  0.12699999809E+01 0. -1.
       -4    1    3    3    0  502  0.22987534229E+03 -0.42735229736E+03  0.14420260064E+04  0.15214839056E+04  0.12699999809E+01 0.  1.
</event>
<event>
 5   0  0.4134019E-07  0.3129105E+04  0.7818609E-02  0.8207796E-01
        1   -1    0    0  501    0  0.00000000000E+00  0.00000000000E+00  0.18204674943E+04  0.18204674944E+04  0.50400001928E-02 0.  1.
       -1   -1    0    0    0  501  0.00000000000E+00  0.00000000000E+00 -0.13446127987E+04  0.13446127987E+04  0.50400001928E-02 0. -1.
    10030    2    1    2    0    0  0.00000000000E+00  0.00000000000E+00  0.47585469561E+03  0.31650802931E+04  0.31291045956E+04 0.  0.
        2    1    3    3  502    0 -0.47016068827E+03 -0.13991815103E+04 -0.28675008500E+03  0.15036574020E+04  0.25500000920E-02 0. -1.
       -2    1    3    3    0  502  0.47016068827E+03  0.13991815103E+04  0.76260478061E+03  0.16614228910E+04  0.25500000920E-02 0.  1.
</event>
<event>
 5   0  0.1200286E-06  0.3100966E+04  0.7818609E-02  0.8215473E-01
        2   -1    0    0  501    0  0.00000000000E+00  0.00000000000E+00  0.19262937118E+04  0.19262937118E+04  0.25500000920E-02 0. -1.
       -2   -1    0    0    0  501  0.00000000000E+00  0.00000000000E+00 -0.12479907780E+04  0.12479907780E+04  0.25500000920E-02 0.  1.
    10030    2    1    2    0    0  0.00000000000E+00  0.00000000000E+00  0.67830293381E+03  0.31742844897E+04  0.31009655193E+04 0.  0.
        5    1    3    3  502    0  0.83086302138E+03  0.12079837109E+04 -0.17717181727E+03  0.14768107357E+04  0.46999998093E+01 0.  1.
       -5    1    3    3    0  502 -0.83086302138E+03 -0.12079837109E+04  0.85547475108E+03  0.16974737541E+04  0.46999998093E+01 0. -1.
</event>
<event>
 5   0  0.3935852E-07  0.3093344E+04  0.7818609E-02  0.8217567E-01
        1   -1    0    0  501    0  0.00000000000E+00  0.00000000000E+00  0.28265629551E+04  0.28265629551E+04  0.50400001928E-02 0. -1.
       -1   -1    0    0    0  501  0.00000000000E+00  0.00000000000E+00 -0.84632626989E+03  0.84632626991E+03  0.50400001928E-02 0.  1.
    10030    2    1    2    0    0  0.00000000000E+00  0.00000000000E+00  0.19802366852E+04  0.36728892250E+04  0.30933441337E+04 0.  0.
        5    1    3    3  502    0  0.20006537638E+03  0.56589400642E+03  0.26826307018E+04  0.27489619411E+04  0.46999998093E+01 0. -1.
       -5    1    3    3    0  502 -0.20006537638E+03 -0.56589400642E+03 -0.70239401662E+03  0.92392728389E+03  0.46999998093E+01 0.  1.
</event>
<event>
 5   0  0.1237580E-06  0.3093207E+04  0.7818609E-02  0.8217605E-01
        2   -1    0    0  501    0  0.00000000000E+00  0.00000000000E+00  0.16309870947E+04  0.16309870947E+04  0.25500000920E-02 0.  1.
       -2   -1    0    0    0  501  0.00000000000E+00  0.00000000000E+00 -0.14665852605E+04  0.14665852605E+04  0.25500000920E-02 0. -1.
    10030    2    1    2    0    0  0.00000000000E+00  0.00000000000E+00  0.16440183422E+03  0.30975723552E+04  0.30932065131E+04 0.  0.
        4    1    3    3  502    0 -0.78776559896E+03  0.10437074732E+04  0.90924799316E+03  0.15926812156E+04  0.12699999809E+01 0.  1.
       -4    1    3    3    0  502  0.78776559896E+03 -0.10437074732E+04 -0.74484615893E+03  0.15048911396E+04  0.12699999809E+01 0. -1.
</event>
<event>
 5   0  0.4330395E-07  0.3044068E+04  0.7818609E-02  0.8231258E-01
        1   -1    0    0  501    0  0.00000000000E+00  0.00000000000E+00  0.15702854402E+04  0.15702854402E+04  0.50400001928E-02 0.  1.
       -1   -1    0    0    0  501  0.00000000000E+00  0.00000000000E+00 -0.14752652066E+04  0.14752652066E+04  0.50400001928E-02 0. -1.
    10030    2    1    2    0    0  0.00000000000E+00  0.00000000000E+00  0.95020233589E+02  0.30455506468E+04  0.30440679850E+04 0.  0.
        1    1    3    3  502    0  0.11779696086E+04 -0.13709392643E+03  0.10020085099E+04  0.15525553766E+04  0.50400001928E-02 0.  1.
       -1    1    3    3    0  502 -0.11779696086E+04  0.13709392643E+03 -0.90698827636E+03  0.14929952702E+04  0.50400001928E-02 0. -1.
</event>
<event>
 5   0  0.1200286E-06  0.3105445E+04  0.7818609E-02  0.8214245E-01
       -2   -1    0    0    0  501  0.00000000000E+00  0.00000000000E+00  0.16100829136E+04  0.16100829136E+04  0.25500000920E-02 0.  1.
        2   -1    0    0  501    0  0.00000000000E+00  0.00000000000E+00 -0.14974051708E+04  0.14974051708E+04  0.25500000920E-02 0. -1.
    10030    2    1    2    0    0  0.00000000000E+00  0.00000000000E+00  0.11267774281E+03  0.31074880843E+04  0.31054445609E+04 0.  0.
        5    1    3    3  502    0  0.75568847680E+03  0.11575398386E+04  0.76388325069E+03  0.15793996526E+04  0.46999998093E+01 0.  1.
       -5    1    3    3    0  502 -0.75568847680E+03 -0.11575398386E+04 -0.65120550788E+03  0.15280884318E+04  0.46999998093E+01 0. -1.
</event>
<event>
 5   0  0.3935852E-07  0.3043728E+04  0.7818609E-02  0.8231353E-01
        1   -1    0    0  501    0  0.00000000000E+00  0.00000000000E+00  0.15979208757E+04  0.15979208757E+04  0.50400001928E-02 0. -1.
       -1   -1    0    0    0  501  0.00000000000E+00  0.00000000000E+00 -0.14494275861E+04  0.14494275861E+04  0.50400001928E-02 0.  1.
    10030    2    1    2    0    0  0.00000000000E+00  0.00000000000E+00  0.14849328964E+03  0.30473484618E+04  0.30437283700E+04 0.  0.
        5    1    3    3  502    0 -0.40133830263E+03 -0.74142234549E+03  0.13427456552E+04  0.15854865222E+04  0.46999998093E+01 0. -1.
       -5    1    3    3    0  502  0.40133830263E+03  0.74142234549E+03 -0.11942523656E+04  0.14618619395E+04  0.46999998093E+01 0.  1.
</event>
<event>
 5   0  0.3935852E-07  0.3096467E+04  0.7818609E-02  0.8216708E-01
       -1   -1    0    0    0  501  0.00000000000E+00  0.00000000000E+00  0.13281608167E+04  0.13281608167E+04  0.50400001928E-02 0. -1.
        1   -1    0    0  501    0  0.00000000000E+00  0.00000000000E+00 -0.18047720610E+04  0.18047720610E+04  0.50400001928E-02 0.  1.
    10030    2    1    2    0    0  0.00000000000E+00  0.00000000000E+00 -0.47661124430E+03  0.31329328777E+04  0.30964673643E+04 0.  0.
        5    1    3    3  502    0  0.20222321788E+03  0.77652869116E+03  0.11013393319E+04  0.13626670364E+04  0.46999998093E+01 0. -1.
       -5    1    3    3    0  502 -0.20222321788E+03 -0.77652869116E+03 -0.15779505762E+04  0.17702658413E+04  0.46999998093E+01 0.  1.
</event>
<event>
 5   0  0.1200286E-06  0.3115459E+04  0.7818609E-02  0.8211508E-01
       -2   -1    0    0    0  501  0.00000000000E+00  0.00000000000E+00  0.22997684156E+04  0.22997684156E+04  0.25500000920E-02 0.  1.
        2   -1    0    0  501    0  0.00000000000E+00  0.00000000000E+00 -0.10551153203E+04  0.10551153204E+04  0.25500000920E-02 0. -1.
    10030    2    1    2    0    0  0.00000000000E+00  0.00000000000E+00  0.12446530953E+04  0.33548837360E+04  0.31154588032E+04 0.  0.
        5    1    3    3  502    0 -0.17892424922E+02  0.10042659992E+04 -0.65981706615E+03  0.12017699392E+04  0.46999998093E+01 0. -1.
       -5    1    3    3    0  502  0.17892424922E+02 -0.10042659992E+04  0.19044701614E+04  0.21531137968E+04  0.46999998093E+01 0.  1.
</event>
<event>
 5   0  0.4330395E-07  0.3086127E+04  0.7818609E-02  0.8219556E-01
        1   -1    0    0  501    0  0.00000000000E+00  0.00000000000E+00  0.18968487770E+04  0.18968487770E+04  0.50400001928E-02 0.  1.
       -1   -1    0    0    0  501  0.00000000000E+00  0.00000000000E+00 -0.12552632819E+04  0.12552632819E+04  0.50400001928E-02 0. -1.
    10030    2    1    2    0    0  0.00000000000E+00  0.00000000000E+00  0.64158549511E+03  0.31521120589E+04  0.30861267771E+04 0.  0.
        1    1    3    3  502    0  0.15244326864E+03  0.96679156591E+03 -0.89765976233E+03  0.13280504249E+04  0.50400001928E-02 0. -1.
       -1    1    3    3    0  502 -0.15244326864E+03 -0.96679156591E+03  0.15392452574E+04  0.18240616340E+04  0.50400001928E-02 0.  1.
</event>
<event>
 5   0  0.4219337E-07  0.3115424E+04  0.7818609E-02  0.8211518E-01
       -1   -1    0    0    0  501  0.00000000000E+00  0.00000000000E+00  0.12721602718E+04  0.12721602718E+04  0.50400001928E-02 0. -1.
        1   -1    0    0  501    0  0.00000000000E+00  0.00000000000E+00 -0.19073598264E+04  0.19073598264E+04  0.50400001928E-02 0.  1.
    10030    2    1    2    0    0  0.00000000000E+00  0.00000000000E+00 -0.63519955460E+03  0.31795200983E+04  0.31154244624E+04 0.  0.
        4    1    3    3  502    0  0.25275445986E+03  0.94329804063E+03  0.92094519250E+03  0.13423254713E+04  0.12699999809E+01 0. -1.
       -4    1    3    3    0  502 -0.25275445986E+03 -0.94329804063E+03 -0.15561447471E+04  0.18371946269E+04  0.12699999809E+01 0.  1.
</event>
<event>
 5   0  0.3935852E-07  0.3096808E+04  0.7818609E-02  0.8216614E-01
       -1   -1    0    0    0  501  0.00000000000E+00  0.00000000000E+00  0.16684817703E+04  0.16684817703E+04  0.50400001928E-02 0. -1.
        1   -1    0    0  501    0  0.00000000000E+00  0.00000000000E+00 -0.14369681907E+04  0.14369681907E+04  0.50400001928E-02 0.  1.
    10030    2    1    2    0    0  0.00000000000E+00  0.00000000000E+00  0.23151357957E+03  0.31054499610E+04  0.30968081831E+04 0.  0.
        5    1    3    3  502    0  0.99368596814E+03 -0.10022570778E+04 -0.52288939264E+03  0.15051134377E+04  0.46999998093E+01 0.  1.
       -5    1    3    3    0  502 -0.99368596814E+03  0.10022570778E+04  0.75440297221E+03  0.16003365233E+04  0.46999998093E+01 0. -1.
</event>
<event>
 5   0  0.4219337E-07  0.3099099E+04  0.7818609E-02  0.8215985E-01
       -1   -1    0    0    0  501  0.00000000000E+00  0.00000000000E+00  0.11727264605E+04  0.11727264605E+04  0.50400001928E-02 0. -1.
        1   -1    0    0  501    0  0.00000000000E+00  0.00000000000E+00 -0.20474543403E+04  0.20474543403E+04  0.50400001928E-02 0.  1.
    10030    2    1    2    0    0  0.00000000000E+00  0.00000000000E+00 -0.87472787982E+03  0.32201808008E+04  0.30990991475E+04 0.  0.
        4    1    3    3  502    0  0.10049424320E+04 -0.99221243946E+03 -0.11000164552E+04  0.17900929113E+04  0.12699999809E+01 0.  1.
       -4    1    3    3    0  502 -0.10049424320E+04  0.99221243946E+03  0.22528857540E+03  0.14300878895E+04  0.12699999809E+01 0. -1.
</event>
<event>
 5   0  0.4219337E-07  0.3098862E+04  0.7818609E-02  0.8216050E-01
       -1   -1    0    0    0  501  0.00000000000E+00  0.00000000000E+00  0.97253967424E+03  0.97253967426E+03  0.50400001928E-02 0. -1.
        1   -1    0    0  501    0  0.00000000000E+00  0.00000000000E+00 -0.24685229257E+04  0.24685229257E+04  0.50400001928E-02 0.  1.
    10030    2    1    2    0    0  0.00000000000E+00  0.00000000000E+00 -0.14959832514E+04  0.34410625999E+04  0.30988620376E+04 0.  0.
        4    1    3    3  502    0 -0.12957661591E+04  0.81642127549E+03 -0.10088387325E+04  0.18339331611E+04  0.12699999809E+01 0.  1.
       -4    1    3    3    0  502  0.12957661591E+04 -0.81642127549E+03 -0.48714451889E+03  0.16071294389E+04  0.12699999809E+01 0. -1.
</event>
<event>
 5   0  0.4219337E-07  0.3097621E+04  0.7818609E-02  0.8216391E-01
       -1   -1    0    0    0  501  0.00000000000E+00  0.00000000000E+00  0.16171477090E+04  0.16171477090E+04  0.50400001928E-02 0.  1.
        1   -1    0    0  501    0  0.00000000000E+00  0.00000000000E+00 -0.14833609977E+04  0.14833609977E+04  0.50400001928E-02 0. -1.
    10030    2    1    2    0    0  0.00000000000E+00  0.00000000000E+00  0.13378671128E+03  0.31005087066E+04  0.30976209187E+04 0.  0.
        4    1    3    3  502    0  0.51716061538E+03 -0.13611128012E+04 -0.46154680612E+03  0.15274522011E+04  0.12699999809E+01 0. -1.
       -4    1    3    3    0  502 -0.51716061538E+03  0.13611128012E+04  0.59533351741E+03  0.15730565055E+04  0.12699999809E+01 0.  1.
</event>
<event>
 5   0  0.4173905E-07  0.3091406E+04  0.7818609E-02  0.8218100E-01
       -1   -1    0    0    0  501  0.00000000000E+00  0.00000000000E+00  0.16347432226E+04  0.16347432226E+04  0.50400001928E-02 0.  1.
        1   -1    0    0  501    0  0.00000000000E+00  0.00000000000E+00 -0.14615122953E+04  0.14615122953E+04  0.50400001928E-02 0. -1.
    10030    2    1    2    0    0  0.00000000000E+00  0.00000000000E+00  0.17323092734E+03  0.30962555179E+04  0.30914057123E+04 0.  0.
        3    1    3    3  502    0 -0.71858973697E+03  0.68797299063E+03  0.12714841682E+04  0.16144194146E+04  0.10100000352E+00 0.  1.
       -3    1    3    3    0  502  0.71858973697E+03 -0.68797299063E+03 -0.10982532409E+04  0.14818361033E+04  0.10100000352E+00 0. -1.
</event>
<event>
 5   0  0.1176002E-06  0.3101920E+04  0.7818609E-02  0.8215211E-01
        2   -1    0    0  501    0  0.00000000000E+00  0.00000000000E+00  0.71617581541E+03  0.71617581541E+03  0.25500000920E-02 0.  1.
       -2   -1    0    0    0  501  0.00000000000E+00  0.00000000000E+00 -0.33587797103E+04  0.33587797103E+04  0.25500000920E-02 0. -1.
    10030    2    1    2    0    0  0.00000000000E+00  0.00000000000E+00 -0.26426038949E+04  0.40749555257E+04  0.31019199202E+04 0.  0.
        2    1    3    3  502    0  0.12406810685E+04  0.50015237824E+03 -0.29021582026E+03  0.13688196147E+04  0.25500000920E-02 0.  1.
       -2    1    3    3    0  502 -0.12406810685E+04 -0.50015237824E+03 -0.23523880746E+04  0.27061359110E+04  0.25500000920E-02 0. -1.
</event>
<event>
 5   0  0.4173905E-07  0.3098819E+04  0.7818609E-02  0.8216062E-01
        1   -1    0    0  501    0  0.00000000000E+00  0.00000000000E+00  0.12052410922E+04  0.12052410922E+04  0.50400001928E-02 0. -1.
       -1   -1    0    0    0  501  0.00000000000E+00  0.00000000000E+00 -0.19918582258E+04  0.19918582258E+04  0.50400001928E-02 0.  1.
    10030    2    1    2    0    0  0.00000000000E+00  0.00000000000E+00 -0.78661713362E+03  0.31970993181E+04  0.30988187322E+04 0.  0.
        3    1    3    3  502    0 -0.10762642834E+04  0.89144173152E+01 -0.15432179062E+04  0.18814743663E+04  0.10100000352E+00 0.  1.
       -3    1    3    3    0  502  0.10762642834E+04 -0.89144173152E+01  0.75660077262E+03  0.13156249518E+04  0.10100000352E+00 0. -1.
</event>
<event>
 5   0  0.4330395E-07  0.3101327E+04  0.7818609E-02  0.8215374E-01
        1   -1    0    0  501    0  0.00000000000E+00  0.00000000000E+00  0.24258014305E+04  0.24258014305E+04  0.50400001928E-02 0.  1.
       -1   -1    0    0    0  501  0.00000000000E+00  0.00000000000E+00 -0.99124257037E+03  0.99124257039E+03  0.50400001928E-02 0. -1.
    10030    2    1    2    0    0  0.00000000000E+00  0.00000000000E+00  0.14345588602E+04  0.34170440009E+04  0.31013272289E+04 0.  0.
        1    1    3    3  502    0 -0.11945625978E+03 -0.15080260231E+04  0.34178464216E+03  0.15508800811E+04  0.50400001928E-02 0. -1.
       -1    1    3    3    0  502  0.11945625978E+03  0.15080260231E+04  0.10927742180E+04  0.18661639199E+04  0.50400001928E-02 0.  1.
</event>
<event>
 5   0  0.1200286E-06  0.3089884E+04  0.7818609E-02  0.8218520E-01
        2   -1    0    0  501    0  0.00000000000E+00  0.00000000000E+00  0.14984536413E+04  0.14984536413E+04  0.25500000920E-02 0.  1.
       -2   -1    0    0    0  501  0.00000000000E+00  0.00000000000E+00 -0.15928727992E+04  0.15928727992E+04  0.25500000920E-02 0. -1.
    10030    2    1    2    0    0  0.00000000000E+00  0.00000000000E+00 -0.94419157894E+02  0.30913264405E+04  0.30898841701E+04 0.  0.
        5    1    3    3  502    0  0.71831967280E+03  0.37493768805E+02  0.13207014661E+04  0.15038827705E+04  0.46999998093E+01 0.  1.
       -5    1    3    3    0  502 -0.71831967280E+03 -0.37493768805E+02 -0.14151206240E+04  0.15874436700E+04  0.46999998093E+01 0. -1.
</event>
<event>
 5   0  0.4134019E-07  0.3101980E+04  0.7818609E-02  0.8215195E-01
        1   -1    0    0  501    0  0.00000000000E+00  0.00000000000E+00  0.18967961663E+04  0.18967961663E+04  0.50400001928E-02 0. -1.
       -1   -1    0    0    0  501  0.00000000000E+00  0.00000000000E+00 -0.12682278974E+04  0.12682278974E+04  0.50400001928E-02 0.  1.
    10030    2    1    2    0    0  0.00000000000E+00  0.00000000000E+00  0.62856826884E+03  0.31650240637E+04  0.31019798928E+04 0.  0.
        2    1    3    3  502    0  0.33959703519E+03 -0.14289913920E+04 -0.19406581273E+03  0.14815546174E+04  0.25500000920E-02 0.  1.
       -2    1    3    3    0  502 -0.33959703519E+03  0.14289913920E+04  0.82263408157E+03  0.16834694463E+04  0.25500000920E-02 0. -1.
</event>
<event>
 5   0  0.3935852E-07  0.3098034E+04  0.7818609E-02  0.8216278E-01
        1   -1    0    0  501    0  0.00000000000E+00  0.00000000000E+00  0.89483762666E+03  0.89483762668E+03  0.50400001928E-02 0.  1.
       -1   -1    0    0    0  501  0.00000000000E+00  0.00000000000E+00 -0.26814394891E+04  0.26814394891E+04  0.50400001928E-02 0. -1.
    10030    2    1    2    0    0  0.00000000000E+00  0.00000000000E+00 -0.17866018624E+04  0.35762771158E+04  0.30980335366E+04 0.  0.
        5    1    3    3  502    0 -0.44871642450E+03  0.11213976163E+04  0.22623081147E+03  0.12288537397E+04  0.46999998093E+01 0.  1.
       -5    1    3    3    0  502  0.44871642450E+03 -0.11213976163E+04 -0.20128326739E+04  0.23474233761E+04  0.46999998093E+01 0. -1.
</event>
<event>
 5   0  0.4219337E-07  0.3105629E+04  0.7818609E-02  0.8214195E-01
        1   -1    0    0  501    0  0.00000000000E+00  0.00000000000E+00  0.24674969363E+04  0.24674969363E+04  0.50400001928E-02 0. -1.
       -1   -1    0    0    0  501  0.00000000000E+00  0.00000000000E+00 -0.97719791126E+03  0.97719791127E+03  0.50400001928E-02 0.  1.
    10030    2    1    2    0    0  0.00000000000E+00  0.00000000000E+00  0.14902990250E+04  0.34446948475E+04  0.31056289876E+04 0.  0.
        4    1    3    3  502    0 -0.45040006335E+03  0.94399147385E+03  0.20181702310E+04  0.22731020246E+04  0.12699999809E+01 0. -1.
       -4    1    3    3    0  502  0.45040006335E+03 -0.94399147385E+03 -0.52787120603E+03  0.11715928230E+04  0.12699999809E+01 0.  1.
</event>
<event>
 5   0  0.4219337E-07  0.3107206E+04  0.7818609E-02  0.8213763E-01
       -1   -1    0    0    0  501  0.00000000000E+00  0.00000000000E+00  0.13957990231E+04  0.13957990231E+04  0.50400001928E-02 0. -1.
        1   -1    0    0  501    0  0.00000000000E+00  0.00000000000E+00 -0.17292479228E+04  0.17292479228E+04  0.50400001928E-02 0.  1.
    10030    2    1    2    0    0  0.00000000000E+00  0.00000000000E+00 -0.33344889970E+03  0.31250469459E+04  0.31072061801E+04 0.  0.
        4    1    3    3  502    0  0.10036518685E+04 -0.79895025373E+03  0.71468776077E+03  0.14684749876E+04  0.12699999809E+01 0. -1.
       -4    1    3    3    0  502 -0.10036518685E+04  0.79895025373E+03 -0.10481366605E+04  0.16565719583E+04  0.12699999809E+01 0.  1.
</event>
<event>
 5   0  0.1237580E-06  0.3150313E+04  0.7818609E-02  0.8202064E-01
       -2   -1    0    0    0  501  0.00000000000E+00  0.00000000000E+00  0.21030234894E+04  0.21030234894E+04  0.25500000920E-02 0.  1.
        2   -1    0    0  501    0  0.00000000000E+00  0.00000000000E+00 -0.11797864801E+04  0.11797864801E+04  0.25500000920E-02 0. -1.
    10030    2    1    2    0    0  0.00000000000E+00  0.00000000000E+00  0.92323700935E+03  0.32828099695E+04  0.31503134321E+04 0.  0.
        4    1    3    3  502    0 -0.40134201012E+03  0.10709816191E+04  0.15902402017E+04  0.19588115145E+04  0.12699999809E+01 0.  1.
       -4    1    3    3    0  502  0.40134201012E+03 -0.10709816191E+04 -0.66700319230E+03  0.13239984550E+04  0.12699999809E+01 0. -1.
</event>
<event>
 5   0  0.3902375E-07  0.3103402E+04  0.7818609E-02  0.8214805E-01
        3   -1    0    0  501    0  0.00000000000E+00  0.00000000000E+00  0.15495888087E+04  0.15495888120E+04  0.10100000352E+00 0. -1.
       -3   -1    0    0    0  501  0.00000000000E+00  0.00000000000E+00 -0.15538158844E+04  0.15538158877E+04  0.10100000352E+00 0.  1.
    10030    2    1    2    0    0  0.00000000000E+00  0.00000000000E+00 -0.42270756743E+01  0.31034046997E+04  0.31034018209E+04 0.  0.
        5    1    3    3  502    0  0.11588212675E+04  0.66655736041E+03 -0.78988846262E+03  0.15527753598E+04  0.46999998093E+01 0.  1.
       -5    1    3    3    0  502 -0.11588212675E+04 -0.66655736041E+03  0.78566138694E+03  0.15506293399E+04  0.46999998093E+01 0. -1.
</event>
<event>
 5   0  0.4173905E-07  0.3103609E+04  0.7818609E-02  0.8214748E-01
        1   -1    0    0  501    0  0.00000000000E+00  0.00000000000E+00  0.17605796765E+04  0.17605796765E+04  0.50400001928E-02 0. -1.
       -1   -1    0    0    0  501  0.00000000000E+00  0.00000000000E+00 -0.13677861935E+04  0.13677861935E+04  0.50400001928E-02 0.  1.
    10030    2    1    2    0    0  0.00000000000E+00  0.00000000000E+00  0.39279348302E+03  0.31283658700E+04  0.31036085926E+04 0.  0.
        3    1    3    3  502    0 -0.14168787056E+03 -0.15450337739E+04  0.22649711170E+03  0.15679622977E+04  0.10100000352E+00 0.  1.
       -3    1    3    3    0  502  0.14168787056E+03  0.15450337739E+04  0.16629637132E+03  0.15604035723E+04  0.10100000352E+00 0. -1.
</event>
<event>
 5   0  0.1176002E-06  0.3096761E+04  0.7818609E-02  0.8216627E-01
        2   -1    0    0  501    0  0.00000000000E+00  0.00000000000E+00  0.15512121102E+04  0.15512121102E+04  0.25500000920E-02 0.  1.
       -2   -1    0    0    0  501  0.00000000000E+00  0.00000000000E+00 -0.15455538472E+04  0.15455538472E+04  0.25500000920E-02 0. -1.
    10030    2    1    2    0    0  0.00000000000E+00  0.00000000000E+00  0.56582630259E+01  0.30967659574E+04  0.30967607882E+04 0.  0.
        2    1    3    3  502    0  0.54269954040E+03  0.10478172006E+04 -0.99968846090E+03  0.15465512264E+04  0.25500000920E-02 0. -1.
       -2    1    3    3    0  502 -0.54269954040E+03 -0.10478172006E+04  0.10053467239E+04  0.15502147310E+04  0.25500000920E-02 0.  1.
</event>
<event>
 5   0  0.1200286E-06  0.3099684E+04  0.7818609E-02  0.8215825E-01
        2   -1    0    0  501    0  0.00000000000E+00  0.00000000000E+00  0.24648003774E+04  0.24648003774E+04  0.25500000920E-02 0.  1.
       -2   -1    0    0    0  501  0.00000000000E+00  0.00000000000E+00 -0.97452498005E+03  0.97452498006E+03  0.25500000920E-02 0. -1.
    10030    2    1    2    0    0  0.00000000000E+00  0.00000000000E+00  0.14902753973E+04  0.34393253574E+04  0.30996835571E+04 0.  0.
        5    1    3    3  502    0 -0.12743775829E+04  0.61677347018E+03  0.14447318356E+04  0.20228000158E+04  0.46999998093E+01 0.  1.
       -5    1    3    3    0  502  0.12743775829E+04 -0.61677347018E+03  0.45543561758E+02  0.14165253416E+04  0.46999998093E+01 0. -1.
</event>
<event>
 5   0  0.1193123E-06  0.3089089E+04  0.7818609E-02  0.8218739E-01
        2   -1    0    0  501    0  0.00000000000E+00  0.00000000000E+00  0.14174459578E+04  0.14174459578E+04  0.25500000920E-02 0.  1.
       -2   -1    0    0    0  501  0.00000000000E+00  0.00000000000E+00 -0.16830393216E+04  0.16830393216E+04  0.25500000920E-02 0. -1.
    10030    2    1    2    0    0  0.00000000000E+00  0.00000000000E+00 -0.26559336381E+03  0.31004852794E+04  0.30890887221E+04 0.  0.
        3    1    3    3  502    0  0.15240085388E+04  0.24190416420E+03 -0.20010841477E+03  0.15560086885E+04  0.10100000352E+00 0. -1.
       -3    1    3    3    0  502 -0.15240085388E+04 -0.24190416420E+03 -0.65484949035E+02  0.15444765909E+04  0.10100000352E+00 0.  1.
</event>
<event>
 5   0  0.4134019E-07  0.3086414E+04  0.7818609E-02  0.8219476E-01
        1   -1    0    0  501    0  0.00000000000E+00  0.00000000000E+00  0.14189103190E+04  0.14189103190E+04  0.50400001928E-02 0. -1.
       -1   -1    0    0    0  501  0.00000000000E+00  0.00000000000E+00 -0.16783923185E+04  0.16783923185E+04  0.50400001928E-02 0.  1.
    10030    2    1    2    0    0  0.00000000000E+00  0.00000000000E+00 -0.25948199944E+03  0.30973026375E+04  0.30864142172E+04 0.  0.
        2    1    3    3  502    0  0.86372574294E+03 -0.11004064393E+04  0.52414937938E+03  0.14938704972E+04  0.25500000920E-02 0. -1.
       -2    1    3    3    0  502 -0.86372574294E+03  0.11004064393E+04 -0.78363137882E+03  0.16034321403E+04  0.25500000920E-02 0.  1.
</event>
<event>
 5   0  0.1193123E-06  0.3089935E+04  0.7818609E-02  0.8218506E-01
        2   -1    0    0  501    0  0.00000000000E+00  0.00000000000E+00  0.11046157136E+04  0.11046157136E+04  0.25500000920E-02 0.  1.
       -2   -1    0    0    0  501  0.00000000000E+00  0.00000000000E+00 -0.21608646216E+04  0.21608646216E+04  0.25500000920E-02 0. -1.
    10030    2    1    2    0    0  0.00000000000E+00  0.00000000000E+00 -0.10562489080E+04  0.32654803352E+04  0.30899352848E+04 0.  0.
        3    1    3    3  502    0  0.72840449828E+03 -0.13443306590E+04 -0.29388627274E+03  0.15569737266E+04  0.10100000352E+00 0.  1.
       -3    1    3    3    0  502 -0.72840449828E+03  0.13443306590E+04 -0.76236263524E+03  0.17085066086E+04  0.10100000352E+00 0. -1.
</event>
<event>
 5   0  0.3935852E-07  0.3110520E+04  0.7818609E-02  0.8212857E-01
        1   -1    0    0  501    0  0.00000000000E+00  0.00000000000E+00  0.14322974317E+04  0.14322974317E+04  0.50400001928E-02 0.  1.
       -1   -1    0    0    0  501  0.00000000000E+00  0.00000000000E+00 -0.16887784988E+04  0.16887784988E+04  0.50400001928E-02 0. -1.
    10030    2    1    2    0    0  0.00000000000E+00  0.00000000000E+00 -0.25648106716E+03  0.31210759305E+04  0.31105196392E+04 0.  0.
        5    1    3    3  502    0 -0.14042543187E+04  0.65170406737E+03 -0.27761696140E+03  0.15728132916E+04  0.46999998093E+01 0.  1.
       -5    1    3    3    0  502  0.14042543187E+04 -0.65170406737E+03  0.21135894233E+02  0.15482626389E+04  0.46999998093E+01 0. -1.
</event>
<event>
 5   0  0.4173905E-07  0.3095436E+04  0.7818609E-02  0.8216992E-01
        1   -1    0    0  501    0  0.00000000000E+00  0.00000000000E+00  0.11259953830E+04  0.11259953830E+04  0.50400001928E-02 0.  1.
       -1   -1    0    0    0  501  0.00000000000E+00  0.00000000000E+00 -0.21273895169E+04  0.21273895169E+04  0.50400001928E-02 0. -1.
    10030    2    1    2    0    0  0.00000000000E+00  0.00000000000E+00 -0.10013941339E+04  0.32533848999E+04  0.30954358490E+04 0.  0.
        3    1    3    3  502    0  0.81259375325E+03 -0.12039085984E+04  0.61111947806E+02  0.14537672446E+04  0.10100000352E+00 0. -1.
       -3    1    3    3    0  502 -0.81259375325E+03  0.12039085984E+04 -0.10625060817E+04  0.17996176552E+04  0.10100000352E+00 0.  1.
</event>
<event>
 5   0  0.4330395E-07  0.3090524E+04  0.7818609E-02  0.8218343E-01
        1   -1    0    0  501    0  0.00000000000E+00  0.00000000000E+00  0.22538132110E+04  0.22538132110E+04  0.50400001928E-02 0. -1.
       -1   -1    0    0    0  501  0.00000000000E+00  0.00000000000E+00 -0.10594639783E+04  0.10594639783E+04  0.50400001928E-02 0.  1.
    10030    2    1    2    0    0  0.00000000000E+00  0.00000000000E+00  0.11943492328E+04  0.33132771893E+04  0.30905235226E+04 0.  0.
        1    1    3    3  502    0 -0.12391709899E+04  0.45160615560E+03  0.14604065080E+04  0.19678109743E+04  0.50400001928E-02 0. -1.
       -1    1    3    3    0  502  0.12391709899E+04 -0.45160615560E+03 -0.26605727524E+03  0.13454662150E+04  0.50400001928E-02 0.  1.
</event>
<event>
 5   0  0.1237580E-06  0.3104083E+04  0.7818609E-02  0.8214618E-01
       -2   -1    0    0    0  501  0.00000000000E+00  0.00000000000E+00  0.11040253161E+04  0.11040253161E+04  0.25500000920E-02 0. -1.
        2   -1    0    0  501    0  0.00000000000E+00  0.00000000000E+00 -0.21818636240E+04  0.21818636240E+04  0.25500000920E-02 0.  1.
    10030    2    1    2    0    0  0.00000000000E+00  0.00000000000E+00 -0.10778383078E+04  0.32858889401E+04  0.31040829095E+04 0.  0.
        4    1    3    3  502    0  0.13273725105E+03  0.99550678179E+02 -0.21724478390E+04  0.21787750553E+04  0.12699999809E+01 0.  1.
       -4    1    3    3    0  502 -0.13273725105E+03 -0.99550678179E+02  0.10946095312E+04  0.11071138848E+04  0.12699999809E+01 0. -1.
</event>
<event>
 5   0  0.4219337E-07  0.3119465E+04  0.7818609E-02  0.8210416E-01
        1   -1    0    0  501    0  0.00000000000E+00  0.00000000000E+00  0.14059992562E+04  0.14059992562E+04  0.50400001928E-02 0. -1.
       -1   -1    0    0    0  501  0.00000000000E+00  0.00000000000E+00 -0.17302750451E+04  0.17302750451E+04  0.50400001928E-02 0.  1.
    10030    2    1    2    0    0  0.00000000000E+00  0.00000000000E+00 -0.32427578885E+03  0.31362743013E+04  0.31194649711E+04 0.  0.
        4    1    3    3  502    0  0.12490890332E+04  0.10598918224E+02 -0.11012095663E+04  0.16652326780E+04  0.12699999809E+01 0.  1.
       -4    1    3    3    0  502 -0.12490890332E+04 -0.10598918224E+02  0.77693377749E+03  0.14710416233E+04  0.12699999809E+01 0. -1.
</event>
<event>
 5   0  0.3902375E-07  0.3097171E+04  0.7818609E-02  0.8216515E-01
        4   -1    0    0  501    0  0.00000000000E+00  0.00000000000E+00  0.97763865024E+03  0.97763947513E+03  0.12699999809E+01 0. -1.
       -4   -1    0    0    0  501  0.00000000000E+00  0.00000000000E+00 -0.24529663762E+04  0.24529667049E+04  0.12699999809E+01 0.  1.
    10030    2    1    2    0    0  0.00000000000E+00  0.00000000000E+00 -0.14753277259E+04  0.34306061801E+04  0.30971707838E+04 0.  0.
        5    1    3    3  502    0  0.11080379683E+04  0.28621563669E+03  0.41793041906E+03  0.12183412720E+04  0.46999998093E+01 0. -1.
       -5    1    3    3    0  502 -0.11080379683E+04 -0.28621563669E+03 -0.18932581450E+04  0.22122649081E+04  0.46999998093E+01 0.  1.
</event>
<event>
 5   0  0.3935852E-07  0.3089460E+04  0.7818609E-02  0.8218637E-01
        1   -1    0    0  501    0  0.00000000000E+00  0.00000000000E+00  0.23866839133E+04  0.23866839133E+04  0.50400001928E-02 0.  1.
       -1   -1    0    0    0  501  0.00000000000E+00  0.00000000000E+00 -0.99979321473E+03  0.99979321475E+03  0.50400001928E-02 0. -1.
    10030    2    1    2    0    0  0.00000000000E+00  0.00000000000E+00  0.13868906986E+04  0.33864771280E+04  0.30894597471E+04 0.  0.
        5    1    3    3  502    0 -0.64656089978E+03 -0.80882298264E+03 -0.56302476324E+03  0.11786664449E+04  0.46999998093E+01 0. -1.
       -5    1    3    3    0  502  0.64656089978E+03  0.80882298264E+03  0.19499154618E+04  0.22078106831E+04  0.46999998093E+01 0.  1.
</event>
<event>
 5   0  0.1176002E-06  0.3090244E+04  0.7818609E-02  0.8218420E-01
       -2   -1    0    0    0  501  0.00000000000E+00  0.00000000000E+00  0.10162626351E+04  0.10162626351E+04  0.25500000920E-02 0. -1.
        2   -1    0    0  501    0  0.00000000000E+00  0.00000000000E+00 -0.23491984347E+04  0.23491984347E+04  0.25500000920E-02 0.  1.
    10030    2    1    2    0    0  0.00000000000E+00  0.00000000000E+00 -0.13329357996E+04  0.33654610698E+04  0.30902443862E+04 0.  0.
        2    1    3    3  502    0 -0.56935432197E+03 -0.13774196171E+04 -0.22281340811E+03  0.15070152488E+04  0.25500000920E-02 0. -1.
       -2    1    3    3    0  502  0.56935432197E+03  0.13774196171E+04 -0.11101223915E+04  0.18584458210E+04  0.25500000920E-02 0.  1.
</event>
<event>
 5   0  0.1237580E-06  0.3101446E+04  0.7818609E-02  0.8215341E-01
       -2   -1    0    0    0  501  0.00000000000E+00  0.00000000000E+00  0.15216350587E+04  0.15216350587E+04  0.25500000920E-02 0.  1.
        2   -1    0    0  501    0  0.00000000000E+00  0.00000000000E+00 -0.15803674288E+04  0.15803674288E+04  0.25500000920E-02 0. -1.
    10030    2    1    2    0    0  0.00000000000E+00  0.00000000000E+00 -0.58732370121E+02  0.31020024875E+04  0.31014464273E+04 0.  0.
        4    1    3    3  502    0  0.13469411874E+04 -0.12241580503E+03  0.72939007642E+03  0.15366351838E+04  0.12699999809E+01 0.  1.
       -4    1    3    3    0  502 -0.13469411874E+04  0.12241580503E+03 -0.78812244654E+03  0.15653673037E+04  0.12699999809E+01 0. -1.
</event>
<event>
 5   0  0.1176002E-06  0.3101826E+04  0.7818609E-02  0.8215237E-01
       -2   -1    0    0    0  501  0.00000000000E+00  0.00000000000E+00  0.17692401343E+04  0.17692401343E+04  0.25500000920E-02 0. -1.
        2   -1    0    0  501    0  0.00000000000E+00  0.00000000000E+00 -0.13595280066E+04  0.13595280066E+04  0.25500000920E-02 0.  1.
    10030    2    1    2    0    0  0.00000000000E+00  0.00000000000E+00  0.40971212772E+03  0.31287681408E+04  0.31018262446E+04 0.  0.
        2    1    3    3  502    0 -0.10985692831E+04 -0.48236054446E+03  0.11961460465E+04  0.16941934745E+04  0.25500000920E-02 0. -1.
       -2    1    3    3    0  502  0.10985692831E+04  0.48236054446E+03 -0.78643391875E+03  0.14345746663E+04  0.25500000920E-02 0.  1.
</event>
<event>
 5   0  0.4219337E-07  0.2989958E+04  0.7818609E-02  0.8246604E-01
       -1   -1    0    0    0  501  0.00000000000E+00  0.00000000000E+00  0.14618190479E+04  0.14618190479E+04  0.50400001928E-02 0.  1.
        1   -1    0    0  501    0  0.00000000000E+00  0.00000000000E+00 -0.15288911100E+04  0.15288911100E+04  0.50400001928E-02 0. -1.
    10030    2    1    2    0    0  0.00000000000E+00  0.00000000000E+00 -0.67072062077E+02  0.29907101579E+04  0.29899579574E+04 0.  0.
        4    1    3    3  502    0  0.10401053645E+03  0.61562454324E+03 -0.13922402923E+04  0.15258264693E+04  0.12699999809E+01 0. -1.
       -4    1    3    3    0  502 -0.10401053645E+03 -0.61562454324E+03  0.13251682302E+04  0.14648836886E+04  0.12699999809E+01 0.  1.
</event>
<event>
 5   0  0.1200286E-06  0.3094570E+04  0.7818609E-02  0.8217230E-01
        2   -1    0    0  501    0  0.00000000000E+00  0.00000000000E+00  0.15909759253E+04  0.15909759253E+04  0.25500000920E-02 0. -1.
       -2   -1    0    0    0  501  0.00000000000E+00  0.00000000000E+00 -0.15047942871E+04  0.15047942871E+04  0.25500000920E-02 0.  1.
    10030    2    1    2    0    0  0.00000000000E+00  0.00000000000E+00  0.86181638226E+02  0.30957702124E+04  0.30945703956E+04 0.  0.
        5    1    3    3  502    0 -0.10193611998E+04  0.10213337008E+04 -0.51556065969E+03  0.15323330800E+04  0.46999998093E+01 0.  1.
       -5    1    3    3    0  502  0.10193611998E+04 -0.10213337008E+04  0.60174229792E+03  0.15634371325E+04  0.46999998093E+01 0. -1.
</event>
<event>
 5   0  0.4134019E-07  0.3109513E+04  0.7818609E-02  0.8213132E-01
       -1   -1    0    0    0  501  0.00000000000E+00  0.00000000000E+00  0.91272091879E+03  0.91272091880E+03  0.50400001928E-02 0. -1.
        1   -1    0    0  501    0  0.00000000000E+00  0.00000000000E+00 -0.26484187275E+04  0.26484187275E+04  0.50400001928E-02 0.  1.
    10030    2    1    2    0    0  0.00000000000E+00  0.00000000000E+00 -0.17356978087E+04  0.35611396463E+04  0.31095126141E+04 0.  0.
        2    1    3    3  502    0 -0.81928708250E+03 -0.63408133326E+03 -0.21955262763E+04  0.24276791572E+04  0.25500000920E-02 0.  1.
       -2    1    3    3    0  502  0.81928708250E+03  0.63408133326E+03  0.45982846754E+03  0.11334604891E+04  0.25500000920E-02 0. -1.
</event>
<event>
 5   0  0.4330395E-07  0.3101015E+04  0.7818609E-02  0.8215459E-01
       -1   -1    0    0    0  501  0.00000000000E+00  0.00000000000E+00  0.11132952332E+04  0.11132952332E+04  0.50400001928E-02 0. -1.
        1   -1    0    0  501    0  0.00000000000E+00  0.00000000000E+00 -0.21594214060E+04  0.21594214060E+04  0.50400001928E-02 0.  1.
    10030    2    1    2    0    0  0.00000000000E+00  0.00000000000E+00 -0.10461261728E+04  0.32727166392E+04  0.31010150324E+04 0.  0.
        1    1    3    3  502    0  0.13395224427E+04  0.23125954589E+03  0.26407008242E+03  0.13847506492E+04  0.50400001928E-02 0. -1.
       -1    1    3    3    0  502 -0.13395224427E+04 -0.23125954589E+03 -0.13101962552E+04  0.18879659900E+04  0.50400001928E-02 0.  1.
</event>
<event>
 5   0  0.3935852E-07  0.3080083E+04  0.7818609E-02  0.8221225E-01
        1   -1    0    0  501    0  0.00000000000E+00  0.00000000000E+00  0.13851223984E+04  0.13851223984E+04  0.50400001928E-02 0. -1.
       -1   -1    0    0    0  501  0.00000000000E+00  0.00000000000E+00 -0.17122876613E+04  0.17122876613E+04  0.50400001928E-02 0.  1.
    10030    2    1    2    0    0  0.00000000000E+00  0.00000000000E+00 -0.32716526287E+03  0.30974100598E+04  0.30800831107E+04 0.  0.
        5    1    3    3  502    0 -0.96445711527E+03 -0.17823961080E+03 -0.13575946810E+04  0.16748230635E+04  0.46999998093E+01 0.  1.
       -5    1    3    3    0  502  0.96445711527E+03  0.17823961080E+03  0.10304294182E+04  0.14225869962E+04  0.46999998093E+01 0. -1.
</event>
<event>
 5   0  0.4219337E-07  0.3099256E+04  0.7818609E-02  0.8215942E-01
        1   -1    0    0  501    0  0.00000000000E+00  0.00000000000E+00  0.18195151026E+04  0.18195151026E+04  0.50400001928E-02 0. -1.
       -1   -1    0    0    0  501  0.00000000000E+00  0.00000000000E+00 -0.13197729685E+04  0.13197729685E+04  0.50400001928E-02 0.  1.
    10030    2    1    2    0    0  0.00000000000E+00  0.00000000000E+00  0.49974213406E+03  0.31392880711E+04  0.30992559418E+04 0.  0.
        4    1    3    3  502    0 -0.93968734533E+03  0.12247856419E+04  0.11309708089E+03  0.15478710341E+04  0.12699999809E+01 0. -1.
       -4    1    3    3    0  502  0.93968734533E+03 -0.12247856419E+04  0.38664505317E+03  0.15914170370E+04  0.12699999809E+01 0.  1.
</event>
<event>
 5   0  0.1258262E-06  0.3089767E+04  0.7818609E-02  0.8218552E-01
       -2   -1    0    0    0  501  0.00000000000E+00  0.00000000000E+00  0.15648793820E+04  0.15648793820E+04  0.25500000920E-02 0. -1.
        2   -1    0    0  501    0  0.00000000000E+00  0.00000000000E+00 -0.15251427750E+04  0.15251427750E+04  0.25500000920E-02 0.  1.
    10030    2    1    2    0    0  0.00000000000E+00  0.00000000000E+00  0.39736606970E+02  0.30900221570E+04  0.30897666470E+04 0.  0.
        1    1    3    3  502    0 -0.20621511221E+03  0.12445050555E+04 -0.87202772540E+03  0.15335416067E+04  0.50400001928E-02 0.  1.
       -1    1    3    3    0  502  0.20621511221E+03 -0.12445050555E+04  0.91176433237E+03  0.15564805503E+04  0.50400001928E-02 0. -1.
</event>
<event>
 5   0  0.4330395E-07  0.3100613E+04  0.7818609E-02  0.8215570E-01
       -1   -1    0    0    0  501  0.00000000000E+00  0.00000000000E+00  0.96156892571E+03  0.96156892573E+03  0.50400001928E-02 0. -1.
        1   -1    0    0  501    0  0.00000000000E+00  0.00000000000E+00 -0.24995094327E+04  0.24995094327E+04  0.50400001928E-02 0.  1.
    10030    2    1    2    0    0  0.00000000000E+00  0.00000000000E+00 -0.15379405070E+04  0.34610783584E+04  0.31006132297E+04 0.  0.
        1    1    3    3  502    0 -0.13154410784E+04  0.79946451410E+03 -0.97456104746E+03  0.18218940626E+04  0.50400001928E-02 0.  1.
       -1    1    3    3    0  502  0.13154410784E+04 -0.79946451410E+03 -0.56337945952E+03  0.16391842958E+04  0.50400001928E-02 0. -1.
</event>
<event>
 5   0  0.1193123E-06  0.3080458E+04  0.7818609E-02  0.8221122E-01
        2   -1    0    0  501    0  0.00000000000E+00  0.00000000000E+00  0.19777299728E+04  0.19777299728E+04  0.25500000920E-02 0. -1.
       -2   -1    0    0    0  501  0.00000000000E+00  0.00000000000E+00 -0.11995089925E+04  0.11995089925E+04  0.25500000920E-02 0.  1.
    10030    2    1    2    0    0  0.00000000000E+00  0.00000000000E+00  0.77822098029E+03  0.31772389654E+04  0.30804576850E+04 0.  0.
        3    1    3    3  502    0  0.34493882600E+03 -0.14270354602E+04  0.86945881199E+03  0.17062741967E+04  0.10100000352E+00 0. -1.
       -3    1    3    3    0  502 -0.34493882600E+03  0.14270354602E+04 -0.91237831704E+02  0.14709647687E+04  0.10100000352E+00 0.  1.
</event>
<event>
 5   0  0.1258262E-06  0.3095002E+04  0.7818609E-02  0.8217111E-01
        2   -1    0    0  501    0  0.00000000000E+00  0.00000000000E+00  0.20876403173E+04  0.20876403173E+04  0.25500000920E-02 0. -1.
       -2   -1    0    0    0  501  0.00000000000E+00  0.00000000000E+00 -0.11471133224E+04  0.11471133224E+04  0.25500000920E-02 0.  1.
    10030    2    1    2    0    0  0.00000000000E+00  0.00000000000E+00  0.94052699490E+03  0.32347536397E+04  0.30950024364E+04 0.  0.
        1    1    3    3  502    0 -0.11509789551E+04  0.88604524285E+03 -0.87628702254E+02  0.14551658039E+04  0.50400001928E-02 0.  1.
       -1    1    3    3    0  502  0.11509789551E+04 -0.88604524285E+03  0.10281556972E+04  0.17795878357E+04  0.50400001928E-02 0. -1.
</event>
<event>
 5   0  0.1258262E-06  0.3103862E+04  0.7818609E-02  0.8214679E-01
       -2   -1    0    0    0  501  0.00000000000E+00  0.00000000000E+00  0.12011957345E+04  0.12011957345E+04  0.25500000920E-02 0.  1.
        2   -1    0    0  501    0  0.00000000000E+00  0.00000000000E+00 -0.20050768871E+04  0.20050768871E+04  0.25500000920E-02 0. -1.
    10030    2    1    2    0    0  0.00000000000E+00  0.00000000000E+00 -0.80388115262E+03  0.32062726216E+04  0.31038619842E+04 0.  0.
        1    1    3    3  502    0 -0.16013765212E+03  0.30824748390E+03 -0.19644039533E+04  0.19948793123E+04  0.50400001928E-02 0. -1.
       -1    1    3    3    0  502  0.16013765212E+03 -0.30824748390E+03  0.11605228007E+04  0.12113933093E+04  0.50400001928E-02 0.  1.
</event>
<event>
 5   0  0.1200286E-06  0.3128702E+04  0.7818609E-02  0.8207905E-01
       -2   -1    0    0    0  501  0.00000000000E+00  0.00000000000E+00  0.25498338141E+04  0.25498338141E+04  0.25500000920E-02 0. -1.
        2   -1    0    0  501    0  0.00000000000E+00  0.00000000000E+00 -0.95974657918E+03  0.95974657918E+03  0.25500000920E-02 0.  1.
    10030    2    1    2    0    0  0.00000000000E+00  0.00000000000E+00  0.15900872349E+04  0.35095803933E+04  0.31287021466E+04 0.  0.
        5    1    3    3  502    0 -0.14962946846E+04  0.13502370756E+03  0.30603454080E+03  0.15332346249E+04  0.46999998093E+01 0.  1.
       -5    1    3    3    0  502  0.14962946846E+04 -0.13502370756E+03  0.12840526941E+04  0.19763457684E+04  0.46999998093E+01 0. -1.
</event>
<event>
 5   0  0.3935852E-07  0.3102792E+04  0.7818609E-02  0.8214972E-01
        1   -1    0    0  501    0  0.00000000000E+00  0.00000000000E+00  0.14385522836E+04  0.14385522836E+04  0.50400001928E-02 0.  1.
       -1   -1    0    0    0  501  0.00000000000E+00  0.00000000000E+00 -0.16730911861E+04  0.16730911862E+04  0.50400001928E-02 0. -1.
    10030    2    1    2    0    0  0.00000000000E+00  0.00000000000E+00 -0.23453890252E+03  0.31116434698E+04  0.31027917407E+04 0.  0.
        5    1    3    3  502    0 -0.42943133801E+03  0.62376394965E+03  0.12405926539E+04  0.14534734129E+04  0.46999998093E+01 0.  1.
       -5    1    3    3    0  502  0.42943133801E+03 -0.62376394965E+03 -0.14751315564E+04  0.16581700569E+04  0.46999998093E+01 0. -1.
</event>
<event>
 5   0  0.1193123E-06  0.3145886E+04  0.7818609E-02  0.8203256E-01
        2   -1    0    0  501    0  0.00000000000E+00  0.00000000000E+00  0.25645660899E+04  0.25645660899E+04  0.25500000920E-02 0. -1.
       -2   -1    0    0    0  501  0.00000000000E+00  0.00000000000E+00 -0.96474408056E+03  0.96474408056E+03  0.25500000920E-02 0.  1.
    10030    2    1    2    0    0  0.00000000000E+00  0.00000000000E+00  0.15998220094E+04  0.35293101705E+04  0.31458861737E+04 0.  0.
        3    1    3    3  502    0 -0.13164684789E+04 -0.56778073260E+03  0.73987428260E+02  0.14355968675E+04  0.10100000352E+00 0.  1.
       -3    1    3    3    0  502  0.13164684789E+04  0.56778073260E+03  0.15258345811E+04  0.20937133030E+04  0.10100000352E+00 0. -1.
</event>
<event>
 5   0  0.4219337E-07  0.3102806E+04  0.7818609E-02  0.8214968E-01
       -1   -1    0    0    0  501  0.00000000000E+00  0.00000000000E+00  0.11481417908E+04  0.11481417908E+04  0.50400001928E-02 0. -1.
        1   -1    0    0  501    0  0.00000000000E+00  0.00000000000E+00 -0.20963009730E+04  0.20963009730E+04  0.50400001928E-02 0.  1.
    10030    2    1    2    0    0  0.00000000000E+00  0.00000000000E+00 -0.94815918221E+03  0.32444427638E+04  0.31028056679E+04 0.  0.
        4    1    3    3  502    0 -0.46125695082E+03 -0.55658293818E+03  0.96128201546E+03  0.12027498775E+04  0.12699999809E+01 0. -1.
       -4    1    3    3    0  502  0.46125695082E+03  0.55658293818E+03 -0.19094411977E+04  0.20416928863E+04  0.12699999809E+01 0.  1.
</event>
<event>
 5   0  0.4330395E-07  0.3099735E+04  0.7818609E-02  0.8215811E-01
        1   -1    0    0  501    0  0.00000000000E+00  0.00000000000E+00  0.15160172794E+04  0.15160172794E+04  0.50400001928E-02 0. -1.
       -1   -1    0    0    0  501  0.00000000000E+00  0.00000000000E+00 -0.15844737799E+04  0.15844737799E+04  0.50400001928E-02 0.  1.
    10030    2    1    2    0    0  0.00000000000E+00  0.00000000000E+00 -0.68456500510E+02  0.31004910593E+04  0.30997352332E+04 0.  0.
        1    1    3    3  502    0 -0.10829458101E+04  0.71267347491E+02  0.10724948703E+04  0.15258099191E+04  0.50400001928E-02 0. -1.
       -1    1    3    3    0  502  0.10829458101E+04 -0.71267347491E+02 -0.11409513708E+04  0.15746811401E+04  0.50400001928E-02 0.  1.
</event>
<event>
 5   0  0.4173905E-07  0.3077511E+04  0.7818609E-02  0.8221937E-01
       -1   -1    0    0    0  501  0.00000000000E+00  0.00000000000E+00  0.14293307363E+04  0.14293307363E+04  0.50400001928E-02 0.  1.
        1   -1    0    0  501    0  0.00000000000E+00  0.00000000000E+00 -0.16565574747E+04  0.16565574747E+04  0.50400001928E-02 0. -1.
    10030    2    1    2    0    0  0.00000000000E+00  0.00000000000E+00 -0.22722673838E+03  0.30858882110E+04  0.30775110170E+04 0.  0.
        3    1    3    3  502    0  0.11008682044E+04  0.70301188524E+02 -0.11893408961E+04  0.16221543816E+04  0.10100000352E+00 0. -1.
       -3    1    3    3    0  502 -0.11008682044E+04 -0.70301188524E+02  0.96211415769E+03  0.14637338294E+04  0.10100000352E+00 0.  1.
</event>
<event>
 5   0  0.4173905E-07  0.3098369E+04  0.7818609E-02  0.8216186E-01
       -1   -1    0    0    0  501  0.00000000000E+00  0.00000000000E+00  0.17515025714E+04  0.17515025714E+04  0.50400001928E-02 0.  1.
        1   -1    0    0  501    0  0.00000000000E+00  0.00000000000E+00 -0.13702366249E+04  0.13702366249E+04  0.50400001928E-02 0. -1.
    10030    2    1    2    0    0  0.00000000000E+00  0.00000000000E+00  0.38126594656E+03  0.31217391963E+04  0.30983692304E+04 0.  0.
        3    1    3    3  502    0 -0.14159687044E+04 -0.62649979245E+03  0.24104636381E+03  0.15670267137E+04  0.10100000352E+00 0.  1.
       -3    1    3    3    0  502  0.14159687044E+04  0.62649979245E+03  0.14021958275E+03  0.15547124826E+04  0.10100000352E+00 0. -1.
</event>
<event>
 5   0  0.1176002E-06  0.3113044E+04  0.7818609E-02  0.8212167E-01
        2   -1    0    0  501    0  0.00000000000E+00  0.00000000000E+00  0.22725721118E+04  0.22725721118E+04  0.25500000920E-02 0. -1.
       -2   -1    0    0    0  501  0.00000000000E+00  0.00000000000E+00 -0.10660875648E+04  0.10660875648E+04  0.25500000920E-02 0.  1.
    10030    2    1    2    0    0  0.00000000000E+00  0.00000000000E+00  0.12064845470E+04  0.33386596766E+04  0.31130440848E+04 0.  0.
        2    1    3    3  502    0  0.88805472504E+03 -0.50800271330E+02  0.19731320091E+04  0.21643640608E+04  0.25500000920E-02 0. -1.
       -2    1    3    3    0  502 -0.88805472504E+03  0.50800271330E+02 -0.76664746204E+03  0.11742956158E+04  0.25500000920E-02 0.  1.
</event>
<event>
 5   0  0.3935852E-07  0.3101893E+04  0.7818609E-02  0.8215218E-01
       -1   -1    0    0    0  501  0.00000000000E+00  0.00000000000E+00  0.11593258111E+04  0.11593258111E+04  0.50400001928E-02 0.  1.
        1   -1    0    0  501    0  0.00000000000E+00  0.00000000000E+00 -0.20748573237E+04  0.20748573237E+04  0.50400001928E-02 0. -1.
    10030    2    1    2    0    0  0.00000000000E+00  0.00000000000E+00 -0.91553151257E+03  0.32341831348E+04  0.31018933893E+04 0.  0.
        5    1    3    3  502    0 -0.39591114504E+03 -0.57946216182E+03  0.98429285640E+03  0.12088740831E+04  0.46999998093E+01 0.  1.
       -5    1    3    3    0  502  0.39591114504E+03  0.57946216182E+03 -0.18998243690E+04  0.20253090516E+04  0.46999998093E+01 0. -1.
</event>
<event>
 5   0  0.1200286E-06  0.3098243E+04  0.7818609E-02  0.8216220E-01
        2   -1    0    0  501    0  0.00000000000E+00  0.00000000000E+00  0.20334033256E+04  0.20334033256E+04  0.25500000920E-02 0. -1.
       -2   -1    0    0    0  501  0.00000000000E+00  0.00000000000E+00 -0.11801779116E+04  0.11801779116E+04  0.25500000920E-02 0.  1.
    10030    2    1    2    0    0  0.00000000000E+00  0.00000000000E+00  0.85322541394E+03  0.32135812372E+04  0.30982431733E+04 0.  0.
        5    1    3    3  502    0  0.18923897612E+03  0.19661665080E+03  0.20082685120E+04  0.20267298793E+04  0.46999998093E+01 0. -1.
       -5    1    3    3    0  502 -0.18923897612E+03 -0.19661665080E+03 -0.11550430980E+04  0.11868513579E+04  0.46999998093E+01 0.  1.
</event>
<event>
 5   0  0.4134019E-07  0.3090368E+04  0.7818609E-02  0.8218386E-01
       -1   -1    0    0    0  501  0.00000000000E+00  0.00000000000E+00  0.12435204608E+04  0.12435204608E+04  0.50400001928E-02 0. -1.
        1   -1    0    0  501    0  0.00000000000E+00  0.00000000000E+00 -0.19200270297E+04  0.19200270297E+04  0.50400001928E-02 0.  1.
    10030    2    1    2    0    0  0.00000000000E+00  0.00000000000E+00 -0.67650656885E+03  0.31635474905E+04  0.30903675489E+04 0.  0.
        2    1    3    3  502    0 -0.28978280531E+03  0.14637556680E+04 -0.74905157988E+03  0.16696206153E+04  0.25500000920E-02 0.  1.
       -2    1    3    3    0  502  0.28978280531E+03 -0.14637556680E+04  0.72545011031E+02  0.14939268752E+04  0.25500000920E-02 0. -1.
</event>
<event>
 5   0  0.4134019E-07  0.3088397E+04  0.7818609E-02  0.8218929E-01
       -1   -1    0    0    0  501  0.00000000000E+00  0.00000000000E+00  0.10855323318E+04  0.10855323319E+04  0.50400001928E-02 0.  1.
        1   -1    0    0  501    0  0.00000000000E+00  0.00000000000E+00 -0.21966631961E+04  0.21966631961E+04  0.50400001928E-02 0. -1.
    10030    2    1    2    0    0  0.00000000000E+00  0.00000000000E+00 -0.11111308642E+04  0.32821955279E+04  0.30883969444E+04 0.  0.
        2    1    3    3  502    0 -0.13324336385E+04 -0.64769915039E+03 -0.10183872917E+04  0.17977781471E+04  0.25500000920E-02 0.  1.
       -2    1    3    3    0  502  0.13324336385E+04  0.64769915039E+03 -0.92743572555E+02  0.14844173808E+04  0.25500000920E-02 0. -1.
</event>
<event>
 5   0  0.4330395E-07  0.3079696E+04  0.7818609E-02  0.8221332E-01
        1   -1    0    0  501    0  0.00000000000E+00  0.00000000000E+00  0.13923876667E+04  0.13923876667E+04  0.50400001928E-02 0. -1.
       -1   -1    0    0    0  501  0.00000000000E+00  0.00000000000E+00 -0.17029247664E+04  0.17029247664E+04  0.50400001928E-02 0.  1.
    10030    2    1    2    0    0  0.00000000000E+00  0.00000000000E+00 -0.31053709970E+03  0.30953124331E+04  0.30796957266E+04 0.  0.
        1    1    3    3  502    0  0.37318238866E+03 -0.13882495629E+04  0.39946273484E+03  0.14920028219E+04  0.50400001928E-02 0.  1.
       -1    1    3    3    0  502 -0.37318238866E+03  0.13882495629E+04 -0.70999983454E+03  0.16033096112E+04  0.50400001928E-02 0. -1.
</event>
<event>
 5   0  0.4134019E-07  0.3074101E+04  0.7818609E-02  0.8222882E-01
        1   -1    0    0  501    0  0.00000000000E+00  0.00000000000E+00  0.10693913601E+04  0.10693913601E+04  0.50400001928E-02 0.  1.
       -1   -1    0    0    0  501  0.00000000000E+00  0.00000000000E+00 -0.22092235366E+04  0.22092235366E+04  0.50400001928E-02 0. -1.
    10030    2    1    2    0    0  0.00000000000E+00  0.00000000000E+00 -0.11398321765E+04  0.32786148967E+04  0.30741012102E+04 0.  0.
        2    1    3    3  502    0  0.10390867304E+04  0.10961589848E+04 -0.26589236472E+03  0.15336115880E+04  0.25500000920E-02 0.  1.
       -2    1    3    3    0  502 -0.10390867304E+04 -0.10961589848E+04 -0.87393981174E+03  0.17450033088E+04  0.25500000920E-02 0. -1.
</event>
<event>
 5   0  0.1258262E-06  0.3109949E+04  0.7818609E-02  0.8213013E-01
        2   -1    0    0  501    0  0.00000000000E+00  0.00000000000E+00  0.15861355010E+04  0.15861355010E+04  0.25500000920E-02 0.  1.
       -2   -1    0    0    0  501  0.00000000000E+00  0.00000000000E+00 -0.15244258234E+04  0.15244258234E+04  0.25500000920E-02 0. -1.
    10030    2    1    2    0    0  0.00000000000E+00  0.00000000000E+00  0.61709677597E+02  0.31105613243E+04  0.31099491423E+04 0.  0.
        1    1    3    3  502    0 -0.14510423453E+04  0.29796297615E+03 -0.44214426075E+03  0.15458969468E+04  0.50400001928E-02 0.  1.
       -1    1    3    3    0  502  0.14510423453E+04 -0.29796297615E+03  0.50385393835E+03  0.15646643775E+04  0.50400001928E-02 0. -1.
</event>
<event>
 5   0  0.1258262E-06  0.3088156E+04  0.7818609E-02  0.8218996E-01
       -2   -1    0    0    0  501  0.00000000000E+00  0.00000000000E+00  0.15287129003E+04  0.15287129003E+04  0.25500000920E-02 0. -1.
        2   -1    0    0  501    0  0.00000000000E+00  0.00000000000E+00 -0.15595975565E+04  0.15595975565E+04  0.25500000920E-02 0.  1.
    10030    2    1    2    0    0  0.00000000000E+00  0.00000000000E+00 -0.30884656165E+02  0.30883104568E+04  0.30881560219E+04 0.  0.
        1    1    3    3  502    0  0.59776293328E+03 -0.68766461640E+03 -0.12620895049E+04  0.15566223265E+04  0.50400001928E-02 0.  1.
       -1    1    3    3    0  502 -0.59776293328E+03  0.68766461640E+03  0.12312048487E+04  0.15316881303E+04  0.50400001928E-02 0. -1.
</event>
<event>
 5   0  0.3902375E-07  0.3059759E+04  0.7818609E-02  0.8226869E-01
        3   -1    0    0  501    0  0.00000000000E+00  0.00000000000E+00  0.28591651898E+04  0.28591651915E+04  0.10100000352E+00 0.  1.
       -3   -1    0    0    0  501  0.00000000000E+00  0.00000000000E+00 -0.81860645914E+03  0.81860646537E+03  0.10100000352E+00 0. -1.
    10030    2    1    2    0    0  0.00000000000E+00  0.00000000000E+00  0.20405587306E+04  0.36777716569E+04  0.30597588838E+04 0.  0.
        5    1    3    3  502    0 -0.83771871459E+03  0.46376524619E+03  0.24544486573E+04  0.26346140419E+04  0.46999998093E+01 0.  1.
       -5    1    3    3    0  502  0.83771871459E+03 -0.46376524619E+03 -0.41388992670E+03  0.10431576150E+04  0.46999998093E+01 0. -1.
</event>
<event>
 5   0  0.4219337E-07  0.3089221E+04  0.7818609E-02  0.8218702E-01
       -1   -1    0    0    0  501  0.00000000000E+00  0.00000000000E+00  0.15210523164E+04  0.15210523164E+04  0.50400001928E-02 0.  1.
        1   -1    0    0  501    0  0.00000000000E+00  0.00000000000E+00 -0.15685336200E+04  0.15685336200E+04  0.50400001928E-02 0. -1.
    10030    2    1    2    0    0  0.00000000000E+00  0.00000000000E+00 -0.47481303571E+02  0.30895859365E+04  0.30892210644E+04 0.  0.
        4    1    3    3  502    0 -0.14004889189E+04 -0.71822264847E+02 -0.67134507251E+03  0.15547454676E+04  0.12699999809E+01 0.  1.
       -4    1    3    3    0  502  0.14004889189E+04  0.71822264847E+02  0.62386376894E+03  0.15348404689E+04  0.12699999809E+01 0. -1.
</event>
<event>
 5   0  0.1200286E-06  0.3110488E+04  0.7818609E-02  0.8212865E-01
        2   -1    0    0  501    0  0.00000000000E+00  0.00000000000E+00  0.23017361845E+04  0.23017361845E+04  0.25500000920E-02 0.  1.
       -2   -1    0    0    0  501  0.00000000000E+00  0.00000000000E+00 -0.10508518877E+04  0.10508518877E+04  0.25500000920E-02 0. -1.
    10030    2    1    2    0    0  0.00000000000E+00  0.00000000000E+00  0.12508842968E+04  0.33525880723E+04  0.31104879453E+04 0.  0.
        5    1    3    3  502    0 -0.95686824039E+03  0.10300554392E+04  0.13421411924E+04  0.19437016509E+04  0.46999998093E+01 0. -1.
       -5    1    3    3    0  502  0.95686824039E+03 -0.10300554392E+04 -0.91256895587E+02  0.14088864214E+04  0.46999998093E+01 0.  1.
</event>
<event>
 5   0  0.3935852E-07  0.3104224E+04  0.7818609E-02  0.8214580E-01
       -1   -1    0    0    0  501  0.00000000000E+00  0.00000000000E+00  0.12275125748E+04  0.12275125748E+04  0.50400001928E-02 0. -1.
        1   -1    0    0  501    0  0.00000000000E+00  0.00000000000E+00 -0.19625478524E+04  0.19625478524E+04  0.50400001928E-02 0.  1.
    10030    2    1    2    0    0  0.00000000000E+00  0.00000000000E+00 -0.73503527758E+03  0.31900604272E+04  0.31042243266E+04 0.  0.
        5    1    3    3  502    0  0.13400720872E+04 -0.14694883248E+02  0.43708873055E+03  0.14096374665E+04  0.46999998093E+01 0. -1.
       -5    1    3    3    0  502 -0.13400720872E+04  0.14694883248E+02 -0.11721240081E+04  0.17804229607E+04  0.46999998093E+01 0.  1.
</event>
<event>
 5   0  0.4134019E-07  0.3106914E+04  0.7818609E-02  0.8213843E-01
        1   -1    0    0  501    0  0.00000000000E+00  0.00000000000E+00  0.24895789704E+04  0.24895789704E+04  0.50400001928E-02 0. -1.
       -1   -1    0    0    0  501  0.00000000000E+00  0.00000000000E+00 -0.96933229427E+03  0.96933229428E+03  0.50400001928E-02 0.  1.
    10030    2    1    2    0    0  0.00000000000E+00  0.00000000000E+00  0.15202466761E+04  0.34589112646E+04  0.31069144147E+04 0.  0.
        2    1    3    3  502    0  0.28256243092E+03 -0.11272563646E+04  0.19077788826E+04  0.22338685511E+04  0.25500000920E-02 0. -1.
       -2    1    3    3    0  502 -0.28256243092E+03  0.11272563646E+04 -0.38753220651E+03  0.12250427135E+04  0.25500000920E-02 0.  1.
</event>
<event>
 5   0  0.1200286E-06  0.3084881E+04  0.7818609E-02  0.8219899E-01
       -2   -1    0    0    0  501  0.00000000000E+00  0.00000000000E+00  0.17464668435E+04  0.17464668435E+04  0.25500000920E-02 0. -1.
        2   -1    0    0  501    0  0.00000000000E+00  0.00000000000E+00 -0.13622493705E+04  0.13622493705E+04  0.25500000920E-02 0.  1.
    10030    2    1    2    0    0  0.00000000000E+00  0.00000000000E+00  0.38421747301E+03  0.31087162141E+04  0.30848814293E+04 0.  0.
        5    1    3    3  502    0  0.15081896053E+03  0.64178245065E+03  0.15973252590E+04  0.17280338961E+04  0.46999998093E+01 0. -1.
       -5    1    3    3    0  502 -0.15081896053E+03 -0.64178245065E+03 -0.12131077860E+04  0.13806823180E+04  0.46999998093E+01 0.  1.
</event>
<event>
 5   0  0.1258262E-06  0.3139054E+04  0.7818609E-02  0.8205101E-01
       -2   -1    0    0    0  501  0.00000000000E+00  0.00000000000E+00  0.69297042627E+03  0.69297042628E+03  0.25500000920E-02 0. -1.
        2   -1    0    0  501    0  0.00000000000E+00  0.00000000000E+00 -0.35548621406E+04  0.35548621406E+04  0.25500000920E-02 0.  1.
    10030    2    1    2    0    0  0.00000000000E+00  0.00000000000E+00 -0.28618917143E+04  0.42478325669E+04  0.31390535726E+04 0.  0.
        1    1    3    3  502    0 -0.18956283053E+02  0.48075328283E+03 -0.34526102932E+04  0.34859720160E+04  0.50400001928E-02 0.  1.
       -1    1    3    3    0  502  0.18956283053E+02 -0.48075328283E+03  0.59071857884E+03  0.76186055091E+03  0.50400001928E-02 0. -1.
</event>
<event>
 5   0  0.4219337E-07  0.3090107E+04  0.7818609E-02  0.8218458E-01
       -1   -1    0    0    0  501  0.00000000000E+00  0.00000000000E+00  0.13163054205E+04  0.13163054205E+04  0.50400001928E-02 0. -1.
        1   -1    0    0  501    0  0.00000000000E+00  0.00000000000E+00 -0.18135533993E+04  0.18135533993E+04  0.50400001928E-02 0.  1.
    10030    2    1    2    0    0  0.00000000000E+00  0.00000000000E+00 -0.49724797877E+03  0.31298588198E+04  0.30901069042E+04 0.  0.
        4    1    3    3  502    0  0.45291868819E+03 -0.14090757929E+04  0.20042869884E+03  0.14935873608E+04  0.12699999809E+01 0.  1.
       -4    1    3    3    0  502 -0.45291868819E+03  0.14090757929E+04 -0.69767667761E+03  0.16362714590E+04  0.12699999809E+01 0. -1.
</event>
<event>
 5   0  0.3935852E-07  0.3094851E+04  0.7818609E-02  0.8217152E-01
       -1   -1    0    0    0  501  0.00000000000E+00  0.00000000000E+00  0.26425132701E+04  0.26425132701E+04  0.50400001928E-02 0. -1.
        1   -1    0    0  501    0  0.00000000000E+00  0.00000000000E+00 -0.90615452503E+03  0.90615452505E+03  0.50400001928E-02 0.  1.
    10030    2    1    2    0    0  0.00000000000E+00  0.00000000000E+00  0.17363587451E+04  0.35486677952E+04  0.30948507927E+04 0.  0.
        5    1    3    3  502    0 -0.55402107684E+03  0.83871748824E+03 -0.48082082493E+03  0.11142697763E+04  0.46999998093E+01 0.  1.
       -5    1    3    3    0  502  0.55402107684E+03 -0.83871748824E+03  0.22171795700E+04  0.24343980189E+04  0.46999998093E+01 0. -1.
</event>
<event>
 5   0  0.4173905E-07  0.3109870E+04  0.7818609E-02  0.8213034E-01
       -1   -1    0    0    0  501  0.00000000000E+00  0.00000000000E+00  0.12989920311E+04  0.12989920311E+04  0.50400001928E-02 0.  1.
        1   -1    0    0  501    0  0.00000000000E+00  0.00000000000E+00 -0.18613072915E+04  0.18613072915E+04  0.50400001928E-02 0. -1.
    10030    2    1    2    0    0  0.00000000000E+00  0.00000000000E+00 -0.56231526043E+03  0.31602993226E+04  0.31098703119E+04 0.  0.
        3    1    3    3  502    0 -0.99663226267E+03 -0.10822803659E+04 -0.79252391108E+03  0.16711375818E+04  0.10100000352E+00 0. -1.
       -3    1    3    3    0  502  0.99663226267E+03  0.10822803659E+04  0.23020865065E+03  0.14891617409E+04  0.10100000352E+00 0.  1.
</event>
<event>
 5   0  0.4173905E-07  0.3095924E+04  0.7818609E-02  0.8216857E-01
       -1   -1    0    0    0  501  0.00000000000E+00  0.00000000000E+00  0.12011916843E+04  0.12011916843E+04  0.50400001928E-02 0. -1.
        1   -1    0    0  501    0  0.00000000000E+00  0.00000000000E+00 -0.19948414605E+04  0.19948414605E+04  0.50400001928E-02 0.  1.
    10030    2    1    2    0    0  0.00000000000E+00  0.00000000000E+00 -0.79364977621E+03  0.31960331448E+04  0.30959244008E+04 0.  0.
        3    1    3    3  502    0  0.18502514349E+03  0.22933570952E+03  0.11719713508E+04  0.12084477765E+04  0.10100000352E+00 0. -1.
       -3    1    3    3    0  502 -0.18502514349E+03 -0.22933570952E+03 -0.19656211270E+04  0.19875853683E+04  0.10100000352E+00 0.  1.
</event>
<event>
 5   0  0.3935852E-07  0.3081156E+04  0.7818609E-02  0.8220929E-01
       -1   -1    0    0    0  501  0.00000000000E+00  0.00000000000E+00  0.12268874227E+04  0.12268874227E+04  0.50400001928E-02 0.  1.
        1   -1    0    0  501    0  0.00000000000E+00  0.00000000000E+00 -0.19344724674E+04  0.19344724674E+04  0.50400001928E-02 0. -1.
    10030    2    1    2    0    0  0.00000000000E+00  0.00000000000E+00 -0.70758504471E+03  0.31613598901E+04  0.30811555883E+04 0.  0.
        5    1    3    3  502    0 -0.67391168366E+03 -0.11499385176E+03  0.10627159363E+04  0.12636327768E+04  0.46999998093E+01 0.  1.
       -5    1    3    3    0  502  0.67391168366E+03  0.11499385176E+03 -0.17703009810E+04  0.18977271133E+04  0.46999998093E+01 0. -1.
</event>
<event>
 5   0  0.4219337E-07  0.3085138E+04  0.7818609E-02  0.8219829E-01
       -1   -1    0    0    0  501  0.00000000000E+00  0.00000000000E+00  0.11079613480E+04  0.11079613480E+04  0.50400001928E-02 0.  1.
        1   -1    0    0  501    0  0.00000000000E+00  0.00000000000E+00 -0.21476552274E+04  0.21476552275E+04  0.50400001928E-02 0. -1.
    10030    2    1    2    0    0  0.00000000000E+00  0.00000000000E+00 -0.10396938794E+04  0.32556165755E+04  0.30851379100E+04 0.  0.
        4    1    3    3  502    0  0.54733414523E+03  0.10476811550E+04  0.52603404158E+03  0.12938021081E+04  0.12699999809E+01 0.  1.
       -4    1    3    3    0  502 -0.54733414523E+03 -0.10476811550E+04 -0.15657279210E+04  0.19618144674E+04  0.12699999809E+01 0. -1.
</event>
<event>
 5   0  0.3935852E-07  0.3087101E+04  0.7818609E-02  0.8219287E-01
        1   -1    0    0  501    0  0.00000000000E+00  0.00000000000E+00  0.20362387618E+04  0.20362387618E+04  0.50400001928E-02 0.  1.
       -1   -1    0    0    0  501  0.00000000000E+00  0.00000000000E+00 -0.11700732308E+04  0.11700732308E+04  0.50400001928E-02 0. -1.
    10030    2    1    2    0    0  0.00000000000E+00  0.00000000000E+00  0.86616553099E+03  0.32063119927E+04  0.30871012078E+04 0.  0.
        5    1    3    3  502    0 -0.65078707100E+03 -0.10734161660E+04 -0.49981178083E+03  0.13511402530E+04  0.46999998093E+01 0. -1.
       -5    1    3    3    0  502  0.65078707100E+03  0.10734161660E+04  0.13659773118E+04  0.18551717396E+04  0.46999998093E+01 0.  1.
</event>
<event>
 5   0  0.1237580E-06  0.3086809E+04  0.7818609E-02  0.8219367E-01
        2   -1    0    0  501    0  0.00000000000E+00  0.00000000000E+00  0.17231764056E+04  0.17231764056E+04  0.25500000920E-02 0.  1.
       -2   -1    0    0    0  501  0.00000000000E+00  0.00000000000E+00 -0.13823877832E+04  0.13823877832E+04  0.25500000920E-02 0. -1.
    10030    2    1    2    0    0  0.00000000000E+00  0.00000000000E+00  0.34078862239E+03  0.31055641888E+04  0.30868093634E+04 0.  0.
        4    1    3    3  502    0 -0.10536069753E+04 -0.10153429022E+04  0.66438421851E+03  0.16069900031E+04  0.12699999809E+01 0.  1.
       -4    1    3    3    0  502  0.10536069753E+04  0.10153429022E+04 -0.32359559612E+03  0.14985741857E+04  0.12699999809E+01 0. -1.
</event>
<event>
 5   0  0.3935852E-07  0.3106157E+04  0.7818609E-02  0.8214050E-01
       -1   -1    0    0    0  501  0.00000000000E+00  0.00000000000E+00  0.92556966054E+03  0.92556966055E+03  0.50400001928E-02 0. -1.
        1   -1    0    0  501    0  0.00000000000E+00  0.00000000000E+00 -0.26060199817E+04  0.26060199817E+04  0.50400001928E-02 0.  1.
    10030    2    1    2    0    0  0.00000000000E+00  0.00000000000E+00 -0.16804503211E+04  0.35315896422E+04  0.31061571305E+04 0.  0.
        5    1    3    3  502    0 -0.27066808390E+03 -0.32250500033E+03  0.85943573308E+03  0.95703842983E+03  0.46999998093E+01 0. -1.
       -5    1    3    3    0  502  0.27066808390E+03  0.32250500033E+03 -0.25398860542E+04  0.25745512124E+04  0.46999998093E+01 0.  1.
</event>
<event>
 5   0  0.1193123E-06  0.3102618E+04  0.7818609E-02  0.8215020E-01
       -2   -1    0    0    0  501  0.00000000000E+00  0.00000000000E+00  0.11110342162E+04  0.11110342163E+04  0.25500000920E-02 0. -1.
        2   -1    0    0  501    0  0.00000000000E+00  0.00000000000E+00 -0.21660533977E+04  0.21660533977E+04  0.25500000920E-02 0.  1.
    10030    2    1    2    0    0  0.00000000000E+00  0.00000000000E+00 -0.10550191814E+04  0.32770876139E+04  0.31026178875E+04 0.  0.
        3    1    3    3  502    0  0.32171650011E+03  0.15171527817E+04 -0.48934814696E+03  0.16262581863E+04  0.10100000352E+00 0.  1.
       -3    1    3    3    0  502 -0.32171650011E+03 -0.15171527817E+04 -0.56567103446E+03  0.16508294276E+04  0.10100000352E+00 0. -1.
</event>
<event>
 5   0  0.1193123E-06  0.3077496E+04  0.7818609E-02  0.8221941E-01
       -2   -1    0    0    0  501  0.00000000000E+00  0.00000000000E+00  0.16023535465E+04  0.16023535465E+04  0.25500000920E-02 0.  1.
        2   -1    0    0  501    0  0.00000000000E+00  0.00000000000E+00 -0.14776669006E+04  0.14776669006E+04  0.25500000920E-02 0. -1.
    10030    2    1    2    0    0  0.00000000000E+00  0.00000000000E+00  0.12468664592E+03  0.30800204472E+04  0.30774956044E+04 0.  0.
        3    1    3    3  502    0  0.10742693123E+04 -0.11945486043E+03  0.11584225342E+04  0.15843821500E+04  0.10100000352E+00 0.  1.
       -3    1    3    3    0  502 -0.10742693123E+04  0.11945486043E+03 -0.10337358883E+04  0.14956382972E+04  0.10100000352E+00 0. -1.
</event>
<event>
 5   0  0.4134019E-07  0.3101586E+04  0.7818609E-02  0.8215303E-01
       -1   -1    0    0    0  501  0.00000000000E+00  0.00000000000E+00  0.11917725161E+04  0.11917725161E+04  0.50400001928E-02 0.  1.
        1   -1    0    0  501    0  0.00000000000E+00  0.00000000000E+00 -0.20179681252E+04  0.20179681252E+04  0.50400001928E-02 0. -1.
    10030    2    1    2    0    0  0.00000000000E+00  0.00000000000E+00 -0.82619560906E+03  0.32097406413E+04  0.31015860137E+04 0.  0.
        2    1    3    3  502    0 -0.11454765627E+04  0.10332156304E+04 -0.24846598288E+03  0.15624936606E+04  0.25500000920E-02 0. -1.
       -2    1    3    3    0  502  0.11454765627E+04 -0.10332156304E+04 -0.57772962618E+03  0.16472469808E+04  0.25500000920E-02 0.  1.
</event>
<event>
 5   0  0.1200286E-06  0.3094677E+04  0.7818609E-02  0.8217200E-01
        2   -1    0    0  501    0  0.00000000000E+00  0.00000000000E+00  0.12625840880E+04  0.12625840880E+04  0.25500000920E-02 0.  1.
       -2   -1    0    0    0  501  0.00000000000E+00  0.00000000000E+00 -0.18963149537E+04  0.18963149537E+04  0.25500000920E-02 0. -1.
    10030    2    1    2    0    0  0.00000000000E+00  0.00000000000E+00 -0.63373086573E+03  0.31588990417E+04  0.30946774218E+04 0.  0.
        5    1    3    3  502    0  0.93816542268E+03 -0.52502787965E+03 -0.14528055924E+04  0.18073391530E+04  0.46999998093E+01 0. -1.
       -5    1    3    3    0  502 -0.93816542268E+03  0.52502787965E+03  0.81907472668E+03  0.13515598886E+04  0.46999998093E+01 0.  1.
</event>
<event>
 5   0  0.3935852E-07  0.3113192E+04  0.7818609E-02  0.8212127E-01
       -1   -1    0    0    0  501  0.00000000000E+00  0.00000000000E+00  0.10040535113E+04  0.10040535113E+04  0.50400001928E-02 0.  1.
        1   -1    0    0  501    0  0.00000000000E+00  0.00000000000E+00 -0.24132091902E+04  0.24132091902E+04  0.50400001928E-02 0. -1.
    10030    2    1    2    0    0  0.00000000000E+00  0.00000000000E+00 -0.14091556789E+04  0.34172627015E+04  0.31131920345E+04 0.  0.
        5    1    3    3  502    0 -0.88819453469E+03 -0.51893466058E+03 -0.19869225717E+04  0.22374239897E+04  0.46999998093E+01 0. -1.
       -5    1    3    3    0  502  0.88819453469E+03  0.51893466058E+03  0.57776689285E+03  0.11798387118E+04  0.46999998093E+01 0.  1.
</event>
<event>
 5   0  0.4134019E-07  0.3101591E+04  0.7818609E-02  0.8215301E-01
       -1   -1    0    0    0  501  0.00000000000E+00  0.00000000000E+00  0.16039313102E+04  0.16039313102E+04  0.50400001928E-02 0. -1.
        1   -1    0    0  501    0  0.00000000000E+00  0.00000000000E+00 -0.14994200864E+04  0.14994200864E+04  0.50400001928E-02 0.  1.
    10030    2    1    2    0    0  0.00000000000E+00  0.00000000000E+00  0.10451122376E+03  0.31033513966E+04  0.31015910908E+04 0.  0.
        2    1    3    3  502    0 -0.64372412483E+03 -0.14025192678E+04 -0.10121259321E+03  0.15465073664E+04  0.25500000920E-02 0.  1.
       -2    1    3    3    0  502  0.64372412483E+03  0.14025192678E+04  0.20572381698E+03  0.15568440301E+04  0.25500000920E-02 0. -1.
</event>
<event>
 5   0  0.1200286E-06  0.3098432E+04  0.7818609E-02  0.8216168E-01
       -2   -1    0    0    0  501  0.00000000000E+00  0.00000000000E+00  0.11411101173E+04  0.11411101173E+04  0.25500000920E-02 0. -1.
        2   -1    0    0  501    0  0.00000000000E+00  0.00000000000E+00 -0.21032764113E+04  0.21032764113E+04  0.25500000920E-02 0.  1.
    10030    2    1    2    0    0  0.00000000000E+00  0.00000000000E+00 -0.96216629402E+03  0.32443865286E+04  0.30984318565E+04 0.  0.
        5    1    3    3  502    0 -0.10785387092E+04 -0.22328998471E+03  0.65970685678E+03  0.12838767041E+04  0.46999998093E+01 0. -1.
       -5    1    3    3    0  502  0.10785387092E+04  0.22328998471E+03 -0.16218731508E+04  0.19605098245E+04  0.46999998093E+01 0.  1.
</event>
<event>
 5   0  0.1258262E-06  0.3089608E+04  0.7818609E-02  0.8218596E-01
        2   -1    0    0  501    0  0.00000000000E+00  0.00000000000E+00  0.17629600443E+04  0.17629600443E+04  0.25500000920E-02 0.  1.
       -2   -1    0    0    0  501  0.00000000000E+00  0.00000000000E+00 -0.13536430870E+04  0.13536430870E+04  0.25500000920E-02 0. -1.
    10030    2    1    2    0    0  0.00000000000E+00  0.00000000000E+00  0.40931695735E+03  0.31166031313E+04  0.30896075327E+04 0.  0.
        1    1    3    3  502    0 -0.53543377820E+03 -0.39163011196E+02 -0.12565129576E+04  0.13663996066E+04  0.50400001928E-02 0. -1.
       -1    1    3    3    0  502  0.53543377820E+03  0.39163011196E+02  0.16658299149E+04  0.17502035247E+04  0.50400001928E-02 0.  1.
</event>
<event>
 5   0  0.4134019E-07  0.2931502E+04  0.7818609E-02  0.8263566E-01
       -1   -1    0    0    0  501  0.00000000000E+00  0.00000000000E+00  0.84330342692E+03  0.84330342693E+03  0.50400001928E-02 0. -1.
        1   -1    0    0  501    0  0.00000000000E+00  0.00000000000E+00 -0.25476310907E+04  0.25476310907E+04  0.50400001928E-02 0.  1.
    10030    2    1    2    0    0  0.00000000000E+00  0.00000000000E+00 -0.17043276638E+04  0.33909345176E+04  0.29315020241E+04 0.  0.
        2    1    3    3  502    0 -0.68162091889E+03 -0.11651093134E+04 -0.15129544278E+04  0.20275891818E+04  0.25500000920E-02 0.  1.
       -2    1    3    3    0  502  0.68162091889E+03  0.11651093134E+04 -0.19137323591E+03  0.13633453358E+04  0.25500000920E-02 0. -1.
</event>
<event>
 5   0  0.1258262E-06  0.3107338E+04  0.7818609E-02  0.8213727E-01
       -2   -1    0    0    0  501  0.00000000000E+00  0.00000000000E+00  0.11972555929E+04  0.11972555929E+04  0.25500000920E-02 0.  1.
        2   -1    0    0  501    0  0.00000000000E+00  0.00000000000E+00 -0.20161844593E+04  0.20161844593E+04  0.25500000920E-02 0. -1.
    10030    2    1    2    0    0  0.00000000000E+00  0.00000000000E+00 -0.81892886634E+03  0.32134400522E+04  0.31073384883E+04 0.  0.
        1    1    3    3  502    0 -0.13510778516E+04 -0.53854124477E+02 -0.12008232677E+04  0.18083938033E+04  0.50400001928E-02 0. -1.
       -1    1    3    3    0  502  0.13510778516E+04  0.53854124477E+02  0.38189440133E+03  0.14050462489E+04  0.50400001928E-02 0.  1.
</event>
<event>
 5   0  0.4219337E-07  0.3062149E+04  0.7818609E-02  0.8226203E-01
       -1   -1    0    0    0  501  0.00000000000E+00  0.00000000000E+00  0.85248864992E+03  0.85248864994E+03  0.50400001928E-02 0.  1.
        1   -1    0    0  501    0  0.00000000000E+00  0.00000000000E+00 -0.27498184047E+04  0.27498184047E+04  0.50400001928E-02 0. -1.
    10030    2    1    2    0    0  0.00000000000E+00  0.00000000000E+00 -0.18973297548E+04  0.36023070546E+04  0.30621489052E+04 0.  0.
        4    1    3    3  502    0  0.11413804379E+04  0.52144816300E+03  0.83305344470E+02  0.12576163501E+04  0.12699999809E+01 0.  1.
       -4    1    3    3    0  502 -0.11413804379E+04 -0.52144816300E+03 -0.19806350993E+04  0.23446907046E+04  0.12699999809E+01 0. -1.
</event>
<event>
 5   0  0.1193123E-06  0.3097352E+04  0.7818609E-02  0.8216465E-01
        2   -1    0    0  501    0  0.00000000000E+00  0.00000000000E+00  0.22917439920E+04  0.22917439920E+04  0.25500000920E-02 0. -1.
       -2   -1    0    0    0  501  0.00000000000E+00  0.00000000000E+00 -0.10465377798E+04  0.10465377798E+04  0.25500000920E-02 0.  1.
    10030    2    1    2    0    0  0.00000000000E+00  0.00000000000E+00  0.12452062121E+04  0.33382817718E+04  0.30973515585E+04 0.  0.
        3    1    3    3  502    0  0.14710293956E+04 -0.21220905383E+03  0.15350431596E+03  0.14941632275E+04  0.10100000352E+00 0.  1.
       -3    1    3    3    0  502 -0.14710293956E+04  0.21220905383E+03  0.10917018962E+04  0.18441185443E+04  0.10100000352E+00 0. -1.
</event>
<event>
 5   0  0.4219337E-07  0.3084399E+04  0.7818609E-02  0.8220033E-01
        1   -1    0    0  501    0  0.00000000000E+00  0.00000000000E+00  0.21819491725E+04  0.21819491725E+04  0.50400001928E-02 0.  1.
       -1   -1    0    0    0  501  0.00000000000E+00  0.00000000000E+00 -0.10900249950E+04  0.10900249950E+04  0.50400001928E-02 0. -1.
    10030    2    1    2    0    0  0.00000000000E+00  0.00000000000E+00  0.10919241776E+04  0.32719741675E+04  0.30843988950E+04 0.  0.
        4    1    3    3  502    0 -0.36886704855E+03  0.80566964306E+03  0.18849479225E+04  0.20828338284E+04  0.12699999809E+01 0.  1.
       -4    1    3    3    0  502  0.36886704855E+03 -0.80566964306E+03 -0.79302374492E+03  0.11891403391E+04  0.12699999809E+01 0. -1.
</event>
<event>
 5   0  0.1193123E-06  0.3088124E+04  0.7818609E-02  0.8219005E-01
       -2   -1    0    0    0  501  0.00000000000E+00  0.00000000000E+00  0.11155874757E+04  0.11155874757E+04  0.25500000920E-02 0. -1.
        2   -1    0    0  501    0  0.00000000000E+00  0.00000000000E+00 -0.21371047913E+04  0.21371047913E+04  0.25500000920E-02 0.  1.
    10030    2    1    2    0    0  0.00000000000E+00  0.00000000000E+00 -0.10215173156E+04  0.32526922671E+04  0.30881239221E+04 0.  0.
        3    1    3    3  502    0  0.67794303383E+03 -0.11666764044E+04  0.27983179955E+03  0.13780589378E+04  0.10100000352E+00 0. -1.
       -3    1    3    3    0  502 -0.67794303383E+03  0.11666764044E+04 -0.13013491152E+04  0.18746333293E+04  0.10100000352E+00 0.  1.
</event>
<event>
 5   0  0.1237580E-06  0.3101973E+04  0.7818609E-02  0.8215197E-01
       -2   -1    0    0    0  501  0.00000000000E+00  0.00000000000E+00  0.11212405062E+04  0.11212405062E+04  0.25500000920E-02 0. -1.
        2   -1    0    0  501    0  0.00000000000E+00  0.00000000000E+00 -0.21454448180E+04  0.21454448180E+04  0.25500000920E-02 0.  1.
    10030    2    1    2    0    0  0.00000000000E+00  0.00000000000E+00 -0.10242043118E+04  0.32666853242E+04  0.31019733292E+04 0.  0.
        4    1    3    3  502    0  0.96013919717E+03 -0.39651030451E+03 -0.17249826474E+04  0.20136172542E+04  0.12699999809E+01 0.  1.
       -4    1    3    3    0  502 -0.96013919717E+03  0.39651030451E+03  0.70077833566E+03  0.12530680700E+04  0.12699999809E+01 0. -1.
</event>
<event>
 5   0  0.1176002E-06  0.3107080E+04  0.7818609E-02  0.8213797E-01
       -2   -1    0    0    0  501  0.00000000000E+00  0.00000000000E+00  0.14556141857E+04  0.14556141857E+04  0.25500000920E-02 0.  1.
        2   -1    0    0  501    0  0.00000000000E+00  0.00000000000E+00 -0.16580541156E+04  0.16580541156E+04  0.25500000920E-02 0. -1.
    10030    2    1    2    0    0  0.00000000000E+00  0.00000000000E+00 -0.20243992994E+03  0.31136683013E+04  0.31070803603E+04 0.  0.
        2    1    3    3  502    0 -0.89817506542E+01  0.59220623189E+03  0.13380348935E+04  0.14632587841E+04  0.25500000920E-02 0.  1.
       -2    1    3    3    0  502  0.89817506542E+01 -0.59220623189E+03 -0.15404748234E+04  0.16504095172E+04  0.25500000920E-02 0. -1.
</event>
<event>
 5   0  0.1176002E-06  0.3103649E+04  0.7818609E-02  0.8214737E-01
        2   -1    0    0  501    0  0.00000000000E+00  0.00000000000E+00  0.12348749434E+04  0.12348749434E+04  0.25500000920E-02 0.  1.
       -2   -1    0    0    0  501  0.00000000000E+00  0.00000000000E+00 -0.19501236016E+04  0.19501236016E+04  0.25500000920E-02 0. -1.
    10030    2    1    2    0    0  0.00000000000E+00  0.00000000000E+00 -0.71524865822E+03  0.31849985450E+04  0.31036486735E+04 0.  0.
        2    1    3    3  502    0 -0.13134267131E+04  0.69818746091E+03  0.96238676734E+02  0.14905761786E+04  0.25500000920E-02 0.  1.
       -2    1    3    3    0  502  0.13134267131E+04 -0.69818746091E+03 -0.81148733496E+03  0.16944223665E+04  0.25500000920E-02 0. -1.
</event>
<event>
 5   0  0.4219337E-07  0.3087141E+04  0.7818609E-02  0.8219276E-01
        1   -1    0    0  501    0  0.00000000000E+00  0.00000000000E+00  0.19112308856E+04  0.19112308856E+04  0.50400001928E-02 0. -1.
       -1   -1    0    0    0  501  0.00000000000E+00  0.00000000000E+00 -0.12466364730E+04  0.12466364730E+04  0.50400001928E-02 0.  1.
    10030    2    1    2    0    0  0.00000000000E+00  0.00000000000E+00  0.66459441266E+03  0.31578673586E+04  0.30871411567E+04 0.  0.
        4    1    3    3  502    0 -0.88030553924E+03  0.33257224531E+03 -0.91928080564E+03  0.13155306736E+04  0.12699999809E+01 0.  1.
       -4    1    3    3    0  502  0.88030553924E+03 -0.33257224531E+03  0.15838752183E+04  0.18423366850E+04  0.12699999809E+01 0. -1.
</event>
<event>
 5   0  0.1176002E-06  0.3102264E+04  0.7818609E-02  0.8215117E-01
       -2   -1    0    0    0  501  0.00000000000E+00  0.00000000000E+00  0.13939399561E+04  0.13939399561E+04  0.25500000920E-02 0. -1.
        2   -1    0    0  501    0  0.00000000000E+00  0.00000000000E+00 -0.17260506461E+04  0.17260506461E+04  0.25500000920E-02 0.  1.
    10030    2    1    2    0    0  0.00000000000E+00  0.00000000000E+00 -0.33211069002E+03  0.31199906022E+04  0.31022643097E+04 0.  0.
        2    1    3    3  502    0 -0.16494119075E+03  0.12084604421E+04 -0.11298781960E+04  0.16625904409E+04  0.25500000920E-02 0.  1.
       -2    1    3    3    0  502  0.16494119075E+03 -0.12084604421E+04  0.79776750599E+03  0.14574001613E+04  0.25500000920E-02 0. -1.
</event>
<event>
 5   0  0.1200286E-06  0.3113840E+04  0.7818609E-02  0.8211950E-01
       -2   -1    0    0    0  501  0.00000000000E+00  0.00000000000E+00  0.20532732590E+04  0.20532732590E+04  0.25500000920E-02 0. -1.
        2   -1    0    0  501    0  0.00000000000E+00  0.00000000000E+00 -0.11805542954E+04  0.11805542954E+04  0.25500000920E-02 0.  1.
    10030    2    1    2    0    0  0.00000000000E+00  0.00000000000E+00  0.87271896362E+03  0.32338275544E+04  0.31138404362E+04 0.  0.
        5    1    3    3  502    0 -0.13610179400E+03 -0.17394974001E+03  0.20369131976E+04  0.20488581393E+04  0.46999998093E+01 0. -1.
       -5    1    3    3    0  502  0.13610179400E+03  0.17394974001E+03 -0.11641942340E+04  0.11849694151E+04  0.46999998093E+01 0.  1.
</event>
<event>
 5   0  0.1200286E-06  0.3107724E+04  0.7818609E-02  0.8213621E-01
        2   -1    0    0  501    0  0.00000000000E+00  0.00000000000E+00  0.14617836119E+04  0.14617836119E+04  0.25500000920E-02 0. -1.
       -2   -1    0    0    0  501  0.00000000000E+00  0.00000000000E+00 -0.16517403961E+04  0.16517403961E+04  0.25500000920E-02 0.  1.
    10030    2    1    2    0    0  0.00000000000E+00  0.00000000000E+00 -0.18995678414E+03  0.31135240080E+04  0.31077239531E+04 0.  0.
        5    1    3    3  502    0  0.66838072921E+02  0.18638288458E+03 -0.16390423084E+04  0.16509656830E+04  0.46999998093E+01 0.  1.
       -5    1    3    3    0  502 -0.66838072921E+02 -0.18638288458E+03  0.14490855242E+04  0.14625583251E+04  0.46999998093E+01 0. -1.
</event>
<event>
 5   0  0.1193123E-06  0.2990073E+04  0.7818609E-02  0.8246571E-01
        2   -1    0    0  501    0  0.00000000000E+00  0.00000000000E+00  0.17016688580E+04  0.17016688580E+04  0.25500000920E-02 0.  1.
       -2   -1    0    0    0  501  0.00000000000E+00  0.00000000000E+00 -0.13134950866E+04  0.13134950866E+04  0.25500000920E-02 0. -1.
    10030    2    1    2    0    0  0.00000000000E+00  0.00000000000E+00  0.38817377140E+03  0.30151639446E+04  0.29900726974E+04 0.  0.
        3    1    3    3  502    0 -0.14505090286E+04 -0.30042096353E+03  0.39803260926E+03  0.15338380506E+04  0.10100000352E+00 0. -1.
       -3    1    3    3    0  502  0.14505090286E+04  0.30042096353E+03 -0.98588378627E+01  0.14813258940E+04  0.10100000352E+00 0.  1.
</event>
<event>
 5   0  0.3935852E-07  0.2978821E+04  0.7818609E-02  0.8249805E-01
        1   -1    0    0  501    0  0.00000000000E+00  0.00000000000E+00  0.19075648912E+04  0.19075648912E+04  0.50400001928E-02 0. -1.
       -1   -1    0    0    0  501  0.00000000000E+00  0.00000000000E+00 -0.11629191987E+04  0.11629191987E+04  0.50400001928E-02 0.  1.
    10030    2    1    2    0    0  0.00000000000E+00  0.00000000000E+00  0.74464569250E+03  0.30704840899E+04  0.29788211324E+04 0.  0.
        5    1    3    3  502    0 -0.69559622267E+03  0.29650445481E+03 -0.95034333459E+03  0.12144725358E+04  0.46999998093E+01 0.  1.
       -5    1    3    3    0  502  0.69559622267E+03 -0.29650445481E+03  0.16949890271E+04  0.18560115540E+04  0.46999998093E+01 0. -1.
</event>
<event>
 5   0  0.4330395E-07  0.3092684E+04  0.7818609E-02  0.8217749E-01
       -1   -1    0    0    0  501  0.00000000000E+00  0.00000000000E+00  0.18274370051E+04  0.18274370051E+04  0.50400001928E-02 0. -1.
        1   -1    0    0  501    0  0.00000000000E+00  0.00000000000E+00 -0.13084843984E+04  0.13084843984E+04  0.50400001928E-02 0.  1.
    10030    2    1    2    0    0  0.00000000000E+00  0.00000000000E+00  0.51895260675E+03  0.31359214035E+04  0.30926835015E+04 0.  0.
        1    1    3    3  502    0 -0.12081723895E+04 -0.32719601153E+03  0.11801546249E+04  0.17203205199E+04  0.50400001928E-02 0. -1.
       -1    1    3    3    0  502  0.12081723895E+04  0.32719601153E+03 -0.66120201812E+03  0.14156008835E+04  0.50400001928E-02 0.  1.
</event>
<event>
 5   0  0.1193123E-06  0.3092970E+04  0.7818609E-02  0.8217670E-01
        2   -1    0    0  501    0  0.00000000000E+00  0.00000000000E+00  0.16084179953E+04  0.16084179953E+04  0.25500000920E-02 0.  1.
       -2   -1    0    0    0  501  0.00000000000E+00  0.00000000000E+00 -0.14869371129E+04  0.14869371129E+04  0.25500000920E-02 0. -1.
    10030    2    1    2    0    0  0.00000000000E+00  0.00000000000E+00  0.12148088241E+03  0.30953551082E+04  0.30929703589E+04 0.  0.
        3    1    3    3  502    0 -0.11128495437E+04  0.67390022450E+03 -0.77599078704E+03  0.15148390447E+04  0.10100000352E+00 0. -1.
       -3    1    3    3    0  502  0.11128495437E+04 -0.67390022450E+03  0.89747166945E+03  0.15805160635E+04  0.10100000352E+00 0.  1.
</event>
<event>
 5   0  0.4134019E-07  0.3104042E+04  0.7818609E-02  0.8214630E-01
       -1   -1    0    0    0  501  0.00000000000E+00  0.00000000000E+00  0.13434311101E+04  0.13434311101E+04  0.50400001928E-02 0.  1.
        1   -1    0    0  501    0  0.00000000000E+00  0.00000000000E+00 -0.17929974450E+04  0.17929974450E+04  0.50400001928E-02 0. -1.
    10030    2    1    2    0    0  0.00000000000E+00  0.00000000000E+00 -0.44956633496E+03  0.31364285551E+04  0.31040415899E+04 0.  0.
        2    1    3    3  502    0  0.13336458163E+04  0.16054198263E+03  0.56074945116E+03  0.14556183698E+04  0.25500000920E-02 0.  1.
       -2    1    3    3    0  502 -0.13336458163E+04 -0.16054198263E+03 -0.10103157861E+04  0.16808101853E+04  0.25500000920E-02 0. -1.
</event>
<event>
 5   0  0.1237580E-06  0.2900947E+04  0.7818609E-02  0.8272596E-01
        2   -1    0    0  501    0  0.00000000000E+00  0.00000000000E+00  0.16978051308E+04  0.16978051309E+04  0.25500000920E-02 0.  1.
       -2   -1    0    0    0  501  0.00000000000E+00  0.00000000000E+00 -0.12391721366E+04  0.12391721366E+04  0.25500000920E-02 0. -1.
    10030    2    1    2    0    0  0.00000000000E+00  0.00000000000E+00  0.45863299423E+03  0.29369772675E+04  0.29009466121E+04 0.  0.
        4    1    3    3  502    0 -0.36869366342E+03  0.93900681832E+03 -0.82583841011E+03  0.13037175748E+04  0.12699999809E+01 0. -1.
       -4    1    3    3    0  502  0.36869366342E+03 -0.93900681832E+03  0.12844714043E+04  0.16332596927E+04  0.12699999809E+01 0.  1.
</event>
<event>
 5   0  0.4219337E-07  0.3096956E+04  0.7818609E-02  0.8216574E-01
        1   -1    0    0  501    0  0.00000000000E+00  0.00000000000E+00  0.15807231096E+04  0.15807231096E+04  0.50400001928E-02 0. -1.
       -1   -1    0    0    0  501  0.00000000000E+00  0.00000000000E+00 -0.15168905292E+04  0.15168905292E+04  0.50400001928E-02 0.  1.
    10030    2    1    2    0    0  0.00000000000E+00  0.00000000000E+00  0.63832580431E+02  0.30976136388E+04  0.30969558694E+04 0.  0.
        4    1    3    3  502    0  0.65172262604E+02  0.13108722243E+04 -0.78993266924E+03  0.15318709630E+04  0.12699999809E+01 0.  1.
       -4    1    3    3    0  502 -0.65172262604E+02 -0.13108722243E+04  0.85376524967E+03  0.15657426758E+04  0.12699999809E+01 0. -1.
</event>
<event>
 5   0  0.1237580E-06  0.3095940E+04  0.7818609E-02  0.8216853E-01
        2   -1    0    0  501    0  0.00000000000E+00  0.00000000000E+00  0.22171192573E+04  0.22171192573E+04  0.25500000920E-02 0.  1.
       -2   -1    0    0    0  501  0.00000000000E+00  0.00000000000E+00 -0.10807771700E+04  0.10807771700E+04  0.25500000920E-02 0. -1.
    10030    2    1    2    0    0  0.00000000000E+00  0.00000000000E+00  0.11363420873E+04  0.32978964273E+04  0.30959404882E+04 0.  0.
        4    1    3    3  502    0 -0.91483391752E+03 -0.11635663812E+04  0.10509487546E+04  0.18152968677E+04  0.12699999809E+01 0. -1.
       -4    1    3    3    0  502  0.91483391752E+03  0.11635663812E+04  0.85393332660E+02  0.14825995597E+04  0.12699999809E+01 0.  1.
</event>
<event>
 5   0  0.1258262E-06  0.3088281E+04  0.7818609E-02  0.8218962E-01
       -2   -1    0    0    0  501  0.00000000000E+00  0.00000000000E+00  0.19513431752E+04  0.19513431752E+04  0.25500000920E-02 0. -1.
        2   -1    0    0  501    0  0.00000000000E+00  0.00000000000E+00 -0.12219118478E+04  0.12219118478E+04  0.25500000920E-02 0.  1.
    10030    2    1    2    0    0  0.00000000000E+00  0.00000000000E+00  0.72943132738E+03  0.31732550229E+04  0.30882806510E+04 0.  0.
        1    1    3    3  502    0  0.14675231970E+04 -0.15645727814E+03  0.83137738347E+03  0.16938983344E+04  0.50400001928E-02 0. -1.
       -1    1    3    3    0  502 -0.14675231970E+04  0.15645727814E+03 -0.10194605609E+03  0.14793566885E+04  0.50400001928E-02 0.  1.
</event>
<event>
 5   0  0.1176002E-06  0.3162280E+04  0.7818609E-02  0.8198851E-01
        2   -1    0    0  501    0  0.00000000000E+00  0.00000000000E+00  0.16427710393E+04  0.16427710393E+04  0.25500000920E-02 0. -1.
       -2   -1    0    0    0  501  0.00000000000E+00  0.00000000000E+00 -0.15218207961E+04  0.15218207962E+04  0.25500000920E-02 0.  1.
    10030    2    1    2    0    0  0.00000000000E+00  0.00000000000E+00  0.12095024316E+03  0.31645918355E+04  0.31622796403E+04 0.  0.
        2    1    3    3  502    0  0.16024818666E+03  0.10586320070E+04  0.12247784022E+04  0.16267954211E+04  0.25500000920E-02 0. -1.
       -2    1    3    3    0  502 -0.16024818666E+03 -0.10586320070E+04 -0.11038281590E+04  0.15377964144E+04  0.25500000920E-02 0.  1.
</event>
<event>
 5   0  0.4173905E-07  0.3100426E+04  0.7818609E-02  0.8215621E-01
       -1   -1    0    0    0  501  0.00000000000E+00  0.00000000000E+00  0.19799623249E+04  0.19799623249E+04  0.50400001928E-02 0.  1.
        1   -1    0    0  501    0  0.00000000000E+00  0.00000000000E+00 -0.12137400750E+04  0.12137400750E+04  0.50400001928E-02 0. -1.
    10030    2    1    2    0    0  0.00000000000E+00  0.00000000000E+00  0.76622224986E+03  0.31937023999E+04  0.31004255325E+04 0.  0.
        3    1    3    3  502    0 -0.43844896533E+03  0.28594336039E+03  0.18861739626E+04  0.19574609390E+04  0.10100000352E+00 0.  1.
       -3    1    3    3    0  502  0.43844896533E+03 -0.28594336039E+03 -0.11199517127E+04  0.12362414609E+04  0.10100000352E+00 0. -1.
</event>
<event>
 5   0  0.4330395E-07  0.3105766E+04  0.7818609E-02  0.8214157E-01
        1   -1    0    0  501    0  0.00000000000E+00  0.00000000000E+00  0.19317947956E+04  0.19317947956E+04  0.50400001928E-02 0. -1.
       -1   -1    0    0    0  501  0.00000000000E+00  0.00000000000E+00 -0.12482930625E+04  0.12482930625E+04  0.50400001928E-02 0.  1.
    10030    2    1    2    0    0  0.00000000000E+00  0.00000000000E+00  0.68350173309E+03  0.31800878580E+04  0.31057662767E+04 0.  0.
        1    1    3    3  502    0  0.12823753123E+04 -0.53395897034E+03  0.10525143656E+04  0.17428095459E+04  0.50400001928E-02 0. -1.
       -1    1    3    3    0  502 -0.12823753123E+04  0.53395897034E+03 -0.36901263251E+03  0.14372783121E+04  0.50400001928E-02 0.  1.
</event>
<event>
 5   0  0.4134019E-07  0.3091917E+04  0.7818609E-02  0.8217960E-01
        1   -1    0    0  501    0  0.00000000000E+00  0.00000000000E+00  0.22398833563E+04  0.22398833563E+04  0.50400001928E-02 0.  1.
       -1   -1    0    0    0  501  0.00000000000E+00  0.00000000000E+00 -0.10670143068E+04  0.10670143068E+04  0.50400001928E-02 0. -1.
    10030    2    1    2    0    0  0.00000000000E+00  0.00000000000E+00  0.11728690495E+04  0.33068976632E+04  0.30919169373E+04 0.  0.
        2    1    3    3  502    0 -0.15070668832E+03 -0.14491305285E+04  0.11393885171E+04  0.18495669730E+04  0.25500000920E-02 0.  1.
       -2    1    3    3    0  502  0.15070668832E+03  0.14491305285E+04  0.33480532350E+02  0.14573306902E+04  0.25500000920E-02 0. -1.
</event>
<event>
 5   0  0.1176002E-06  0.3103579E+04  0.7818609E-02  0.8214756E-01
        2   -1    0    0  501    0  0.00000000000E+00  0.00000000000E+00  0.19320427148E+04  0.19320427148E+04  0.25500000920E-02 0. -1.
       -2   -1    0    0    0  501  0.00000000000E+00  0.00000000000E+00 -0.12463755912E+04  0.12463755912E+04  0.25500000920E-02 0.  1.
    10030    2    1    2    0    0  0.00000000000E+00  0.00000000000E+00  0.68566712361E+03  0.31784183060E+04  0.31035791473E+04 0.  0.
        2    1    3    3  502    0 -0.38530936751E+03 -0.31954703785E+03  0.18470881398E+04  0.19137158134E+04  0.25500000920E-02 0. -1.
       -2    1    3    3    0  502  0.38530936751E+03  0.31954703785E+03 -0.11614210162E+04  0.12647024927E+04  0.25500000920E-02 0.  1.
</event>
<event>
 5   0  0.1200286E-06  0.3100241E+04  0.7818609E-02  0.8215672E-01
        2   -1    0    0  501    0  0.00000000000E+00  0.00000000000E+00  0.12312708190E+04  0.12312708190E+04  0.25500000920E-02 0.  1.
       -2   -1    0    0    0  501  0.00000000000E+00  0.00000000000E+00 -0.19515390112E+04  0.19515390112E+04  0.25500000920E-02 0. -1.
    10030    2    1    2    0    0  0.00000000000E+00  0.00000000000E+00 -0.72026819216E+03  0.31828098302E+04  0.31002406595E+04 0.  0.
        5    1    3    3  502    0 -0.40905421377E+03 -0.18980693450E+03  0.11624355238E+04  0.12468482102E+04  0.46999998093E+01 0.  1.
       -5    1    3    3    0  502  0.40905421377E+03  0.18980693450E+03 -0.18827037160E+04  0.19359616201E+04  0.46999998093E+01 0. -1.
</event>
<event>
 5   0  0.4330395E-07  0.3085833E+04  0.7818609E-02  0.8219637E-01
        1   -1    0    0  501    0  0.00000000000E+00  0.00000000000E+00  0.26339973789E+04  0.26339973789E+04  0.50400001928E-02 0.  1.
       -1   -1    0    0    0  501  0.00000000000E+00  0.00000000000E+00 -0.90379413943E+03  0.90379413945E+03  0.50400001928E-02 0. -1.
    10030    2    1    2    0    0  0.00000000000E+00  0.00000000000E+00  0.17302032394E+04  0.35377915183E+04  0.30858330443E+04 0.  0.
        1    1    3    3  502    0 -0.36091192433E+03  0.11352919055E+04  0.19892465850E+04  0.23186735656E+04  0.50400001928E-02 0.  1.
       -1    1    3    3    0  502  0.36091192433E+03 -0.11352919055E+04 -0.25904334552E+03  0.12191179528E+04  0.50400001928E-02 0. -1.
</event>
<event>
 5   0  0.1258262E-06  0.3109731E+04  0.7818609E-02  0.8213072E-01
        2   -1    0    0  501    0  0.00000000000E+00  0.00000000000E+00  0.13659838762E+04  0.13659838762E+04  0.25500000920E-02 0.  1.
       -2   -1    0    0    0  501  0.00000000000E+00  0.00000000000E+00 -0.17698649869E+04  0.17698649869E+04  0.25500000920E-02 0. -1.
    10030    2    1    2    0    0  0.00000000000E+00  0.00000000000E+00 -0.40388111067E+03  0.31358488631E+04  0.31097312007E+04 0.  0.
        1    1    3    3  502    0 -0.11073616274E+04 -0.71936776904E+03 -0.10297291814E+04  0.16745393241E+04  0.50400001928E-02 0. -1.
       -1    1    3    3    0  502  0.11073616274E+04  0.71936776904E+03  0.62584807069E+03  0.14613095389E+04  0.50400001928E-02 0.  1.
</event>
<event>
 5   0  0.4330395E-07  0.3103124E+04  0.7818609E-02  0.8214881E-01
        1   -1    0    0  501    0  0.00000000000E+00  0.00000000000E+00  0.15721179340E+04  0.15721179340E+04  0.50400001928E-02 0.  1.
       -1   -1    0    0    0  501  0.00000000000E+00  0.00000000000E+00 -0.15312752273E+04  0.15312752273E+04  0.50400001928E-02 0. -1.
    10030    2    1    2    0    0  0.00000000000E+00  0.00000000000E+00  0.40842706686E+02  0.31033931613E+04  0.31031243912E+04 0.  0.
        1    1    3    3  502    0  0.15496202381E+03  0.87883221217E+03 -0.12489347971E+04  0.15349910141E+04  0.50400001928E-02 0. -1.
       -1    1    3    3    0  502 -0.15496202381E+03 -0.87883221217E+03  0.12897775038E+04  0.15684021472E+04  0.50400001928E-02 0.  1.
</event>
<event>
 5   0  0.1200286E-06  0.3135151E+04  0.7818609E-02  0.8206157E-01
        2   -1    0    0  501    0  0.00000000000E+00  0.00000000000E+00  0.14359939944E+04  0.14359939944E+04  0.25500000920E-02 0. -1.
       -2   -1    0    0    0  501  0.00000000000E+00  0.00000000000E+00 -0.17112138589E+04  0.17112138589E+04  0.25500000920E-02 0.  1.
    10030    2    1    2    0    0  0.00000000000E+00  0.00000000000E+00 -0.27521986446E+03  0.31472078533E+04  0.31351509211E+04 0.  0.
        5    1    3    3  502    0 -0.47788792704E+03  0.13782342913E+04  0.43849965932E+03  0.15232237767E+04  0.46999998093E+01 0. -1.
       -5    1    3    3    0  502  0.47788792704E+03 -0.13782342913E+04 -0.71371952378E+03  0.16239840766E+04  0.46999998093E+01 0.  1.
</event>
<event>
 5   0  0.1258262E-06  0.3102353E+04  0.7818609E-02  0.8215093E-01
       -2   -1    0    0    0  501  0.00000000000E+00  0.00000000000E+00  0.89821018921E+03  0.89821018922E+03  0.25500000920E-02 0. -1.
        2   -1    0    0  501    0  0.00000000000E+00  0.00000000000E+00 -0.26788252642E+04  0.26788252642E+04  0.25500000920E-02 0.  1.
    10030    2    1    2    0    0  0.00000000000E+00  0.00000000000E+00 -0.17806150750E+04  0.35770354534E+04  0.31023527507E+04 0.  0.
        1    1    3    3  502    0  0.14763277931E+04  0.25581964459E+03 -0.13531803209E+04  0.20189315056E+04  0.50400001928E-02 0. -1.
       -1    1    3    3    0  502 -0.14763277931E+04 -0.25581964459E+03 -0.42743475409E+03  0.15581039479E+04  0.50400001928E-02 0.  1.
</event>
<event>
 5   0  0.1200286E-06  0.3096481E+04  0.7818609E-02  0.8216704E-01
       -2   -1    0    0    0  501  0.00000000000E+00  0.00000000000E+00  0.13607347539E+04  0.13607347539E+04  0.25500000920E-02 0.  1.
        2   -1    0    0  501    0  0.00000000000E+00  0.00000000000E+00 -0.17615839799E+04  0.17615839799E+04  0.25500000920E-02 0. -1.
    10030    2    1    2    0    0  0.00000000000E+00  0.00000000000E+00 -0.40084922602E+03  0.31223187338E+04  0.30964809338E+04 0.  0.
        5    1    3    3  502    0 -0.65476139000E+02 -0.10010850057E+04  0.98863865140E+03  0.14085051602E+04  0.46999998093E+01 0.  1.
       -5    1    3    3    0  502  0.65476139000E+02  0.10010850057E+04 -0.13894878774E+04  0.17138135735E+04  0.46999998093E+01 0. -1.
</event>
<event>
 5   0  0.1200286E-06  0.3117789E+04  0.7818609E-02  0.8210873E-01
       -2   -1    0    0    0  501  0.00000000000E+00  0.00000000000E+00  0.11133256447E+04  0.11133256447E+04  0.25500000920E-02 0. -1.
        2   -1    0    0  501    0  0.00000000000E+00  0.00000000000E+00 -0.21827863933E+04  0.21827863933E+04  0.25500000920E-02 0.  1.
    10030    2    1    2    0    0  0.00000000000E+00  0.00000000000E+00 -0.10694607486E+04  0.32961120380E+04  0.31177890041E+04 0.  0.
        5    1    3    3  502    0 -0.10804940028E+04  0.67067074675E+03  0.41842574231E+03  0.13387937602E+04  0.46999998093E+01 0. -1.
       -5    1    3    3    0  502  0.10804940028E+04 -0.67067074675E+03 -0.14878864910E+04  0.19573182778E+04  0.46999998093E+01 0.  1.
</event>
<event>
 5   0  0.4134019E-07  0.3103149E+04  0.7818609E-02  0.8214874E-01
       -1   -1    0    0    0  501  0.00000000000E+00  0.00000000000E+00  0.14759620248E+04  0.14759620248E+04  0.50400001928E-02 0. -1.
        1   -1    0    0  501    0  0.00000000000E+00  0.00000000000E+00 -0.16310600328E+04  0.16310600328E+04  0.50400001928E-02 0.  1.
    10030    2    1    2    0    0  0.00000000000E+00  0.00000000000E+00 -0.15509800795E+03  0.31070220576E+04  0.31031485099E+04 0.  0.
        2    1    3    3  502    0  0.13399148545E+03 -0.95688359432E+02 -0.16222880801E+04  0.16306221497E+04  0.25500000920E-02 0.  1.
       -2    1    3    3    0  502 -0.13399148545E+03  0.95688359432E+02  0.14671900721E+04  0.14763999079E+04  0.25500000920E-02 0. -1.
</event>
<event>
 5   0  0.1193123E-06  0.3102375E+04  0.7818609E-02  0.8215087E-01
        2   -1    0    0  501    0  0.00000000000E+00  0.00000000000E+00  0.22220650766E+04  0.22220650766E+04  0.25500000920E-02 0. -1.
       -2   -1    0    0    0  501  0.00000000000E+00  0.00000000000E+00 -0.10828585268E+04  0.10828585268E+04  0.25500000920E-02 0.  1.
    10030    2    1    2    0    0  0.00000000000E+00  0.00000000000E+00  0.11392065497E+04  0.33049236034E+04  0.31023746488E+04 0.  0.
        3    1    3    3  502    0  0.98063599389E+03 -0.91015977524E+02  0.18462842625E+04  0.20925335000E+04  0.10100000352E+00 0. -1.
       -3    1    3    3    0  502 -0.98063599389E+03  0.91015977524E+02 -0.70707771276E+03  0.12123901034E+04  0.10100000352E+00 0.  1.
</event>
<event>
 5   0  0.4134019E-07  0.3174842E+04  0.7818609E-02  0.8195493E-01
        1   -1    0    0  501    0  0.00000000000E+00  0.00000000000E+00  0.19810057297E+04  0.19810057297E+04  0.50400001928E-02 0. -1.
       -1   -1    0    0    0  501  0.00000000000E+00  0.00000000000E+00 -0.12720333588E+04  0.12720333588E+04  0.50400001928E-02 0.  1.
    10030    2    1    2    0    0  0.00000000000E+00  0.00000000000E+00  0.70897237091E+03  0.32530390885E+04  0.31748419628E+04 0.  0.
        2    1    3    3  502    0 -0.39812855106E+03  0.13032854927E+04  0.11886925033E+04  0.18083277596E+04  0.25500000920E-02 0. -1.
       -2    1    3    3    0  502  0.39812855106E+03 -0.13032854927E+04 -0.47972013240E+03  0.14447113290E+04  0.25500000920E-02 0.  1.
</event>
<event>
 5   0  0.1237580E-06  0.3090075E+04  0.7818609E-02  0.8218467E-01
        2   -1    0    0  501    0  0.00000000000E+00  0.00000000000E+00  0.21331284633E+04  0.21331284633E+04  0.25500000920E-02 0. -1.
       -2   -1    0    0    0  501  0.00000000000E+00  0.00000000000E+00 -0.11190798959E+04  0.11190798959E+04  0.25500000920E-02 0.  1.
    10030    2    1    2    0    0  0.00000000000E+00  0.00000000000E+00  0.10140485674E+04  0.32522083591E+04  0.30900751956E+04 0.  0.
        4    1    3    3  502    0 -0.58651058049E+03  0.51505403289E+03  0.19103504144E+04  0.20636655826E+04  0.12699999809E+01 0. -1.
       -4    1    3    3    0  502  0.58651058049E+03 -0.51505403289E+03 -0.89630184707E+03  0.11885427766E+04  0.12699999809E+01 0.  1.
</event>
<event>
 5   0  0.4173905E-07  0.3102350E+04  0.7818609E-02  0.8215093E-01
        1   -1    0    0  501    0  0.00000000000E+00  0.00000000000E+00  0.18510998602E+04  0.18510998602E+04  0.50400001928E-02 0. -1.
       -1   -1    0    0    0  501  0.00000000000E+00  0.00000000000E+00 -0.12998452002E+04  0.12998452002E+04  0.50400001928E-02 0.  1.
    10030    2    1    2    0    0  0.00000000000E+00  0.00000000000E+00  0.55125465999E+03  0.31509450604E+04  0.31023496053E+04 0.  0.
        3    1    3    3  502    0 -0.54722935075E+03  0.28838521427E+03  0.17204134170E+04  0.18282363988E+04  0.10100000352E+00 0. -1.
       -3    1    3    3    0  502  0.54722935075E+03 -0.28838521427E+03 -0.11691587570E+04  0.13227086616E+04  0.10100000352E+00 0.  1.
</event>
<event>
 5   0  0.1193123E-06  0.3096189E+04  0.7818609E-02  0.8216785E-01
        2   -1    0    0  501    0  0.00000000000E+00  0.00000000000E+00  0.15701886073E+04  0.15701886073E+04  0.25500000920E-02 0.  1.
       -2   -1    0    0    0  501  0.00000000000E+00  0.00000000000E+00 -0.15263110523E+04  0.15263110523E+04  0.25500000920E-02 0. -1.
    10030    2    1    2    0    0  0.00000000000E+00  0.00000000000E+00  0.43877554937E+02  0.30964996596E+04  0.30961887704E+04 0.  0.
        3    1    3    3  502    0 -0.69588186681E+03  0.94251904768E+03  0.10339704660E+04  0.15625903694E+04  0.10100000352E+00 0.  1.
       -3    1    3    3    0  502  0.69588186681E+03 -0.94251904768E+03 -0.99009291109E+03  0.15339092902E+04  0.10100000352E+00 0. -1.
</event>
<event>
 5   0  0.4219337E-07  0.3111953E+04  0.7818609E-02  0.8212465E-01
        1   -1    0    0  501    0  0.00000000000E+00  0.00000000000E+00  0.19456599832E+04  0.19456599832E+04  0.50400001928E-02 0. -1.
       -1   -1    0    0    0  501  0.00000000000E+00  0.00000000000E+00 -0.12443402420E+04  0.12443402420E+04  0.50400001928E-02 0.  1.
    10030    2    1    2    0    0  0.00000000000E+00  0.00000000000E+00  0.70131974124E+03  0.31900002252E+04  0.31119530937E+04 0.  0.
        4    1    3    3  502    0  0.14707033807E+04 -0.15042481951E+03 -0.14675775139E+03  0.14856431304E+04  0.12699999809E+01 0.  1.
       -4    1    3    3    0  502 -0.14707033807E+04  0.15042481951E+03  0.84807749263E+03  0.17043570948E+04  0.12699999809E+01 0. -1.
</event>
<event>
 5   0  0.1258262E-06  0.3018417E+04  0.7818609E-02  0.8238491E-01
        2   -1    0    0  501    0  0.00000000000E+00  0.00000000000E+00  0.16910203077E+04  0.16910203077E+04  0.25500000920E-02 0.  1.
       -2   -1    0    0    0  501  0.00000000000E+00  0.00000000000E+00 -0.13469440384E+04  0.13469440384E+04  0.25500000920E-02 0. -1.
    10030    2    1    2    0    0  0.00000000000E+00  0.00000000000E+00  0.34407626932E+03  0.30379643460E+04  0.30184166195E+04 0.  0.
        1    1    3    3  502    0  0.70678827330E+02  0.98890486924E+03 -0.97321558944E+03  0.13892720830E+04  0.50400001928E-02 0. -1.
       -1    1    3    3    0  502 -0.70678827330E+02 -0.98890486924E+03  0.13172918588E+04  0.16486922630E+04  0.50400001928E-02 0.  1.
</event>
<event>
 5   0  0.3935852E-07  0.3104906E+04  0.7818609E-02  0.8214393E-01
       -1   -1    0    0    0  501  0.00000000000E+00  0.00000000000E+00  0.13471055444E+04  0.13471055444E+04  0.50400001928E-02 0.  1.
        1   -1    0    0  501    0  0.00000000000E+00  0.00000000000E+00 -0.17891023460E+04  0.17891023461E+04  0.50400001928E-02 0. -1.
    10030    2    1    2    0    0  0.00000000000E+00  0.00000000000E+00 -0.44199680161E+03  0.31362078905E+04  0.31049055960E+04 0.  0.
        5    1    3    3  502    0  0.73851782724E+02  0.59544458344E+03  0.12252462622E+04  0.13642796014E+04  0.46999998093E+01 0.  1.
       -5    1    3    3    0  502 -0.73851782724E+02 -0.59544458344E+03 -0.16672430638E+04  0.17719282891E+04  0.46999998093E+01 0. -1.
</event>
<event>
 5   0  0.4219337E-07  0.3096064E+04  0.7818609E-02  0.8216819E-01
       -1   -1    0    0    0  501  0.00000000000E+00  0.00000000000E+00  0.14229493688E+04  0.14229493689E+04  0.50400001928E-02 0.  1.
        1   -1    0    0  501    0  0.00000000000E+00  0.00000000000E+00 -0.16841095647E+04  0.16841095647E+04  0.50400001928E-02 0. -1.
    10030    2    1    2    0    0  0.00000000000E+00  0.00000000000E+00 -0.26116019587E+03  0.31070589336E+04  0.30960637217E+04 0.  0.
        4    1    3    3  502    0  0.64862266407E+03  0.36956304164E+03 -0.14915351655E+04  0.16679229494E+04  0.12699999809E+01 0. -1.
       -4    1    3    3    0  502 -0.64862266407E+03 -0.36956304164E+03  0.12303749697E+04  0.14391359842E+04  0.12699999809E+01 0.  1.
</event>
<event>
 5   0  0.1193123E-06  0.3169584E+04  0.7818609E-02  0.8196896E-01
        2   -1    0    0  501    0  0.00000000000E+00  0.00000000000E+00  0.12483675820E+04  0.12483675820E+04  0.25500000920E-02 0. -1.
       -2   -1    0    0    0  501  0.00000000000E+00  0.00000000000E+00 -0.20118798131E+04  0.20118798131E+04  0.25500000920E-02 0.  1.
    10030    2    1    2    0    0  0.00000000000E+00  0.00000000000E+00 -0.76351223118E+03  0.32602473951E+04  0.31695839080E+04 0.  0.
        3    1    3    3  502    0  0.11200353672E+04 -0.10955367724E+04 -0.13642703481E+03  0.15726704644E+04  0.10100000352E+00 0.  1.
       -3    1    3    3    0  502 -0.11200353672E+04  0.10955367724E+04 -0.62708519636E+03  0.16875769307E+04  0.10100000352E+00 0. -1.
</event>
<event>
 5   0  0.3935852E-07  0.3098196E+04  0.7818609E-02  0.8216233E-01
       -1   -1    0    0    0  501  0.00000000000E+00  0.00000000000E+00  0.84377624972E+03  0.84377624974E+03  0.50400001928E-02 0.  1.
        1   -1    0    0  501    0  0.00000000000E+00  0.00000000000E+00 -0.28440063317E+04  0.28440063317E+04  0.50400001928E-02 0. -1.
    10030    2    1    2    0    0  0.00000000000E+00  0.00000000000E+00 -0.20002300820E+04  0.36877825814E+04  0.30981962474E+04 0.  0.
        5    1    3    3  502    0  0.14701360443E+03  0.82625304618E+03  0.54973391934E+03  0.10032629607E+04  0.46999998093E+01 0.  1.
       -5    1    3    3    0  502 -0.14701360443E+03 -0.82625304618E+03 -0.25499640013E+04  0.26845196208E+04  0.46999998093E+01 0. -1.
</event>
<event>
 5   0  0.4173905E-07  0.3287656E+04  0.7818609E-02  0.8166043E-01
       -1   -1    0    0    0  501  0.00000000000E+00  0.00000000000E+00  0.14798242328E+04  0.14798242328E+04  0.50400001928E-02 0.  1.
        1   -1    0    0  501    0  0.00000000000E+00  0.00000000000E+00 -0.18260082711E+04  0.18260082711E+04  0.50400001928E-02 0. -1.
    10030    2    1    2    0    0  0.00000000000E+00  0.00000000000E+00 -0.34618403833E+03  0.33058325040E+04  0.32876564839E+04 0.  0.
        3    1    3    3  502    0 -0.14987497163E+04 -0.34674573223E+03  0.40949700340E+03  0.15919080127E+04  0.10100000352E+00 0.  1.
       -3    1    3    3    0  502  0.14987497163E+04  0.34674573223E+03 -0.75568104173E+03  0.17139244913E+04  0.10100000352E+00 0. -1.
</event>
<event>
 5   0  0.4134019E-07  0.3110010E+04  0.7818609E-02  0.8212996E-01
       -1   -1    0    0    0  501  0.00000000000E+00  0.00000000000E+00  0.16379038551E+04  0.16379038551E+04  0.50400001928E-02 0. -1.
        1   -1    0    0  501    0  0.00000000000E+00  0.00000000000E+00 -0.14763020056E+04  0.14763020056E+04  0.50400001928E-02 0.  1.
    10030    2    1    2    0    0  0.00000000000E+00  0.00000000000E+00  0.16160184950E+03  0.31142058607E+04  0.31100101262E+04 0.  0.
        2    1    3    3  502    0 -0.97907691931E+03  0.44262418434E+03  0.12063872361E+04  0.16155116669E+04  0.25500000920E-02 0. -1.
       -2    1    3    3    0  502  0.97907691931E+03 -0.44262418434E+03 -0.10447853866E+04  0.14986941938E+04  0.25500000920E-02 0.  1.
</event>
<event>
 5   0  0.1176002E-06  0.3086551E+04  0.7818609E-02  0.8219439E-01
       -2   -1    0    0    0  501  0.00000000000E+00  0.00000000000E+00  0.94001774690E+03  0.94001774691E+03  0.25500000920E-02 0. -1.
        2   -1    0    0  501    0  0.00000000000E+00  0.00000000000E+00 -0.25336746330E+04  0.25336746330E+04  0.25500000920E-02 0.  1.
    10030    2    1    2    0    0  0.00000000000E+00  0.00000000000E+00 -0.15936568861E+04  0.34736923799E+04  0.30865509034E+04 0.  0.
        2    1    3    3  502    0 -0.92204175902E+03 -0.59918188003E+03 -0.20154753532E+04  0.22959357200E+04  0.25500000920E-02 0.  1.
       -2    1    3    3    0  502  0.92204175902E+03  0.59918188003E+03  0.42181846716E+03  0.11777566599E+04  0.25500000920E-02 0. -1.
</event>
<event>
 5   0  0.4219337E-07  0.3158185E+04  0.7818609E-02  0.8199948E-01
        1   -1    0    0  501    0  0.00000000000E+00  0.00000000000E+00  0.23197832090E+04  0.23197832090E+04  0.50400001928E-02 0. -1.
       -1   -1    0    0    0  501  0.00000000000E+00  0.00000000000E+00 -0.10748992840E+04  0.10748992840E+04  0.50400001928E-02 0.  1.
    10030    2    1    2    0    0  0.00000000000E+00  0.00000000000E+00  0.12448839250E+04  0.33946824930E+04  0.31581851184E+04 0.  0.
        4    1    3    3  502    0  0.70315181857E+03 -0.10363624247E+04  0.16562669668E+04  0.20764612767E+04  0.12699999809E+01 0. -1.
       -4    1    3    3    0  502 -0.70315181857E+03  0.10363624247E+04 -0.41138304187E+03  0.13182212164E+04  0.12699999809E+01 0.  1.
</event>
<event>
 5   0  0.4134019E-07  0.3095024E+04  0.7818609E-02  0.8217105E-01
        1   -1    0    0  501    0  0.00000000000E+00  0.00000000000E+00  0.18824585281E+04  0.18824585281E+04  0.50400001928E-02 0. -1.
       -1   -1    0    0    0  501  0.00000000000E+00  0.00000000000E+00 -0.12721625914E+04  0.12721625914E+04  0.50400001928E-02 0.  1.
    10030    2    1    2    0    0  0.00000000000E+00  0.00000000000E+00  0.61029593668E+03  0.31546211195E+04  0.30950239543E+04 0.  0.
        2    1    3    3  502    0  0.10354502038E+04  0.60940046886E+03 -0.68896208899E+03  0.13849891032E+04  0.25500000920E-02 0.  1.
       -2    1    3    3    0  502 -0.10354502038E+04 -0.60940046886E+03  0.12992580257E+04  0.17696320163E+04  0.25500000920E-02 0. -1.
</event>
<event>
 5   0  0.4173905E-07  0.3083489E+04  0.7818609E-02  0.8220284E-01
        1   -1    0    0  501    0  0.00000000000E+00  0.00000000000E+00  0.16089684661E+04  0.16089684661E+04  0.50400001928E-02 0.  1.
       -1   -1    0    0    0  501  0.00000000000E+00  0.00000000000E+00 -0.14773295870E+04  0.14773295870E+04  0.50400001928E-02 0. -1.
    10030    2    1    2    0    0  0.00000000000E+00  0.00000000000E+00  0.13163887913E+03  0.30862980531E+04  0.30834893997E+04 0.  0.
        3    1    3    3  502    0  0.94327344678E+03  0.67951587162E+03  0.10793968080E+04  0.15863808164E+04  0.10100000352E+00 0.  1.
       -3    1    3    3    0  502 -0.94327344678E+03 -0.67951587162E+03 -0.94775792889E+03  0.14999172368E+04  0.10100000352E+00 0. -1.
</event>
<event>
 5   0  0.1258262E-06  0.3093935E+04  0.7818609E-02  0.8217404E-01
       -2   -1    0    0    0  501  0.00000000000E+00  0.00000000000E+00  0.11078538794E+04  0.11078538794E+04  0.25500000920E-02 0.  1.
        2   -1    0    0  501    0  0.00000000000E+00  0.00000000000E+00 -0.21601295431E+04  0.21601295431E+04  0.25500000920E-02 0. -1.
    10030    2    1    2    0    0  0.00000000000E+00  0.00000000000E+00 -0.10522756637E+04  0.32679834225E+04  0.30939346434E+04 0.  0.
        1    1    3    3  502    0  0.55399585248E+03 -0.52513998819E+03 -0.19473499976E+04  0.20916155060E+04  0.50400001928E-02 0. -1.
       -1    1    3    3    0  502 -0.55399585248E+03  0.52513998819E+03  0.89507433392E+03  0.11763679165E+04  0.50400001928E-02 0.  1.
</event>
<event>
 5   0  0.1237580E-06  0.3103342E+04  0.7818609E-02  0.8214821E-01
       -2   -1    0    0    0  501  0.00000000000E+00  0.00000000000E+00  0.13910853424E+04  0.13910853424E+04  0.25500000920E-02 0. -1.
        2   -1    0    0  501    0  0.00000000000E+00  0.00000000000E+00 -0.17307944285E+04  0.17307944285E+04  0.25500000920E-02 0.  1.
    10030    2    1    2    0    0  0.00000000000E+00  0.00000000000E+00 -0.33970908604E+03  0.31218797709E+04  0.31033419149E+04 0.  0.
        4    1    3    3  502    0  0.91976805154E+03  0.29309803145E+03  0.10522279109E+04  0.14279583026E+04  0.12699999809E+01 0. -1.
       -4    1    3    3    0  502 -0.91976805154E+03 -0.29309803145E+03 -0.13919369969E+04  0.16939214683E+04  0.12699999809E+01 0.  1.
</event>
<event>
 5   0  0.4330395E-07  0.3089550E+04  0.7818609E-02  0.8218612E-01
        1   -1    0    0  501    0  0.00000000000E+00  0.00000000000E+00  0.14056311092E+04  0.14056311092E+04  0.50400001928E-02 0. -1.
       -1   -1    0    0    0  501  0.00000000000E+00  0.00000000000E+00 -0.16976931693E+04  0.16976931693E+04  0.50400001928E-02 0.  1.
    10030    2    1    2    0    0  0.00000000000E+00  0.00000000000E+00 -0.29206206016E+03  0.31033242785E+04  0.30895503444E+04 0.  0.
        1    1    3    3  502    0  0.83682834451E+03  0.92583622082E+03  0.76845410637E+03  0.14655975231E+04  0.50400001928E-02 0. -1.
       -1    1    3    3    0  502 -0.83682834451E+03 -0.92583622082E+03 -0.10605161665E+04  0.16377267554E+04  0.50400001928E-02 0.  1.
</event>
<event>
 5   0  0.1258262E-06  0.3178833E+04  0.7818609E-02  0.8194430E-01
        2   -1    0    0  501    0  0.00000000000E+00  0.00000000000E+00  0.27279075768E+04  0.27279075768E+04  0.25500000920E-02 0. -1.
       -2   -1    0    0    0  501  0.00000000000E+00  0.00000000000E+00 -0.92607421763E+03  0.92607421763E+03  0.25500000920E-02 0.  1.
    10030    2    1    2    0    0  0.00000000000E+00  0.00000000000E+00  0.18018333592E+04  0.36539817945E+04  0.31788330406E+04 0.  0.
        1    1    3    3  502    0  0.19557930127E+03 -0.35278057402E+03 -0.86626048592E+03  0.95556926802E+03  0.50400001928E-02 0.  1.
       -1    1    3    3    0  502 -0.19557930127E+03  0.35278057402E+03  0.26680938451E+04  0.26984125265E+04  0.50400001928E-02 0. -1.
</event>
<event>
 5   0  0.1237580E-06  0.3104730E+04  0.7818609E-02  0.8214441E-01
       -2   -1    0    0    0  501  0.00000000000E+00  0.00000000000E+00  0.84492719194E+03  0.84492719194E+03  0.25500000920E-02 0. -1.
        2   -1    0    0  501    0  0.00000000000E+00  0.00000000000E+00 -0.28521234771E+04  0.28521234771E+04  0.25500000920E-02 0.  1.
    10030    2    1    2    0    0  0.00000000000E+00  0.00000000000E+00 -0.20071962852E+04  0.36970506691E+04  0.31047297342E+04 0.  0.
        4    1    3    3  502    0  0.11396357057E+04 -0.99429682250E+03 -0.58692825249E+03  0.16223076463E+04  0.12699999809E+01 0.  1.
       -4    1    3    3    0  502 -0.11396357057E+04  0.99429682250E+03 -0.14202680327E+04  0.20747430228E+04  0.12699999809E+01 0. -1.
</event>
<event>
 5   0  0.1200286E-06  0.3059192E+04  0.7818609E-02  0.8227027E-01
        2   -1    0    0  501    0  0.00000000000E+00  0.00000000000E+00  0.15838072543E+04  0.15838072543E+04  0.25500000920E-02 0.  1.
       -2   -1    0    0    0  501  0.00000000000E+00  0.00000000000E+00 -0.14772402126E+04  0.14772402126E+04  0.25500000920E-02 0. -1.
    10030    2    1    2    0    0  0.00000000000E+00  0.00000000000E+00  0.10656704170E+03  0.30610474668E+04  0.30591918965E+04 0.  0.
        5    1    3    3  502    0 -0.13898867683E+04 -0.48226057614E+03 -0.36563637977E+03  0.15159394922E+04  0.46999998093E+01 0. -1.
       -5    1    3    3    0  502  0.13898867683E+04  0.48226057614E+03  0.47220342147E+03  0.15451079746E+04  0.46999998093E+01 0.  1.
</event>
<event>
 5   0  0.1258262E-06  0.3084577E+04  0.7818609E-02  0.8219983E-01
       -2   -1    0    0    0  501  0.00000000000E+00  0.00000000000E+00  0.13786760853E+04  0.13786760853E+04  0.25500000920E-02 0. -1.
        2   -1    0    0  501    0  0.00000000000E+00  0.00000000000E+00 -0.17253177100E+04  0.17253177100E+04  0.25500000920E-02 0.  1.
    10030    2    1    2    0    0  0.00000000000E+00  0.00000000000E+00 -0.34664162470E+03  0.31039937954E+04  0.30845772912E+04 0.  0.
        1    1    3    3  502    0 -0.10499871336E+04 -0.91830772349E+03  0.48876620674E+03  0.14780576648E+04  0.50400001928E-02 0. -1.
       -1    1    3    3    0  502  0.10499871336E+04  0.91830772349E+03 -0.83540783144E+03  0.16259361305E+04  0.50400001928E-02 0.  1.
</event>
<event>
 5   0  0.1200286E-06  0.3099466E+04  0.7818609E-02  0.8215884E-01
        2   -1    0    0  501    0  0.00000000000E+00  0.00000000000E+00  0.18467405620E+04  0.18467405620E+04  0.25500000920E-02 0. -1.
       -2   -1    0    0    0  501  0.00000000000E+00  0.00000000000E+00 -0.13004929264E+04  0.13004929264E+04  0.25500000920E-02 0.  1.
    10030    2    1    2    0    0  0.00000000000E+00  0.00000000000E+00  0.54624763563E+03  0.31472334884E+04  0.30994664301E+04 0.  0.
        5    1    3    3  502    0  0.76492623977E+03  0.52372194258E+03 -0.98789043912E+03  0.13547495839E+04  0.46999998093E+01 0.  1.
       -5    1    3    3    0  502 -0.76492623977E+03 -0.52372194258E+03  0.15341380748E+04  0.17924839045E+04  0.46999998093E+01 0. -1.
</event>
<event>
 5   0  0.1258262E-06  0.3092226E+04  0.7818609E-02  0.8217875E-01
       -2   -1    0    0    0  501  0.00000000000E+00  0.00000000000E+00  0.10070281309E+04  0.10070281309E+04  0.25500000920E-02 0. -1.
        2   -1    0    0  501    0  0.00000000000E+00  0.00000000000E+00 -0.23737818701E+04  0.23737818701E+04  0.25500000920E-02 0.  1.
    10030    2    1    2    0    0  0.00000000000E+00  0.00000000000E+00 -0.13667537392E+04  0.33808100010E+04  0.30922258131E+04 0.  0.
        1    1    3    3  502    0 -0.65586022589E+03  0.28344590775E+03  0.81570422369E+03  0.10843742892E+04  0.50400001928E-02 0. -1.
       -1    1    3    3    0  502  0.65586022589E+03 -0.28344590775E+03 -0.21824579628E+04  0.22964357117E+04  0.50400001928E-02 0.  1.
</event>
<event>
 5   0  0.4219337E-07  0.3065671E+04  0.7818609E-02  0.8225223E-01
        1   -1    0    0  501    0  0.00000000000E+00  0.00000000000E+00  0.30211983725E+04  0.30211983725E+04  0.50400001928E-02 0. -1.
       -1   -1    0    0    0  501  0.00000000000E+00  0.00000000000E+00 -0.77769932992E+03  0.77769932993E+03  0.50400001928E-02 0.  1.
    10030    2    1    2    0    0  0.00000000000E+00  0.00000000000E+00  0.22434990425E+04  0.37988977024E+04  0.30656705301E+04 0.  0.
        4    1    3    3  502    0  0.12391563071E+04  0.71545218678E+02  0.22362862191E+04  0.25576561025E+04  0.12699999809E+01 0. -1.
       -4    1    3    3    0  502 -0.12391563071E+04 -0.71545218678E+02  0.72128234092E+01  0.12412415999E+04  0.12699999809E+01 0.  1.
</event>
<event>
 5   0  0.4173905E-07  0.2986520E+04  0.7818609E-02  0.8247591E-01
        1   -1    0    0  501    0  0.00000000000E+00  0.00000000000E+00  0.15938592152E+04  0.15938592152E+04  0.50400001928E-02 0. -1.
       -1   -1    0    0    0  501  0.00000000000E+00  0.00000000000E+00 -0.13990102522E+04  0.13990102522E+04  0.50400001928E-02 0.  1.
    10030    2    1    2    0    0  0.00000000000E+00  0.00000000000E+00  0.19484896302E+03  0.29928694674E+04  0.29865199699E+04 0.  0.
        3    1    3    3  502    0  0.22992755097E+03  0.13856180290E+04  0.60547508414E+03  0.15295110620E+04  0.10100000352E+00 0. -1.
       -3    1    3    3    0  502 -0.22992755097E+03 -0.13856180290E+04 -0.41062612112E+03  0.14633584054E+04  0.10100000352E+00 0.  1.
</event>
<event>
 5   0  0.1258262E-06  0.3101243E+04  0.7818609E-02  0.8215397E-01
        2   -1    0    0  501    0  0.00000000000E+00  0.00000000000E+00  0.18110846554E+04  0.18110846554E+04  0.25500000920E-02 0.  1.
       -2   -1    0    0    0  501  0.00000000000E+00  0.00000000000E+00 -0.13276175381E+04  0.13276175381E+04  0.25500000920E-02 0. -1.
    10030    2    1    2    0    0  0.00000000000E+00  0.00000000000E+00  0.48346711734E+03  0.31387021935E+04  0.31012434612E+04 0.  0.
        1    1    3    3  502    0 -0.12803035500E+04  0.14792647901E+03  0.11143357034E+04  0.17037615688E+04  0.50400001928E-02 0. -1.
       -1    1    3    3    0  502  0.12803035500E+04 -0.14792647901E+03 -0.63086858608E+03  0.14349406247E+04  0.50400001928E-02 0.  1.
</event>
<event>
 5   0  0.4134019E-07  0.3107561E+04  0.7818609E-02  0.8213666E-01
        1   -1    0    0  501    0  0.00000000000E+00  0.00000000000E+00  0.17269543964E+04  0.17269543964E+04  0.50400001928E-02 0. -1.
       -1   -1    0    0    0  501  0.00000000000E+00  0.00000000000E+00 -0.13979715878E+04  0.13979715878E+04  0.50400001928E-02 0.  1.
    10030    2    1    2    0    0  0.00000000000E+00  0.00000000000E+00  0.32898280852E+03  0.31249259842E+04  0.31075605736E+04 0.  0.
        2    1    3    3  502    0 -0.11278814527E+04  0.68718762897E+03 -0.65855023124E+03  0.14758156442E+04  0.25500000920E-02 0.  1.
       -2    1    3    3    0  502  0.11278814527E+04 -0.68718762897E+03  0.98753303976E+03  0.16491103400E+04  0.25500000920E-02 0. -1.
</event>
<event>
 5   0  0.1176002E-06  0.3101806E+04  0.7818609E-02  0.8215242E-01
        2   -1    0    0  501    0  0.00000000000E+00  0.00000000000E+00  0.20811738018E+04  0.20811738018E+04  0.25500000920E-02 0.  1.
       -2   -1    0    0    0  501  0.00000000000E+00  0.00000000000E+00 -0.11557422546E+04  0.11557422546E+04  0.25500000920E-02 0. -1.
    10030    2    1    2    0    0  0.00000000000E+00  0.00000000000E+00  0.92543154720E+03  0.32369160564E+04  0.31018062492E+04 0.  0.
        2    1    3    3  502    0  0.60819747787E+03  0.34925462558E+02  0.19510864024E+04  0.20439819250E+04  0.25500000920E-02 0.  1.
       -2    1    3    3    0  502 -0.60819747787E+03 -0.34925462558E+02 -0.10256548552E+04  0.11929341315E+04  0.25500000920E-02 0. -1.
</event>
<event>
 5   0  0.4219337E-07  0.3102365E+04  0.7818609E-02  0.8215089E-01
        1   -1    0    0  501    0  0.00000000000E+00  0.00000000000E+00  0.18531802931E+04  0.18531802931E+04  0.50400001928E-02 0. -1.
       -1   -1    0    0    0  501  0.00000000000E+00  0.00000000000E+00 -0.12983985312E+04  0.12983985312E+04  0.50400001928E-02 0.  1.
    10030    2    1    2    0    0  0.00000000000E+00  0.00000000000E+00  0.55478176184E+03  0.31515788243E+04  0.31023646276E+04 0.  0.
        4    1    3    3  502    0 -0.55036728193E+03  0.45077767306E+03 -0.11229024676E+04  0.13292916235E+04  0.12699999809E+01 0.  1.
       -4    1    3    3    0  502  0.55036728193E+03 -0.45077767306E+03  0.16776842295E+04  0.18222872008E+04  0.12699999809E+01 0. -1.
</event>
<event>
 5   0  0.1200286E-06  0.3056590E+04  0.7818609E-02  0.8227753E-01
        2   -1    0    0  501    0  0.00000000000E+00  0.00000000000E+00  0.12964229523E+04  0.12964229523E+04  0.25500000920E-02 0. -1.
       -2   -1    0    0    0  501  0.00000000000E+00  0.00000000000E+00 -0.18016389162E+04  0.18016389162E+04  0.25500000920E-02 0.  1.
    10030    2    1    2    0    0  0.00000000000E+00  0.00000000000E+00 -0.50521596381E+03  0.30980618685E+04  0.30565902851E+04 0.  0.
        5    1    3    3  502    0  0.78064559918E+03 -0.55649184520E+03 -0.14589553270E+04  0.17457558424E+04  0.46999998093E+01 0.  1.
       -5    1    3    3    0  502 -0.78064559918E+03  0.55649184520E+03  0.95373936315E+03  0.13523060261E+04  0.46999998093E+01 0. -1.
</event>
<event>
 5   0  0.4330395E-07  0.3027936E+04  0.7818609E-02  0.8235798E-01
        1   -1    0    0  501    0  0.00000000000E+00  0.00000000000E+00  0.20325776324E+04  0.20325776324E+04  0.50400001928E-02 0. -1.
       -1   -1    0    0    0  501  0.00000000000E+00  0.00000000000E+00 -0.11276806886E+04  0.11276806886E+04  0.50400001928E-02 0.  1.
    10030    2    1    2    0    0  0.00000000000E+00  0.00000000000E+00  0.90489694379E+03  0.31602583209E+04  0.30279356295E+04 0.  0.
        1    1    3    3  502    0  0.10479439263E+03 -0.79275110524E+02 -0.11217178712E+04  0.11293880601E+04  0.50400001928E-02 0.  1.
       -1    1    3    3    0  502 -0.10479439263E+03  0.79275110524E+02  0.20266148150E+04  0.20308702608E+04  0.50400001928E-02 0. -1.
</event>
<event>
 5   0  0.1258262E-06  0.3123074E+04  0.7818609E-02  0.8209434E-01
        2   -1    0    0  501    0  0.00000000000E+00  0.00000000000E+00  0.15227759723E+04  0.15227759723E+04  0.25500000920E-02 0.  1.
       -2   -1    0    0    0  501  0.00000000000E+00  0.00000000000E+00 -0.16012842268E+04  0.16012842268E+04  0.25500000920E-02 0. -1.
    10030    2    1    2    0    0  0.00000000000E+00  0.00000000000E+00 -0.78508254503E+02  0.31240601991E+04  0.31230735793E+04 0.  0.
        1    1    3    3  502    0 -0.69025604611E+03 -0.13692210321E+04 -0.33460576725E+03  0.15694523451E+04  0.50400001928E-02 0.  1.
       -1    1    3    3    0  502  0.69025604611E+03  0.13692210321E+04  0.25609751275E+03  0.15546078541E+04  0.50400001928E-02 0. -1.
</event>
<event>
 5   0  0.4134019E-07  0.3203783E+04  0.7818609E-02  0.8187819E-01
        1   -1    0    0  501    0  0.00000000000E+00  0.00000000000E+00  0.13496481372E+04  0.13496481372E+04  0.50400001928E-02 0.  1.
       -1   -1    0    0    0  501  0.00000000000E+00  0.00000000000E+00 -0.19012782523E+04  0.19012782523E+04  0.50400001928E-02 0. -1.
    10030    2    1    2    0    0  0.00000000000E+00  0.00000000000E+00 -0.55163011507E+03  0.32509263895E+04  0.32037831708E+04 0.  0.
        2    1    3    3  502    0  0.65329589631E+03 -0.14623014034E+04 -0.24477524659E+03  0.16201962362E+04  0.25500000920E-02 0. -1.
       -2    1    3    3    0  502 -0.65329589631E+03  0.14623014034E+04 -0.30685486848E+03  0.16307301533E+04  0.25500000920E-02 0.  1.
</event>
<event>
 5   0  0.4134019E-07  0.3177556E+04  0.7818609E-02  0.8194770E-01
       -1   -1    0    0    0  501  0.00000000000E+00  0.00000000000E+00  0.17873187348E+04  0.17873187348E+04  0.50400001928E-02 0.  1.
        1   -1    0    0  501    0  0.00000000000E+00  0.00000000000E+00 -0.14122919439E+04  0.14122919439E+04  0.50400001928E-02 0. -1.
    10030    2    1    2    0    0  0.00000000000E+00  0.00000000000E+00  0.37502679093E+03  0.31996106787E+04  0.31775561996E+04 0.  0.
        2    1    3    3  502    0  0.55996841610E+03 -0.98871346896E+03  0.13056696569E+04  0.17308645827E+04  0.25500000920E-02 0.  1.
       -2    1    3    3    0  502 -0.55996841610E+03  0.98871346896E+03 -0.93064286593E+03  0.14687460960E+04  0.25500000920E-02 0. -1.
</event>
<event>
 5   0  0.3935852E-07  0.3089069E+04  0.7818609E-02  0.8218744E-01
       -1   -1    0    0    0  501  0.00000000000E+00  0.00000000000E+00  0.11212171257E+04  0.11212171257E+04  0.50400001928E-02 0. -1.
        1   -1    0    0  501    0  0.00000000000E+00  0.00000000000E+00 -0.21276756062E+04  0.21276756062E+04  0.50400001928E-02 0.  1.
    10030    2    1    2    0    0  0.00000000000E+00  0.00000000000E+00 -0.10064584806E+04  0.32488927319E+04  0.30890686801E+04 0.  0.
        5    1    3    3  502    0  0.15375297560E+04  0.36234614022E+01 -0.34882284824E+03  0.15766135701E+04  0.46999998093E+01 0.  1.
       -5    1    3    3    0  502 -0.15375297560E+04 -0.36234614022E+01 -0.65763563234E+03  0.16722791618E+04  0.46999998093E+01 0. -1.
</event>
<event>
 5   0  0.3935852E-07  0.3219124E+04  0.7818609E-02  0.8183785E-01
        1   -1    0    0  501    0  0.00000000000E+00  0.00000000000E+00  0.19230821343E+04  0.19230821343E+04  0.50400001928E-02 0.  1.
       -1   -1    0    0    0  501  0.00000000000E+00  0.00000000000E+00 -0.13471551321E+04  0.13471551321E+04  0.50400001928E-02 0. -1.
    10030    2    1    2    0    0  0.00000000000E+00  0.00000000000E+00  0.57592700221E+03  0.32702372664E+04  0.32191240838E+04 0.  0.
        5    1    3    3  502    0 -0.64775881720E+03 -0.90447205099E+03 -0.89369373747E+03  0.14270149833E+04  0.46999998093E+01 0. -1.
       -5    1    3    3    0  502  0.64775881720E+03  0.90447205099E+03  0.14696207397E+04  0.18432222831E+04  0.46999998093E+01 0.  1.
</event>
<event>
 5   0  0.4219337E-07  0.3090172E+04  0.7818609E-02  0.8218440E-01
       -1   -1    0    0    0  501  0.00000000000E+00  0.00000000000E+00  0.11289358533E+04  0.11289358533E+04  0.50400001928E-02 0.  1.
        1   -1    0    0  501    0  0.00000000000E+00  0.00000000000E+00 -0.21146376797E+04  0.21146376797E+04  0.50400001928E-02 0. -1.
    10030    2    1    2    0    0  0.00000000000E+00  0.00000000000E+00 -0.98570182636E+03  0.32435735331E+04  0.30901717062E+04 0.  0.
        4    1    3    3  502    0  0.45128084894E+03  0.68609384927E+03  0.88090111299E+03  0.12043120685E+04  0.12699999809E+01 0.  1.
       -4    1    3    3    0  502 -0.45128084894E+03 -0.68609384927E+03 -0.18666029394E+04  0.20392614645E+04  0.12699999809E+01 0. -1.
</event>
<event>
 5   0  0.1237580E-06  0.3109873E+04  0.7818609E-02  0.8213034E-01
        2   -1    0    0  501    0  0.00000000000E+00  0.00000000000E+00  0.14653058138E+04  0.14653058138E+04  0.25500000920E-02 0. -1.
       -2   -1    0    0    0  501  0.00000000000E+00  0.00000000000E+00 -0.16500500447E+04  0.16500500447E+04  0.25500000920E-02 0.  1.
    10030    2    1    2    0    0  0.00000000000E+00  0.00000000000E+00 -0.18474423085E+03  0.31153558585E+04  0.31098732601E+04 0.  0.
        4    1    3    3  502    0 -0.14819841099E+04  0.34234218375E+03 -0.41597603618E+03  0.15768680186E+04  0.12699999809E+01 0.  1.
       -4    1    3    3    0  502  0.14819841099E+04 -0.34234218375E+03  0.23123180534E+03  0.15384878398E+04  0.12699999809E+01 0. -1.
</event>
<event>
 5   0  0.1258262E-06  0.3110291E+04  0.7818609E-02  0.8212919E-01
       -2   -1    0    0    0  501  0.00000000000E+00  0.00000000000E+00  0.13559082332E+04  0.13559082332E+04  0.25500000920E-02 0. -1.
        2   -1    0    0  501    0  0.00000000000E+00  0.00000000000E+00 -0.17836590712E+04  0.17836590712E+04  0.25500000920E-02 0.  1.
    10030    2    1    2    0    0  0.00000000000E+00  0.00000000000E+00 -0.42775083805E+03  0.31395673044E+04  0.31102913174E+04 0.  0.
        1    1    3    3  502    0 -0.35577132230E+03 -0.48137924279E+02  0.13135054790E+04  0.13616854030E+04  0.50400001928E-02 0. -1.
       -1    1    3    3    0  502  0.35577132230E+03  0.48137924279E+02 -0.17412563170E+04  0.17778819013E+04  0.50400001928E-02 0.  1.
</event>
<event>
 5   0  0.1200286E-06  0.3103942E+04  0.7818609E-02  0.8214657E-01
       -2   -1    0    0    0  501  0.00000000000E+00  0.00000000000E+00  0.14664477736E+04  0.14664477736E+04  0.25500000920E-02 0. -1.
        2   -1    0    0  501    0  0.00000000000E+00  0.00000000000E+00 -0.16424822045E+04  0.16424822045E+04  0.25500000920E-02 0.  1.
    10030    2    1    2    0    0  0.00000000000E+00  0.00000000000E+00 -0.17603443090E+03  0.31089299781E+04  0.31039422494E+04 0.  0.
        5    1    3    3  502    0  0.10813848175E+04  0.96999576221E+03  0.45903566218E+03  0.15234896558E+04  0.46999998093E+01 0. -1.
       -5    1    3    3    0  502 -0.10813848175E+04 -0.96999576221E+03 -0.63507009309E+03  0.15854403222E+04  0.46999998093E+01 0.  1.
</event>
<event>
 5   0  0.1176002E-06  0.3105041E+04  0.7818609E-02  0.8214356E-01
       -2   -1    0    0    0  501  0.00000000000E+00  0.00000000000E+00  0.79500990846E+03  0.79500990846E+03  0.25500000920E-02 0. -1.
        2   -1    0    0  501    0  0.00000000000E+00  0.00000000000E+00 -0.30318102662E+04  0.30318102662E+04  0.25500000920E-02 0.  1.
    10030    2    1    2    0    0  0.00000000000E+00  0.00000000000E+00 -0.22368003578E+04  0.38268201747E+04  0.31050405487E+04 0.  0.
        2    1    3    3  502    0 -0.13052909403E+04 -0.47958793864E+03 -0.19691776497E+04  0.24106948471E+04  0.25500000920E-02 0.  1.
       -2    1    3    3    0  502  0.13052909403E+04  0.47958793864E+03 -0.26762270808E+03  0.14161253276E+04  0.25500000920E-02 0. -1.
</event>
<event>
 5   0  0.4134019E-07  0.3102614E+04  0.7818609E-02  0.8215021E-01
       -1   -1    0    0    0  501  0.00000000000E+00  0.00000000000E+00  0.14356857914E+04  0.14356857914E+04  0.50400001928E-02 0.  1.
        1   -1    0    0  501    0  0.00000000000E+00  0.00000000000E+00 -0.16762393204E+04  0.16762393204E+04  0.50400001928E-02 0. -1.
    10030    2    1    2    0    0  0.00000000000E+00  0.00000000000E+00 -0.24055352900E+03  0.31119251118E+04  0.31026137209E+04 0.  0.
        2    1    3    3  502    0 -0.75206921932E+03  0.12540559570E+04 -0.63979700739E+03  0.15961217575E+04  0.25500000920E-02 0. -1.
       -2    1    3    3    0  502  0.75206921932E+03 -0.12540559570E+04  0.39924347838E+03  0.15158033543E+04  0.25500000920E-02 0.  1.
</event>
<event>
 5   0  0.4330395E-07  0.3092204E+04  0.7818609E-02  0.8217881E-01
        1   -1    0    0  501    0  0.00000000000E+00  0.00000000000E+00  0.12940584524E+04  0.12940584525E+04  0.50400001928E-02 0.  1.
       -1   -1    0    0    0  501  0.00000000000E+00  0.00000000000E+00 -0.18472356289E+04  0.18472356289E+04  0.50400001928E-02 0. -1.
    10030    2    1    2    0    0  0.00000000000E+00  0.00000000000E+00 -0.55317717646E+03  0.31412940814E+04  0.30922036668E+04 0.  0.
        1    1    3    3  502    0 -0.68865447080E+03 -0.90051983103E+03 -0.13445873615E+04  0.17587200229E+04  0.50400001928E-02 0. -1.
       -1    1    3    3    0  502  0.68865447080E+03  0.90051983103E+03  0.79141018502E+03  0.13825740585E+04  0.50400001928E-02 0.  1.
</event>
<event>
 5   0  0.1200286E-06  0.3096263E+04  0.7818609E-02  0.8216764E-01
        2   -1    0    0  501    0  0.00000000000E+00  0.00000000000E+00  0.16058863800E+04  0.16058863800E+04  0.25500000920E-02 0. -1.
       -2   -1    0    0    0  501  0.00000000000E+00  0.00000000000E+00 -0.14924536501E+04  0.14924536501E+04  0.25500000920E-02 0.  1.
    10030    2    1    2    0    0  0.00000000000E+00  0.00000000000E+00  0.11343272989E+03  0.30983400300E+04  0.30962629019E+04 0.  0.
        5    1    3    3  502    0  0.57902944059E+03 -0.14356810639E+04  0.41419220351E+02  0.15486099742E+04  0.46999998093E+01 0.  1.
       -5    1    3    3    0  502 -0.57902944059E+03  0.14356810639E+04  0.72013509540E+02  0.15497300558E+04  0.46999998093E+01 0. -1.
</event>
<event>
 5   0  0.1258262E-06  0.3090753E+04  0.7818609E-02  0.8218280E-01
       -2   -1    0    0    0  501  0.00000000000E+00  0.00000000000E+00  0.85060541915E+03  0.85060541916E+03  0.25500000920E-02 0. -1.
        2   -1    0    0  501    0  0.00000000000E+00  0.00000000000E+00 -0.28076329787E+04  0.28076329787E+04  0.25500000920E-02 0.  1.
    10030    2    1    2    0    0  0.00000000000E+00  0.00000000000E+00 -0.19570275595E+04  0.36582383978E+04  0.30907525470E+04 0.  0.
        1    1    3    3  502    0  0.76358006160E+01  0.60551169741E+03 -0.26613546114E+04  0.27293792497E+04  0.50400001928E-02 0.  1.
       -1    1    3    3    0  502 -0.76358006160E+01 -0.60551169741E+03  0.70432705183E+03  0.92885914816E+03  0.50400001928E-02 0. -1.
</event>
<event>
 5   0  0.3935852E-07  0.3242087E+04  0.7818609E-02  0.8177790E-01
       -1   -1    0    0    0  501  0.00000000000E+00  0.00000000000E+00  0.13271729337E+04  0.13271729337E+04  0.50400001928E-02 0.  1.
        1   -1    0    0  501    0  0.00000000000E+00  0.00000000000E+00 -0.19799848640E+04  0.19799848640E+04  0.50400001928E-02 0. -1.
    10030    2    1    2    0    0  0.00000000000E+00  0.00000000000E+00 -0.65281193031E+03  0.33071577977E+04  0.32420871800E+04 0.  0.
        5    1    3    3  502    0  0.13455538603E+04  0.76552824705E+03  0.16408948619E+03  0.15567582142E+04  0.46999998093E+01 0.  1.
       -5    1    3    3    0  502 -0.13455538603E+04 -0.76552824705E+03 -0.81690141650E+03  0.17503995836E+04  0.46999998093E+01 0. -1.
</event>
<event>
 5   0  0.4173905E-07  0.3254903E+04  0.7818609E-02  0.8174466E-01
       -1   -1    0    0    0  501  0.00000000000E+00  0.00000000000E+00  0.14753474430E+04  0.14753474430E+04  0.50400001928E-02 0.  1.
        1   -1    0    0  501    0  0.00000000000E+00  0.00000000000E+00 -0.17952374844E+04  0.17952374844E+04  0.50400001928E-02 0. -1.
    10030    2    1    2    0    0  0.00000000000E+00  0.00000000000E+00 -0.31989004138E+03  0.32705849274E+04  0.32549033978E+04 0.  0.
        3    1    3    3  502    0  0.45526476517E+03 -0.91826516003E+03 -0.14302040992E+04  0.17595342242E+04  0.10100000352E+00 0. -1.
       -3    1    3    3    0  502 -0.45526476517E+03  0.91826516003E+03  0.11103140578E+04  0.15110507032E+04  0.10100000352E+00 0.  1.
</event>
<event>
 5   0  0.1200286E-06  0.3104337E+04  0.7818609E-02  0.8214549E-01
        2   -1    0    0  501    0  0.00000000000E+00  0.00000000000E+00  0.14483375139E+04  0.14483375139E+04  0.25500000920E-02 0.  1.
       -2   -1    0    0    0  501  0.00000000000E+00  0.00000000000E+00 -0.16634433319E+04  0.16634433319E+04  0.25500000920E-02 0. -1.
    10030    2    1    2    0    0  0.00000000000E+00  0.00000000000E+00 -0.21510581802E+03  0.31117808457E+04  0.31043372109E+04 0.  0.
        5    1    3    3  502    0  0.11126149773E+04 -0.10401473852E+04 -0.40724574956E+03  0.15766070725E+04  0.46999998093E+01 0. -1.
       -5    1    3    3    0  502 -0.11126149773E+04  0.10401473852E+04  0.19213993155E+03  0.15351737732E+04  0.46999998093E+01 0.  1.
</event>
<event>
 5   0  0.4173905E-07  0.3103060E+04  0.7818609E-02  0.8214899E-01
        1   -1    0    0  501    0  0.00000000000E+00  0.00000000000E+00  0.21809057264E+04  0.21809057264E+04  0.50400001928E-02 0.  1.
       -1   -1    0    0    0  501  0.00000000000E+00  0.00000000000E+00 -0.11037827158E+04  0.11037827158E+04  0.50400001928E-02 0. -1.
    10030    2    1    2    0    0  0.00000000000E+00  0.00000000000E+00  0.10771230106E+04  0.32846884421E+04  0.31030604541E+04 0.  0.
        3    1    3    3  502    0 -0.13450474874E+04 -0.76375175282E+03  0.66723541536E+03  0.16845392821E+04  0.10100000352E+00 0.  1.
       -3    1    3    3    0  502  0.13450474874E+04  0.76375175282E+03  0.40988759525E+03  0.16001491600E+04  0.10100000352E+00 0. -1.
</event>
<event>
 5   0  0.1200286E-06  0.3091794E+04  0.7818609E-02  0.8217994E-01
        2   -1    0    0  501    0  0.00000000000E+00  0.00000000000E+00  0.17093218931E+04  0.17093218931E+04  0.25500000920E-02 0.  1.
       -2   -1    0    0    0  501  0.00000000000E+00  0.00000000000E+00 -0.13980970174E+04  0.13980970174E+04  0.25500000920E-02 0. -1.
    10030    2    1    2    0    0  0.00000000000E+00  0.00000000000E+00  0.31122487564E+03  0.31074189105E+04  0.30917941979E+04 0.  0.
        5    1    3    3  502    0 -0.73836104341E+03  0.11302653177E+04 -0.60125300994E+03  0.14779052713E+04  0.46999998093E+01 0.  1.
       -5    1    3    3    0  502  0.73836104341E+03 -0.11302653177E+04  0.91247788558E+03  0.16295136393E+04  0.46999998093E+01 0. -1.
</event>
<event>
 5   0  0.4134019E-07  0.3031273E+04  0.7818609E-02  0.8234857E-01
        1   -1    0    0  501    0  0.00000000000E+00  0.00000000000E+00  0.17512769602E+04  0.17512769602E+04  0.50400001928E-02 0. -1.
       -1   -1    0    0    0  501  0.00000000000E+00  0.00000000000E+00 -0.13117025997E+04  0.13117025997E+04  0.50400001928E-02 0.  1.
    10030    2    1    2    0    0  0.00000000000E+00  0.00000000000E+00  0.43957436049E+03  0.30629795599E+04  0.30312733572E+04 0.  0.
        2    1    3    3  502    0  0.87153962056E+03  0.11169681576E+04 -0.32432014343E+03  0.14534038430E+04  0.25500000920E-02 0.  1.
       -2    1    3    3    0  502 -0.87153962056E+03 -0.11169681576E+04  0.76389450392E+03  0.16095757169E+04  0.25500000920E-02 0. -1.
</event>
<event>
 5   0  0.1258262E-06  0.3102444E+04  0.7818609E-02  0.8215068E-01
        2   -1    0    0  501    0  0.00000000000E+00  0.00000000000E+00  0.12239129098E+04  0.12239129098E+04  0.25500000920E-02 0. -1.
       -2   -1    0    0    0  501  0.00000000000E+00  0.00000000000E+00 -0.19660622691E+04  0.19660622691E+04  0.25500000920E-02 0.  1.
    10030    2    1    2    0    0  0.00000000000E+00  0.00000000000E+00 -0.74214935930E+03  0.31899751789E+04  0.31024435483E+04 0.  0.
        1    1    3    3  502    0  0.50323970787E+03  0.98266225173E+03  0.74935457923E+03  0.13343191485E+04  0.50400001928E-02 0. -1.
       -1    1    3    3    0  502 -0.50323970787E+03 -0.98266225173E+03 -0.14915039385E+04  0.18556560304E+04  0.50400001928E-02 0.  1.
</event>
<event>
 5   0  0.4134019E-07  0.3083024E+04  0.7818609E-02  0.8220412E-01
       -1   -1    0    0    0  501  0.00000000000E+00  0.00000000000E+00  0.15307793175E+04  0.15307793175E+04  0.50400001928E-02 0. -1.
        1   -1    0    0  501    0  0.00000000000E+00  0.00000000000E+00 -0.15523202945E+04  0.15523202945E+04  0.50400001928E-02 0.  1.
    10030    2    1    2    0    0  0.00000000000E+00  0.00000000000E+00 -0.21540976982E+02  0.30830996120E+04  0.30830243599E+04 0.  0.
        2    1    3    3  502    0  0.84418217004E+03  0.35686464331E+03  0.12287208942E+04  0.15328897370E+04  0.25500000920E-02 0. -1.
       -2    1    3    3    0  502 -0.84418217004E+03 -0.35686464331E+03 -0.12502618712E+04  0.15502098750E+04  0.25500000920E-02 0.  1.
</event>
<event>
 5   0  0.1237580E-06  0.3088698E+04  0.7818609E-02  0.8218847E-01
       -2   -1    0    0    0  501  0.00000000000E+00  0.00000000000E+00  0.11759364761E+04  0.11759364761E+04  0.25500000920E-02 0. -1.
        2   -1    0    0  501    0  0.00000000000E+00  0.00000000000E+00 -0.20281822530E+04  0.20281822530E+04  0.25500000920E-02 0.  1.
    10030    2    1    2    0    0  0.00000000000E+00  0.00000000000E+00 -0.85224577686E+03  0.32041187291E+04  0.30886977783E+04 0.  0.
        4    1    3    3  502    0 -0.78726413076E+03  0.93170232792E+03 -0.14087021938E+04  0.18634101865E+04  0.12699999809E+01 0.  1.
       -4    1    3    3    0  502  0.78726413076E+03 -0.93170232792E+03  0.55645641691E+03  0.13407085426E+04  0.12699999809E+01 0. -1.
</event>
<event>
 5   0  0.4219337E-07  0.3039458E+04  0.7818609E-02  0.8232552E-01
        1   -1    0    0  501    0  0.00000000000E+00  0.00000000000E+00  0.18008202995E+04  0.18008202995E+04  0.50400001928E-02 0.  1.
       -1   -1    0    0    0  501  0.00000000000E+00  0.00000000000E+00 -0.12825130915E+04  0.12825130915E+04  0.50400001928E-02 0. -1.
    10030    2    1    2    0    0  0.00000000000E+00  0.00000000000E+00  0.51830720797E+03  0.30833333910E+04  0.30394575895E+04 0.  0.
        4    1    3    3  502    0  0.12374563621E+03 -0.14524156683E+04 -0.17687634182E+03  0.14683702221E+04  0.12699999809E+01 0. -1.
       -4    1    3    3    0  502 -0.12374563621E+03  0.14524156683E+04  0.69518354979E+03  0.16149631689E+04  0.12699999809E+01 0.  1.
</event>
<event>
 5   0  0.4134019E-07  0.3088769E+04  0.7818609E-02  0.8218827E-01
       -1   -1    0    0    0  501  0.00000000000E+00  0.00000000000E+00  0.15108524557E+04  0.15108524557E+04  0.50400001928E-02 0.  1.
        1   -1    0    0  501    0  0.00000000000E+00  0.00000000000E+00 -0.15786611602E+04  0.15786611602E+04  0.50400001928E-02 0. -1.
    10030    2    1    2    0    0  0.00000000000E+00  0.00000000000E+00 -0.67808704464E+02  0.30895136159E+04  0.30887693929E+04 0.  0.
        2    1    3    3  502    0  0.14943772104E+04 -0.88698692761E+02 -0.41359215952E+03  0.15530902033E+04  0.25500000920E-02 0. -1.
       -2    1    3    3    0  502 -0.14943772104E+04  0.88698692761E+02  0.34578345506E+03  0.15364234126E+04  0.25500000920E-02 0.  1.
</event>
<event>
 5   0  0.3935852E-07  0.3098012E+04  0.7818609E-02  0.8216284E-01
        1   -1    0    0  501    0  0.00000000000E+00  0.00000000000E+00  0.10611097941E+04  0.10611097941E+04  0.50400001928E-02 0. -1.
       -1   -1    0    0    0  501  0.00000000000E+00  0.00000000000E+00 -0.22612363965E+04  0.22612363965E+04  0.50400001928E-02 0.  1.
    10030    2    1    2    0    0  0.00000000000E+00  0.00000000000E+00 -0.12001266024E+04  0.33223461907E+04  0.30980123223E+04 0.  0.
        5    1    3    3  502    0 -0.60261925992E+03  0.84279894256E+03 -0.18349392913E+04  0.21072456722E+04  0.46999998093E+01 0.  1.
       -5    1    3    3    0  502  0.60261925992E+03 -0.84279894256E+03  0.63481268893E+03  0.12151005185E+04  0.46999998093E+01 0. -1.
</event>
<event>
 5   0  0.4134019E-07  0.3083954E+04  0.7818609E-02  0.8220155E-01
        1   -1    0    0  501    0  0.00000000000E+00  0.00000000000E+00  0.22143130543E+04  0.22143130543E+04  0.50400001928E-02 0.  1.
       -1   -1    0    0    0  501  0.00000000000E+00  0.00000000000E+00 -0.10737834510E+04  0.10737834510E+04  0.50400001928E-02 0. -1.
    10030    2    1    2    0    0  0.00000000000E+00  0.00000000000E+00  0.11405296033E+04  0.32880965053E+04  0.30839537695E+04 0.  0.
        2    1    3    3  502    0  0.89239413365E+03  0.10728211438E+04 -0.12919513851E+03  0.14014292277E+04  0.25500000920E-02 0. -1.
       -2    1    3    3    0  502 -0.89239413365E+03 -0.10728211438E+04  0.12697247418E+04  0.18866672776E+04  0.25500000920E-02 0.  1.
</event>
<event>
 5   0  0.4173905E-07  0.3109094E+04  0.7818609E-02  0.8213247E-01
        1   -1    0    0  501    0  0.00000000000E+00  0.00000000000E+00  0.19144936502E+04  0.19144936502E+04  0.50400001928E-02 0.  1.
       -1   -1    0    0    0  501  0.00000000000E+00  0.00000000000E+00 -0.12622746153E+04  0.12622746153E+04  0.50400001928E-02 0. -1.
    10030    2    1    2    0    0  0.00000000000E+00  0.00000000000E+00  0.65221903491E+03  0.31767682655E+04  0.31090942320E+04 0.  0.
        3    1    3    3  502    0  0.12883972654E+03  0.14505245687E+04 -0.22978734662E+03  0.14742535176E+04  0.10100000352E+00 0. -1.
       -3    1    3    3    0  502 -0.12883972654E+03 -0.14505245687E+04  0.88200638154E+03  0.17025147479E+04  0.10100000352E+00 0.  1.
</event>
<event>
 5   0  0.3935852E-07  0.3100192E+04  0.7818609E-02  0.8215685E-01
       -1   -1    0    0    0  501  0.00000000000E+00  0.00000000000E+00  0.18803145104E+04  0.18803145104E+04  0.50400001928E-02 0.  1.
        1   -1    0    0  501    0  0.00000000000E+00  0.00000000000E+00 -0.12778699184E+04  0.12778699184E+04  0.50400001928E-02 0. -1.
    10030    2    1    2    0    0  0.00000000000E+00  0.00000000000E+00  0.60244459192E+03  0.31581844288E+04  0.31001918328E+04 0.  0.
        5    1    3    3  502    0 -0.19517932968E+03 -0.15242027676E+04  0.50871403634E+03  0.16186726378E+04  0.46999998093E+01 0. -1.
       -5    1    3    3    0  502  0.19517932968E+03  0.15242027676E+04  0.93730555574E+02  0.15395117910E+04  0.46999998093E+01 0.  1.
</event>
<event>
 5   0  0.3935852E-07  0.3102738E+04  0.7818609E-02  0.8214987E-01
       -1   -1    0    0    0  501  0.00000000000E+00  0.00000000000E+00  0.19912420720E+04  0.19912420720E+04  0.50400001928E-02 0.  1.
        1   -1    0    0  501    0  0.00000000000E+00  0.00000000000E+00 -0.12086653390E+04  0.12086653390E+04  0.50400001928E-02 0. -1.
    10030    2    1    2    0    0  0.00000000000E+00  0.00000000000E+00  0.78257673296E+03  0.31999074110E+04  0.31027376776E+04 0.  0.
        5    1    3    3  502    0  0.63397604547E+03  0.65821463512E+03  0.16841635507E+04  0.19161422409E+04  0.46999998093E+01 0.  1.
       -5    1    3    3    0  502 -0.63397604547E+03 -0.65821463512E+03 -0.90158681769E+03  0.12837651701E+04  0.46999998093E+01 0. -1.
</event>
<event>
 5   0  0.3935852E-07  0.3054310E+04  0.7818609E-02  0.8228390E-01
        1   -1    0    0  501    0  0.00000000000E+00  0.00000000000E+00  0.18814135282E+04  0.18814135282E+04  0.50400001928E-02 0. -1.
       -1   -1    0    0    0  501  0.00000000000E+00  0.00000000000E+00 -0.12396008515E+04  0.12396008516E+04  0.50400001928E-02 0.  1.
    10030    2    1    2    0    0  0.00000000000E+00  0.00000000000E+00  0.64181267668E+03  0.31210143798E+04  0.30543096187E+04 0.  0.
        5    1    3    3  502    0 -0.33590734691E+03  0.93270546430E+03 -0.86610292325E+03  0.13164078367E+04  0.46999998093E+01 0.  1.
       -5    1    3    3    0  502  0.33590734691E+03 -0.93270546430E+03  0.15079155999E+04  0.18046065431E+04  0.46999998093E+01 0. -1.
</event>
<event>
 5   0  0.1237580E-06  0.3077005E+04  0.7818609E-02  0.8222077E-01
        2   -1    0    0  501    0  0.00000000000E+00  0.00000000000E+00  0.19142541262E+04  0.19142541262E+04  0.25500000920E-02 0. -1.
       -2   -1    0    0    0  501  0.00000000000E+00  0.00000000000E+00 -0.12365074359E+04  0.12365074359E+04  0.25500000920E-02 0.  1.
    10030    2    1    2    0    0  0.00000000000E+00  0.00000000000E+00  0.67774669030E+03  0.31507615621E+04  0.30770046871E+04 0.  0.
        4    1    3    3  502    0  0.81495078371E+02 -0.11786953800E+03  0.19074051404E+04  0.19127808705E+04  0.12699999809E+01 0. -1.
       -4    1    3    3    0  502 -0.81495078371E+02  0.11786953800E+03 -0.12296584501E+04  0.12379806916E+04  0.12699999809E+01 0.  1.
</event>
<event>
 5   0  0.4219337E-07  0.3100160E+04  0.7818609E-02  0.8215694E-01
        1   -1    0    0  501    0  0.00000000000E+00  0.00000000000E+00  0.28608235172E+04  0.28608235172E+04  0.50400001928E-02 0.  1.
       -1   -1    0    0    0  501  0.00000000000E+00  0.00000000000E+00 -0.83987966796E+03  0.83987966797E+03  0.50400001928E-02 0. -1.
    10030    2    1    2    0    0  0.00000000000E+00  0.00000000000E+00  0.20209438492E+04  0.37007031851E+04  0.31001596770E+04 0.  0.
        4    1    3    3  502    0  0.12251436994E+04  0.82873528414E+03  0.45701258261E+03  0.15481089654E+04  0.12699999809E+01 0. -1.
       -4    1    3    3    0  502 -0.12251436994E+04 -0.82873528414E+03  0.15639312666E+04  0.21525942197E+04  0.12699999809E+01 0.  1.
</event>
<event>
 5   0  0.1193123E-06  0.3089856E+04  0.7818609E-02  0.8218527E-01
       -2   -1    0    0    0  501  0.00000000000E+00  0.00000000000E+00  0.11524963030E+04  0.11524963030E+04  0.25500000920E-02 0. -1.
        2   -1    0    0  501    0  0.00000000000E+00  0.00000000000E+00 -0.20709847659E+04  0.20709847659E+04  0.25500000920E-02 0.  1.
    10030    2    1    2    0    0  0.00000000000E+00  0.00000000000E+00 -0.91848846293E+03  0.32234810689E+04  0.30898558454E+04 0.  0.
        3    1    3    3  502    0 -0.10443773424E+04 -0.11357162729E+04 -0.54156682244E+03  0.16351972722E+04  0.10100000352E+00 0. -1.
       -3    1    3    3    0  502  0.10443773424E+04  0.11357162729E+04 -0.37692164050E+03  0.15882837967E+04  0.10100000352E+00 0.  1.
</event>
<event>
 5   0  0.1258262E-06  0.3110543E+04  0.7818609E-02  0.8212851E-01
        2   -1    0    0  501    0  0.00000000000E+00  0.00000000000E+00  0.16014150285E+04  0.16014150285E+04  0.25500000920E-02 0. -1.
       -2   -1    0    0    0  501  0.00000000000E+00  0.00000000000E+00 -0.15104571056E+04  0.15104571056E+04  0.25500000920E-02 0.  1.
    10030    2    1    2    0    0  0.00000000000E+00  0.00000000000E+00  0.90957922859E+02  0.31118721341E+04  0.31105425307E+04 0.  0.
        1    1    3    3  502    0  0.82741621883E+03  0.95374478640E+03 -0.86299619676E+03  0.15293819511E+04  0.50400001928E-02 0.  1.
       -1    1    3    3    0  502 -0.82741621883E+03 -0.95374478640E+03  0.95395411962E+03  0.15824901830E+04  0.50400001928E-02 0. -1.
</event>
<event>
 5   0  0.4219337E-07  0.3138883E+04  0.7818609E-02  0.8205147E-01
        1   -1    0    0  501    0  0.00000000000E+00  0.00000000000E+00  0.20582666261E+04  0.20582666261E+04  0.50400001928E-02 0.  1.
       -1   -1    0    0    0  501  0.00000000000E+00  0.00000000000E+00 -0.11967095252E+04  0.11967095252E+04  0.50400001928E-02 0. -1.
    10030    2    1    2    0    0  0.00000000000E+00  0.00000000000E+00  0.86155710092E+03  0.32549761513E+04  0.31388834173E+04 0.  0.
        4    1    3    3  502    0 -0.73227486699E+03  0.12552945088E+04 -0.18372157921E+03  0.14648365152E+04  0.12699999809E+01 0. -1.
       -4    1    3    3    0  502  0.73227486699E+03 -0.12552945088E+04  0.10452786801E+04  0.17901396361E+04  0.12699999809E+01 0.  1.
</event>
<event>
 5   0  0.1258262E-06  0.3096201E+04  0.7818609E-02  0.8216781E-01
       -2   -1    0    0    0  501  0.00000000000E+00  0.00000000000E+00  0.80901035382E+03  0.80901035383E+03  0.25500000920E-02 0. -1.
        2   -1    0    0  501    0  0.00000000000E+00  0.00000000000E+00 -0.29624027453E+04  0.29624027453E+04  0.25500000920E-02 0.  1.
    10030    2    1    2    0    0  0.00000000000E+00  0.00000000000E+00 -0.21533923914E+04  0.37714130991E+04  0.30962005705E+04 0.  0.
        1    1    3    3  502    0  0.12195739010E+04 -0.22092211483E+03 -0.22065888502E+04  0.25308499431E+04  0.50400001928E-02 0.  1.
       -1    1    3    3    0  502 -0.12195739010E+04  0.22092211483E+03  0.53196458753E+02  0.12405631560E+04  0.50400001928E-02 0. -1.
</event>
<event>
 5   0  0.1193123E-06  0.3099684E+04  0.7818609E-02  0.8215825E-01
        2   -1    0    0  501    0  0.00000000000E+00  0.00000000000E+00  0.19015393546E+04  0.19015393546E+04  0.25500000920E-02 0. -1.
       -2   -1    0    0    0  501  0.00000000000E+00  0.00000000000E+00 -0.12631924414E+04  0.12631924414E+04  0.25500000920E-02 0.  1.
    10030    2    1    2    0    0  0.00000000000E+00  0.00000000000E+00  0.63834691316E+03  0.31647317960E+04  0.30996839450E+04 0.  0.
        3    1    3    3  502    0 -0.13043035603E+04  0.79632478082E+03  0.55551181499E+02  0.15291915766E+04  0.10100000352E+00 0.  1.
       -3    1    3    3    0  502  0.13043035603E+04 -0.79632478082E+03  0.58279573166E+03  0.16355402193E+04  0.10100000352E+00 0. -1.
</event>
<event>
 5   0  0.4134019E-07  0.3064054E+04  0.7818609E-02  0.8225673E-01
       -1   -1    0    0    0  501  0.00000000000E+00  0.00000000000E+00  0.15704375272E+04  0.15704375272E+04  0.50400001928E-02 0.  1.
        1   -1    0    0  501    0  0.00000000000E+00  0.00000000000E+00 -0.14945557978E+04  0.14945557978E+04  0.50400001928E-02 0. -1.
    10030    2    1    2    0    0  0.00000000000E+00  0.00000000000E+00  0.75881729369E+02  0.30649933250E+04  0.30640538581E+04 0.  0.
        2    1    3    3  502    0  0.14501584202E+04  0.27950797338E+03  0.44552421092E+03  0.15425874281E+04  0.25500000920E-02 0.  1.
       -2    1    3    3    0  502 -0.14501584202E+04 -0.27950797338E+03 -0.36964248155E+03  0.15224058969E+04  0.25500000920E-02 0. -1.
</event>
<event>
 5   0  0.1193123E-06  0.3117909E+04  0.7818609E-02  0.8210840E-01
        2   -1    0    0  501    0  0.00000000000E+00  0.00000000000E+00  0.15770748187E+04  0.15770748187E+04  0.25500000920E-02 0.  1.
       -2   -1    0    0    0  501  0.00000000000E+00  0.00000000000E+00 -0.15410428249E+04  0.15410428249E+04  0.25500000920E-02 0. -1.
    10030    2    1    2    0    0  0.00000000000E+00  0.00000000000E+00  0.36031993776E+02  0.31181176436E+04  0.31179094494E+04 0.  0.
        3    1    3    3  502    0  0.12100140622E+04 -0.44705358355E+03 -0.85745600913E+03  0.15489421407E+04  0.10100000352E+00 0. -1.
       -3    1    3    3    0  502 -0.12100140622E+04  0.44705358355E+03  0.89348800290E+03  0.15691755029E+04  0.10100000352E+00 0.  1.
</event>
<event>
 5   0  0.4330395E-07  0.3086286E+04  0.7818609E-02  0.8219512E-01
       -1   -1    0    0    0  501  0.00000000000E+00  0.00000000000E+00  0.92553251782E+03  0.92553251783E+03  0.50400001928E-02 0.  1.
        1   -1    0    0  501    0  0.00000000000E+00  0.00000000000E+00 -0.25728874331E+04  0.25728874331E+04  0.50400001928E-02 0. -1.
    10030    2    1    2    0    0  0.00000000000E+00  0.00000000000E+00 -0.16473549153E+04  0.34984199509E+04  0.30862864313E+04 0.  0.
        1    1    3    3  502    0 -0.14898110265E+04  0.12861130287E+03 -0.12556327432E+04  0.19526114175E+04  0.50400001928E-02 0. -1.
       -1    1    3    3    0  502  0.14898110265E+04 -0.12861130287E+03 -0.39172217204E+03  0.15458085334E+04  0.50400001928E-02 0.  1.
</event>
<event>
 5   0  0.4134019E-07  0.3107878E+04  0.7818609E-02  0.8213579E-01
        1   -1    0    0  501    0  0.00000000000E+00  0.00000000000E+00  0.20469151654E+04  0.20469151654E+04  0.50400001928E-02 0. -1.
       -1   -1    0    0    0  501  0.00000000000E+00  0.00000000000E+00 -0.11796908323E+04  0.11796908323E+04  0.50400001928E-02 0.  1.
    10030    2    1    2    0    0  0.00000000000E+00  0.00000000000E+00  0.86722433307E+03  0.32266059978E+04  0.31078784115E+04 0.  0.
        2    1    3    3  502    0 -0.11672934098E+04 -0.54105368352E+03  0.13383468394E+04  0.18564711836E+04  0.25500000920E-02 0. -1.
       -2    1    3    3    0  502  0.11672934098E+04  0.54105368352E+03 -0.47112250636E+03  0.13701348142E+04  0.25500000920E-02 0.  1.
</event>
<event>
 5   0  0.4330395E-07  0.3098210E+04  0.7818609E-02  0.8216229E-01
       -1   -1    0    0    0  501  0.00000000000E+00  0.00000000000E+00  0.14160459112E+04  0.14160459113E+04  0.50400001928E-02 0. -1.
        1   -1    0    0  501    0  0.00000000000E+00  0.00000000000E+00 -0.16946673892E+04  0.16946673892E+04  0.50400001928E-02 0.  1.
    10030    2    1    2    0    0  0.00000000000E+00  0.00000000000E+00 -0.27862147798E+03  0.31107133005E+04  0.30982103398E+04 0.  0.
        1    1    3    3  502    0 -0.62214128735E+03  0.11819339991E+04 -0.92714222781E+03  0.16259214219E+04  0.50400001928E-02 0.  1.
       -1    1    3    3    0  502  0.62214128735E+03 -0.11819339991E+04  0.64852074983E+03  0.14847918786E+04  0.50400001928E-02 0. -1.
</event>
<event>
 5   0  0.1258262E-06  0.3093524E+04  0.7818609E-02  0.8217517E-01
        2   -1    0    0  501    0  0.00000000000E+00  0.00000000000E+00  0.21570409434E+04  0.21570409434E+04  0.25500000920E-02 0.  1.
       -2   -1    0    0    0  501  0.00000000000E+00  0.00000000000E+00 -0.11091460103E+04  0.11091460103E+04  0.25500000920E-02 0. -1.
    10030    2    1    2    0    0  0.00000000000E+00  0.00000000000E+00  0.10478949331E+04  0.32661869537E+04  0.30935244343E+04 0.  0.
        1    1    3    3  502    0 -0.14151598918E+04 -0.52878955648E+03  0.87440373450E+03  0.17455308090E+04  0.50400001928E-02 0.  1.
       -1    1    3    3    0  502  0.14151598918E+04  0.52878955648E+03  0.17349119858E+03  0.15206561447E+04  0.50400001928E-02 0. -1.
</event>
<event>
 5   0  0.4330395E-07  0.2899845E+04  0.7818609E-02  0.8272923E-01
       -1   -1    0    0    0  501  0.00000000000E+00  0.00000000000E+00  0.11054627067E+04  0.11054627068E+04  0.50400001928E-02 0.  1.
        1   -1    0    0  501    0  0.00000000000E+00  0.00000000000E+00 -0.19017157291E+04  0.19017157291E+04  0.50400001928E-02 0. -1.
    10030    2    1    2    0    0  0.00000000000E+00  0.00000000000E+00 -0.79625302235E+03  0.30071784359E+04  0.28998453872E+04 0.  0.
        1    1    3    3  502    0  0.35217602553E+03 -0.95722562763E+03 -0.14667872604E+04  0.17865535879E+04  0.50400001928E-02 0. -1.
       -1    1    3    3    0  502 -0.35217602553E+03  0.95722562763E+03  0.67053423801E+03  0.12206248480E+04  0.50400001928E-02 0.  1.
</event>
<event>
 5   0  0.4219337E-07  0.3091253E+04  0.7818609E-02  0.8218143E-01
        1   -1    0    0  501    0  0.00000000000E+00  0.00000000000E+00  0.10728651413E+04  0.10728651413E+04  0.50400001928E-02 0. -1.
       -1   -1    0    0    0  501  0.00000000000E+00  0.00000000000E+00 -0.22267115360E+04  0.22267115360E+04  0.50400001928E-02 0.  1.
    10030    2    1    2    0    0  0.00000000000E+00  0.00000000000E+00 -0.11538463946E+04  0.32995766773E+04  0.30912529413E+04 0.  0.
        4    1    3    3  502    0  0.91226566939E+03  0.10271466429E+04 -0.13329653927E+04  0.19141727269E+04  0.12699999809E+01 0.  1.
       -4    1    3    3    0  502 -0.91226566939E+03 -0.10271466429E+04  0.17911899803E+03  0.13854039504E+04  0.12699999809E+01 0. -1.
</event>
<event>
 5   0  0.1176002E-06  0.3113033E+04  0.7818609E-02  0.8212170E-01
        2   -1    0    0  501    0  0.00000000000E+00  0.00000000000E+00  0.95844932662E+03  0.95844932663E+03  0.25500000920E-02 0. -1.
       -2   -1    0    0    0  501  0.00000000000E+00  0.00000000000E+00 -0.25277737137E+04  0.25277737137E+04  0.25500000920E-02 0.  1.
    10030    2    1    2    0    0  0.00000000000E+00  0.00000000000E+00 -0.15693243871E+04  0.34862230403E+04  0.31130326139E+04 0.  0.
        2    1    3    3  502    0 -0.40499510517E+03 -0.53011127178E+01 -0.24677244679E+04  0.25007425270E+04  0.25500000920E-02 0.  1.
       -2    1    3    3    0  502  0.40499510517E+03  0.53011127178E+01  0.89840008078E+03  0.98548051334E+03  0.25500000920E-02 0. -1.
</event>
<event>
 5   0  0.1176002E-06  0.3102454E+04  0.7818609E-02  0.8215065E-01
       -2   -1    0    0    0  501  0.00000000000E+00  0.00000000000E+00  0.13579336159E+04  0.13579336159E+04  0.25500000920E-02 0. -1.
        2   -1    0    0  501    0  0.00000000000E+00  0.00000000000E+00 -0.17720347805E+04  0.17720347805E+04  0.25500000920E-02 0.  1.
    10030    2    1    2    0    0  0.00000000000E+00  0.00000000000E+00 -0.41410116460E+03  0.31299683963E+04  0.31024542523E+04 0.  0.
        2    1    3    3  502    0  0.57912882294E+03  0.13410334756E+04 -0.73373852147E+03  0.16346660803E+04  0.25500000920E-02 0. -1.
       -2    1    3    3    0  502 -0.57912882294E+03 -0.13410334756E+04  0.31963735687E+03  0.14953023160E+04  0.25500000920E-02 0.  1.
</event>
<event>
 5   0  0.4134019E-07  0.3096780E+04  0.7818609E-02  0.8216622E-01
       -1   -1    0    0    0  501  0.00000000000E+00  0.00000000000E+00  0.18710858108E+04  0.18710858108E+04  0.50400001928E-02 0. -1.
        1   -1    0    0  501    0  0.00000000000E+00  0.00000000000E+00 -0.12813476229E+04  0.12813476230E+04  0.50400001928E-02 0.  1.
    10030    2    1    2    0    0  0.00000000000E+00  0.00000000000E+00  0.58973818786E+03  0.31524334338E+04  0.30967798475E+04 0.  0.
        2    1    3    3  502    0 -0.13895591057E+04  0.16542778530E+03  0.96955495607E+03  0.17024328690E+04  0.25500000920E-02 0. -1.
       -2    1    3    3    0  502  0.13895591057E+04 -0.16542778530E+03 -0.37981676821E+03  0.14500005648E+04  0.25500000920E-02 0.  1.
</event>
<event>
 5   0  0.1258262E-06  0.3099711E+04  0.7818609E-02  0.8215817E-01
       -2   -1    0    0    0  501  0.00000000000E+00  0.00000000000E+00  0.11661625255E+04  0.11661625255E+04  0.25500000920E-02 0. -1.
        2   -1    0    0  501    0  0.00000000000E+00  0.00000000000E+00 -0.20597916254E+04  0.20597916254E+04  0.25500000920E-02 0.  1.
    10030    2    1    2    0    0  0.00000000000E+00  0.00000000000E+00 -0.89362909993E+03  0.32259541509E+04  0.30997108277E+04 0.  0.
        1    1    3    3  502    0 -0.29910517499E+03 -0.14322110763E+03  0.11288054341E+04  0.11765109007E+04  0.50400001928E-02 0. -1.
       -1    1    3    3    0  502  0.29910517499E+03  0.14322110763E+03 -0.20224345340E+04  0.20494432502E+04  0.50400001928E-02 0.  1.
</event>
<event>
 5   0  0.4173905E-07  0.3094039E+04  0.7818609E-02  0.8217376E-01
       -1   -1    0    0    0  501  0.00000000000E+00  0.00000000000E+00  0.16159722457E+04  0.16159722457E+04  0.50400001928E-02 0. -1.
        1   -1    0    0  501    0  0.00000000000E+00  0.00000000000E+00 -0.14810086229E+04  0.14810086229E+04  0.50400001928E-02 0.  1.
    10030    2    1    2    0    0  0.00000000000E+00  0.00000000000E+00  0.13496362285E+03  0.30969808686E+04  0.30940386748E+04 0.  0.
        3    1    3    3  502    0 -0.56845807787E+03  0.11810259998E+04 -0.75506712499E+03  0.15126444962E+04  0.10100000352E+00 0.  1.
       -3    1    3    3    0  502  0.56845807787E+03 -0.11810259998E+04  0.89003074784E+03  0.15843363724E+04  0.10100000352E+00 0. -1.
</event>
<event>
 5   0  0.1237580E-06  0.3094113E+04  0.7818609E-02  0.8217355E-01
        2   -1    0    0  501    0  0.00000000000E+00  0.00000000000E+00  0.13454241664E+04  0.13454241664E+04  0.25500000920E-02 0. -1.
       -2   -1    0    0    0  501  0.00000000000E+00  0.00000000000E+00 -0.17789067932E+04  0.17789067932E+04  0.25500000920E-02 0.  1.
    10030    2    1    2    0    0  0.00000000000E+00  0.00000000000E+00 -0.43348262681E+03  0.31243309596E+04  0.30941132425E+04 0.  0.
        4    1    3    3  502    0 -0.38403667332E+03 -0.70055952384E+03  0.11210044600E+04  0.13765610866E+04  0.12699999809E+01 0. -1.
       -4    1    3    3    0  502  0.38403667332E+03  0.70055952384E+03 -0.15544870868E+04  0.17477698730E+04  0.12699999809E+01 0.  1.
</event>
<event>
 5   0  0.1200286E-06  0.3090412E+04  0.7818609E-02  0.8218374E-01
       -2   -1    0    0    0  501  0.00000000000E+00  0.00000000000E+00  0.13562708205E+04  0.13562708205E+04  0.25500000920E-02 0.  1.
        2   -1    0    0  501    0  0.00000000000E+00  0.00000000000E+00 -0.17604613390E+04  0.17604613390E+04  0.25500000920E-02 0. -1.
    10030    2    1    2    0    0  0.00000000000E+00  0.00000000000E+00 -0.40419051842E+03  0.31167321595E+04  0.30904124933E+04 0.  0.
        5    1    3    3  502    0  0.28614682674E+03 -0.54902595235E+03  0.12257058871E+04  0.13732030128E+04  0.46999998093E+01 0.  1.
       -5    1    3    3    0  502 -0.28614682674E+03  0.54902595235E+03 -0.16298964055E+04  0.17435291467E+04  0.46999998093E+01 0. -1.
</event>
<event>
 5   0  0.1193123E-06  0.3102417E+04  0.7818609E-02  0.8215075E-01
       -2   -1    0    0    0  501  0.00000000000E+00  0.00000000000E+00  0.24822534734E+04  0.24822534734E+04  0.25500000920E-02 0.  1.
        2   -1    0    0  501    0  0.00000000000E+00  0.00000000000E+00 -0.96938018466E+03  0.96938018466E+03  0.25500000920E-02 0. -1.
    10030    2    1    2    0    0  0.00000000000E+00  0.00000000000E+00  0.15128732887E+04  0.34516336581E+04  0.31024166905E+04 0.  0.
        3    1    3    3  502    0  0.91057102799E+03 -0.11321468525E+04  0.15180070590E+03  0.14608009985E+04  0.10100000352E+00 0.  1.
       -3    1    3    3    0  502 -0.91057102799E+03  0.11321468525E+04  0.13610725828E+04  0.19908326596E+04  0.10100000352E+00 0. -1.
</event>
<event>
 5   0  0.4330395E-07  0.3102135E+04  0.7818609E-02  0.8215152E-01
       -1   -1    0    0    0  501  0.00000000000E+00  0.00000000000E+00  0.14852264585E+04  0.14852264585E+04  0.50400001928E-02 0.  1.
        1   -1    0    0  501    0  0.00000000000E+00  0.00000000000E+00 -0.16198274590E+04  0.16198274590E+04  0.50400001928E-02 0. -1.
    10030    2    1    2    0    0  0.00000000000E+00  0.00000000000E+00 -0.13460100051E+03  0.31050539175E+04  0.31021351359E+04 0.  0.
        1    1    3    3  502    0  0.10655712347E+04 -0.67507413506E+03 -0.97072574034E+03  0.15916895448E+04  0.50400001928E-02 0. -1.
       -1    1    3    3    0  502 -0.10655712347E+04  0.67507413506E+03  0.83612473984E+03  0.15133643727E+04  0.50400001928E-02 0.  1.
</event>
<event>
 5   0  0.4134019E-07  0.3102712E+04  0.7818609E-02  0.8214994E-01
        1   -1    0    0  501    0  0.00000000000E+00  0.00000000000E+00  0.23140743263E+04  0.23140743263E+04  0.50400001928E-02 0. -1.
       -1   -1    0    0    0  501  0.00000000000E+00  0.00000000000E+00 -0.10400293374E+04  0.10400293374E+04  0.50400001928E-02 0.  1.
    10030    2    1    2    0    0  0.00000000000E+00  0.00000000000E+00  0.12740449889E+04  0.33541036638E+04  0.31027118386E+04 0.  0.
        2    1    3    3  502    0  0.53621375613E+03  0.14413314931E+04  0.41615612736E+03  0.15931564856E+04  0.25500000920E-02 0.  1.
       -2    1    3    3    0  502 -0.53621375613E+03 -0.14413314931E+04  0.85788886154E+03  0.17609471781E+04  0.25500000920E-02 0. -1.
</event>
<event>
 5   0  0.4134019E-07  0.3103620E+04  0.7818609E-02  0.8214745E-01
       -1   -1    0    0    0  501  0.00000000000E+00  0.00000000000E+00  0.12009747918E+04  0.12009747918E+04  0.50400001928E-02 0.  1.
        1   -1    0    0  501    0  0.00000000000E+00  0.00000000000E+00 -0.20051331984E+04  0.20051331984E+04  0.50400001928E-02 0. -1.
    10030    2    1    2    0    0  0.00000000000E+00  0.00000000000E+00 -0.80415840663E+03  0.32061079902E+04  0.31036200963E+04 0.  0.
        2    1    3    3  502    0  0.12537263774E+04  0.47557500080E+03 -0.12089699513E+04  0.18054389367E+04  0.25500000920E-02 0. -1.
       -2    1    3    3    0  502 -0.12537263774E+04 -0.47557500080E+03  0.40481154468E+03  0.14006690535E+04  0.25500000920E-02 0.  1.
</event>
<event>
 5   0  0.1176002E-06  0.3098998E+04  0.7818609E-02  0.8216013E-01
       -2   -1    0    0    0  501  0.00000000000E+00  0.00000000000E+00  0.14795153683E+04  0.14795153683E+04  0.25500000920E-02 0.  1.
        2   -1    0    0  501    0  0.00000000000E+00  0.00000000000E+00 -0.16227927865E+04  0.16227927865E+04  0.25500000920E-02 0. -1.
    10030    2    1    2    0    0  0.00000000000E+00  0.00000000000E+00 -0.14327741818E+03  0.31023081549E+04  0.30989978169E+04 0.  0.
        2    1    3    3  502    0 -0.12643625724E+04 -0.55513226038E+03 -0.77535641870E+03  0.15836546710E+04  0.25500000920E-02 0. -1.
       -2    1    3    3    0  502  0.12643625724E+04  0.55513226038E+03  0.63207900051E+03  0.15186534838E+04  0.25500000920E-02 0.  1.
</event>
<event>
 5   0  0.1237580E-06  0.3095090E+04  0.7818609E-02  0.8217087E-01
       -2   -1    0    0    0  501  0.00000000000E+00  0.00000000000E+00  0.14561443164E+04  0.14561443164E+04  0.25500000920E-02 0.  1.
        2   -1    0    0  501    0  0.00000000000E+00  0.00000000000E+00 -0.16446822813E+04  0.16446822813E+04  0.25500000920E-02 0. -1.
    10030    2    1    2    0    0  0.00000000000E+00  0.00000000000E+00 -0.18853796489E+03  0.31008265977E+04  0.30950895019E+04 0.  0.
        4    1    3    3  502    0 -0.98297063327E+02 -0.51086296392E+03 -0.15544512425E+04  0.16391960098E+04  0.12699999809E+01 0. -1.
       -4    1    3    3    0  502  0.98297063327E+02  0.51086296392E+03  0.13659132776E+04  0.14616305878E+04  0.12699999809E+01 0.  1.
</event>
<event>
 5   0  0.1200286E-06  0.3158456E+04  0.7818609E-02  0.8199876E-01
       -2   -1    0    0    0  501  0.00000000000E+00  0.00000000000E+00  0.12754673739E+04  0.12754673739E+04  0.25500000920E-02 0.  1.
        2   -1    0    0  501    0  0.00000000000E+00  0.00000000000E+00 -0.19553315462E+04  0.19553315462E+04  0.25500000920E-02 0. -1.
    10030    2    1    2    0    0  0.00000000000E+00  0.00000000000E+00 -0.67986417233E+03  0.32307989201E+04  0.31584563269E+04 0.  0.
        5    1    3    3  502    0 -0.36608582448E+02  0.64237570167E+02  0.12736887985E+04  0.12758416434E+04  0.46999998093E+01 0.  1.
       -5    1    3    3    0  502  0.36608582448E+02 -0.64237570167E+02 -0.19535529708E+04  0.19549572766E+04  0.46999998093E+01 0. -1.
</event>
<event>
 5   0  0.4330395E-07  0.3115453E+04  0.7818609E-02  0.8211510E-01
        1   -1    0    0  501    0  0.00000000000E+00  0.00000000000E+00  0.21239653674E+04  0.21239653674E+04  0.50400001928E-02 0.  1.
       -1   -1    0    0    0  501  0.00000000000E+00  0.00000000000E+00 -0.11424438734E+04  0.11424438734E+04  0.50400001928E-02 0. -1.
    10030    2    1    2    0    0  0.00000000000E+00  0.00000000000E+00  0.98152149399E+03  0.32664092408E+04  0.31154525972E+04 0.  0.
        1    1    3    3  502    0  0.13703392450E+04 -0.71640873173E+03  0.68813792783E+03  0.16925143796E+04  0.50400001928E-02 0.  1.
       -1    1    3    3    0  502 -0.13703392450E+04  0.71640873173E+03  0.29338356615E+03  0.15738948612E+04  0.50400001928E-02 0. -1.
</event>
<event>
 5   0  0.4219337E-07  0.3085795E+04  0.7818609E-02  0.8219647E-01
        1   -1    0    0  501    0  0.00000000000E+00  0.00000000000E+00  0.14100788315E+04  0.14100788315E+04  0.50400001928E-02 0.  1.
       -1   -1    0    0    0  501  0.00000000000E+00  0.00000000000E+00 -0.16882264357E+04  0.16882264357E+04  0.50400001928E-02 0. -1.
    10030    2    1    2    0    0  0.00000000000E+00  0.00000000000E+00 -0.27814760414E+03  0.30983052672E+04  0.30857947824E+04 0.  0.
        4    1    3    3  502    0  0.76670235258E+03 -0.56744581869E+03  0.10785684980E+04  0.14398398773E+04  0.12699999809E+01 0.  1.
       -4    1    3    3    0  502 -0.76670235258E+03  0.56744581869E+03 -0.13567161021E+04  0.16584653898E+04  0.12699999809E+01 0. -1.
</event>
<event>
 5   0  0.1176002E-06  0.3077781E+04  0.7818609E-02  0.8221862E-01
        2   -1    0    0  501    0  0.00000000000E+00  0.00000000000E+00  0.16064236517E+04  0.16064236517E+04  0.25500000920E-02 0.  1.
       -2   -1    0    0    0  501  0.00000000000E+00  0.00000000000E+00 -0.14741968042E+04  0.14741968042E+04  0.25500000920E-02 0. -1.
    10030    2    1    2    0    0  0.00000000000E+00  0.00000000000E+00  0.13222684747E+03  0.30806204559E+04  0.30777814175E+04 0.  0.
        2    1    3    3  502    0 -0.11205157209E+04 -0.38697696103E+03 -0.91605517627E+03  0.14981534418E+04  0.25500000920E-02 0. -1.
       -2    1    3    3    0  502  0.11205157209E+04  0.38697696103E+03  0.10482820237E+04  0.15824670140E+04  0.25500000920E-02 0.  1.
</event>
<event>
 5   0  0.1258262E-06  0.3098018E+04  0.7818609E-02  0.8216282E-01
        2   -1    0    0  501    0  0.00000000000E+00  0.00000000000E+00  0.15426820765E+04  0.15426820765E+04  0.25500000920E-02 0.  1.
       -2   -1    0    0    0  501  0.00000000000E+00  0.00000000000E+00 -0.15553620458E+04  0.15553620458E+04  0.25500000920E-02 0. -1.
    10030    2    1    2    0    0  0.00000000000E+00  0.00000000000E+00 -0.12679969242E+02  0.30980441223E+04  0.30980181733E+04 0.  0.
        1    1    3    3  502    0  0.13530169282E+04 -0.34941320795E+03 -0.67469036854E+03  0.15517575491E+04  0.50400001928E-02 0.  1.
       -1    1    3    3    0  502 -0.13530169282E+04  0.34941320795E+03  0.66201039930E+03  0.15462865732E+04  0.50400001928E-02 0. -1.
</event>
<event>
 5   0  0.1258262E-06  0.3104190E+04  0.7818609E-02  0.8214589E-01
        2   -1    0    0  501    0  0.00000000000E+00  0.00000000000E+00  0.14030918045E+04  0.14030918045E+04  0.25500000920E-02 0. -1.
       -2   -1    0    0    0  501  0.00000000000E+00  0.00000000000E+00 -0.17169213003E+04  0.17169213003E+04  0.25500000920E-02 0.  1.
    10030    2    1    2    0    0  0.00000000000E+00  0.00000000000E+00 -0.31382949581E+03  0.31200131048E+04  0.31041895595E+04 0.  0.
        1    1    3    3  502    0 -0.15163057161E+04 -0.16300418212E+03  0.13307776599E+03  0.15308373786E+04  0.50400001928E-02 0. -1.
       -1    1    3    3    0  502  0.15163057161E+04  0.16300418212E+03 -0.44690726180E+03  0.15891757262E+04  0.50400001928E-02 0.  1.
</event>
<event>
 5   0  0.4134019E-07  0.3103566E+04  0.7818609E-02  0.8214760E-01
        1   -1    0    0  501    0  0.00000000000E+00  0.00000000000E+00  0.78270699478E+03  0.78270699480E+03  0.50400001928E-02 0.  1.
       -1   -1    0    0    0  501  0.00000000000E+00  0.00000000000E+00 -0.30765413928E+04  0.30765413928E+04  0.50400001928E-02 0. -1.
    10030    2    1    2    0    0  0.00000000000E+00  0.00000000000E+00 -0.22938343980E+04  0.38592483876E+04  0.31035659928E+04 0.  0.
        2    1    3    3  502    0 -0.88070570247E+03  0.93959848032E+03 -0.70353043301E+02  0.12897431486E+04  0.25500000920E-02 0.  1.
       -2    1    3    3    0  502  0.88070570247E+03 -0.93959848032E+03 -0.22234813547E+04  0.25695052390E+04  0.25500000920E-02 0. -1.
</event>
<event>
 5   0  0.1200286E-06  0.3094419E+04  0.7818609E-02  0.8217271E-01
       -2   -1    0    0    0  501  0.00000000000E+00  0.00000000000E+00  0.23471467204E+04  0.23471467204E+04  0.25500000920E-02 0. -1.
        2   -1    0    0  501    0  0.00000000000E+00  0.00000000000E+00 -0.10199007525E+04  0.10199007525E+04  0.25500000920E-02 0.  1.
    10030    2    1    2    0    0  0.00000000000E+00  0.00000000000E+00  0.13272459679E+04  0.33670474730E+04  0.30944186572E+04 0.  0.
        5    1    3    3  502    0  0.10776504978E+04  0.11101645449E+04  0.65685359955E+03  0.16808553339E+04  0.46999998093E+01 0.  1.
       -5    1    3    3    0  502 -0.10776504978E+04 -0.11101645449E+04  0.67039236833E+03  0.16861921391E+04  0.46999998093E+01 0. -1.
</event>
<event>
 5   0  0.4219337E-07  0.3095482E+04  0.7818609E-02  0.8216979E-01
        1   -1    0    0  501    0  0.00000000000E+00  0.00000000000E+00  0.24051446624E+04  0.24051446625E+04  0.50400001928E-02 0.  1.
       -1   -1    0    0    0  501  0.00000000000E+00  0.00000000000E+00 -0.99599081955E+03  0.99599081956E+03  0.50400001928E-02 0. -1.
    10030    2    1    2    0    0  0.00000000000E+00  0.00000000000E+00  0.14091538429E+04  0.34011354820E+04  0.30954818711E+04 0.  0.
        4    1    3    3  502    0 -0.59885082200E+03  0.14237572810E+04  0.59584427954E+03  0.16555177802E+04  0.12699999809E+01 0.  1.
       -4    1    3    3    0  502  0.59885082200E+03 -0.14237572810E+04  0.81330956336E+03  0.17456177018E+04  0.12699999809E+01 0. -1.
</event>
<event>
 5   0  0.4330395E-07  0.3109961E+04  0.7818609E-02  0.8213010E-01
       -1   -1    0    0    0  501  0.00000000000E+00  0.00000000000E+00  0.15423056068E+04  0.15423056069E+04  0.50400001928E-02 0.  1.
        1   -1    0    0  501    0  0.00000000000E+00  0.00000000000E+00 -0.15677592399E+04  0.15677592399E+04  0.50400001928E-02 0. -1.
    10030    2    1    2    0    0  0.00000000000E+00  0.00000000000E+00 -0.25453633082E+02  0.31100648468E+04  0.31099606853E+04 0.  0.
        1    1    3    3  502    0  0.65220824687E+03  0.46368661665E+02 -0.14236029802E+04  0.15665794251E+04  0.50400001928E-02 0. -1.
       -1    1    3    3    0  502 -0.65220824687E+03 -0.46368661665E+02  0.13981493471E+04  0.15434854217E+04  0.50400001928E-02 0.  1.
</event>
<event>
 5   0  0.4330395E-07  0.3081091E+04  0.7818609E-02  0.8220947E-01
        1   -1    0    0  501    0  0.00000000000E+00  0.00000000000E+00  0.19652979350E+04  0.19652979350E+04  0.50400001928E-02 0. -1.
       -1   -1    0    0    0  501  0.00000000000E+00  0.00000000000E+00 -0.12075931481E+04  0.12075931481E+04  0.50400001928E-02 0.  1.
    10030    2    1    2    0    0  0.00000000000E+00  0.00000000000E+00  0.75770478693E+03  0.31728910831E+04  0.30810909238E+04 0.  0.
        1    1    3    3  502    0  0.12453925275E+04 -0.27198203806E+03 -0.51196676877E+03  0.13737127607E+04  0.50400001928E-02 0.  1.
       -1    1    3    3    0  502 -0.12453925275E+04  0.27198203806E+03  0.12696715557E+04  0.17991783224E+04  0.50400001928E-02 0. -1.
</event>
<event>
 5   0  0.4134019E-07  0.3099125E+04  0.7818609E-02  0.8215978E-01
       -1   -1    0    0    0  501  0.00000000000E+00  0.00000000000E+00  0.23287223570E+04  0.23287223571E+04  0.50400001928E-02 0.  1.
        1   -1    0    0  501    0  0.00000000000E+00  0.00000000000E+00 -0.10310993572E+04  0.10310993572E+04  0.50400001928E-02 0. -1.
    10030    2    1    2    0    0  0.00000000000E+00  0.00000000000E+00  0.12976229999E+04  0.33598217142E+04  0.30991251187E+04 0.  0.
        2    1    3    3  502    0  0.25852331475E+03 -0.12690643592E+04  0.15711324080E+04  0.20361276226E+04  0.25500000920E-02 0.  1.
       -2    1    3    3    0  502 -0.25852331475E+03  0.12690643592E+04 -0.27350940807E+03  0.13236940917E+04  0.25500000920E-02 0. -1.
</event>
<event>
 5   0  0.4173905E-07  0.3033383E+04  0.7818609E-02  0.8234262E-01
        1   -1    0    0  501    0  0.00000000000E+00  0.00000000000E+00  0.13101828506E+04  0.13101828507E+04  0.50400001928E-02 0. -1.
       -1   -1    0    0    0  501  0.00000000000E+00  0.00000000000E+00 -0.17557498085E+04  0.17557498085E+04  0.50400001928E-02 0.  1.
    10030    2    1    2    0    0  0.00000000000E+00  0.00000000000E+00 -0.44556695785E+03  0.30659326592E+04  0.30333831206E+04 0.  0.
        3    1    3    3  502    0  0.10119474918E+04 -0.29397165533E+03  0.87974518209E+03  0.13727376501E+04  0.10100000352E+00 0. -1.
       -3    1    3    3    0  502 -0.10119474918E+04  0.29397165533E+03 -0.13253121399E+04  0.16931950091E+04  0.10100000352E+00 0.  1.
</event>
<event>
 5   0  0.1193123E-06  0.3108462E+04  0.7818609E-02  0.8213419E-01
        2   -1    0    0  501    0  0.00000000000E+00  0.00000000000E+00  0.22767314719E+04  0.22767314719E+04  0.25500000920E-02 0.  1.
       -2   -1    0    0    0  501  0.00000000000E+00  0.00000000000E+00 -0.10610098563E+04  0.10610098564E+04  0.25500000920E-02 0. -1.
    10030    2    1    2    0    0  0.00000000000E+00  0.00000000000E+00  0.12157216155E+04  0.33377413282E+04  0.31084623414E+04 0.  0.
        3    1    3    3  502    0  0.86196470109E+03 -0.12210925593E+04  0.15030269632E+03  0.15022120673E+04  0.10100000352E+00 0.  1.
       -3    1    3    3    0  502 -0.86196470109E+03  0.12210925593E+04  0.10654189192E+04  0.18355292610E+04  0.10100000352E+00 0. -1.
</event>
<event>
 5   0  0.4173905E-07  0.3100005E+04  0.7818609E-02  0.8215736E-01
        1   -1    0    0  501    0  0.00000000000E+00  0.00000000000E+00  0.19250425725E+04  0.19250425725E+04  0.50400001928E-02 0. -1.
       -1   -1    0    0    0  501  0.00000000000E+00  0.00000000000E+00 -0.12480287278E+04  0.12480287279E+04  0.50400001928E-02 0.  1.
    10030    2    1    2    0    0  0.00000000000E+00  0.00000000000E+00  0.67701384469E+03  0.31730713004E+04  0.31000054405E+04 0.  0.
        3    1    3    3  502    0 -0.13611551091E+04 -0.19356104748E+03 -0.39411390602E+03  0.14302219728E+04  0.10100000352E+00 0.  1.
       -3    1    3    3    0  502  0.13611551091E+04  0.19356104748E+03  0.10711277507E+04  0.17428493276E+04  0.10100000352E+00 0. -1.
</event>
<event>
 5   0  0.1237580E-06  0.3097650E+04  0.7818609E-02  0.8216383E-01
        2   -1    0    0  501    0  0.00000000000E+00  0.00000000000E+00  0.28779376936E+04  0.28779376936E+04  0.25500000920E-02 0.  1.
       -2   -1    0    0    0  501  0.00000000000E+00  0.00000000000E+00 -0.83353379320E+03  0.83353379321E+03  0.25500000920E-02 0. -1.
    10030    2    1    2    0    0  0.00000000000E+00  0.00000000000E+00  0.20444039004E+04  0.37114714868E+04  0.30976496395E+04 0.  0.
        4    1    3    3  502    0 -0.15771842754E+03  0.14428369557E+04  0.37452824978E+03  0.14989751852E+04  0.12699999809E+01 0. -1.
       -4    1    3    3    0  502  0.15771842754E+03 -0.14428369557E+04  0.16698756506E+04  0.22124963016E+04  0.12699999809E+01 0.  1.
</event>
<event>
 5   0  0.1193123E-06  0.3114674E+04  0.7818609E-02  0.8211722E-01
        2   -1    0    0  501    0  0.00000000000E+00  0.00000000000E+00  0.16003309427E+04  0.16003309427E+04  0.25500000920E-02 0. -1.
       -2   -1    0    0    0  501  0.00000000000E+00  0.00000000000E+00 -0.15154976864E+04  0.15154976864E+04  0.25500000920E-02 0.  1.
    10030    2    1    2    0    0  0.00000000000E+00  0.00000000000E+00  0.84833256245E+02  0.31158286291E+04  0.31146735567E+04 0.  0.
        3    1    3    3  502    0 -0.70291841426E+03 -0.13273874665E+04  0.45396443865E+03  0.15691193406E+04  0.10100000352E+00 0. -1.
       -3    1    3    3    0  502  0.70291841426E+03  0.13273874665E+04 -0.36913118240E+03  0.15467092885E+04  0.10100000352E+00 0.  1.
</event>
<event>
 5   0  0.1176002E-06  0.3097333E+04  0.7818609E-02  0.8216470E-01
       -2   -1    0    0    0  501  0.00000000000E+00  0.00000000000E+00  0.14140036717E+04  0.14140036717E+04  0.25500000920E-02 0.  1.
        2   -1    0    0  501    0  0.00000000000E+00  0.00000000000E+00 -0.16961537735E+04  0.16961537735E+04  0.25500000920E-02 0. -1.
    10030    2    1    2    0    0  0.00000000000E+00  0.00000000000E+00 -0.28215010182E+03  0.31101574453E+04  0.30973328291E+04 0.  0.
        2    1    3    3  502    0  0.15463033683E+04 -0.38281569280E+02 -0.21786441725E+03  0.15620449705E+04  0.25500000920E-02 0. -1.
       -2    1    3    3    0  502 -0.15463033683E+04  0.38281569280E+02 -0.64285684573E+02  0.15481124748E+04  0.25500000920E-02 0.  1.
</event>
<event>
 5   0  0.3935852E-07  0.3098189E+04  0.7818609E-02  0.8216235E-01
        1   -1    0    0  501    0  0.00000000000E+00  0.00000000000E+00  0.11410564818E+04  0.11410564818E+04  0.50400001928E-02 0. -1.
       -1   -1    0    0    0  501  0.00000000000E+00  0.00000000000E+00 -0.21030455065E+04  0.21030455065E+04  0.50400001928E-02 0.  1.
    10030    2    1    2    0    0  0.00000000000E+00  0.00000000000E+00 -0.96198902471E+03  0.32441019882E+04  0.30981889591E+04 0.  0.
        5    1    3    3  502    0 -0.41191539387E+03  0.14163963073E+04  0.14381420962E+02  0.14751548075E+04  0.46999998093E+01 0. -1.
       -5    1    3    3    0  502  0.41191539387E+03 -0.14163963073E+04 -0.97637044567E+03  0.17689471807E+04  0.46999998093E+01 0.  1.
</event>
<event>
 5   0  0.4330395E-07  0.3111217E+04  0.7818609E-02  0.8212666E-01
       -1   -1    0    0    0  501  0.00000000000E+00  0.00000000000E+00  0.12545265670E+04  0.12545265670E+04  0.50400001928E-02 0. -1.
        1   -1    0    0  501    0  0.00000000000E+00  0.00000000000E+00 -0.19289493019E+04  0.19289493019E+04  0.50400001928E-02 0.  1.
    10030    2    1    2    0    0  0.00000000000E+00  0.00000000000E+00 -0.67442273490E+03  0.31834758689E+04  0.31112172188E+04 0.  0.
        1    1    3    3  502    0  0.25845264993E+03  0.46759891997E+03 -0.18321260976E+04  0.19084372035E+04  0.50400001928E-02 0.  1.
       -1    1    3    3    0  502 -0.25845264993E+03 -0.46759891997E+03  0.11577033627E+04  0.12750386654E+04  0.50400001928E-02 0. -1.
</event>
<event>
 5   0  0.1258262E-06  0.3101967E+04  0.7818609E-02  0.8215198E-01
        2   -1    0    0  501    0  0.00000000000E+00  0.00000000000E+00  0.15790109301E+04  0.15790109301E+04  0.25500000920E-02 0.  1.
       -2   -1    0    0    0  501  0.00000000000E+00  0.00000000000E+00 -0.15234537919E+04  0.15234537919E+04  0.25500000920E-02 0. -1.
    10030    2    1    2    0    0  0.00000000000E+00  0.00000000000E+00  0.55557138195E+02  0.31024647221E+04  0.31019672397E+04 0.  0.
        1    1    3    3  502    0  0.75149695224E+03 -0.10171200613E+04  0.92584757236E+03  0.15673144597E+04  0.50400001928E-02 0.  1.
       -1    1    3    3    0  502 -0.75149695224E+03  0.10171200613E+04 -0.87029043416E+03  0.15351502624E+04  0.50400001928E-02 0. -1.
</event>
<event>
 5   0  0.1237580E-06  0.3111111E+04  0.7818609E-02  0.8212695E-01
       -2   -1    0    0    0  501  0.00000000000E+00  0.00000000000E+00  0.10447720166E+04  0.10447720166E+04  0.25500000920E-02 0.  1.
        2   -1    0    0  501    0  0.00000000000E+00  0.00000000000E+00 -0.23160579656E+04  0.23160579656E+04  0.25500000920E-02 0. -1.
    10030    2    1    2    0    0  0.00000000000E+00  0.00000000000E+00 -0.12712859490E+04  0.33608299822E+04  0.31111107671E+04 0.  0.
        4    1    3    3  502    0 -0.13268828919E+04  0.62870652355E+03 -0.80738103998E+02  0.14705136368E+04  0.12699999809E+01 0.  1.
       -4    1    3    3    0  502  0.13268828919E+04 -0.62870652355E+03 -0.11905478450E+04  0.18903163454E+04  0.12699999809E+01 0. -1.
</event>
<event>
 5   0  0.3902375E-07  0.3066297E+04  0.7818609E-02  0.8225049E-01
        4   -1    0    0  501    0  0.00000000000E+00  0.00000000000E+00  0.22866127740E+04  0.22866131267E+04  0.12699999809E+01 0.  1.
       -4   -1    0    0    0  501  0.00000000000E+00  0.00000000000E+00 -0.10279580111E+04  0.10279587956E+04  0.12699999809E+01 0. -1.
    10030    2    1    2    0    0  0.00000000000E+00  0.00000000000E+00  0.12586547629E+04  0.33145719223E+04  0.30662966614E+04 0.  0.
        2    1    3    3  502    0  0.53097906422E+03 -0.15556669694E+03  0.21749257201E+04  0.22442017850E+04  0.25500000920E-02 0.  1.
       -2    1    3    3    0  502 -0.53097906422E+03  0.15556669694E+03 -0.91627095717E+03  0.10703701373E+04  0.25500000920E-02 0. -1.
</event>
<event>
 5   0  0.1193123E-06  0.3085155E+04  0.7818609E-02  0.8219824E-01
        2   -1    0    0  501    0  0.00000000000E+00  0.00000000000E+00  0.15105489193E+04  0.15105489193E+04  0.25500000920E-02 0.  1.
       -2   -1    0    0    0  501  0.00000000000E+00  0.00000000000E+00 -0.15752856073E+04  0.15752856073E+04  0.25500000920E-02 0. -1.
    10030    2    1    2    0    0  0.00000000000E+00  0.00000000000E+00 -0.64736687950E+02  0.30858345266E+04  0.30851554072E+04 0.  0.
        3    1    3    3  502    0  0.11075952468E+04 -0.10732004694E+04 -0.64304720154E+02  0.15435872458E+04  0.10100000352E+00 0. -1.
       -3    1    3    3    0  502 -0.11075952468E+04  0.10732004694E+04 -0.43196779640E+00  0.15422472808E+04  0.10100000352E+00 0.  1.
</event>
<event>
 5   0  0.1237580E-06  0.3104944E+04  0.7818609E-02  0.8214382E-01
       -2   -1    0    0    0  501  0.00000000000E+00  0.00000000000E+00  0.14739308857E+04  0.14739308857E+04  0.25500000920E-02 0.  1.
        2   -1    0    0  501    0  0.00000000000E+00  0.00000000000E+00 -0.16351987853E+04  0.16351987853E+04  0.25500000920E-02 0. -1.
    10030    2    1    2    0    0  0.00000000000E+00  0.00000000000E+00 -0.16126789966E+03  0.31091296710E+04  0.31049444400E+04 0.  0.
        4    1    3    3  502    0  0.27473208449E+03  0.13548774912E+04  0.62671587563E+03  0.15178752044E+04  0.12699999809E+01 0.  1.
       -4    1    3    3    0  502 -0.27473208449E+03 -0.13548774912E+04 -0.78798377529E+03  0.15912544666E+04  0.12699999809E+01 0. -1.
</event>
<event>
 5   0  0.3935852E-07  0.3104969E+04  0.7818609E-02  0.8214376E-01
        1   -1    0    0  501    0  0.00000000000E+00  0.00000000000E+00  0.13497873908E+04  0.13497873909E+04  0.50400001928E-02 0.  1.
       -1   -1    0    0    0  501  0.00000000000E+00  0.00000000000E+00 -0.17856200250E+04  0.17856200250E+04  0.50400001928E-02 0. -1.
    10030    2    1    2    0    0  0.00000000000E+00  0.00000000000E+00 -0.43583263420E+03  0.31354074159E+04  0.31049685310E+04 0.  0.
        5    1    3    3  502    0 -0.18979445105E+03  0.13017650875E+04 -0.10503587426E+04  0.16834161265E+04  0.46999998093E+01 0. -1.
       -5    1    3    3    0  502  0.18979445105E+03 -0.13017650875E+04  0.61452610840E+03  0.14519912894E+04  0.46999998093E+01 0.  1.
</event>
<event>
 5   0  0.4134019E-07  0.3093666E+04  0.7818609E-02  0.8217478E-01
       -1   -1    0    0    0  501  0.00000000000E+00  0.00000000000E+00  0.12943844060E+04  0.12943844060E+04  0.50400001928E-02 0.  1.
        1   -1    0    0  501    0  0.00000000000E+00  0.00000000000E+00 -0.18485174707E+04  0.18485174707E+04  0.50400001928E-02 0. -1.
    10030    2    1    2    0    0  0.00000000000E+00  0.00000000000E+00 -0.55413306471E+03  0.31429018766E+04  0.30936659084E+04 0.  0.
        2    1    3    3  502    0 -0.50801486905E+03 -0.12737073673E+04 -0.10041968004E+04  0.16996531348E+04  0.25500000920E-02 0.  1.
       -2    1    3    3    0  502  0.50801486905E+03  0.12737073673E+04  0.45006373565E+03  0.14432487419E+04  0.25500000920E-02 0. -1.
</event>
<event>
 5   0  0.1237580E-06  0.3108309E+04  0.7818609E-02  0.8213461E-01
       -2   -1    0    0    0  501  0.00000000000E+00  0.00000000000E+00  0.18452553779E+04  0.18452553779E+04  0.25500000920E-02 0. -1.
        2   -1    0    0  501    0  0.00000000000E+00  0.00000000000E+00 -0.13089766032E+04  0.13089766032E+04  0.25500000920E-02 0.  1.
    10030    2    1    2    0    0  0.00000000000E+00  0.00000000000E+00  0.53627877467E+03  0.31542319811E+04  0.31083089400E+04 0.  0.
        4    1    3    3  502    0 -0.49665988845E+03  0.10564922973E+04  0.13092342469E+04  0.17541217019E+04  0.12699999809E+01 0. -1.
       -4    1    3    3    0  502  0.49665988845E+03 -0.10564922973E+04 -0.77295547225E+03  0.14001102792E+04  0.12699999809E+01 0.  1.
</event>
<event>
 5   0  0.1193123E-06  0.3090187E+04  0.7818609E-02  0.8218436E-01
        2   -1    0    0  501    0  0.00000000000E+00  0.00000000000E+00  0.17543826559E+04  0.17543826559E+04  0.25500000920E-02 0.  1.
       -2   -1    0    0    0  501  0.00000000000E+00  0.00000000000E+00 -0.13607717343E+04  0.13607717343E+04  0.25500000920E-02 0. -1.
    10030    2    1    2    0    0  0.00000000000E+00  0.00000000000E+00  0.39361092160E+03  0.31151543901E+04  0.30901872624E+04 0.  0.
        3    1    3    3  502    0  0.13296449494E+04 -0.75794419006E+03  0.41036426850E+03  0.15845611158E+04  0.10100000352E+00 0.  1.
       -3    1    3    3    0  502 -0.13296449494E+04  0.75794419006E+03 -0.16753346900E+02  0.15305932743E+04  0.10100000352E+00 0. -1.
</event>
<event>
 5   0  0.3902375E-07  0.3105531E+04  0.7818609E-02  0.8214222E-01
       -3   -1    0    0    0  501  0.00000000000E+00  0.00000000000E+00  0.95787856564E+03  0.95787857096E+03  0.10100000352E+00 0. -1.
        3   -1    0    0  501    0  0.00000000000E+00  0.00000000000E+00 -0.25171050467E+04  0.25171050487E+04  0.10100000352E+00 0.  1.
    10030    2    1    2    0    0  0.00000000000E+00  0.00000000000E+00 -0.15592264811E+04  0.34749836197E+04  0.31055311845E+04 0.  0.
        3    1    3    3  502    0  0.14675519198E+04  0.45903295703E+03 -0.53790343631E+03  0.16290365281E+04  0.10100000352E+00 0. -1.
       -3    1    3    3    0  502 -0.14675519198E+04 -0.45903295703E+03 -0.10213230448E+04  0.18459470916E+04  0.10100000352E+00 0.  1.
</event>
<event>
 5   0  0.1176002E-06  0.3095771E+04  0.7818609E-02  0.8216900E-01
        2   -1    0    0  501    0  0.00000000000E+00  0.00000000000E+00  0.11694399327E+04  0.11694399327E+04  0.25500000920E-02 0. -1.
       -2   -1    0    0    0  501  0.00000000000E+00  0.00000000000E+00 -0.20488006089E+04  0.20488006089E+04  0.25500000920E-02 0.  1.
    10030    2    1    2    0    0  0.00000000000E+00  0.00000000000E+00 -0.87936067620E+03  0.32182405416E+04  0.30957708224E+04 0.  0.
        2    1    3    3  502    0 -0.32967666793E+03  0.39719490114E+03  0.10773294875E+04  0.11946084378E+04  0.25500000920E-02 0. -1.
       -2    1    3    3    0  502  0.32967666793E+03 -0.39719490114E+03 -0.19566901637E+04  0.20236321039E+04  0.25500000920E-02 0.  1.
</event>
<event>
 5   0  0.1237580E-06  0.3076711E+04  0.7818609E-02  0.8222159E-01
       -2   -1    0    0    0  501  0.00000000000E+00  0.00000000000E+00  0.14230966943E+04  0.14230966943E+04  0.25500000920E-02 0. -1.
        2   -1    0    0  501    0  0.00000000000E+00  0.00000000000E+00 -0.16629490191E+04  0.16629490191E+04  0.25500000920E-02 0.  1.
    10030    2    1    2    0    0  0.00000000000E+00  0.00000000000E+00 -0.23985232478E+03  0.30860457134E+04  0.30767107448E+04 0.  0.
        4    1    3    3  502    0  0.13620773959E+04  0.29714921497E+03  0.53241866110E+03  0.14923215914E+04  0.12699999809E+01 0. -1.
       -4    1    3    3    0  502 -0.13620773959E+04 -0.29714921497E+03 -0.77227098588E+03  0.15937241220E+04  0.12699999809E+01 0.  1.
</event>
<event>
 5   0  0.4330395E-07  0.3093266E+04  0.7818609E-02  0.8217588E-01
        1   -1    0    0  501    0  0.00000000000E+00  0.00000000000E+00  0.13140759424E+04  0.13140759424E+04  0.50400001928E-02 0. -1.
       -1   -1    0    0    0  501  0.00000000000E+00  0.00000000000E+00 -0.18203470970E+04  0.18203470970E+04  0.50400001928E-02 0.  1.
    10030    2    1    2    0    0  0.00000000000E+00  0.00000000000E+00 -0.50627115460E+03  0.31344230394E+04  0.30932664464E+04 0.  0.
        1    1    3    3  502    0  0.55609003395E+01  0.13226841395E+03 -0.18145953485E+04  0.18194180762E+04  0.50400001928E-02 0.  1.
       -1    1    3    3    0  502 -0.55609003395E+01 -0.13226841395E+03  0.13083241939E+04  0.13150049633E+04  0.50400001928E-02 0. -1.
</event>
<event>
 5   0  0.1176002E-06  0.3105621E+04  0.7818609E-02  0.8214197E-01
        2   -1    0    0  501    0  0.00000000000E+00  0.00000000000E+00  0.11824526441E+04  0.11824526441E+04  0.25500000920E-02 0.  1.
       -2   -1    0    0    0  501  0.00000000000E+00  0.00000000000E+00 -0.20391687374E+04  0.20391687374E+04  0.25500000920E-02 0. -1.
    10030    2    1    2    0    0  0.00000000000E+00  0.00000000000E+00 -0.85671609329E+03  0.32216213815E+04  0.31056210106E+04 0.  0.
        2    1    3    3  502    0 -0.15002975866E+04  0.36368774156E+03 -0.25459359801E+03  0.15646020331E+04  0.25500000920E-02 0.  1.
       -2    1    3    3    0  502  0.15002975866E+04 -0.36368774156E+03 -0.60212249529E+03  0.16570193484E+04  0.25500000920E-02 0. -1.
</event>
<event>
 5   0  0.3935852E-07  0.3099065E+04  0.7818609E-02  0.8215994E-01
        1   -1    0    0  501    0  0.00000000000E+00  0.00000000000E+00  0.22720293266E+04  0.22720293266E+04  0.50400001928E-02 0. -1.
       -1   -1    0    0    0  501  0.00000000000E+00  0.00000000000E+00 -0.10567872437E+04  0.10567872437E+04  0.50400001928E-02 0.  1.
    10030    2    1    2    0    0  0.00000000000E+00  0.00000000000E+00  0.12152420829E+04  0.33288165703E+04  0.30990654138E+04 0.  0.
        5    1    3    3  502    0 -0.10963238917E+04 -0.29696228452E+03 -0.52451834004E+03  0.12511012161E+04  0.46999998093E+01 0.  1.
       -5    1    3    3    0  502  0.10963238917E+04  0.29696228452E+03  0.17397604230E+04  0.20777153542E+04  0.46999998093E+01 0. -1.
</event>
<event>
 5   0  0.4173905E-07  0.3095115E+04  0.7818609E-02  0.8217080E-01
        1   -1    0    0  501    0  0.00000000000E+00  0.00000000000E+00  0.11140392039E+04  0.11140392040E+04  0.50400001928E-02 0.  1.
       -1   -1    0    0    0  501  0.00000000000E+00  0.00000000000E+00 -0.21497751375E+04  0.21497751375E+04  0.50400001928E-02 0. -1.
    10030    2    1    2    0    0  0.00000000000E+00  0.00000000000E+00 -0.10357359335E+04  0.32638143414E+04  0.30951147202E+04 0.  0.
        3    1    3    3  502    0  0.72087023928E+03 -0.75115771991E+03  0.68954820917E+03  0.12487467978E+04  0.10100000352E+00 0.  1.
       -3    1    3    3    0  502 -0.72087023928E+03  0.75115771991E+03 -0.17252841427E+04  0.20150675436E+04  0.10100000352E+00 0. -1.
</event>
<event>
 5   0  0.1200286E-06  0.3073792E+04  0.7818609E-02  0.8222968E-01
       -2   -1    0    0    0  501  0.00000000000E+00  0.00000000000E+00  0.14048086726E+04  0.14048086726E+04  0.25500000920E-02 0.  1.
        2   -1    0    0  501    0  0.00000000000E+00  0.00000000000E+00 -0.16814023464E+04  0.16814023464E+04  0.25500000920E-02 0. -1.
    10030    2    1    2    0    0  0.00000000000E+00  0.00000000000E+00 -0.27659367381E+03  0.30862110191E+04  0.30737915339E+04 0.  0.
        5    1    3    3  502    0 -0.61570676906E+03  0.14539569691E+03 -0.15445958179E+04  0.16691414154E+04  0.46999998093E+01 0. -1.
       -5    1    3    3    0  502  0.61570676906E+03 -0.14539569691E+03  0.12680021441E+04  0.14170696036E+04  0.46999998093E+01 0.  1.
</event>
<event>
 5   0  0.3935852E-07  0.3102444E+04  0.7818609E-02  0.8215067E-01
        1   -1    0    0  501    0  0.00000000000E+00  0.00000000000E+00  0.19124190835E+04  0.19124190835E+04  0.50400001928E-02 0.  1.
       -1   -1    0    0    0  501  0.00000000000E+00  0.00000000000E+00 -0.12582439900E+04  0.12582439900E+04  0.50400001928E-02 0. -1.
    10030    2    1    2    0    0  0.00000000000E+00  0.00000000000E+00  0.65417509350E+03  0.31706630736E+04  0.31024440806E+04 0.  0.
        5    1    3    3  502    0  0.10819947358E+04 -0.29618823780E+03  0.14220128017E+04  0.18112378581E+04  0.46999998093E+01 0.  1.
       -5    1    3    3    0  502 -0.10819947358E+04  0.29618823780E+03 -0.76783770817E+03  0.13594252155E+04  0.46999998093E+01 0. -1.
</event>
<event>
 5   0  0.1193123E-06  0.3114677E+04  0.7818609E-02  0.8211722E-01
       -2   -1    0    0    0  501  0.00000000000E+00  0.00000000000E+00  0.17856268310E+04  0.17856268310E+04  0.25500000920E-02 0. -1.
        2   -1    0    0  501    0  0.00000000000E+00  0.00000000000E+00 -0.13582359227E+04  0.13582359227E+04  0.25500000920E-02 0.  1.
    10030    2    1    2    0    0  0.00000000000E+00  0.00000000000E+00  0.42739090829E+03  0.31438627537E+04  0.31146765523E+04 0.  0.
        3    1    3    3  502    0  0.97658380099E+03 -0.36290259011E+03  0.13820776224E+04  0.17307665281E+04  0.10100000352E+00 0. -1.
       -3    1    3    3    0  502 -0.97658380099E+03  0.36290259011E+03 -0.95468671413E+03  0.14130962255E+04  0.10100000352E+00 0.  1.
</event>
<event>
 5   0  0.4330395E-07  0.3106604E+04  0.7818609E-02  0.8213928E-01
       -1   -1    0    0    0  501  0.00000000000E+00  0.00000000000E+00  0.16592910319E+04  0.16592910319E+04  0.50400001928E-02 0.  1.
        1   -1    0    0  501    0  0.00000000000E+00  0.00000000000E+00 -0.14540832807E+04  0.14540832807E+04  0.50400001928E-02 0. -1.
    10030    2    1    2    0    0  0.00000000000E+00  0.00000000000E+00  0.20520775119E+03  0.31133743127E+04  0.31066041572E+04 0.  0.
        1    1    3    3  502    0 -0.40003179928E+03 -0.12456461610E+04 -0.73653056419E+03  0.15013783903E+04  0.50400001928E-02 0.  1.
       -1    1    3    3    0  502  0.40003179928E+03  0.12456461610E+04  0.94173831538E+03  0.16119959223E+04  0.50400001928E-02 0. -1.
</event>
<event>
 5   0  0.3935852E-07  0.3134609E+04  0.7818609E-02  0.8206303E-01
        1   -1    0    0  501    0  0.00000000000E+00  0.00000000000E+00  0.23986622679E+04  0.23986622680E+04  0.50400001928E-02 0. -1.
       -1   -1    0    0    0  501  0.00000000000E+00  0.00000000000E+00 -0.10240891382E+04  0.10240891382E+04  0.50400001928E-02 0.  1.
    10030    2    1    2    0    0  0.00000000000E+00  0.00000000000E+00  0.13745731298E+04  0.34227514062E+04  0.31346093695E+04 0.  0.
        5    1    3    3  502    0  0.57837382051E+03 -0.12148060833E+04  0.15650130547E+04  0.20638696780E+04  0.46999998093E+01 0. -1.
       -5    1    3    3    0  502 -0.57837382051E+03  0.12148060833E+04 -0.19043992492E+03  0.13588817282E+04  0.46999998093E+01 0.  1.
</event>
<event>
 5   0  0.1193123E-06  0.3095693E+04  0.7818609E-02  0.8216921E-01
       -2   -1    0    0    0  501  0.00000000000E+00  0.00000000000E+00  0.12164813253E+04  0.12164813253E+04  0.25500000920E-02 0. -1.
        2   -1    0    0  501    0  0.00000000000E+00  0.00000000000E+00 -0.19694749471E+04  0.19694749471E+04  0.25500000920E-02 0.  1.
    10030    2    1    2    0    0  0.00000000000E+00  0.00000000000E+00 -0.75299362178E+03  0.31859562725E+04  0.30956934563E+04 0.  0.
        3    1    3    3  502    0 -0.47897731686E+03  0.10072245339E+04 -0.14810609475E+04  0.18540393934E+04  0.10100000352E+00 0.  1.
       -3    1    3    3    0  502  0.47897731686E+03 -0.10072245339E+04  0.72806732576E+03  0.13319168791E+04  0.10100000352E+00 0. -1.
</event>
<event>
 5   0  0.1200286E-06  0.3098233E+04  0.7818609E-02  0.8216223E-01
        2   -1    0    0  501    0  0.00000000000E+00  0.00000000000E+00  0.12682105660E+04  0.12682105660E+04  0.25500000920E-02 0.  1.
       -2   -1    0    0    0  501  0.00000000000E+00  0.00000000000E+00 -0.18922423565E+04  0.18922423565E+04  0.25500000920E-02 0. -1.
    10030    2    1    2    0    0  0.00000000000E+00  0.00000000000E+00 -0.62403179052E+03  0.31604529225E+04  0.30982328834E+04 0.  0.
        5    1    3    3  502    0 -0.67830056760E+02 -0.95833013163E+02 -0.18876899010E+04  0.18913434737E+04  0.46999998093E+01 0. -1.
       -5    1    3    3    0  502  0.67830056760E+02  0.95833013163E+02  0.12636581105E+04  0.12691094489E+04  0.46999998093E+01 0.  1.
</event>
<event>
 5   0  0.1200286E-06  0.3094042E+04  0.7818609E-02  0.8217375E-01
        2   -1    0    0  501    0  0.00000000000E+00  0.00000000000E+00  0.15391144758E+04  0.15391144758E+04  0.25500000920E-02 0.  1.
       -2   -1    0    0    0  501  0.00000000000E+00  0.00000000000E+00 -0.15549679143E+04  0.15549679143E+04  0.25500000920E-02 0. -1.
    10030    2    1    2    0    0  0.00000000000E+00  0.00000000000E+00 -0.15853438435E+02  0.30940823901E+04  0.30940417749E+04 0.  0.
        5    1    3    3  502    0 -0.47638157808E+03 -0.11610091906E+04 -0.91257652610E+03  0.15516764336E+04  0.46999998093E+01 0. -1.
       -5    1    3    3    0  502  0.47638157808E+03  0.11610091906E+04  0.89672308767E+03  0.15424059565E+04  0.46999998093E+01 0.  1.
</event>
<event>
 5   0  0.4219337E-07  0.3095442E+04  0.7818609E-02  0.8216990E-01
        1   -1    0    0  501    0  0.00000000000E+00  0.00000000000E+00  0.16425970704E+04  0.16425970704E+04  0.50400001928E-02 0.  1.
       -1   -1    0    0    0  501  0.00000000000E+00  0.00000000000E+00 -0.14583245150E+04  0.14583245150E+04  0.50400001928E-02 0. -1.
    10030    2    1    2    0    0  0.00000000000E+00  0.00000000000E+00  0.18427255542E+03  0.31009215854E+04  0.30954415363E+04 0.  0.
        4    1    3    3  502    0 -0.77925316739E+03 -0.10306478549E+04 -0.76140937890E+03  0.14997387622E+04  0.12699999809E+01 0. -1.
       -4    1    3    3    0  502  0.77925316739E+03  0.10306478549E+04  0.94568193433E+03  0.16011828232E+04  0.12699999809E+01 0.  1.
</event>
<event>
 5   0  0.3902375E-07  0.3105034E+04  0.7818609E-02  0.8214358E-01
       -3   -1    0    0    0  501  0.00000000000E+00  0.00000000000E+00  0.18728350859E+04  0.18728350886E+04  0.10100000352E+00 0. -1.
        3   -1    0    0  501    0  0.00000000000E+00  0.00000000000E+00 -0.12869842825E+04  0.12869842864E+04  0.10100000352E+00 0.  1.
    10030    2    1    2    0    0  0.00000000000E+00  0.00000000000E+00  0.58585080347E+03  0.31598193751E+04  0.31050341897E+04 0.  0.
        4    1    3    3  502    0 -0.36790350871E+02  0.63845197354E+03 -0.11467201448E+04  0.13129901583E+04  0.12699999809E+01 0.  1.
       -4    1    3    3    0  502  0.36790350871E+02 -0.63845197354E+03  0.17325709482E+04  0.18468292168E+04  0.12699999809E+01 0. -1.
</event>
<event>
 5   0  0.4219337E-07  0.3038497E+04  0.7818609E-02  0.8232822E-01
       -1   -1    0    0    0  501  0.00000000000E+00  0.00000000000E+00  0.11007097087E+04  0.11007097088E+04  0.50400001928E-02 0.  1.
        1   -1    0    0  501    0  0.00000000000E+00  0.00000000000E+00 -0.20969344640E+04  0.20969344640E+04  0.50400001928E-02 0. -1.
    10030    2    1    2    0    0  0.00000000000E+00  0.00000000000E+00 -0.99622475528E+03  0.31976441728E+04  0.30384970779E+04 0.  0.
        4    1    3    3  502    0 -0.95625483050E+03 -0.60639443792E+03 -0.15640704509E+04  0.19309208952E+04  0.12699999809E+01 0. -1.
       -4    1    3    3    0  502  0.95625483050E+03  0.60639443792E+03  0.56784569558E+03  0.12667232776E+04  0.12699999809E+01 0.  1.
</event>
<event>
 5   0  0.4173905E-07  0.3038440E+04  0.7818609E-02  0.8232839E-01
       -1   -1    0    0    0  501  0.00000000000E+00  0.00000000000E+00  0.16826061853E+04  0.16826061853E+04  0.50400001928E-02 0. -1.
        1   -1    0    0  501    0  0.00000000000E+00  0.00000000000E+00 -0.13716987867E+04  0.13716987867E+04  0.50400001928E-02 0.  1.
    10030    2    1    2    0    0  0.00000000000E+00  0.00000000000E+00  0.31090739866E+03  0.30543049720E+04  0.30384396409E+04 0.  0.
        3    1    3    3  502    0  0.21357345331E+03  0.35258074454E+03  0.16253137988E+04  0.16767742114E+04  0.10100000352E+00 0. -1.
       -3    1    3    3    0  502 -0.21357345331E+03 -0.35258074454E+03 -0.13144064001E+04  0.13775307606E+04  0.10100000352E+00 0.  1.
</event>
<event>
 5   0  0.4330395E-07  0.3082067E+04  0.7818609E-02  0.8220677E-01
       -1   -1    0    0    0  501  0.00000000000E+00  0.00000000000E+00  0.22346415295E+04  0.22346415295E+04  0.50400001928E-02 0.  1.
        1   -1    0    0  501    0  0.00000000000E+00  0.00000000000E+00 -0.10627138995E+04  0.10627138995E+04  0.50400001928E-02 0. -1.
    10030    2    1    2    0    0  0.00000000000E+00  0.00000000000E+00  0.11719276300E+04  0.32973554290E+04  0.30820672373E+04 0.  0.
        1    1    3    3  502    0 -0.19609057397E+03  0.66395951644E+03  0.20589019342E+04  0.21721811452E+04  0.50400001928E-02 0.  1.
       -1    1    3    3    0  502  0.19609057397E+03 -0.66395951644E+03 -0.88697430419E+03  0.11251742838E+04  0.50400001928E-02 0. -1.
</event>
<event>
 5   0  0.1193123E-06  0.3104440E+04  0.7818609E-02  0.8214521E-01
       -2   -1    0    0    0  501  0.00000000000E+00  0.00000000000E+00  0.14466608870E+04  0.14466608870E+04  0.25500000920E-02 0.  1.
        2   -1    0    0  501    0  0.00000000000E+00  0.00000000000E+00 -0.16654811014E+04  0.16654811014E+04  0.25500000920E-02 0. -1.
    10030    2    1    2    0    0  0.00000000000E+00  0.00000000000E+00 -0.21882021439E+03  0.31121419884E+04  0.31044396386E+04 0.  0.
        3    1    3    3  502    0  0.29604887532E+03  0.14123244699E+04  0.46391881336E+03  0.15157592225E+04  0.10100000352E+00 0.  1.
       -3    1    3    3    0  502 -0.29604887532E+03 -0.14123244699E+04 -0.68273902775E+03  0.15963827659E+04  0.10100000352E+00 0. -1.
</event>
<event>
 5   0  0.1200286E-06  0.3116350E+04  0.7818609E-02  0.8211265E-01
       -2   -1    0    0    0  501  0.00000000000E+00  0.00000000000E+00  0.10203531079E+04  0.10203531079E+04  0.25500000920E-02 0. -1.
        2   -1    0    0  501    0  0.00000000000E+00  0.00000000000E+00 -0.23794792782E+04  0.23794792782E+04  0.25500000920E-02 0.  1.
    10030    2    1    2    0    0  0.00000000000E+00  0.00000000000E+00 -0.13591261703E+04  0.33998323862E+04  0.31163498371E+04 0.  0.
        5    1    3    3  502    0 -0.71349728182E+03  0.22682169308E+03 -0.21703837005E+04  0.22958906658E+04  0.46999998093E+01 0.  1.
       -5    1    3    3    0  502  0.71349728182E+03 -0.22682169308E+03  0.81125753026E+03  0.11039417204E+04  0.46999998093E+01 0. -1.
</event>
<event>
 5   0  0.1200286E-06  0.3104560E+04  0.7818609E-02  0.8214488E-01
       -2   -1    0    0    0  501  0.00000000000E+00  0.00000000000E+00  0.11066685439E+04  0.11066685439E+04  0.25500000920E-02 0.  1.
        2   -1    0    0  501    0  0.00000000000E+00  0.00000000000E+00 -0.21773212737E+04  0.21773212737E+04  0.25500000920E-02 0. -1.
    10030    2    1    2    0    0  0.00000000000E+00  0.00000000000E+00 -0.10706527297E+04  0.32839898176E+04  0.31045598487E+04 0.  0.
        5    1    3    3  502    0 -0.60496653646E+03 -0.54024814828E+03 -0.19353372742E+04  0.20984291808E+04  0.46999998093E+01 0.  1.
       -5    1    3    3    0  502  0.60496653646E+03  0.54024814828E+03  0.86468454449E+03  0.11855606368E+04  0.46999998093E+01 0. -1.
</event>
<event>
 5   0  0.4330395E-07  0.3111391E+04  0.7818609E-02  0.8212619E-01
       -1   -1    0    0    0  501  0.00000000000E+00  0.00000000000E+00  0.10935402467E+04  0.10935402467E+04  0.50400001928E-02 0. -1.
        1   -1    0    0  501    0  0.00000000000E+00  0.00000000000E+00 -0.22131684350E+04  0.22131684350E+04  0.50400001928E-02 0.  1.
    10030    2    1    2    0    0  0.00000000000E+00  0.00000000000E+00 -0.11196281883E+04  0.33067086817E+04  0.31113911721E+04 0.  0.
        1    1    3    3  502    0  0.94283641171E+03 -0.76323423827E+03  0.47535369580E+03  0.13028538436E+04  0.50400001928E-02 0. -1.
       -1    1    3    3    0  502 -0.94283641171E+03  0.76323423827E+03 -0.15949818841E+04  0.20038548381E+04  0.50400001928E-02 0.  1.
</event>
<event>
 5   0  0.1258262E-06  0.3095290E+04  0.7818609E-02  0.8217032E-01
        2   -1    0    0  501    0  0.00000000000E+00  0.00000000000E+00  0.20236707238E+04  0.20236707238E+04  0.25500000920E-02 0. -1.
       -2   -1    0    0    0  501  0.00000000000E+00  0.00000000000E+00 -0.11835940247E+04  0.11835940247E+04  0.25500000920E-02 0.  1.
    10030    2    1    2    0    0  0.00000000000E+00  0.00000000000E+00  0.84007669910E+03  0.32072647484E+04  0.30952896967E+04 0.  0.
        1    1    3    3  502    0 -0.12925448802E+04 -0.66759824581E+03 -0.12712229827E+03  0.14603149536E+04  0.50400001928E-02 0.  1.
       -1    1    3    3    0  502  0.12925448802E+04  0.66759824581E+03  0.96719899737E+03  0.17469497948E+04  0.50400001928E-02 0. -1.
</event>
<event>
 5   0  0.1258262E-06  0.3096662E+04  0.7818609E-02  0.8216655E-01
       -2   -1    0    0    0  501  0.00000000000E+00  0.00000000000E+00  0.13703079649E+04  0.13703079649E+04  0.25500000920E-02 0.  1.
        2   -1    0    0  501    0  0.00000000000E+00  0.00000000000E+00 -0.17494816074E+04  0.17494816074E+04  0.25500000920E-02 0. -1.
    10030    2    1    2    0    0  0.00000000000E+00  0.00000000000E+00 -0.37917364252E+03  0.31197895724E+04  0.30966618034E+04 0.  0.
        1    1    3    3  502    0 -0.13128424230E+02 -0.14589616807E+04  0.33253765332E+03  0.14964367118E+04  0.50400001928E-02 0. -1.
       -1    1    3    3    0  502  0.13128424230E+02  0.14589616807E+04 -0.71171129584E+03  0.16233528606E+04  0.50400001928E-02 0.  1.
</event>
<event>
 5   0  0.4173905E-07  0.3125061E+04  0.7818609E-02  0.8208894E-01
        1   -1    0    0  501    0  0.00000000000E+00  0.00000000000E+00  0.19032685929E+04  0.19032685929E+04  0.50400001928E-02 0.  1.
       -1   -1    0    0    0  501  0.00000000000E+00  0.00000000000E+00 -0.12827937611E+04  0.12827937611E+04  0.50400001928E-02 0. -1.
    10030    2    1    2    0    0  0.00000000000E+00  0.00000000000E+00  0.62047483177E+03  0.31860623540E+04  0.31250606885E+04 0.  0.
        3    1    3    3  502    0  0.14405193990E+04 -0.57110476002E+03  0.10571170967E+03  0.15532004898E+04  0.10100000352E+00 0. -1.
       -3    1    3    3    0  502 -0.14405193990E+04  0.57110476002E+03  0.51476312210E+03  0.16328618643E+04  0.10100000352E+00 0.  1.
</event>
<event>
 5   0  0.1237580E-06  0.3084284E+04  0.7818609E-02  0.8220064E-01
        2   -1    0    0  501    0  0.00000000000E+00  0.00000000000E+00  0.10487942567E+04  0.10487942567E+04  0.25500000920E-02 0. -1.
       -2   -1    0    0    0  501  0.00000000000E+00  0.00000000000E+00 -0.22675587712E+04  0.22675587712E+04  0.25500000920E-02 0.  1.
    10030    2    1    2    0    0  0.00000000000E+00  0.00000000000E+00 -0.12187645145E+04  0.33163530279E+04  0.30842844330E+04 0.  0.
        4    1    3    3  502    0 -0.51673782781E+03 -0.11022143254E+04 -0.16273514404E+04  0.20322816550E+04  0.12699999809E+01 0.  1.
       -4    1    3    3    0  502  0.51673782781E+03  0.11022143254E+04  0.40858692588E+03  0.12840713729E+04  0.12699999809E+01 0. -1.
</event>
<event>
 5   0  0.4134019E-07  0.3099924E+04  0.7818609E-02  0.8215759E-01
        1   -1    0    0  501    0  0.00000000000E+00  0.00000000000E+00  0.21672878761E+04  0.21672878761E+04  0.50400001928E-02 0. -1.
       -1   -1    0    0    0  501  0.00000000000E+00  0.00000000000E+00 -0.11084740043E+04  0.11084740043E+04  0.50400001928E-02 0.  1.
    10030    2    1    2    0    0  0.00000000000E+00  0.00000000000E+00  0.10588138719E+04  0.32757618804E+04  0.30999240445E+04 0.  0.
        2    1    3    3  502    0 -0.48348826316E+03 -0.14673545284E+04  0.39787966015E+03  0.15953678061E+04  0.25500000920E-02 0.  1.
       -2    1    3    3    0  502  0.48348826316E+03  0.14673545284E+04  0.66093421170E+03  0.16803940743E+04  0.25500000920E-02 0. -1.
</event>
<event>
 5   0  0.1176002E-06  0.3125724E+04  0.7818609E-02  0.8208713E-01
       -2   -1    0    0    0  501  0.00000000000E+00  0.00000000000E+00  0.11472391260E+04  0.11472391260E+04  0.25500000920E-02 0. -1.
        2   -1    0    0  501    0  0.00000000000E+00  0.00000000000E+00 -0.21290577958E+04  0.21290577958E+04  0.25500000920E-02 0.  1.
    10030    2    1    2    0    0  0.00000000000E+00  0.00000000000E+00 -0.98181866980E+03  0.32762969218E+04  0.31257244951E+04 0.  0.
        2    1    3    3  502    0 -0.13951479798E+04  0.68498262915E+03 -0.66282014379E+03  0.16896655382E+04  0.25500000920E-02 0.  1.
       -2    1    3    3    0  502  0.13951479798E+04 -0.68498262915E+03 -0.31899852602E+03  0.15866313836E+04  0.25500000920E-02 0. -1.
</event>
<event>
 5   0  0.4330395E-07  0.3089363E+04  0.7818609E-02  0.8218663E-01
       -1   -1    0    0    0  501  0.00000000000E+00  0.00000000000E+00  0.22326385294E+04  0.22326385294E+04  0.50400001928E-02 0.  1.
        1   -1    0    0  501    0  0.00000000000E+00  0.00000000000E+00 -0.10687088860E+04  0.10687088860E+04  0.50400001928E-02 0. -1.
    10030    2    1    2    0    0  0.00000000000E+00  0.00000000000E+00  0.11639296434E+04  0.33013474154E+04  0.30893628052E+04 0.  0.
        1    1    3    3  502    0  0.10213729237E+04 -0.93683855166E+03 -0.14686959416E+03  0.13937143893E+04  0.50400001928E-02 0. -1.
       -1    1    3    3    0  502 -0.10213729237E+04  0.93683855166E+03  0.13107992376E+04  0.19076330261E+04  0.50400001928E-02 0.  1.
</event>
<event>
 5   0  0.1176002E-06  0.3116323E+04  0.7818609E-02  0.8211273E-01
        2   -1    0    0  501    0  0.00000000000E+00  0.00000000000E+00  0.11701805316E+04  0.11701805316E+04  0.25500000920E-02 0. -1.
       -2   -1    0    0    0  501  0.00000000000E+00  0.00000000000E+00 -0.20747795780E+04  0.20747795780E+04  0.25500000920E-02 0.  1.
    10030    2    1    2    0    0  0.00000000000E+00  0.00000000000E+00 -0.90459904632E+03  0.32449601096E+04  0.31163226210E+04 0.  0.
        2    1    3    3  502    0 -0.37000442886E+03 -0.11013643656E+04  0.62880642850E+03  0.13210996434E+04  0.25500000920E-02 0. -1.
       -2    1    3    3    0  502  0.37000442886E+03  0.11013643656E+04 -0.15334054748E+04  0.19238604662E+04  0.25500000920E-02 0.  1.
</event>
<event>
 5   0  0.1200286E-06  0.3089628E+04  0.7818609E-02  0.8218590E-01
       -2   -1    0    0    0  501  0.00000000000E+00  0.00000000000E+00  0.26434036756E+04  0.26434036756E+04  0.25500000920E-02 0.  1.
        2   -1    0    0  501    0  0.00000000000E+00  0.00000000000E+00 -0.90279478410E+03  0.90279478411E+03  0.25500000920E-02 0. -1.
    10030    2    1    2    0    0  0.00000000000E+00  0.00000000000E+00  0.17406088915E+04  0.35461984597E+04  0.30896284894E+04 0.  0.
        5    1    3    3  502    0 -0.87075173607E+03 -0.76290136352E+03 -0.30368589777E+03  0.11968601802E+04  0.46999998093E+01 0. -1.
       -5    1    3    3    0  502  0.87075173607E+03  0.76290136352E+03  0.20442947893E+04  0.23493382796E+04  0.46999998093E+01 0.  1.
</event>
<event>
 5   0  0.1200286E-06  0.3093277E+04  0.7818609E-02  0.8217585E-01
       -2   -1    0    0    0  501  0.00000000000E+00  0.00000000000E+00  0.14800920067E+04  0.14800920067E+04  0.25500000920E-02 0.  1.
        2   -1    0    0  501    0  0.00000000000E+00  0.00000000000E+00 -0.16161774866E+04  0.16161774866E+04  0.25500000920E-02 0. -1.
    10030    2    1    2    0    0  0.00000000000E+00  0.00000000000E+00 -0.13608547987E+03  0.30962694933E+04  0.30932774718E+04 0.  0.
        5    1    3    3  502    0  0.68180399376E+03 -0.53693862655E+03 -0.13494800464E+04  0.16044557520E+04  0.46999998093E+01 0. -1.
       -5    1    3    3    0  502 -0.68180399376E+03  0.53693862655E+03  0.12133945665E+04  0.14918137413E+04  0.46999998093E+01 0.  1.
</event>
<event>
 5   0  0.4134019E-07  0.3111018E+04  0.7818609E-02  0.8212721E-01
       -1   -1    0    0    0  501  0.00000000000E+00  0.00000000000E+00  0.23582628169E+04  0.23582628169E+04  0.50400001928E-02 0. -1.
        1   -1    0    0  501    0  0.00000000000E+00  0.00000000000E+00 -0.10260128338E+04  0.10260128338E+04  0.50400001928E-02 0.  1.
    10030    2    1    2    0    0  0.00000000000E+00  0.00000000000E+00  0.13322499831E+04  0.33842756507E+04  0.31110177857E+04 0.  0.
        2    1    3    3  502    0 -0.79685832328E+03 -0.13344197899E+04  0.59776811735E+03  0.16652285385E+04  0.25500000920E-02 0. -1.
       -2    1    3    3    0  502  0.79685832328E+03  0.13344197899E+04  0.73448186572E+03  0.17190471123E+04  0.25500000920E-02 0.  1.
</event>
<event>
 5   0  0.4173905E-07  0.3097824E+04  0.7818609E-02  0.8216335E-01
        1   -1    0    0  501    0  0.00000000000E+00  0.00000000000E+00  0.20170714504E+04  0.20170714504E+04  0.50400001928E-02 0. -1.
       -1   -1    0    0    0  501  0.00000000000E+00  0.00000000000E+00 -0.11894117533E+04  0.11894117533E+04  0.50400001928E-02 0.  1.
    10030    2    1    2    0    0  0.00000000000E+00  0.00000000000E+00  0.82765969709E+03  0.32064832037E+04  0.30978240688E+04 0.  0.
        3    1    3    3  502    0 -0.15771567994E+03 -0.84751469345E+03 -0.91815368815E+03  0.12594290756E+04  0.10100000352E+00 0.  1.
       -3    1    3    3    0  502  0.15771567994E+03  0.84751469345E+03  0.17458133852E+04  0.19470541281E+04  0.10100000352E+00 0. -1.
</event>
<event>
 5   0  0.4173905E-07  0.3101242E+04  0.7818609E-02  0.8215397E-01
       -1   -1    0    0    0  501  0.00000000000E+00  0.00000000000E+00  0.11717237394E+04  0.11717237394E+04  0.50400001928E-02 0. -1.
        1   -1    0    0  501    0  0.00000000000E+00  0.00000000000E+00 -0.20520410238E+04  0.20520410238E+04  0.50400001928E-02 0.  1.
    10030    2    1    2    0    0  0.00000000000E+00  0.00000000000E+00 -0.88031728436E+03  0.32237647632E+04  0.31012418040E+04 0.  0.
        3    1    3    3  502    0 -0.43482486386E+03  0.53154252068E+03  0.10050244259E+04  0.12172445195E+04  0.10100000352E+00 0. -1.
       -3    1    3    3    0  502  0.43482486386E+03 -0.53154252068E+03 -0.18853417102E+04  0.20065202436E+04  0.10100000352E+00 0.  1.
</event>
<event>
 5   0  0.3935852E-07  0.3107198E+04  0.7818609E-02  0.8213765E-01
       -1   -1    0    0    0  501  0.00000000000E+00  0.00000000000E+00  0.13215555592E+04  0.13215555592E+04  0.50400001928E-02 0. -1.
        1   -1    0    0  501    0  0.00000000000E+00  0.00000000000E+00 -0.18263852524E+04  0.18263852524E+04  0.50400001928E-02 0.  1.
    10030    2    1    2    0    0  0.00000000000E+00  0.00000000000E+00 -0.50482969313E+03  0.31479408116E+04  0.31071978267E+04 0.  0.
        5    1    3    3  502    0 -0.69028912720E+03 -0.56243154120E+03 -0.15422224616E+04  0.17808145688E+04  0.46999998093E+01 0.  1.
       -5    1    3    3    0  502  0.69028912720E+03  0.56243154120E+03  0.10373927684E+04  0.13671262428E+04  0.46999998093E+01 0. -1.
</event>
<event>
 5   0  0.1258262E-06  0.3100916E+04  0.7818609E-02  0.8215487E-01
        2   -1    0    0  501    0  0.00000000000E+00  0.00000000000E+00  0.14345024999E+04  0.14345025000E+04  0.25500000920E-02 0.  1.
       -2   -1    0    0    0  501  0.00000000000E+00  0.00000000000E+00 -0.16757866344E+04  0.16757866344E+04  0.25500000920E-02 0. -1.
    10030    2    1    2    0    0  0.00000000000E+00  0.00000000000E+00 -0.24128413449E+03  0.31102891344E+04  0.31009160688E+04 0.  0.
        1    1    3    3  502    0  0.31417036937E+03  0.14947138475E+04 -0.38799532910E+03  0.15758847935E+04  0.50400001928E-02 0. -1.
       -1    1    3    3    0  502 -0.31417036937E+03 -0.14947138475E+04  0.14671119461E+03  0.15344043409E+04  0.50400001928E-02 0.  1.
</event>
<event>
 5   0  0.3935852E-07  0.3106056E+04  0.7818609E-02  0.8214078E-01
       -1   -1    0    0    0  501  0.00000000000E+00  0.00000000000E+00  0.15356855477E+04  0.15356855477E+04  0.50400001928E-02 0.  1.
        1   -1    0    0  501    0  0.00000000000E+00  0.00000000000E+00 -0.15705663834E+04  0.15705663834E+04  0.50400001928E-02 0. -1.
    10030    2    1    2    0    0  0.00000000000E+00  0.00000000000E+00 -0.34880835694E+02  0.31062519311E+04  0.31060560824E+04 0.  0.
        5    1    3    3  502    0 -0.96811230817E+03  0.40491831623E+03 -0.11623591983E+04  0.15659825286E+04  0.46999998093E+01 0. -1.
       -5    1    3    3    0  502  0.96811230817E+03 -0.40491831623E+03  0.11274783626E+04  0.15402694025E+04  0.46999998093E+01 0.  1.
</event>
<event>
 5   0  0.1258262E-06  0.3101564E+04  0.7818609E-02  0.8215309E-01
       -2   -1    0    0    0  501  0.00000000000E+00  0.00000000000E+00  0.14528974278E+04  0.14528974278E+04  0.25500000920E-02 0. -1.
        2   -1    0    0  501    0  0.00000000000E+00  0.00000000000E+00 -0.16552609290E+04  0.16552609290E+04  0.25500000920E-02 0.  1.
    10030    2    1    2    0    0  0.00000000000E+00  0.00000000000E+00 -0.20236350115E+03  0.31081583568E+04  0.31015636998E+04 0.  0.
        1    1    3    3  502    0  0.82631648379E+03  0.11499523341E+04  0.53240858503E+03  0.15128278830E+04  0.50400001928E-02 0. -1.
       -1    1    3    3    0  502 -0.82631648379E+03 -0.11499523341E+04 -0.73477208618E+03  0.15953304738E+04  0.50400001928E-02 0.  1.
</event>
<event>
 5   0  0.1193123E-06  0.3090660E+04  0.7818609E-02  0.8218306E-01
       -2   -1    0    0    0  501  0.00000000000E+00  0.00000000000E+00  0.10261933925E+04  0.10261933925E+04  0.25500000920E-02 0.  1.
        2   -1    0    0  501    0  0.00000000000E+00  0.00000000000E+00 -0.23270898398E+04  0.23270898398E+04  0.25500000920E-02 0. -1.
    10030    2    1    2    0    0  0.00000000000E+00  0.00000000000E+00 -0.13008964473E+04  0.33532832323E+04  0.30906596172E+04 0.  0.
        3    1    3    3  502    0  0.73758506948E+02 -0.14766806596E+04 -0.11381049528E+04  0.18658266216E+04  0.10100000352E+00 0. -1.
       -3    1    3    3    0  502 -0.73758506948E+02  0.14766806596E+04 -0.16279149448E+03  0.14874566107E+04  0.10100000352E+00 0.  1.
</event>
<event>
 5   0  0.1176002E-06  0.3105221E+04  0.7818609E-02  0.8214307E-01
       -2   -1    0    0    0  501  0.00000000000E+00  0.00000000000E+00  0.11991017268E+04  0.11991017268E+04  0.25500000920E-02 0.  1.
        2   -1    0    0  501    0  0.00000000000E+00  0.00000000000E+00 -0.20103375675E+04  0.20103375675E+04  0.25500000920E-02 0. -1.
    10030    2    1    2    0    0  0.00000000000E+00  0.00000000000E+00 -0.81123584072E+03  0.32094392943E+04  0.31052209253E+04 0.  0.
        2    1    3    3  502    0  0.51942092833E+03  0.99509517018E+03  0.70303688996E+03  0.13244898517E+04  0.25500000920E-02 0.  1.
       -2    1    3    3    0  502 -0.51942092833E+03 -0.99509517018E+03 -0.15142727307E+04  0.18849494427E+04  0.25500000920E-02 0. -1.
</event>
<event>
 5   0  0.4134019E-07  0.3092721E+04  0.7818609E-02  0.8217738E-01
       -1   -1    0    0    0  501  0.00000000000E+00  0.00000000000E+00  0.10458907878E+04  0.10458907878E+04  0.50400001928E-02 0.  1.
        1   -1    0    0  501    0  0.00000000000E+00  0.00000000000E+00 -0.22863097142E+04  0.22863097142E+04  0.50400001928E-02 0. -1.
    10030    2    1    2    0    0  0.00000000000E+00  0.00000000000E+00 -0.12404189264E+04  0.33322005020E+04  0.30927206587E+04 0.  0.
        2    1    3    3  502    0  0.12512601870E+04 -0.81444609829E+03 -0.18620869427E+03  0.15045425154E+04  0.25500000920E-02 0.  1.
       -2    1    3    3    0  502 -0.12512601870E+04  0.81444609829E+03 -0.10542102321E+04  0.18276579867E+04  0.25500000920E-02 0. -1.
</event>
<event>
 5   0  0.1200286E-06  0.3103890E+04  0.7818609E-02  0.8214671E-01
        2   -1    0    0  501    0  0.00000000000E+00  0.00000000000E+00  0.18474872993E+04  0.18474872993E+04  0.25500000920E-02 0. -1.
       -2   -1    0    0    0  501  0.00000000000E+00  0.00000000000E+00 -0.13036807066E+04  0.13036807066E+04  0.25500000920E-02 0.  1.
    10030    2    1    2    0    0  0.00000000000E+00  0.00000000000E+00  0.54380659269E+03  0.31511680059E+04  0.31038901706E+04 0.  0.
        5    1    3    3  502    0 -0.11915909969E+04 -0.53886394926E+03 -0.57643693321E+03  0.14291833639E+04  0.46999998093E+01 0.  1.
       -5    1    3    3    0  502  0.11915909969E+04  0.53886394926E+03  0.11202435259E+04  0.17219846420E+04  0.46999998093E+01 0. -1.
</event>
<event>
 5   0  0.1200286E-06  0.3096053E+04  0.7818609E-02  0.8216822E-01
        2   -1    0    0  501    0  0.00000000000E+00  0.00000000000E+00  0.84528823765E+03  0.84528823766E+03  0.25500000920E-02 0.  1.
       -2   -1    0    0    0  501  0.00000000000E+00  0.00000000000E+00 -0.28349928042E+04  0.28349928042E+04  0.25500000920E-02 0. -1.
    10030    2    1    2    0    0  0.00000000000E+00  0.00000000000E+00 -0.19897045665E+04  0.36802810418E+04  0.30960530171E+04 0.  0.
        5    1    3    3  502    0  0.74521366785E+03  0.99946259090E+03 -0.20856724681E+04  0.24298807821E+04  0.46999998093E+01 0. -1.
       -5    1    3    3    0  502 -0.74521366785E+03 -0.99946259090E+03  0.95967901532E+02  0.12504002597E+04  0.46999998093E+01 0.  1.
</event>
<event>
 5   0  0.1258262E-06  0.3077201E+04  0.7818609E-02  0.8222023E-01
        2   -1    0    0  501    0  0.00000000000E+00  0.00000000000E+00  0.21642146967E+04  0.21642146967E+04  0.25500000920E-02 0.  1.
       -2   -1    0    0    0  501  0.00000000000E+00  0.00000000000E+00 -0.10938336122E+04  0.10938336122E+04  0.25500000920E-02 0. -1.
    10030    2    1    2    0    0  0.00000000000E+00  0.00000000000E+00  0.10703810846E+04  0.32580483089E+04  0.30772005325E+04 0.  0.
        1    1    3    3  502    0 -0.13907020669E+04  0.23426467683E+03  0.11864492249E+04  0.18429850626E+04  0.50400001928E-02 0.  1.
       -1    1    3    3    0  502  0.13907020669E+04 -0.23426467683E+03 -0.11606814035E+03  0.14150632463E+04  0.50400001928E-02 0. -1.
</event>
<event>
 5   0  0.1237580E-06  0.3087008E+04  0.7818609E-02  0.8219313E-01
        2   -1    0    0  501    0  0.00000000000E+00  0.00000000000E+00  0.25472926705E+04  0.25472926705E+04  0.25500000920E-02 0.  1.
       -2   -1    0    0    0  501  0.00000000000E+00  0.00000000000E+00 -0.93526898666E+03  0.93526898666E+03  0.25500000920E-02 0. -1.
    10030    2    1    2    0    0  0.00000000000E+00  0.00000000000E+00  0.16120236838E+04  0.34825616571E+04  0.30870075054E+04 0.  0.
        4    1    3    3  502    0  0.58554338115E+02  0.14896038556E+04  0.35468169166E+03  0.15323671142E+04  0.12699999809E+01 0. -1.
       -4    1    3    3    0  502 -0.58554338115E+02 -0.14896038556E+04  0.12573419921E+04  0.19501945430E+04  0.12699999809E+01 0.  1.
</event>
<event>
 5   0  0.4134019E-07  0.3083057E+04  0.7818609E-02  0.8220403E-01
        1   -1    0    0  501    0  0.00000000000E+00  0.00000000000E+00  0.21182837448E+04  0.21182837448E+04  0.50400001928E-02 0. -1.
       -1   -1    0    0    0  501  0.00000000000E+00  0.00000000000E+00 -0.11218091932E+04  0.11218091933E+04  0.50400001928E-02 0.  1.
    10030    2    1    2    0    0  0.00000000000E+00  0.00000000000E+00  0.99647455157E+03  0.32400929381E+04  0.30830570406E+04 0.  0.
        2    1    3    3  502    0  0.43072079098E+02 -0.12946327862E+04  0.13764952300E+04  0.18901503574E+04  0.25500000920E-02 0. -1.
       -2    1    3    3    0  502 -0.43072079098E+02  0.12946327862E+04 -0.38002067846E+03  0.13499425807E+04  0.25500000920E-02 0.  1.
</event>
<event>
 5   0  0.4134019E-07  0.3100347E+04  0.7818609E-02  0.8215643E-01
        1   -1    0    0  501    0  0.00000000000E+00  0.00000000000E+00  0.99415657584E+03  0.99415657585E+03  0.50400001928E-02 0.  1.
       -1   -1    0    0    0  501  0.00000000000E+00  0.00000000000E+00 -0.24171625266E+04  0.24171625266E+04  0.50400001928E-02 0. -1.
    10030    2    1    2    0    0  0.00000000000E+00  0.00000000000E+00 -0.14230059508E+04  0.34113191025E+04  0.31003470907E+04 0.  0.
        2    1    3    3  502    0 -0.39567489016E+02  0.12070492131E+04  0.35783274748E+03  0.12595942459E+04  0.25500000920E-02 0.  1.
       -2    1    3    3    0  502  0.39567489016E+02 -0.12070492131E+04 -0.17808386982E+04  0.21517248566E+04  0.25500000920E-02 0. -1.
</event>
<event>
 5   0  0.1200286E-06  0.3098651E+04  0.7818609E-02  0.8216108E-01
       -2   -1    0    0    0  501  0.00000000000E+00  0.00000000000E+00  0.16210917452E+04  0.16210917452E+04  0.25500000920E-02 0.  1.
        2   -1    0    0  501    0  0.00000000000E+00  0.00000000000E+00 -0.14807364149E+04  0.14807364149E+04  0.25500000920E-02 0. -1.
    10030    2    1    2    0    0  0.00000000000E+00  0.00000000000E+00  0.14035533033E+03  0.31018281601E+04  0.30986510478E+04 0.  0.
        5    1    3    3  502    0  0.39810661273E+02  0.24861299821E+03 -0.14601128214E+04  0.14816696166E+04  0.46999998093E+01 0. -1.
       -5    1    3    3    0  502 -0.39810661273E+02 -0.24861299821E+03  0.16004681517E+04  0.16201585435E+04  0.46999998093E+01 0.  1.
</event>
<event>
 5   0  0.1193123E-06  0.3100635E+04  0.7818609E-02  0.8215564E-01
       -2   -1    0    0    0  501  0.00000000000E+00  0.00000000000E+00  0.26358991701E+04  0.26358991701E+04  0.25500000920E-02 0. -1.
        2   -1    0    0  501    0  0.00000000000E+00  0.00000000000E+00 -0.91182721179E+03  0.91182721179E+03  0.25500000920E-02 0.  1.
    10030    2    1    2    0    0  0.00000000000E+00  0.00000000000E+00  0.17240719583E+04  0.35477263819E+04  0.31006351548E+04 0.  0.
        3    1    3    3  502    0  0.42705567381E+03 -0.10049700211E+04  0.21212432256E+04  0.23857942334E+04  0.10100000352E+00 0. -1.
       -3    1    3    3    0  502 -0.42705567381E+03  0.10049700211E+04 -0.39717126734E+03  0.11619321484E+04  0.10100000352E+00 0.  1.
</event>
<event>
 5   0  0.4134019E-07  0.3103260E+04  0.7818609E-02  0.8214844E-01
        1   -1    0    0  501    0  0.00000000000E+00  0.00000000000E+00  0.18320501900E+04  0.18320501900E+04  0.50400001928E-02 0.  1.
       -1   -1    0    0    0  501  0.00000000000E+00  0.00000000000E+00 -0.13141319971E+04  0.13141319972E+04  0.50400001928E-02 0. -1.
    10030    2    1    2    0    0  0.00000000000E+00  0.00000000000E+00  0.51791819290E+03  0.31461821872E+04  0.31032600762E+04 0.  0.
        2    1    3    3  502    0  0.40904820199E+03 -0.13760164539E+04  0.85601368841E+03  0.16713770214E+04  0.25500000920E-02 0.  1.
       -2    1    3    3    0  502 -0.40904820199E+03  0.13760164539E+04 -0.33809549551E+03  0.14748051658E+04  0.25500000920E-02 0. -1.
</event>
<event>
 5   0  0.1237580E-06  0.3113301E+04  0.7818609E-02  0.8212097E-01
       -2   -1    0    0    0  501  0.00000000000E+00  0.00000000000E+00  0.13358474510E+04  0.13358474510E+04  0.25500000920E-02 0.  1.
        2   -1    0    0  501    0  0.00000000000E+00  0.00000000000E+00 -0.18139498347E+04  0.18139498347E+04  0.25500000920E-02 0. -1.
    10030    2    1    2    0    0  0.00000000000E+00  0.00000000000E+00 -0.47810238375E+03  0.31497972857E+04  0.31133006684E+04 0.  0.
        4    1    3    3  502    0 -0.12034905441E+04 -0.42236160582E+03 -0.11419137991E+04  0.17119426256E+04  0.12699999809E+01 0. -1.
       -4    1    3    3    0  502  0.12034905441E+04  0.42236160582E+03  0.66381141531E+03  0.14378546602E+04  0.12699999809E+01 0.  1.
</event>
<event>
 5   0  0.4219337E-07  0.3064748E+04  0.7818609E-02  0.8225480E-01
       -1   -1    0    0    0  501  0.00000000000E+00  0.00000000000E+00  0.83154118947E+03  0.83154118949E+03  0.50400001928E-02 0. -1.
        1   -1    0    0  501    0  0.00000000000E+00  0.00000000000E+00 -0.28238774706E+04  0.28238774706E+04  0.50400001928E-02 0.  1.
    10030    2    1    2    0    0  0.00000000000E+00  0.00000000000E+00 -0.19923362811E+04  0.36554186601E+04  0.30647482317E+04 0.  0.
        4    1    3    3  502    0  0.14483418536E+04  0.49558968535E+03 -0.10793653186E+04  0.18730548217E+04  0.12699999809E+01 0.  1.
       -4    1    3    3    0  502 -0.14483418536E+04 -0.49558968535E+03 -0.91297096255E+03  0.17823638384E+04  0.12699999809E+01 0. -1.
</event>
<event>
 5   0  0.4173905E-07  0.3002350E+04  0.7818609E-02  0.8243060E-01
       -1   -1    0    0    0  501  0.00000000000E+00  0.00000000000E+00  0.10108004030E+04  0.10108004030E+04  0.50400001928E-02 0. -1.
        1   -1    0    0  501    0  0.00000000000E+00  0.00000000000E+00 -0.22294472075E+04  0.22294472075E+04  0.50400001928E-02 0.  1.
    10030    2    1    2    0    0  0.00000000000E+00  0.00000000000E+00 -0.12186468045E+04  0.32402476105E+04  0.30023498369E+04 0.  0.
        3    1    3    3  502    0  0.88869668749E+03  0.11362058005E+04 -0.10579288271E+04  0.17888428765E+04  0.10100000352E+00 0. -1.
       -3    1    3    3    0  502 -0.88869668749E+03 -0.11362058005E+04 -0.16071797742E+03  0.14514047340E+04  0.10100000352E+00 0.  1.
</event>
<event>
 5   0  0.1193123E-06  0.3096087E+04  0.7818609E-02  0.8216813E-01
       -2   -1    0    0    0  501  0.00000000000E+00  0.00000000000E+00  0.72760325726E+03  0.72760325727E+03  0.25500000920E-02 0. -1.
        2   -1    0    0  501    0  0.00000000000E+00  0.00000000000E+00 -0.32936053891E+04  0.32936053891E+04  0.25500000920E-02 0.  1.
    10030    2    1    2    0    0  0.00000000000E+00  0.00000000000E+00 -0.25660021318E+04  0.40212086463E+04  0.30960865681E+04 0.  0.
        3    1    3    3  502    0 -0.62344572298E+03  0.12503094647E+04 -0.41709762748E+03  0.14580565038E+04  0.10100000352E+00 0. -1.
       -3    1    3    3    0  502  0.62344572298E+03 -0.12503094647E+04 -0.21489045043E+04  0.25631521426E+04  0.10100000352E+00 0.  1.
</event>
<event>
 5   0  0.4134019E-07  0.3107075E+04  0.7818609E-02  0.8213799E-01
        1   -1    0    0  501    0  0.00000000000E+00  0.00000000000E+00  0.21301436441E+04  0.21301436441E+04  0.50400001928E-02 0.  1.
       -1   -1    0    0    0  501  0.00000000000E+00  0.00000000000E+00 -0.11330120036E+04  0.11330120036E+04  0.50400001928E-02 0. -1.
    10030    2    1    2    0    0  0.00000000000E+00  0.00000000000E+00  0.99713164054E+03  0.32631556477E+04  0.31070747131E+04 0.  0.
        2    1    3    3  502    0 -0.10658698926E+04 -0.71457476876E+03  0.14182150571E+04  0.19125976253E+04  0.25500000920E-02 0.  1.
       -2    1    3    3    0  502  0.10658698926E+04  0.71457476876E+03 -0.42108341658E+03  0.13505580224E+04  0.25500000920E-02 0. -1.
</event>
<event>
 5   0  0.1258262E-06  0.3085602E+04  0.7818609E-02  0.8219700E-01
        2   -1    0    0  501    0  0.00000000000E+00  0.00000000000E+00  0.19988974200E+04  0.19988974200E+04  0.25500000920E-02 0.  1.
       -2   -1    0    0    0  501  0.00000000000E+00  0.00000000000E+00 -0.11907742258E+04  0.11907742258E+04  0.25500000920E-02 0. -1.
    10030    2    1    2    0    0  0.00000000000E+00  0.00000000000E+00  0.80812319413E+03  0.31896716458E+04  0.30856023903E+04 0.  0.
        1    1    3    3  502    0  0.60566039278E+03 -0.93808722509E+03 -0.69645923079E+03  0.13160120111E+04  0.50400001928E-02 0. -1.
       -1    1    3    3    0  502 -0.60566039278E+03  0.93808722509E+03  0.15045824249E+04  0.18736596347E+04  0.50400001928E-02 0.  1.
</event>
<event>
 5   0  0.1193123E-06  0.3096944E+04  0.7818609E-02  0.8216577E-01
        2   -1    0    0  501    0  0.00000000000E+00  0.00000000000E+00  0.17952820372E+04  0.17952820372E+04  0.25500000920E-02 0.  1.
       -2   -1    0    0    0  501  0.00000000000E+00  0.00000000000E+00 -0.13355926556E+04  0.13355926556E+04  0.25500000920E-02 0. -1.
    10030    2    1    2    0    0  0.00000000000E+00  0.00000000000E+00  0.45968938158E+03  0.31308746928E+04  0.30969439799E+04 0.  0.
        3    1    3    3  502    0 -0.11708065573E+04 -0.63633838013E+03  0.10271879383E+04  0.16825069389E+04  0.10100000352E+00 0.  1.
       -3    1    3    3    0  502  0.11708065573E+04  0.63633838013E+03 -0.56749855672E+03  0.14483677540E+04  0.10100000352E+00 0. -1.
</event>
<event>
 5   0  0.4330395E-07  0.3090911E+04  0.7818609E-02  0.8218237E-01
       -1   -1    0    0    0  501  0.00000000000E+00  0.00000000000E+00  0.13724550037E+04  0.13724550037E+04  0.50400001928E-02 0.  1.
        1   -1    0    0  501    0  0.00000000000E+00  0.00000000000E+00 -0.17402632252E+04  0.17402632252E+04  0.50400001928E-02 0. -1.
    10030    2    1    2    0    0  0.00000000000E+00  0.00000000000E+00 -0.36780822153E+03  0.31127182289E+04  0.30909111739E+04 0.  0.
        1    1    3    3  502    0 -0.35347079487E+03  0.94348050932E+03  0.99625800819E+03  0.14169075810E+04  0.50400001928E-02 0.  1.
       -1    1    3    3    0  502  0.35347079487E+03 -0.94348050932E+03 -0.13640662297E+04  0.16958106479E+04  0.50400001928E-02 0. -1.
</event>
<event>
 5   0  0.4330395E-07  0.2983723E+04  0.7818609E-02  0.8248394E-01
        1   -1    0    0  501    0  0.00000000000E+00  0.00000000000E+00  0.17264850151E+04  0.17264850151E+04  0.50400001928E-02 0.  1.
       -1   -1    0    0    0  501  0.00000000000E+00  0.00000000000E+00 -0.12891224526E+04  0.12891224526E+04  0.50400001928E-02 0. -1.
    10030    2    1    2    0    0  0.00000000000E+00  0.00000000000E+00  0.43736256246E+03  0.30156074677E+04  0.29837229074E+04 0.  0.
        1    1    3    3  502    0 -0.14373468060E+04  0.38724936639E+03  0.11902391155E+03  0.14933501277E+04  0.50400001928E-02 0. -1.
       -1    1    3    3    0  502  0.14373468060E+04 -0.38724936639E+03  0.31833865090E+03  0.15222573400E+04  0.50400001928E-02 0.  1.
</event>
<event>
 5   0  0.1258262E-06  0.3113268E+04  0.7818609E-02  0.8212106E-01
       -2   -1    0    0    0  501  0.00000000000E+00  0.00000000000E+00  0.14190980688E+04  0.14190980688E+04  0.25500000920E-02 0.  1.
        2   -1    0    0  501    0  0.00000000000E+00  0.00000000000E+00 -0.17074993419E+04  0.17074993419E+04  0.25500000920E-02 0. -1.
    10030    2    1    2    0    0  0.00000000000E+00  0.00000000000E+00 -0.28840127308E+03  0.31265974108E+04  0.31132677486E+04 0.  0.
        1    1    3    3  502    0  0.44465699772E+03  0.12815087602E+04  0.62269474901E+03  0.14925593116E+04  0.50400001928E-02 0.  1.
       -1    1    3    3    0  502 -0.44465699772E+03 -0.12815087602E+04 -0.91109602210E+03  0.16340380992E+04  0.50400001928E-02 0. -1.
</event>
<event>
 5   0  0.4134019E-07  0.3099024E+04  0.7818609E-02  0.8216006E-01
       -1   -1    0    0    0  501  0.00000000000E+00  0.00000000000E+00  0.14545718163E+04  0.14545718163E+04  0.50400001928E-02 0.  1.
        1   -1    0    0  501    0  0.00000000000E+00  0.00000000000E+00 -0.16506490798E+04  0.16506490798E+04  0.50400001928E-02 0. -1.
    10030    2    1    2    0    0  0.00000000000E+00  0.00000000000E+00 -0.19607726359E+03  0.31052208961E+04  0.30990241239E+04 0.  0.
        2    1    3    3  502    0 -0.10623375504E+04  0.67770922858E+03 -0.10015827033E+04  0.16096641827E+04  0.25500000920E-02 0. -1.
       -2    1    3    3    0  502  0.10623375504E+04 -0.67770922858E+03  0.80550543974E+03  0.14955567134E+04  0.25500000920E-02 0.  1.
</event>
<event>
 5   0  0.4330395E-07  0.3125645E+04  0.7818609E-02  0.8208735E-01
       -1   -1    0    0    0  501  0.00000000000E+00  0.00000000000E+00  0.17572903846E+04  0.17572903846E+04  0.50400001928E-02 0. -1.
        1   -1    0    0  501    0  0.00000000000E+00  0.00000000000E+00 -0.13898751455E+04  0.13898751455E+04  0.50400001928E-02 0.  1.
    10030    2    1    2    0    0  0.00000000000E+00  0.00000000000E+00  0.36741523906E+03  0.31471655301E+04  0.31256450400E+04 0.  0.
        1    1    3    3  502    0 -0.11455384460E+04 -0.34174499018E+03 -0.82988432324E+03  0.14552511672E+04  0.50400001928E-02 0.  1.
       -1    1    3    3    0  502  0.11455384460E+04  0.34174499018E+03  0.11972995623E+04  0.16919143629E+04  0.50400001928E-02 0. -1.
</event>
<event>
 5   0  0.1193123E-06  0.3108032E+04  0.7818609E-02  0.8213537E-01
        2   -1    0    0  501    0  0.00000000000E+00  0.00000000000E+00  0.18050491717E+04  0.18050491717E+04  0.25500000920E-02 0. -1.
       -2   -1    0    0    0  501  0.00000000000E+00  0.00000000000E+00 -0.13378943043E+04  0.13378943043E+04  0.25500000920E-02 0.  1.
    10030    2    1    2    0    0  0.00000000000E+00  0.00000000000E+00  0.46715486744E+03  0.31429434760E+04  0.31080315351E+04 0.  0.
        3    1    3    3  502    0  0.58422888893E+03 -0.13020696152E+04 -0.38835649442E+03  0.14790299031E+04  0.10100000352E+00 0.  1.
       -3    1    3    3    0  502 -0.58422888893E+03  0.13020696152E+04  0.85551136186E+03  0.16639135728E+04  0.10100000352E+00 0. -1.
</event>
<event>
 5   0  0.4219337E-07  0.3101053E+04  0.7818609E-02  0.8215449E-01
       -1   -1    0    0    0  501  0.00000000000E+00  0.00000000000E+00  0.18944669043E+04  0.18944669043E+04  0.50400001928E-02 0. -1.
        1   -1    0    0  501    0  0.00000000000E+00  0.00000000000E+00 -0.12690281477E+04  0.12690281477E+04  0.50400001928E-02 0.  1.
    10030    2    1    2    0    0  0.00000000000E+00  0.00000000000E+00  0.62543875667E+03  0.31634950520E+04  0.31010526125E+04 0.  0.
        4    1    3    3  502    0  0.96337012150E+03  0.71706379681E+03  0.13132161766E+04  0.17795507352E+04  0.12699999809E+01 0. -1.
       -4    1    3    3    0  502 -0.96337012150E+03 -0.71706379681E+03 -0.68777741997E+03  0.13839443168E+04  0.12699999809E+01 0.  1.
</event>
<event>
 5   0  0.4330395E-07  0.3100547E+04  0.7818609E-02  0.8215588E-01
       -1   -1    0    0    0  501  0.00000000000E+00  0.00000000000E+00  0.16121705493E+04  0.16121705493E+04  0.50400001928E-02 0.  1.
        1   -1    0    0  501    0  0.00000000000E+00  0.00000000000E+00 -0.14907533716E+04  0.14907533716E+04  0.50400001928E-02 0. -1.
    10030    2    1    2    0    0  0.00000000000E+00  0.00000000000E+00  0.12141717768E+03  0.31029239210E+04  0.31005474885E+04 0.  0.
        1    1    3    3  502    0  0.21185898375E+03  0.74969156911E+03  0.14020444242E+04  0.16039483300E+04  0.50400001928E-02 0.  1.
       -1    1    3    3    0  502 -0.21185898375E+03 -0.74969156911E+03 -0.12806272465E+04  0.14989755910E+04  0.50400001928E-02 0. -1.
</event>
<event>
 5   0  0.4330395E-07  0.3107755E+04  0.7818609E-02  0.8213613E-01
        1   -1    0    0  501    0  0.00000000000E+00  0.00000000000E+00  0.15549085040E+04  0.15549085040E+04  0.50400001928E-02 0.  1.
       -1   -1    0    0    0  501  0.00000000000E+00  0.00000000000E+00 -0.15528472881E+04  0.15528472881E+04  0.50400001928E-02 0. -1.
    10030    2    1    2    0    0  0.00000000000E+00  0.00000000000E+00  0.20612158944E+01  0.31077557922E+04  0.31077551086E+04 0.  0.
        1    1    3    3  502    0  0.15368542493E+03  0.15462047106E+04 -0.11901409687E+02  0.15538693189E+04  0.50400001928E-02 0.  1.
       -1    1    3    3    0  502 -0.15368542493E+03 -0.15462047106E+04  0.13962625582E+02  0.15538864732E+04  0.50400001928E-02 0. -1.
</event>
<event>
 5   0  0.1176002E-06  0.3086816E+04  0.7818609E-02  0.8219366E-01
        2   -1    0    0  501    0  0.00000000000E+00  0.00000000000E+00  0.16983821876E+04  0.16983821876E+04  0.25500000920E-02 0. -1.
       -2   -1    0    0    0  501  0.00000000000E+00  0.00000000000E+00 -0.14025746980E+04  0.14025746980E+04  0.25500000920E-02 0.  1.
    10030    2    1    2    0    0  0.00000000000E+00  0.00000000000E+00  0.29580748961E+03  0.31009568856E+04  0.30868157599E+04 0.  0.
        2    1    3    3  502    0 -0.12592932718E+04  0.18175668366E+03 -0.72974196812E+03  0.14667577770E+04  0.25500000920E-02 0. -1.
       -2    1    3    3    0  502  0.12592932718E+04 -0.18175668366E+03  0.10255494577E+04  0.16341991086E+04  0.25500000920E-02 0.  1.
</event>
<event>
 5   0  0.1237580E-06  0.3099939E+04  0.7818609E-02  0.8215755E-01
       -2   -1    0    0    0  501  0.00000000000E+00  0.00000000000E+00  0.13183435205E+04  0.13183435206E+04  0.25500000920E-02 0. -1.
        2   -1    0    0  501    0  0.00000000000E+00  0.00000000000E+00 -0.18222911209E+04  0.18222911209E+04  0.25500000920E-02 0.  1.
    10030    2    1    2    0    0  0.00000000000E+00  0.00000000000E+00 -0.50394760031E+03  0.31406346414E+04  0.30999391554E+04 0.  0.
        4    1    3    3  502    0  0.89618749399E+03 -0.99788238937E+03 -0.10390135954E+04  0.16966060685E+04  0.12699999809E+01 0.  1.
       -4    1    3    3    0  502 -0.89618749399E+03  0.99788238937E+03  0.53506599507E+03  0.14440285729E+04  0.12699999809E+01 0. -1.
</event>
<event>
 5   0  0.1193123E-06  0.3104498E+04  0.7818609E-02  0.8214504E-01
       -2   -1    0    0    0  501  0.00000000000E+00  0.00000000000E+00  0.11315337685E+04  0.11315337685E+04  0.25500000920E-02 0. -1.
        2   -1    0    0  501    0  0.00000000000E+00  0.00000000000E+00 -0.21293907712E+04  0.21293907712E+04  0.25500000920E-02 0.  1.
    10030    2    1    2    0    0  0.00000000000E+00  0.00000000000E+00 -0.99785700275E+03  0.32609245397E+04  0.31044983904E+04 0.  0.
        3    1    3    3  502    0 -0.41273290615E+03  0.10679846939E+04  0.60199416121E+03  0.12935751770E+04  0.10100000352E+00 0. -1.
       -3    1    3    3    0  502  0.41273290615E+03 -0.10679846939E+04 -0.15998511640E+04  0.19673493628E+04  0.10100000352E+00 0.  1.
</event>
<event>
 5   0  0.4173905E-07  0.3091088E+04  0.7818609E-02  0.8218188E-01
       -1   -1    0    0    0  501  0.00000000000E+00  0.00000000000E+00  0.13824899100E+04  0.13824899100E+04  0.50400001928E-02 0. -1.
        1   -1    0    0  501    0  0.00000000000E+00  0.00000000000E+00 -0.17278293068E+04  0.17278293068E+04  0.50400001928E-02 0.  1.
    10030    2    1    2    0    0  0.00000000000E+00  0.00000000000E+00 -0.34533939679E+03  0.31103192168E+04  0.30910882115E+04 0.  0.
        3    1    3    3  502    0  0.14602152110E+04 -0.20885289429E+03 -0.63690604938E+03  0.16067038681E+04  0.10100000352E+00 0.  1.
       -3    1    3    3    0  502 -0.14602152110E+04  0.20885289429E+03  0.29156665259E+03  0.15036153487E+04  0.10100000352E+00 0. -1.
</event>
<event>
 5   0  0.1200286E-06  0.3099441E+04  0.7818609E-02  0.8215891E-01
        2   -1    0    0  501    0  0.00000000000E+00  0.00000000000E+00  0.28109616290E+04  0.28109616290E+04  0.25500000920E-02 0.  1.
       -2   -1    0    0    0  501  0.00000000000E+00  0.00000000000E+00 -0.85438128701E+03  0.85438128701E+03  0.25500000920E-02 0. -1.
    10030    2    1    2    0    0  0.00000000000E+00  0.00000000000E+00  0.19565803420E+04  0.36653429160E+04  0.30994406039E+04 0.  0.
        5    1    3    3  502    0 -0.88227399150E+03 -0.91941968046E+02 -0.52445024748E+03  0.10305003026E+04  0.46999998093E+01 0. -1.
       -5    1    3    3    0  502  0.88227399150E+03  0.91941968046E+02  0.24810305895E+04  0.26348426134E+04  0.46999998093E+01 0.  1.
</event>
<event>
 5   0  0.1176002E-06  0.3142003E+04  0.7818609E-02  0.8204304E-01
       -2   -1    0    0    0  501  0.00000000000E+00  0.00000000000E+00  0.23257580295E+04  0.23257580295E+04  0.25500000920E-02 0. -1.
        2   -1    0    0  501    0  0.00000000000E+00  0.00000000000E+00 -0.10611793624E+04  0.10611793624E+04  0.25500000920E-02 0.  1.
    10030    2    1    2    0    0  0.00000000000E+00  0.00000000000E+00  0.12645786671E+04  0.33869373918E+04  0.31420034518E+04 0.  0.
        2    1    3    3  502    0 -0.71264173560E+03 -0.10845370719E+04  0.15867313414E+04  0.20498281034E+04  0.25500000920E-02 0. -1.
       -2    1    3    3    0  502  0.71264173560E+03  0.10845370719E+04 -0.32215267426E+03  0.13371092884E+04  0.25500000920E-02 0.  1.
</event>
<event>
 5   0  0.4173905E-07  0.3143149E+04  0.7818609E-02  0.8203995E-01
        1   -1    0    0  501    0  0.00000000000E+00  0.00000000000E+00  0.23383642731E+04  0.23383642731E+04  0.50400001928E-02 0. -1.
       -1   -1    0    0    0  501  0.00000000000E+00  0.00000000000E+00 -0.10562281518E+04  0.10562281518E+04  0.50400001928E-02 0.  1.
    10030    2    1    2    0    0  0.00000000000E+00  0.00000000000E+00  0.12821361213E+04  0.33945924249E+04  0.31431488507E+04 0.  0.
        3    1    3    3  502    0  0.71408388113E+03  0.45126383664E+03 -0.79019995851E+03  0.11567068878E+04  0.10100000352E+00 0.  1.
       -3    1    3    3    0  502 -0.71408388113E+03 -0.45126383664E+03  0.20723360798E+04  0.22378855372E+04  0.10100000352E+00 0. -1.
</event>
<event>
 5   0  0.1200286E-06  0.3085963E+04  0.7818609E-02  0.8219601E-01
        2   -1    0    0  501    0  0.00000000000E+00  0.00000000000E+00  0.13846144333E+04  0.13846144333E+04  0.25500000920E-02 0.  1.
       -2   -1    0    0    0  501  0.00000000000E+00  0.00000000000E+00 -0.17194621152E+04  0.17194621152E+04  0.25500000920E-02 0. -1.
    10030    2    1    2    0    0  0.00000000000E+00  0.00000000000E+00 -0.33484768196E+03  0.31040765485E+04  0.30859630991E+04 0.  0.
        5    1    3    3  502    0  0.38062231032E+03 -0.24548279828E+03 -0.16510848894E+04  0.17120860228E+04  0.46999998093E+01 0. -1.
       -5    1    3    3    0  502 -0.38062231032E+03  0.24548279828E+03  0.13162372075E+04  0.13919905257E+04  0.46999998093E+01 0.  1.
</event>
<event>
 5   0  0.3902375E-07  0.3102288E+04  0.7818609E-02  0.8215110E-01
        3   -1    0    0  501    0  0.00000000000E+00  0.00000000000E+00  0.12749200974E+04  0.12749201014E+04  0.10100000352E+00 0. -1.
       -3   -1    0    0    0  501  0.00000000000E+00  0.00000000000E+00 -0.18872150175E+04  0.18872150202E+04  0.10100000352E+00 0.  1.
    10030    2    1    2    0    0  0.00000000000E+00  0.00000000000E+00 -0.61229492004E+03  0.31621351216E+04  0.31022884228E+04 0.  0.
        4    1    3    3  502    0  0.10571995507E+04  0.97528668541E+03 -0.89803161968E+03  0.16956760928E+04  0.12699999809E+01 0.  1.
       -4    1    3    3    0  502 -0.10571995507E+04 -0.97528668541E+03  0.28573669964E+03  0.14664590288E+04  0.12699999809E+01 0. -1.
</event>
<event>
 5   0  0.1200286E-06  0.3099737E+04  0.7818609E-02  0.8215810E-01
       -2   -1    0    0    0  501  0.00000000000E+00  0.00000000000E+00  0.12024224441E+04  0.12024224441E+04  0.25500000920E-02 0.  1.
        2   -1    0    0  501    0  0.00000000000E+00  0.00000000000E+00 -0.19977111474E+04  0.19977111474E+04  0.25500000920E-02 0. -1.
    10030    2    1    2    0    0  0.00000000000E+00  0.00000000000E+00 -0.79528870321E+03  0.32001335915E+04  0.30997372279E+04 0.  0.
        5    1    3    3  502    0 -0.10548287280E+04 -0.55025942136E+03  0.62781518637E+03  0.13452223142E+04  0.46999998093E+01 0.  1.
       -5    1    3    3    0  502  0.10548287280E+04  0.55025942136E+03 -0.14231038896E+04  0.18549112773E+04  0.46999998093E+01 0. -1.
</event>
<event>
 5   0  0.1258262E-06  0.3097270E+04  0.7818609E-02  0.8216488E-01
       -2   -1    0    0    0  501  0.00000000000E+00  0.00000000000E+00  0.12775498090E+04  0.12775498090E+04  0.25500000920E-02 0. -1.
        2   -1    0    0  501    0  0.00000000000E+00  0.00000000000E+00 -0.18772416834E+04  0.18772416834E+04  0.25500000920E-02 0.  1.
    10030    2    1    2    0    0  0.00000000000E+00  0.00000000000E+00 -0.59969187437E+03  0.31547914924E+04  0.30972696066E+04 0.  0.
        1    1    3    3  502    0 -0.14523182556E+04 -0.64949606443E+02  0.24375371285E+03  0.14740633092E+04  0.50400001928E-02 0. -1.
       -1    1    3    3    0  502  0.14523182556E+04  0.64949606443E+02 -0.84344558722E+03  0.16807281832E+04  0.50400001928E-02 0.  1.
</event>
<event>
 5   0  0.1237580E-06  0.3108021E+04  0.7818609E-02  0.8213540E-01
        2   -1    0    0  501    0  0.00000000000E+00  0.00000000000E+00  0.21095344804E+04  0.21095344804E+04  0.25500000920E-02 0.  1.
       -2   -1    0    0    0  501  0.00000000000E+00  0.00000000000E+00 -0.11447776780E+04  0.11447776780E+04  0.25500000920E-02 0. -1.
    10030    2    1    2    0    0  0.00000000000E+00  0.00000000000E+00  0.96475680239E+03  0.32543121583E+04  0.31080205817E+04 0.  0.
        4    1    3    3  502    0  0.14722748021E+04 -0.99255029469E+02 -0.27901778523E+02  0.14758810169E+04  0.12699999809E+01 0. -1.
       -4    1    3    3    0  502 -0.14722748021E+04  0.99255029469E+02  0.99265858091E+03  0.17784311415E+04  0.12699999809E+01 0.  1.
</event>
<event>
 5   0  0.4173905E-07  0.3085412E+04  0.7818609E-02  0.8219753E-01
       -1   -1    0    0    0  501  0.00000000000E+00  0.00000000000E+00  0.11077920246E+04  0.11077920246E+04  0.50400001928E-02 0.  1.
        1   -1    0    0  501    0  0.00000000000E+00  0.00000000000E+00 -0.21483650811E+04  0.21483650812E+04  0.50400001928E-02 0. -1.
    10030    2    1    2    0    0  0.00000000000E+00  0.00000000000E+00 -0.10405730565E+04  0.32561571058E+04  0.30854119355E+04 0.  0.
        3    1    3    3  502    0 -0.87018733629E+03  0.82685515026E+03 -0.15429460419E+04  0.19548907740E+04  0.10100000352E+00 0. -1.
       -3    1    3    3    0  502  0.87018733629E+03 -0.82685515026E+03  0.50237298534E+03  0.13012663318E+04  0.10100000352E+00 0.  1.
</event>
<event>
 5   0  0.4219337E-07  0.3105957E+04  0.7818609E-02  0.8214105E-01
       -1   -1    0    0    0  501  0.00000000000E+00  0.00000000000E+00  0.11645943111E+04  0.11645943111E+04  0.50400001928E-02 0.  1.
        1   -1    0    0  501    0  0.00000000000E+00  0.00000000000E+00 -0.20708854823E+04  0.20708854823E+04  0.50400001928E-02 0. -1.
    10030    2    1    2    0    0  0.00000000000E+00  0.00000000000E+00 -0.90629117115E+03  0.32354797934E+04  0.31059565043E+04 0.  0.
        4    1    3    3  502    0 -0.10799344461E+04 -0.10061901641E+04  0.49752274729E+02  0.14768730331E+04  0.12699999809E+01 0.  1.
       -4    1    3    3    0  502  0.10799344461E+04  0.10061901641E+04 -0.95604344588E+03  0.17586067603E+04  0.12699999809E+01 0. -1.
</event>
<event>
 5   0  0.1258262E-06  0.3093301E+04  0.7818609E-02  0.8217579E-01
        2   -1    0    0  501    0  0.00000000000E+00  0.00000000000E+00  0.13154694078E+04  0.13154694078E+04  0.25500000920E-02 0. -1.
       -2   -1    0    0    0  501  0.00000000000E+00  0.00000000000E+00 -0.18184598210E+04  0.18184598210E+04  0.25500000920E-02 0.  1.
    10030    2    1    2    0    0  0.00000000000E+00  0.00000000000E+00 -0.50299041317E+03  0.31339292289E+04  0.30933013199E+04 0.  0.
        1    1    3    3  502    0  0.18531780631E+03  0.26080031179E+03 -0.17845679843E+04  0.18130202378E+04  0.50400001928E-02 0.  1.
       -1    1    3    3    0  502 -0.18531780631E+03 -0.26080031179E+03  0.12815775711E+04  0.13209089911E+04  0.50400001928E-02 0. -1.
</event>
<event>
 5   0  0.4330395E-07  0.3089514E+04  0.7818609E-02  0.8218621E-01
        1   -1    0    0  501    0  0.00000000000E+00  0.00000000000E+00  0.18931020722E+04  0.18931020722E+04  0.50400001928E-02 0.  1.
       -1   -1    0    0    0  501  0.00000000000E+00  0.00000000000E+00 -0.12605104189E+04  0.12605104189E+04  0.50400001928E-02 0. -1.
    10030    2    1    2    0    0  0.00000000000E+00  0.00000000000E+00  0.63259165330E+03  0.31536124911E+04  0.30895144512E+04 0.  0.
        1    1    3    3  502    0  0.18628173026E+03 -0.28670644603E+03  0.18539939268E+04  0.18852572636E+04  0.50400001928E-02 0.  1.
       -1    1    3    3    0  502 -0.18628173026E+03  0.28670644603E+03 -0.12214022735E+04  0.12683552275E+04  0.50400001928E-02 0. -1.
</event>
<event>
 5   0  0.1237580E-06  0.3098542E+04  0.7818609E-02  0.8216138E-01
       -2   -1    0    0    0  501  0.00000000000E+00  0.00000000000E+00  0.16304225114E+04  0.16304225114E+04  0.25500000920E-02 0.  1.
        2   -1    0    0  501    0  0.00000000000E+00  0.00000000000E+00 -0.14721584952E+04  0.14721584952E+04  0.25500000920E-02 0. -1.
    10030    2    1    2    0    0  0.00000000000E+00  0.00000000000E+00  0.15826401624E+03  0.31025810065E+04  0.30985418189E+04 0.  0.
        4    1    3    3  502    0 -0.86276916205E+03  0.10074478207E+04 -0.72248451980E+03  0.15103996930E+04  0.12699999809E+01 0. -1.
       -4    1    3    3    0  502  0.86276916205E+03 -0.10074478207E+04  0.88074853604E+03  0.15921813135E+04  0.12699999809E+01 0.  1.
</event>
<event>
 5   0  0.1200286E-06  0.3193914E+04  0.7818609E-02  0.8190426E-01
        2   -1    0    0  501    0  0.00000000000E+00  0.00000000000E+00  0.23248767191E+04  0.23248767191E+04  0.25500000920E-02 0. -1.
       -2   -1    0    0    0  501  0.00000000000E+00  0.00000000000E+00 -0.10969493566E+04  0.10969493566E+04  0.25500000920E-02 0.  1.
    10030    2    1    2    0    0  0.00000000000E+00  0.00000000000E+00  0.12279273625E+04  0.34218260757E+04  0.31939142263E+04 0.  0.
        5    1    3    3  502    0 -0.12127974418E+03 -0.15450585167E+04  0.10265900623E+04  0.18589846267E+04  0.46999998093E+01 0. -1.
       -5    1    3    3    0  502  0.12127974418E+03  0.15450585167E+04  0.20133730014E+03  0.15628414490E+04  0.46999998093E+01 0.  1.
</event>
<event>
 5   0  0.1200286E-06  0.3092219E+04  0.7818609E-02  0.8217876E-01
       -2   -1    0    0    0  501  0.00000000000E+00  0.00000000000E+00  0.19062231802E+04  0.19062231802E+04  0.25500000920E-02 0.  1.
        2   -1    0    0  501    0  0.00000000000E+00  0.00000000000E+00 -0.12540270044E+04  0.12540270044E+04  0.25500000920E-02 0. -1.
    10030    2    1    2    0    0  0.00000000000E+00  0.00000000000E+00  0.65219617579E+03  0.31602501847E+04  0.30922194906E+04 0.  0.
        5    1    3    3  502    0  0.27199355277E+02 -0.50971362150E+03 -0.11654225875E+04  0.12723127282E+04  0.46999998093E+01 0. -1.
       -5    1    3    3    0  502 -0.27199355277E+02  0.50971362150E+03  0.18176187633E+04  0.18879374565E+04  0.46999998093E+01 0.  1.
</event>
<event>
 5   0  0.4219337E-07  0.3100692E+04  0.7818609E-02  0.8215548E-01
        1   -1    0    0  501    0  0.00000000000E+00  0.00000000000E+00  0.21708104030E+04  0.21708104030E+04  0.50400001928E-02 0. -1.
       -1   -1    0    0    0  501  0.00000000000E+00  0.00000000000E+00 -0.11072237207E+04  0.11072237207E+04  0.50400001928E-02 0.  1.
    10030    2    1    2    0    0  0.00000000000E+00  0.00000000000E+00  0.10635866823E+04  0.32780341237E+04  0.31006920333E+04 0.  0.
        4    1    3    3  502    0  0.12253102715E+03 -0.12979810234E+04 -0.35511810652E+03  0.13512509287E+04  0.12699999809E+01 0.  1.
       -4    1    3    3    0  502 -0.12253102715E+03  0.12979810234E+04  0.14187047889E+04  0.19267831950E+04  0.12699999809E+01 0. -1.
</event>
<event>
 5   0  0.4219337E-07  0.3101688E+04  0.7818609E-02  0.8215275E-01
        1   -1    0    0  501    0  0.00000000000E+00  0.00000000000E+00  0.16504805872E+04  0.16504805872E+04  0.50400001928E-02 0. -1.
       -1   -1    0    0    0  501  0.00000000000E+00  0.00000000000E+00 -0.14572226663E+04  0.14572226663E+04  0.50400001928E-02 0.  1.
    10030    2    1    2    0    0  0.00000000000E+00  0.00000000000E+00  0.19325792094E+03  0.31077032535E+04  0.31016883931E+04 0.  0.
        4    1    3    3  502    0  0.12870475019E+04 -0.75682848414E+03 -0.32351162508E+03  0.15277244552E+04  0.12699999809E+01 0.  1.
       -4    1    3    3    0  502 -0.12870475019E+04  0.75682848414E+03  0.51676954602E+03  0.15799787983E+04  0.12699999809E+01 0. -1.
</event>
<event>
 5   0  0.4330395E-07  0.3082987E+04  0.7818609E-02  0.8220423E-01
        1   -1    0    0  501    0  0.00000000000E+00  0.00000000000E+00  0.21047768793E+04  0.21047768793E+04  0.50400001928E-02 0.  1.
       -1   -1    0    0    0  501  0.00000000000E+00  0.00000000000E+00 -0.11289564579E+04  0.11289564579E+04  0.50400001928E-02 0. -1.
    10030    2    1    2    0    0  0.00000000000E+00  0.00000000000E+00  0.97582042143E+03  0.32337333372E+04  0.30829865069E+04 0.  0.
        1    1    3    3  502    0 -0.23595393291E+03  0.14382618015E+04  0.10143790610E+04  0.17757353822E+04  0.50400001928E-02 0. -1.
       -1    1    3    3    0  502  0.23595393291E+03 -0.14382618015E+04 -0.38558639565E+02  0.14579979550E+04  0.50400001928E-02 0.  1.
</event>
<event>
 5   0  0.1200286E-06  0.3097644E+04  0.7818609E-02  0.8216385E-01
        2   -1    0    0  501    0  0.00000000000E+00  0.00000000000E+00  0.13822669910E+04  0.13822669910E+04  0.25500000920E-02 0. -1.
       -2   -1    0    0    0  501  0.00000000000E+00  0.00000000000E+00 -0.17354456426E+04  0.17354456426E+04  0.25500000920E-02 0.  1.
    10030    2    1    2    0    0  0.00000000000E+00  0.00000000000E+00 -0.35317865168E+03  0.31177126336E+04  0.30976437667E+04 0.  0.
        5    1    3    3  502    0 -0.10159686977E+04 -0.11626118263E+04 -0.53450926304E+02  0.15449070344E+04  0.46999998093E+01 0.  1.
       -5    1    3    3    0  502  0.10159686977E+04  0.11626118263E+04 -0.29972772538E+03  0.15728055992E+04  0.46999998093E+01 0. -1.
</event>
<event>
 5   0  0.1258262E-06  0.3099168E+04  0.7818609E-02  0.8215966E-01
       -2   -1    0    0    0  501  0.00000000000E+00  0.00000000000E+00  0.12590361605E+04  0.12590361605E+04  0.25500000920E-02 0. -1.
        2   -1    0    0  501    0  0.00000000000E+00  0.00000000000E+00 -0.19071817264E+04  0.19071817264E+04  0.25500000920E-02 0.  1.
    10030    2    1    2    0    0  0.00000000000E+00  0.00000000000E+00 -0.64814556585E+03  0.31662178869E+04  0.30991681195E+04 0.  0.
        1    1    3    3  502    0 -0.32396790664E+03  0.14175360666E+02 -0.18721291466E+04  0.19000062334E+04  0.50400001928E-02 0.  1.
       -1    1    3    3    0  502  0.32396790664E+03 -0.14175360666E+02  0.12239835808E+04  0.12662116535E+04  0.50400001928E-02 0. -1.
</event>
<event>
 5   0  0.1258262E-06  0.3099950E+04  0.7818609E-02  0.8215752E-01
       -2   -1    0    0    0  501  0.00000000000E+00  0.00000000000E+00  0.11393053477E+04  0.11393053477E+04  0.25500000920E-02 0. -1.
        2   -1    0    0  501    0  0.00000000000E+00  0.00000000000E+00 -0.21086724753E+04  0.21086724753E+04  0.25500000920E-02 0.  1.
    10030    2    1    2    0    0  0.00000000000E+00  0.00000000000E+00 -0.96936712767E+03  0.32479778230E+04  0.30999495658E+04 0.  0.
        1    1    3    3  502    0  0.11745085721E+04  0.50128077403E+03 -0.14050779511E+04  0.18986829249E+04  0.50400001928E-02 0.  1.
       -1    1    3    3    0  502 -0.11745085721E+04 -0.50128077403E+03  0.43571082347E+03  0.13492948981E+04  0.50400001928E-02 0. -1.
</event>
<event>
 5   0  0.1258262E-06  0.3097847E+04  0.7818609E-02  0.8216329E-01
       -2   -1    0    0    0  501  0.00000000000E+00  0.00000000000E+00  0.19319218090E+04  0.19319218090E+04  0.25500000920E-02 0.  1.
        2   -1    0    0  501    0  0.00000000000E+00  0.00000000000E+00 -0.12418531814E+04  0.12418531814E+04  0.25500000920E-02 0. -1.
    10030    2    1    2    0    0  0.00000000000E+00  0.00000000000E+00  0.69006862755E+03  0.31737749904E+04  0.30978465067E+04 0.  0.
        1    1    3    3  502    0  0.35011341264E+01  0.65252625781E+03  0.17842286799E+04  0.18998091371E+04  0.50400001928E-02 0.  1.
       -1    1    3    3    0  502 -0.35011341264E+01 -0.65252625781E+03 -0.10941600524E+04  0.12739658533E+04  0.50400001928E-02 0. -1.
</event>
<event>
 5   0  0.4134019E-07  0.3090451E+04  0.7818609E-02  0.8218364E-01
        1   -1    0    0  501    0  0.00000000000E+00  0.00000000000E+00  0.12623353975E+04  0.12623353975E+04  0.50400001928E-02 0.  1.
       -1   -1    0    0    0  501  0.00000000000E+00  0.00000000000E+00 -0.18915109430E+04  0.18915109430E+04  0.50400001928E-02 0. -1.
    10030    2    1    2    0    0  0.00000000000E+00  0.00000000000E+00 -0.62917554552E+03  0.31538463406E+04  0.30904505938E+04 0.  0.
        2    1    3    3  502    0 -0.10357682440E+04  0.25647231075E+03 -0.14551581240E+04  0.18044608799E+04  0.25500000920E-02 0. -1.
       -2    1    3    3    0  502  0.10357682440E+04 -0.25647231075E+03  0.82598257845E+03  0.13493854606E+04  0.25500000920E-02 0.  1.
</event>
<event>
 5   0  0.3935852E-07  0.3108596E+04  0.7818609E-02  0.8213383E-01
       -1   -1    0    0    0  501  0.00000000000E+00  0.00000000000E+00  0.11345654300E+04  0.11345654300E+04  0.50400001928E-02 0. -1.
        1   -1    0    0  501    0  0.00000000000E+00  0.00000000000E+00 -0.21293109287E+04  0.21293109287E+04  0.50400001928E-02 0.  1.
    10030    2    1    2    0    0  0.00000000000E+00  0.00000000000E+00 -0.99474549867E+03  0.32638763587E+04  0.31085961908E+04 0.  0.
        5    1    3    3  502    0  0.10107655160E+04  0.10637657837E+04  0.40645276441E+02  0.14679641342E+04  0.46999998093E+01 0. -1.
       -5    1    3    3    0  502 -0.10107655160E+04 -0.10637657837E+04 -0.10353907751E+04  0.17959122245E+04  0.46999998093E+01 0.  1.
</event>
<event>
 5   0  0.1200286E-06  0.3101735E+04  0.7818609E-02  0.8215262E-01
       -2   -1    0    0    0  501  0.00000000000E+00  0.00000000000E+00  0.12061818904E+04  0.12061818904E+04  0.25500000920E-02 0. -1.
        2   -1    0    0  501    0  0.00000000000E+00  0.00000000000E+00 -0.19940523998E+04  0.19940523998E+04  0.25500000920E-02 0.  1.
    10030    2    1    2    0    0  0.00000000000E+00  0.00000000000E+00 -0.78787050947E+03  0.32002342902E+04  0.31017349294E+04 0.  0.
        5    1    3    3  502    0 -0.12649096218E+04 -0.38501525406E+03 -0.12301892328E+04  0.18059957740E+04  0.46999998093E+01 0.  1.
       -5    1    3    3    0  502  0.12649096218E+04  0.38501525406E+03  0.44231872329E+03  0.13942385162E+04  0.46999998093E+01 0. -1.
</event>
<event>
 5   0  0.4219337E-07  0.3072314E+04  0.7818609E-02  0.8223378E-01
       -1   -1    0    0    0  501  0.00000000000E+00  0.00000000000E+00  0.18717724150E+04  0.18717724150E+04  0.50400001928E-02 0.  1.
        1   -1    0    0  501    0  0.00000000000E+00  0.00000000000E+00 -0.12607182374E+04  0.12607182375E+04  0.50400001928E-02 0. -1.
    10030    2    1    2    0    0  0.00000000000E+00  0.00000000000E+00  0.61105417752E+03  0.31324906524E+04  0.30723135386E+04 0.  0.
        4    1    3    3  502    0 -0.12173547446E+04 -0.68213317031E+03 -0.34932856310E+03  0.14385027960E+04  0.12699999809E+01 0. -1.
       -4    1    3    3    0  502  0.12173547446E+04  0.68213317031E+03  0.96038274062E+03  0.16939878564E+04  0.12699999809E+01 0.  1.
</event>
<event>
 5   0  0.1176002E-06  0.3099742E+04  0.7818609E-02  0.8215809E-01
       -2   -1    0    0    0  501  0.00000000000E+00  0.00000000000E+00  0.34347036373E+04  0.34347036373E+04  0.25500000920E-02 0. -1.
        2   -1    0    0  501    0  0.00000000000E+00  0.00000000000E+00 -0.69936183653E+03  0.69936183654E+03  0.25500000920E-02 0.  1.
    10030    2    1    2    0    0  0.00000000000E+00  0.00000000000E+00  0.27353418008E+04  0.41340654738E+04  0.30997423401E+04 0.  0.
        2    1    3    3  502    0 -0.12844063962E+04  0.39217606758E+03  0.23995282709E+04  0.27497704961E+04  0.25500000920E-02 0. -1.
       -2    1    3    3    0  502  0.12844063962E+04 -0.39217606758E+03  0.33581352985E+03  0.13842949777E+04  0.25500000920E-02 0.  1.
</event>
<event>
 5   0  0.4330395E-07  0.3098350E+04  0.7818609E-02  0.8216191E-01
        1   -1    0    0  501    0  0.00000000000E+00  0.00000000000E+00  0.17922439759E+04  0.17922439759E+04  0.50400001928E-02 0. -1.
       -1   -1    0    0    0  501  0.00000000000E+00  0.00000000000E+00 -0.13390717699E+04  0.13390717699E+04  0.50400001928E-02 0.  1.
    10030    2    1    2    0    0  0.00000000000E+00  0.00000000000E+00  0.45317220602E+03  0.31313157458E+04  0.30983500854E+04 0.  0.
        1    1    3    3  502    0  0.11002247229E+04  0.44704686976E+02  0.13278822166E+04  0.17250403274E+04  0.50400001928E-02 0. -1.
       -1    1    3    3    0  502 -0.11002247229E+04 -0.44704686976E+02 -0.87471001062E+03  0.14062754185E+04  0.50400001928E-02 0.  1.
</event>
<event>
 5   0  0.1193123E-06  0.3111782E+04  0.7818609E-02  0.8212512E-01
        2   -1    0    0  501    0  0.00000000000E+00  0.00000000000E+00  0.30285906148E+04  0.30285906148E+04  0.25500000920E-02 0. -1.
       -2   -1    0    0    0  501  0.00000000000E+00  0.00000000000E+00 -0.79931453937E+03  0.79931453937E+03  0.25500000920E-02 0.  1.
    10030    2    1    2    0    0  0.00000000000E+00  0.00000000000E+00  0.22292760755E+04  0.38279051542E+04  0.31117818125E+04 0.  0.
        3    1    3    3  502    0  0.28328427222E+03  0.14823935997E+04  0.15799076324E+04  0.21849139344E+04  0.10100000352E+00 0.  1.
       -3    1    3    3    0  502 -0.28328427222E+03 -0.14823935997E+04  0.64936844302E+03  0.16429912198E+04  0.10100000352E+00 0. -1.
</event>
<event>
 5   0  0.1200286E-06  0.3111251E+04  0.7818609E-02  0.8212657E-01
        2   -1    0    0  501    0  0.00000000000E+00  0.00000000000E+00  0.22306650583E+04  0.22306650583E+04  0.25500000920E-02 0.  1.
       -2   -1    0    0    0  501  0.00000000000E+00  0.00000000000E+00 -0.10848653541E+04  0.10848653541E+04  0.25500000920E-02 0. -1.
    10030    2    1    2    0    0  0.00000000000E+00  0.00000000000E+00  0.11457997042E+04  0.33155304125E+04  0.31112513485E+04 0.  0.
        5    1    3    3  502    0 -0.10289172912E+04 -0.29642318538E+03 -0.62964789133E+03  0.12421819730E+04  0.46999998093E+01 0.  1.
       -5    1    3    3    0  502  0.10289172912E+04  0.29642318538E+03  0.17754475955E+04  0.20733484395E+04  0.46999998093E+01 0. -1.
</event>
<event>
 5   0  0.4330395E-07  0.3095291E+04  0.7818609E-02  0.8217031E-01
       -1   -1    0    0    0  501  0.00000000000E+00  0.00000000000E+00  0.13307427586E+04  0.13307427586E+04  0.50400001928E-02 0. -1.
        1   -1    0    0  501    0  0.00000000000E+00  0.00000000000E+00 -0.17999023143E+04  0.17999023143E+04  0.50400001928E-02 0.  1.
    10030    2    1    2    0    0  0.00000000000E+00  0.00000000000E+00 -0.46915955573E+03  0.31306450729E+04  0.30952912437E+04 0.  0.
        1    1    3    3  502    0  0.77342788479E+03  0.63421058082E+03 -0.14290827312E+04  0.17443311630E+04  0.50400001928E-02 0.  1.
       -1    1    3    3    0  502 -0.77342788479E+03 -0.63421058082E+03  0.95992317544E+03  0.13863139098E+04  0.50400001928E-02 0. -1.
</event>
<event>
 5   0  0.4219337E-07  0.3080431E+04  0.7818609E-02  0.8221129E-01
       -1   -1    0    0    0  501  0.00000000000E+00  0.00000000000E+00  0.10988510358E+04  0.10988510358E+04  0.50400001928E-02 0. -1.
        1   -1    0    0  501    0  0.00000000000E+00  0.00000000000E+00 -0.21588580131E+04  0.21588580131E+04  0.50400001928E-02 0.  1.
    10030    2    1    2    0    0  0.00000000000E+00  0.00000000000E+00 -0.10600069773E+04  0.32577090489E+04  0.30804307257E+04 0.  0.
        4    1    3    3  502    0  0.34271799520E+03  0.13245498031E+04  0.21807676568E+03  0.13854410467E+04  0.12699999809E+01 0. -1.
       -4    1    3    3    0  502 -0.34271799520E+03 -0.13245498031E+04 -0.12780837430E+04  0.18722680022E+04  0.12699999809E+01 0.  1.
</event>
<event>
 5   0  0.3902375E-07  0.3063956E+04  0.7818609E-02  0.8225700E-01
       -3   -1    0    0    0  501  0.00000000000E+00  0.00000000000E+00  0.12773564050E+04  0.12773564090E+04  0.10100000352E+00 0.  1.
        3   -1    0    0  501    0  0.00000000000E+00  0.00000000000E+00 -0.18373543404E+04  0.18373543432E+04  0.10100000352E+00 0. -1.
    10030    2    1    2    0    0  0.00000000000E+00  0.00000000000E+00 -0.55999793539E+03  0.31147107522E+04  0.30639558388E+04 0.  0.
        4    1    3    3  502    0  0.79537201855E+03  0.10523592524E+04  0.51192948984E+03  0.14149735190E+04  0.12699999809E+01 0.  1.
       -4    1    3    3    0  502 -0.79537201855E+03 -0.10523592524E+04 -0.10719274252E+04  0.16997372332E+04  0.12699999809E+01 0. -1.
</event>
<event>
 5   0  0.3935852E-07  0.3115042E+04  0.7818609E-02  0.8211622E-01
        1   -1    0    0  501    0  0.00000000000E+00  0.00000000000E+00  0.25458585539E+04  0.25458585539E+04  0.50400001928E-02 0. -1.
       -1   -1    0    0    0  501  0.00000000000E+00  0.00000000000E+00 -0.95286956328E+03  0.95286956329E+03  0.50400001928E-02 0.  1.
    10030    2    1    2    0    0  0.00000000000E+00  0.00000000000E+00  0.15929889906E+04  0.34987281172E+04  0.31150416552E+04 0.  0.
        5    1    3    3  502    0  0.32940466040E+02 -0.42293630468E+02 -0.95182508833E+03  0.95334511813E+03  0.46999998093E+01 0.  1.
       -5    1    3    3    0  502 -0.32940466040E+02  0.42293630468E+02  0.25448140790E+04  0.25453829991E+04  0.46999998093E+01 0. -1.
</event>
<event>
 5   0  0.1200286E-06  0.3133085E+04  0.7818609E-02  0.8206716E-01
        2   -1    0    0  501    0  0.00000000000E+00  0.00000000000E+00  0.11395752280E+04  0.11395752280E+04  0.25500000920E-02 0. -1.
       -2   -1    0    0    0  501  0.00000000000E+00  0.00000000000E+00 -0.21534823749E+04  0.21534823749E+04  0.25500000920E-02 0.  1.
    10030    2    1    2    0    0  0.00000000000E+00  0.00000000000E+00 -0.10139071469E+04  0.32930576030E+04  0.31330848495E+04 0.  0.
        5    1    3    3  502    0 -0.58807955012E+03 -0.67074107907E+03  0.84654865032E+03  0.12297958610E+04  0.46999998093E+01 0. -1.
       -5    1    3    3    0  502  0.58807955012E+03  0.67074107907E+03 -0.18604557972E+04  0.20632617420E+04  0.46999998093E+01 0.  1.
</event>
<event>
 5   0  0.1200286E-06  0.3109871E+04  0.7818609E-02  0.8213034E-01
       -2   -1    0    0    0  501  0.00000000000E+00  0.00000000000E+00  0.14651737783E+04  0.14651737783E+04  0.25500000920E-02 0.  1.
        2   -1    0    0  501    0  0.00000000000E+00  0.00000000000E+00 -0.16501961012E+04  0.16501961012E+04  0.25500000920E-02 0. -1.
    10030    2    1    2    0    0  0.00000000000E+00  0.00000000000E+00 -0.18502232290E+03  0.31153698796E+04  0.31098707733E+04 0.  0.
        5    1    3    3  502    0 -0.68903602366E+03  0.13275172285E+04 -0.51838562213E+03  0.15829776931E+04  0.46999998093E+01 0. -1.
       -5    1    3    3    0  502  0.68903602366E+03 -0.13275172285E+04  0.33336329922E+03  0.15323921864E+04  0.46999998093E+01 0.  1.
</event>
<event>
 5   0  0.1193123E-06  0.3108897E+04  0.7818609E-02  0.8213300E-01
        2   -1    0    0  501    0  0.00000000000E+00  0.00000000000E+00  0.23919227690E+04  0.23919227690E+04  0.25500000920E-02 0.  1.
       -2   -1    0    0    0  501  0.00000000000E+00  0.00000000000E+00 -0.10101957412E+04  0.10101957412E+04  0.25500000920E-02 0. -1.
    10030    2    1    2    0    0  0.00000000000E+00  0.00000000000E+00  0.13817270278E+04  0.34021185102E+04  0.31088970357E+04 0.  0.
        3    1    3    3  502    0 -0.46880406425E+03 -0.11564388097E+04 -0.32348159145E+03  0.12890959319E+04  0.10100000352E+00 0. -1.
       -3    1    3    3    0  502  0.46880406425E+03  0.11564388097E+04  0.17052086193E+04  0.21130225784E+04  0.10100000352E+00 0.  1.
</event>
<event>
 5   0  0.1200286E-06  0.3103404E+04  0.7818609E-02  0.8214804E-01
       -2   -1    0    0    0  501  0.00000000000E+00  0.00000000000E+00  0.18027218894E+04  0.18027218894E+04  0.25500000920E-02 0.  1.
        2   -1    0    0  501    0  0.00000000000E+00  0.00000000000E+00 -0.13356351278E+04  0.13356351278E+04  0.25500000920E-02 0. -1.
    10030    2    1    2    0    0  0.00000000000E+00  0.00000000000E+00  0.46708676158E+03  0.31383570172E+04  0.31034037321E+04 0.  0.
        5    1    3    3  502    0 -0.27318534378E+03 -0.58530208101E+03 -0.11932148220E+04  0.13568317728E+04  0.46999998093E+01 0. -1.
       -5    1    3    3    0  502  0.27318534378E+03  0.58530208101E+03  0.16603015836E+04  0.17815252444E+04  0.46999998093E+01 0.  1.
</event>
<event>
 5   0  0.4134019E-07  0.3103200E+04  0.7818609E-02  0.8214860E-01
        1   -1    0    0  501    0  0.00000000000E+00  0.00000000000E+00  0.12149707241E+04  0.12149707241E+04  0.50400001928E-02 0.  1.
       -1   -1    0    0    0  501  0.00000000000E+00  0.00000000000E+00 -0.19814978944E+04  0.19814978944E+04  0.50400001928E-02 0. -1.
    10030    2    1    2    0    0  0.00000000000E+00  0.00000000000E+00 -0.76652717026E+03  0.31964686185E+04  0.31031995950E+04 0.  0.
        2    1    3    3  502    0 -0.91445873207E+03  0.96172917413E+03 -0.12113567672E+04  0.17968146801E+04  0.25500000920E-02 0. -1.
       -2    1    3    3    0  502  0.91445873207E+03 -0.96172917413E+03  0.44482959695E+03  0.13996539384E+04  0.25500000920E-02 0.  1.
</event>
<event>
 5   0  0.1193123E-06  0.3093663E+04  0.7818609E-02  0.8217479E-01
        2   -1    0    0  501    0  0.00000000000E+00  0.00000000000E+00  0.11089857695E+04  0.11089857695E+04  0.25500000920E-02 0.  1.
       -2   -1    0    0    0  501  0.00000000000E+00  0.00000000000E+00 -0.21575457768E+04  0.21575457768E+04  0.25500000920E-02 0. -1.
    10030    2    1    2    0    0  0.00000000000E+00  0.00000000000E+00 -0.10485600073E+04  0.32665315463E+04  0.30936629186E+04 0.  0.
        3    1    3    3  502    0  0.78298209848E+03 -0.42988808545E+03  0.80914957830E+03  0.12052334972E+04  0.10100000352E+00 0.  1.
       -3    1    3    3    0  502 -0.78298209848E+03  0.42988808545E+03 -0.18577095856E+04  0.20612980491E+04  0.10100000352E+00 0. -1.
</event>
<event>
 5   0  0.1176002E-06  0.3076149E+04  0.7818609E-02  0.8222314E-01
        2   -1    0    0  501    0  0.00000000000E+00  0.00000000000E+00  0.15271093855E+04  0.15271093855E+04  0.25500000920E-02 0.  1.
       -2   -1    0    0    0  501  0.00000000000E+00  0.00000000000E+00 -0.15491179389E+04  0.15491179389E+04  0.25500000920E-02 0. -1.
    10030    2    1    2    0    0  0.00000000000E+00  0.00000000000E+00 -0.22008553374E+02  0.30762273244E+04  0.30761485944E+04 0.  0.
        2    1    3    3  502    0  0.98011499669E+03 -0.86021754774E+03 -0.82654517161E+03  0.15439483660E+04  0.25500000920E-02 0. -1.
       -2    1    3    3    0  502 -0.98011499669E+03  0.86021754774E+03  0.80453661824E+03  0.15322789584E+04  0.25500000920E-02 0.  1.
</event>
<event>
 5   0  0.1193123E-06  0.3041337E+04  0.7818609E-02  0.8232025E-01
        2   -1    0    0  501    0  0.00000000000E+00  0.00000000000E+00  0.13947378120E+04  0.13947378120E+04  0.25500000920E-02 0.  1.
       -2   -1    0    0    0  501  0.00000000000E+00  0.00000000000E+00 -0.16579690631E+04  0.16579690631E+04  0.25500000920E-02 0. -1.
    10030    2    1    2    0    0  0.00000000000E+00  0.00000000000E+00 -0.26323125108E+03  0.30527068751E+04  0.30413366426E+04 0.  0.
        3    1    3    3  502    0 -0.12685345575E+04  0.83860074256E+03 -0.13262150845E+03  0.15264401736E+04  0.10100000352E+00 0.  1.
       -3    1    3    3    0  502  0.12685345575E+04 -0.83860074256E+03 -0.13060974263E+03  0.15262667014E+04  0.10100000352E+00 0. -1.
</event>
<event>
 5   0  0.4134019E-07  0.3062850E+04  0.7818609E-02  0.8226008E-01
       -1   -1    0    0    0  501  0.00000000000E+00  0.00000000000E+00  0.25316902992E+04  0.25316902992E+04  0.50400001928E-02 0.  1.
        1   -1    0    0  501    0  0.00000000000E+00  0.00000000000E+00 -0.92636233076E+03  0.92636233077E+03  0.50400001928E-02 0. -1.
    10030    2    1    2    0    0  0.00000000000E+00  0.00000000000E+00  0.16053279685E+04  0.34580526300E+04  0.30628499972E+04 0.  0.
        2    1    3    3  502    0  0.96245477091E+03 -0.94468633445E+03  0.16219011082E+04  0.21093398639E+04  0.25500000920E-02 0.  1.
       -2    1    3    3    0  502 -0.96245477091E+03  0.94468633445E+03 -0.16573139734E+02  0.13487127661E+04  0.25500000920E-02 0. -1.
</event>
<event>
 5   0  0.1176002E-06  0.3134682E+04  0.7818609E-02  0.8206284E-01
       -2   -1    0    0    0  501  0.00000000000E+00  0.00000000000E+00  0.12268313885E+04  0.12268313885E+04  0.25500000920E-02 0. -1.
        2   -1    0    0  501    0  0.00000000000E+00  0.00000000000E+00 -0.20023593812E+04  0.20023593812E+04  0.25500000920E-02 0.  1.
    10030    2    1    2    0    0  0.00000000000E+00  0.00000000000E+00 -0.77552799267E+03  0.32291907697E+04  0.31346816999E+04 0.  0.
        2    1    3    3  502    0  0.24578148185E+03  0.93646019301E+03  0.88195161424E+03  0.13096583065E+04  0.25500000920E-02 0. -1.
       -2    1    3    3    0  502 -0.24578148185E+03 -0.93646019301E+03 -0.16574796069E+04  0.19195324632E+04  0.25500000920E-02 0.  1.
</event>
<event>
 5   0  0.4219337E-07  0.3118677E+04  0.7818609E-02  0.8210631E-01
        1   -1    0    0  501    0  0.00000000000E+00  0.00000000000E+00  0.13233232680E+04  0.13233232680E+04  0.50400001928E-02 0. -1.
       -1   -1    0    0    0  501  0.00000000000E+00  0.00000000000E+00 -0.18374473401E+04  0.18374473401E+04  0.50400001928E-02 0.  1.
    10030    2    1    2    0    0  0.00000000000E+00  0.00000000000E+00 -0.51412407211E+03  0.31607706081E+04  0.31186771676E+04 0.  0.
        4    1    3    3  502    0  0.35533497944E+03 -0.57307126001E+03 -0.16820483361E+04  0.18121704761E+04  0.12699999809E+01 0.  1.
       -4    1    3    3    0  502 -0.35533497944E+03  0.57307126001E+03  0.11679242640E+04  0.13486001320E+04  0.12699999809E+01 0. -1.
</event>
<event>
 5   0  0.4219337E-07  0.3104327E+04  0.7818609E-02  0.8214551E-01
       -1   -1    0    0    0  501  0.00000000000E+00  0.00000000000E+00  0.12120004047E+04  0.12120004047E+04  0.50400001928E-02 0.  1.
        1   -1    0    0  501    0  0.00000000000E+00  0.00000000000E+00 -0.19877975403E+04  0.19877975404E+04  0.50400001928E-02 0. -1.
    10030    2    1    2    0    0  0.00000000000E+00  0.00000000000E+00 -0.77579713561E+03  0.31997979451E+04  0.31043269309E+04 0.  0.
        4    1    3    3  502    0 -0.10615252415E+04 -0.58880906519E+03 -0.13849516459E+04  0.18416363995E+04  0.12699999809E+01 0. -1.
       -4    1    3    3    0  502  0.10615252415E+04  0.58880906519E+03  0.60915451030E+03  0.13581615456E+04  0.12699999809E+01 0.  1.
</event>
<event>
 5   0  0.1237580E-06  0.3093226E+04  0.7818609E-02  0.8217599E-01
       -2   -1    0    0    0  501  0.00000000000E+00  0.00000000000E+00  0.13950245482E+04  0.13950245482E+04  0.25500000920E-02 0.  1.
        2   -1    0    0  501    0  0.00000000000E+00  0.00000000000E+00 -0.17146736583E+04  0.17146736583E+04  0.25500000920E-02 0. -1.
    10030    2    1    2    0    0  0.00000000000E+00  0.00000000000E+00 -0.31964911015E+03  0.31096982065E+04  0.30932260476E+04 0.  0.
        4    1    3    3  502    0 -0.48864612501E+03 -0.12527859572E+03  0.13099941080E+04  0.14037649155E+04  0.12699999809E+01 0.  1.
       -4    1    3    3    0  502  0.48864612501E+03  0.12527859572E+03 -0.16296432181E+04  0.17059332910E+04  0.12699999809E+01 0. -1.
</event>
<event>
 5   0  0.4173905E-07  0.3101065E+04  0.7818609E-02  0.8215446E-01
       -1   -1    0    0    0  501  0.00000000000E+00  0.00000000000E+00  0.14410797568E+04  0.14410797569E+04  0.50400001928E-02 0.  1.
        1   -1    0    0  501    0  0.00000000000E+00  0.00000000000E+00 -0.16682984909E+04  0.16682984909E+04  0.50400001928E-02 0. -1.
    10030    2    1    2    0    0  0.00000000000E+00  0.00000000000E+00 -0.22721873401E+03  0.31093782477E+04  0.31010650967E+04 0.  0.
        3    1    3    3  502    0 -0.96777624026E+03  0.65268001487E+03  0.90969946155E+03  0.14799105289E+04  0.10100000352E+00 0.  1.
       -3    1    3    3    0  502  0.96777624026E+03 -0.65268001487E+03 -0.11369181956E+04  0.16294677188E+04  0.10100000352E+00 0. -1.
</event>
<event>
 5   0  0.4134019E-07  0.3103549E+04  0.7818609E-02  0.8214764E-01
       -1   -1    0    0    0  501  0.00000000000E+00  0.00000000000E+00  0.19712377422E+04  0.19712377422E+04  0.50400001928E-02 0.  1.
        1   -1    0    0  501    0  0.00000000000E+00  0.00000000000E+00 -0.12215699569E+04  0.12215699569E+04  0.50400001928E-02 0. -1.
    10030    2    1    2    0    0  0.00000000000E+00  0.00000000000E+00  0.74966778525E+03  0.31928076991E+04  0.31035494543E+04 0.  0.
        2    1    3    3  502    0  0.91964781402E+03 -0.97220337753E+03 -0.43329841187E+03  0.14066552608E+04  0.25500000920E-02 0. -1.
       -2    1    3    3    0  502 -0.91964781402E+03  0.97220337753E+03  0.11829661971E+04  0.17861524382E+04  0.25500000920E-02 0.  1.
</event>
<event>
 5   0  0.1193123E-06  0.3100222E+04  0.7818609E-02  0.8215677E-01
       -2   -1    0    0    0  501  0.00000000000E+00  0.00000000000E+00  0.10867371149E+04  0.10867371149E+04  0.25500000920E-02 0.  1.
        2   -1    0    0  501    0  0.00000000000E+00  0.00000000000E+00 -0.22110633856E+04  0.22110633856E+04  0.25500000920E-02 0. -1.
    10030    2    1    2    0    0  0.00000000000E+00  0.00000000000E+00 -0.11243262707E+04  0.32978005005E+04  0.31002223433E+04 0.  0.
        3    1    3    3  502    0  0.58544701195E+03  0.15919007702E+03 -0.20795195133E+04  0.21662158482E+04  0.10100000352E+00 0. -1.
       -3    1    3    3    0  502 -0.58544701195E+03 -0.15919007702E+03  0.95519324262E+03  0.11315846523E+04  0.10100000352E+00 0.  1.
</event>
<event>
 5   0  0.1193123E-06  0.3099112E+04  0.7818609E-02  0.8215982E-01
        2   -1    0    0  501    0  0.00000000000E+00  0.00000000000E+00  0.16582117424E+04  0.16582117425E+04  0.25500000920E-02 0. -1.
       -2   -1    0    0    0  501  0.00000000000E+00  0.00000000000E+00 -0.14480198464E+04  0.14480198464E+04  0.25500000920E-02 0.  1.
    10030    2    1    2    0    0  0.00000000000E+00  0.00000000000E+00  0.21019189603E+03  0.31062315889E+04  0.30991118164E+04 0.  0.
        3    1    3    3  502    0 -0.20380416599E+03 -0.90299379531E+03 -0.11404131189E+04  0.14688349207E+04  0.10100000352E+00 0.  1.
       -3    1    3    3    0  502  0.20380416599E+03  0.90299379531E+03  0.13506050149E+04  0.16373966682E+04  0.10100000352E+00 0. -1.
</event>
<event>
 5   0  0.1176002E-06  0.3122479E+04  0.7818609E-02  0.8209596E-01
        2   -1    0    0  501    0  0.00000000000E+00  0.00000000000E+00  0.13976186321E+04  0.13976186321E+04  0.25500000920E-02 0.  1.
       -2   -1    0    0    0  501  0.00000000000E+00  0.00000000000E+00 -0.17440156927E+04  0.17440156927E+04  0.25500000920E-02 0. -1.
    10030    2    1    2    0    0  0.00000000000E+00  0.00000000000E+00 -0.34639706058E+03  0.31416343248E+04  0.31224790323E+04 0.  0.
        2    1    3    3  502    0  0.14876595410E+04 -0.38562933773E+03 -0.44989091803E+03  0.16013253056E+04  0.25500000920E-02 0. -1.
       -2    1    3    3    0  502 -0.14876595410E+04  0.38562933773E+03  0.10349385744E+03  0.15403090192E+04  0.25500000920E-02 0.  1.
</event>
<event>
 5   0  0.4330395E-07  0.3187890E+04  0.7818609E-02  0.8192023E-01
       -1   -1    0    0    0  501  0.00000000000E+00  0.00000000000E+00  0.13130415178E+04  0.13130415178E+04  0.50400001928E-02 0.  1.
        1   -1    0    0  501    0  0.00000000000E+00  0.00000000000E+00 -0.19349426971E+04  0.19349426971E+04  0.50400001928E-02 0. -1.
    10030    2    1    2    0    0  0.00000000000E+00  0.00000000000E+00 -0.62190117925E+03  0.32479842149E+04  0.31878896442E+04 0.  0.
        1    1    3    3  502    0 -0.13275637926E+04  0.83712603153E+03 -0.59450336459E+03  0.16782847990E+04  0.50400001928E-02 0. -1.
       -1    1    3    3    0  502  0.13275637926E+04 -0.83712603153E+03 -0.27397814658E+02  0.15696994159E+04  0.50400001928E-02 0.  1.
</event>
<event>
 5   0  0.1237580E-06  0.3088630E+04  0.7818609E-02  0.8218865E-01
       -2   -1    0    0    0  501  0.00000000000E+00  0.00000000000E+00  0.14836333815E+04  0.14836333815E+04  0.25500000920E-02 0.  1.
        2   -1    0    0  501    0  0.00000000000E+00  0.00000000000E+00 -0.16074780968E+04  0.16074780968E+04  0.25500000920E-02 0. -1.
    10030    2    1    2    0    0  0.00000000000E+00  0.00000000000E+00 -0.12384471526E+03  0.30911114783E+04  0.30886295760E+04 0.  0.
        4    1    3    3  502    0 -0.12198859093E+04  0.36169798733E+03  0.81397202576E+03  0.15104632194E+04  0.12699999809E+01 0.  1.
       -4    1    3    3    0  502  0.12198859093E+04 -0.36169798733E+03 -0.93781674102E+03  0.15806482589E+04  0.12699999809E+01 0. -1.
</event>
<event>
 5   0  0.4173905E-07  0.3092462E+04  0.7818609E-02  0.8217810E-01
        1   -1    0    0  501    0  0.00000000000E+00  0.00000000000E+00  0.18032266101E+04  0.18032266101E+04  0.50400001928E-02 0. -1.
       -1   -1    0    0    0  501  0.00000000000E+00  0.00000000000E+00 -0.13258619517E+04  0.13258619517E+04  0.50400001928E-02 0.  1.
    10030    2    1    2    0    0  0.00000000000E+00  0.00000000000E+00  0.47736465846E+03  0.31290885618E+04  0.30924615132E+04 0.  0.
        3    1    3    3  502    0 -0.70474163879E+03 -0.13281234673E+03  0.16247718067E+04  0.17760020639E+04  0.10100000352E+00 0. -1.
       -3    1    3    3    0  502  0.70474163879E+03  0.13281234673E+03 -0.11474071482E+04  0.13530864979E+04  0.10100000352E+00 0.  1.
</event>
<event>
 5   0  0.1193123E-06  0.3028674E+04  0.7818609E-02  0.8235590E-01
       -2   -1    0    0    0  501  0.00000000000E+00  0.00000000000E+00  0.11700278710E+04  0.11700278710E+04  0.25500000920E-02 0. -1.
        2   -1    0    0  501    0  0.00000000000E+00  0.00000000000E+00 -0.19599672254E+04  0.19599672254E+04  0.25500000920E-02 0.  1.
    10030    2    1    2    0    0  0.00000000000E+00  0.00000000000E+00 -0.78993935440E+03  0.31299950965E+04  0.30286738220E+04 0.  0.
        3    1    3    3  502    0  0.13196247343E+03 -0.79833154063E+03  0.92787927636E+03  0.12311406519E+04  0.10100000352E+00 0. -1.
       -3    1    3    3    0  502 -0.13196247343E+03  0.79833154063E+03 -0.17178186308E+04  0.18988544445E+04  0.10100000352E+00 0.  1.
</event>
<event>
 5   0  0.1200286E-06  0.3071704E+04  0.7818609E-02  0.8223547E-01
       -2   -1    0    0    0  501  0.00000000000E+00  0.00000000000E+00  0.11115616907E+04  0.11115616907E+04  0.25500000920E-02 0.  1.
        2   -1    0    0  501    0  0.00000000000E+00  0.00000000000E+00 -0.21220972007E+04  0.21220972007E+04  0.25500000920E-02 0. -1.
    10030    2    1    2    0    0  0.00000000000E+00  0.00000000000E+00 -0.10105355100E+04  0.32336588914E+04  0.30717043817E+04 0.  0.
        5    1    3    3  502    0 -0.13719418836E+04 -0.66996299907E+03 -0.32991748106E+03  0.15620315575E+04  0.46999998093E+01 0.  1.
       -5    1    3    3    0  502  0.13719418836E+04  0.66996299907E+03 -0.68061802894E+03  0.16716273339E+04  0.46999998093E+01 0. -1.
</event>
<event>
 5   0  0.4330395E-07  0.3117296E+04  0.7818609E-02  0.8211007E-01
       -1   -1    0    0    0  501  0.00000000000E+00  0.00000000000E+00  0.14242803424E+04  0.14242803424E+04  0.50400001928E-02 0. -1.
        1   -1    0    0  501    0  0.00000000000E+00  0.00000000000E+00 -0.17056920034E+04  0.17056920034E+04  0.50400001928E-02 0.  1.
    10030    2    1    2    0    0  0.00000000000E+00  0.00000000000E+00 -0.28141166094E+03  0.31299723458E+04  0.31172960018E+04 0.  0.
        1    1    3    3  502    0 -0.13327241972E+01  0.54753540782E+02  0.14233138462E+04  0.14243672388E+04  0.50400001928E-02 0. -1.
       -1    1    3    3    0  502  0.13327241972E+01 -0.54753540782E+02 -0.17047255071E+04  0.17056051070E+04  0.50400001928E-02 0.  1.
</event>
<event>
 5   0  0.4330395E-07  0.3105416E+04  0.7818609E-02  0.8214253E-01
       -1   -1    0    0    0  501  0.00000000000E+00  0.00000000000E+00  0.11004109066E+04  0.11004109066E+04  0.50400001928E-02 0. -1.
        1   -1    0    0  501    0  0.00000000000E+00  0.00000000000E+00 -0.21909102725E+04  0.21909102725E+04  0.50400001928E-02 0.  1.
    10030    2    1    2    0    0  0.00000000000E+00  0.00000000000E+00 -0.10904993660E+04  0.32913211791E+04  0.31054156303E+04 0.  0.
        1    1    3    3  502    0 -0.13651305065E+04 -0.73160920551E+03 -0.66168167225E+03  0.16842375025E+04  0.50400001928E-02 0.  1.
       -1    1    3    3    0  502  0.13651305065E+04  0.73160920551E+03 -0.42881769370E+03  0.16070836767E+04  0.50400001928E-02 0. -1.
</event>
<event>
 5   0  0.1258262E-06  0.3102936E+04  0.7818609E-02  0.8214933E-01
       -2   -1    0    0    0  501  0.00000000000E+00  0.00000000000E+00  0.13269142439E+04  0.13269142439E+04  0.25500000920E-02 0. -1.
        2   -1    0    0  501    0  0.00000000000E+00  0.00000000000E+00 -0.18140226027E+04  0.18140226027E+04  0.25500000920E-02 0.  1.
    10030    2    1    2    0    0  0.00000000000E+00  0.00000000000E+00 -0.48710835878E+03  0.31409368466E+04  0.31029356617E+04 0.  0.
        1    1    3    3  502    0 -0.82320838488E+03 -0.57863097043E+02  0.10863210176E+04  0.13642263508E+04  0.50400001928E-02 0. -1.
       -1    1    3    3    0  502  0.82320838488E+03  0.57863097043E+02 -0.15734293764E+04  0.17767104957E+04  0.50400001928E-02 0.  1.
</event>
<event>
 5   0  0.4219337E-07  0.3095917E+04  0.7818609E-02  0.8216859E-01
       -1   -1    0    0    0  501  0.00000000000E+00  0.00000000000E+00  0.90622199429E+03  0.90622199431E+03  0.50400001928E-02 0. -1.
        1   -1    0    0  501    0  0.00000000000E+00  0.00000000000E+00 -0.26441372403E+04  0.26441372403E+04  0.50400001928E-02 0.  1.
    10030    2    1    2    0    0  0.00000000000E+00  0.00000000000E+00 -0.17379152460E+04  0.35503592346E+04  0.30959168743E+04 0.  0.
        4    1    3    3  502    0  0.80622554706E+03 -0.12526379632E+04 -0.13515252807E+04  0.20113984431E+04  0.12699999809E+01 0. -1.
       -4    1    3    3    0  502 -0.80622554706E+03  0.12526379632E+04 -0.38638996526E+03  0.15389607915E+04  0.12699999809E+01 0.  1.
</event>
<event>
 5   0  0.1200286E-06  0.3103315E+04  0.7818609E-02  0.8214829E-01
        2   -1    0    0  501    0  0.00000000000E+00  0.00000000000E+00  0.14812271157E+04  0.14812271157E+04  0.25500000920E-02 0.  1.
       -2   -1    0    0    0  501  0.00000000000E+00  0.00000000000E+00 -0.16254362591E+04  0.16254362591E+04  0.25500000920E-02 0. -1.
    10030    2    1    2    0    0  0.00000000000E+00  0.00000000000E+00 -0.14420914338E+03  0.31066633748E+04  0.31033145260E+04 0.  0.
        5    1    3    3  502    0 -0.92809431354E+03 -0.46048193205E+03 -0.12284335120E+04  0.16070076689E+04  0.46999998093E+01 0. -1.
       -5    1    3    3    0  502  0.92809431354E+03  0.46048193205E+03  0.10842243686E+04  0.14996557058E+04  0.46999998093E+01 0.  1.
</event>
<event>
 5   0  0.4134019E-07  0.3105214E+04  0.7818609E-02  0.8214309E-01
        1   -1    0    0  501    0  0.00000000000E+00  0.00000000000E+00  0.16374124179E+04  0.16374124179E+04  0.50400001928E-02 0. -1.
       -1   -1    0    0    0  501  0.00000000000E+00  0.00000000000E+00 -0.14721933792E+04  0.14721933792E+04  0.50400001928E-02 0.  1.
    10030    2    1    2    0    0  0.00000000000E+00  0.00000000000E+00  0.16521903869E+03  0.31096057971E+04  0.31052135003E+04 0.  0.
        2    1    3    3  502    0  0.89059855165E+03 -0.62223649900E+03  0.11933419257E+04  0.16138181411E+04  0.25500000920E-02 0. -1.
       -2    1    3    3    0  502 -0.89059855165E+03  0.62223649900E+03 -0.10281228870E+04  0.14957876560E+04  0.25500000920E-02 0.  1.
</event>
<event>
 5   0  0.3935852E-07  0.3095371E+04  0.7818609E-02  0.8217009E-01
       -1   -1    0    0    0  501  0.00000000000E+00  0.00000000000E+00  0.15978840810E+04  0.15978840810E+04  0.50400001928E-02 0.  1.
        1   -1    0    0  501    0  0.00000000000E+00  0.00000000000E+00 -0.14990638681E+04  0.14990638681E+04  0.50400001928E-02 0. -1.
    10030    2    1    2    0    0  0.00000000000E+00  0.00000000000E+00  0.98820212889E+02  0.30969479491E+04  0.30953709253E+04 0.  0.
        5    1    3    3  502    0  0.91336548712E+02  0.71959458099E+03  0.14172750640E+04  0.15921210453E+04  0.46999998093E+01 0.  1.
       -5    1    3    3    0  502 -0.91336548712E+02 -0.71959458099E+03 -0.13184548511E+04  0.15048269038E+04  0.46999998093E+01 0. -1.
</event>
<event>
 5   0  0.4173905E-07  0.3091441E+04  0.7818609E-02  0.8218091E-01
        1   -1    0    0  501    0  0.00000000000E+00  0.00000000000E+00  0.17181842628E+04  0.17181842629E+04  0.50400001928E-02 0.  1.
       -1   -1    0    0    0  501  0.00000000000E+00  0.00000000000E+00 -0.13905678652E+04  0.13905678652E+04  0.50400001928E-02 0. -1.
    10030    2    1    2    0    0  0.00000000000E+00  0.00000000000E+00  0.32761639764E+03  0.31087521281E+04  0.30914409730E+04 0.  0.
        3    1    3    3  502    0  0.49850921208E+03  0.68874864593E+03 -0.11342982074E+04  0.14175748888E+04  0.10100000352E+00 0. -1.
       -3    1    3    3    0  502 -0.49850921208E+03 -0.68874864593E+03  0.14619146051E+04  0.16911772393E+04  0.10100000352E+00 0.  1.
</event>
<event>
 5   0  0.1200286E-06  0.3094293E+04  0.7818609E-02  0.8217306E-01
       -2   -1    0    0    0  501  0.00000000000E+00  0.00000000000E+00  0.22554318586E+04  0.22554318586E+04  0.25500000920E-02 0. -1.
        2   -1    0    0  501    0  0.00000000000E+00  0.00000000000E+00 -0.10612879868E+04  0.10612879868E+04  0.25500000920E-02 0.  1.
    10030    2    1    2    0    0  0.00000000000E+00  0.00000000000E+00  0.11941438718E+04  0.33167198455E+04  0.30942932871E+04 0.  0.
        5    1    3    3  502    0  0.45270479339E+03  0.47378192768E+02  0.21820290618E+04  0.22290040914E+04  0.46999998093E+01 0. -1.
       -5    1    3    3    0  502 -0.45270479339E+03 -0.47378192768E+02 -0.98788518996E+03  0.10877157541E+04  0.46999998093E+01 0.  1.
</event>
<event>
 5   0  0.4134019E-07  0.3097090E+04  0.7818609E-02  0.8216537E-01
       -1   -1    0    0    0  501  0.00000000000E+00  0.00000000000E+00  0.18203265912E+04  0.18203265912E+04  0.50400001928E-02 0. -1.
        1   -1    0    0  501    0  0.00000000000E+00  0.00000000000E+00 -0.13173411491E+04  0.13173411491E+04  0.50400001928E-02 0.  1.
    10030    2    1    2    0    0  0.00000000000E+00  0.00000000000E+00  0.50298544215E+03  0.31376677403E+04  0.30970896813E+04 0.  0.
        2    1    3    3  502    0  0.13943857107E+04  0.22837017854E+02 -0.43049732687E+03  0.14595071045E+04  0.25500000920E-02 0.  1.
       -2    1    3    3    0  502 -0.13943857107E+04 -0.22837017854E+02  0.93348276902E+03  0.16781606358E+04  0.25500000920E-02 0. -1.
</event>
<event>
 5   0  0.4173905E-07  0.3103034E+04  0.7818609E-02  0.8214906E-01
       -1   -1    0    0    0  501  0.00000000000E+00  0.00000000000E+00  0.11410050933E+04  0.11410050933E+04  0.50400001928E-02 0.  1.
        1   -1    0    0  501    0  0.00000000000E+00  0.00000000000E+00 -0.21097239079E+04  0.21097239080E+04  0.50400001928E-02 0. -1.
    10030    2    1    2    0    0  0.00000000000E+00  0.00000000000E+00 -0.96871881468E+03  0.32507290012E+04  0.31030344661E+04 0.  0.
        3    1    3    3  502    0 -0.91138049550E+03 -0.67889164313E+03  0.62218127456E+03  0.12956148422E+04  0.10100000352E+00 0.  1.
       -3    1    3    3    0  502  0.91138049550E+03  0.67889164313E+03 -0.15909000892E+04  0.19551141590E+04  0.10100000352E+00 0. -1.
</event>
<event>
 5   0  0.1193123E-06  0.3119319E+04  0.7818609E-02  0.8210456E-01
        2   -1    0    0  501    0  0.00000000000E+00  0.00000000000E+00  0.27886563161E+04  0.27886563161E+04  0.25500000920E-02 0. -1.
       -2   -1    0    0    0  501  0.00000000000E+00  0.00000000000E+00 -0.87229764245E+03  0.87229764245E+03  0.25500000920E-02 0.  1.
    10030    2    1    2    0    0  0.00000000000E+00  0.00000000000E+00  0.19163586736E+04  0.36609539585E+04  0.31193193681E+04 0.  0.
        3    1    3    3  502    0 -0.13246151461E+04 -0.40178550813E+03  0.18016504111E+04  0.22719993605E+04  0.10100000352E+00 0. -1.
       -3    1    3    3    0  502  0.13246151461E+04  0.40178550813E+03  0.11470826249E+03  0.13889545981E+04  0.10100000352E+00 0.  1.
</event>
<event>
 5   0  0.1200286E-06  0.3124603E+04  0.7818609E-02  0.8209018E-01
        2   -1    0    0  501    0  0.00000000000E+00  0.00000000000E+00  0.19304843132E+04  0.19304843132E+04  0.25500000920E-02 0. -1.
       -2   -1    0    0    0  501  0.00000000000E+00  0.00000000000E+00 -0.12643384374E+04  0.12643384374E+04  0.25500000920E-02 0.  1.
    10030    2    1    2    0    0  0.00000000000E+00  0.00000000000E+00  0.66614587578E+03  0.31948227506E+04  0.31246027076E+04 0.  0.
        5    1    3    3  502    0  0.13862406124E+04  0.48557705686E+02 -0.40192999667E+03  0.14441574355E+04  0.46999998093E+01 0.  1.
       -5    1    3    3    0  502 -0.13862406124E+04 -0.48557705686E+02  0.10680758725E+04  0.17506653151E+04  0.46999998093E+01 0. -1.
</event>
<event>
 5   0  0.1258262E-06  0.3094345E+04  0.7818609E-02  0.8217292E-01
        2   -1    0    0  501    0  0.00000000000E+00  0.00000000000E+00  0.19393575128E+04  0.19393575128E+04  0.25500000920E-02 0.  1.
       -2   -1    0    0    0  501  0.00000000000E+00  0.00000000000E+00 -0.12342968910E+04  0.12342968910E+04  0.25500000920E-02 0. -1.
    10030    2    1    2    0    0  0.00000000000E+00  0.00000000000E+00  0.70506062179E+03  0.31736544038E+04  0.30943451317E+04 0.  0.
        1    1    3    3  502    0  0.54598312803E+03  0.74381239399E+03  0.16262907880E+04  0.18698064554E+04  0.50400001928E-02 0.  1.
       -1    1    3    3    0  502 -0.54598312803E+03 -0.74381239399E+03 -0.92123016616E+03  0.13038479484E+04  0.50400001928E-02 0. -1.
</event>
<event>
 5   0  0.4219337E-07  0.3092168E+04  0.7818609E-02  0.8217891E-01
        1   -1    0    0  501    0  0.00000000000E+00  0.00000000000E+00  0.11283501811E+04  0.11283501811E+04  0.50400001928E-02 0.  1.
       -1   -1    0    0    0  501  0.00000000000E+00  0.00000000000E+00 -0.21184700183E+04  0.21184700183E+04  0.50400001928E-02 0. -1.
    10030    2    1    2    0    0  0.00000000000E+00  0.00000000000E+00 -0.99011983716E+03  0.32468201995E+04  0.30921681901E+04 0.  0.
        4    1    3    3  502    0 -0.57614294971E+03 -0.13012401649E+04 -0.11296088601E+04  0.18169161937E+04  0.12699999809E+01 0. -1.
       -4    1    3    3    0  502  0.57614294971E+03  0.13012401649E+04  0.13948902290E+03  0.14299040058E+04  0.12699999809E+01 0.  1.
</event>
<event>
 5   0  0.3935852E-07  0.3101187E+04  0.7818609E-02  0.8215412E-01
       -1   -1    0    0    0  501  0.00000000000E+00  0.00000000000E+00  0.11229226298E+04  0.11229226298E+04  0.50400001928E-02 0.  1.
        1   -1    0    0  501    0  0.00000000000E+00  0.00000000000E+00 -0.21411456061E+04  0.21411456061E+04  0.50400001928E-02 0. -1.
    10030    2    1    2    0    0  0.00000000000E+00  0.00000000000E+00 -0.10182229763E+04  0.32640682359E+04  0.31011874208E+04 0.  0.
        5    1    3    3  502    0 -0.14821629992E+04 -0.32512072298E+03 -0.17327921213E+03  0.15272715594E+04  0.46999998093E+01 0.  1.
       -5    1    3    3    0  502  0.14821629992E+04  0.32512072298E+03 -0.84494376418E+03  0.17367966765E+04  0.46999998093E+01 0. -1.
</event>
<event>
 5   0  0.4173905E-07  0.3096302E+04  0.7818609E-02  0.8216754E-01
       -1   -1    0    0    0  501  0.00000000000E+00  0.00000000000E+00  0.12082433592E+04  0.12082433592E+04  0.50400001928E-02 0.  1.
        1   -1    0    0  501    0  0.00000000000E+00  0.00000000000E+00 -0.19836826134E+04  0.19836826134E+04  0.50400001928E-02 0. -1.
    10030    2    1    2    0    0  0.00000000000E+00  0.00000000000E+00 -0.77543925416E+03  0.31919259726E+04  0.30963018873E+04 0.  0.
        3    1    3    3  502    0 -0.66899718454E+03  0.15555038033E+03 -0.18180189427E+04  0.19434366571E+04  0.10100000352E+00 0. -1.
       -3    1    3    3    0  502  0.66899718454E+03 -0.15555038033E+03  0.10425796886E+04  0.12484893155E+04  0.10100000352E+00 0.  1.
</event>
<event>
 5   0  0.1176002E-06  0.3116359E+04  0.7818609E-02  0.8211263E-01
       -2   -1    0    0    0  501  0.00000000000E+00  0.00000000000E+00  0.10545521999E+04  0.10545521999E+04  0.25500000920E-02 0. -1.
        2   -1    0    0  501    0  0.00000000000E+00  0.00000000000E+00 -0.23023264318E+04  0.23023264318E+04  0.25500000920E-02 0.  1.
    10030    2    1    2    0    0  0.00000000000E+00  0.00000000000E+00 -0.12477742320E+04  0.33568786317E+04  0.31163590316E+04 0.  0.
        2    1    3    3  502    0  0.29601043498E+03 -0.12254382832E+04 -0.16103168669E+04  0.20451018497E+04  0.25500000920E-02 0.  1.
       -2    1    3    3    0  502 -0.29601043498E+03  0.12254382832E+04  0.36254263496E+03  0.13117767820E+04  0.25500000920E-02 0. -1.
</event>
<event>
 5   0  0.4173905E-07  0.3100906E+04  0.7818609E-02  0.8215489E-01
        1   -1    0    0  501    0  0.00000000000E+00  0.00000000000E+00  0.25910789237E+04  0.25910789237E+04  0.50400001928E-02 0.  1.
       -1   -1    0    0    0  501  0.00000000000E+00  0.00000000000E+00 -0.92776181837E+03  0.92776181838E+03  0.50400001928E-02 0. -1.
    10030    2    1    2    0    0  0.00000000000E+00  0.00000000000E+00  0.16633171053E+04  0.35188407420E+04  0.31009057346E+04 0.  0.
        3    1    3    3  502    0  0.10572383273E+04 -0.85317738409E+03 -0.16195987486E+02  0.13586489060E+04  0.10100000352E+00 0. -1.
       -3    1    3    3    0  502 -0.10572383273E+04  0.85317738409E+03  0.16795130928E+04  0.21601918360E+04  0.10100000352E+00 0.  1.
</event>
<event>
 5   0  0.4134019E-07  0.3099002E+04  0.7818609E-02  0.8216012E-01
       -1   -1    0    0    0  501  0.00000000000E+00  0.00000000000E+00  0.22976955267E+04  0.22976955267E+04  0.50400001928E-02 0.  1.
        1   -1    0    0  501    0  0.00000000000E+00  0.00000000000E+00 -0.10449394805E+04  0.10449394805E+04  0.50400001928E-02 0. -1.
    10030    2    1    2    0    0  0.00000000000E+00  0.00000000000E+00  0.12527560462E+04  0.33426350072E+04  0.30990016264E+04 0.  0.
        2    1    3    3  502    0  0.72041525038E+03 -0.37698869251E+03 -0.79634736089E+03  0.11381070804E+04  0.25500000920E-02 0. -1.
       -2    1    3    3    0  502 -0.72041525038E+03  0.37698869251E+03  0.20491034071E+04  0.22045279268E+04  0.25500000920E-02 0.  1.
</event>
<event>
 5   0  0.4219337E-07  0.3117947E+04  0.7818609E-02  0.8210830E-01
       -1   -1    0    0    0  501  0.00000000000E+00  0.00000000000E+00  0.11015684019E+04  0.11015684019E+04  0.50400001928E-02 0.  1.
        1   -1    0    0  501    0  0.00000000000E+00  0.00000000000E+00 -0.22063069913E+04  0.22063069913E+04  0.50400001928E-02 0. -1.
    10030    2    1    2    0    0  0.00000000000E+00  0.00000000000E+00 -0.11047385894E+04  0.33078753932E+04  0.31179468029E+04 0.  0.
        4    1    3    3  502    0  0.17953151669E+03  0.59514097267E+03 -0.20691329834E+04  0.21604946792E+04  0.12699999809E+01 0. -1.
       -4    1    3    3    0  502 -0.17953151669E+03 -0.59514097267E+03  0.96439439400E+03  0.11473807140E+04  0.12699999809E+01 0.  1.
</event>
<event>
 5   0  0.1193123E-06  0.3101637E+04  0.7818609E-02  0.8215289E-01
        2   -1    0    0  501    0  0.00000000000E+00  0.00000000000E+00  0.19815318076E+04  0.19815318076E+04  0.25500000920E-02 0. -1.
       -2   -1    0    0    0  501  0.00000000000E+00  0.00000000000E+00 -0.12137267254E+04  0.12137267254E+04  0.25500000920E-02 0.  1.
    10030    2    1    2    0    0  0.00000000000E+00  0.00000000000E+00  0.76780508216E+03  0.31952585330E+04  0.31016370594E+04 0.  0.
        3    1    3    3  502    0 -0.12577393730E+04 -0.90578810518E+03  0.33059429767E+03  0.15848195549E+04  0.10100000352E+00 0.  1.
       -3    1    3    3    0  502  0.12577393730E+04  0.90578810518E+03  0.43721078450E+03  0.16104389781E+04  0.10100000352E+00 0. -1.
</event>
<event>
 5   0  0.1193123E-06  0.3110336E+04  0.7818609E-02  0.8212907E-01
        2   -1    0    0  501    0  0.00000000000E+00  0.00000000000E+00  0.28337055231E+04  0.28337055231E+04  0.25500000920E-02 0. -1.
       -2   -1    0    0    0  501  0.00000000000E+00  0.00000000000E+00 -0.85349291727E+03  0.85349291727E+03  0.25500000920E-02 0.  1.
    10030    2    1    2    0    0  0.00000000000E+00  0.00000000000E+00  0.19802126058E+04  0.36871984404E+04  0.31103360549E+04 0.  0.
        3    1    3    3  502    0 -0.85920128906E+03  0.12827141838E+04  0.12117759756E+04  0.19626470792E+04  0.10100000352E+00 0. -1.
       -3    1    3    3    0  502  0.85920128906E+03 -0.12827141838E+04  0.76843663026E+03  0.17245513612E+04  0.10100000352E+00 0.  1.
</event>
<event>
 5   0  0.4134019E-07  0.3108960E+04  0.7818609E-02  0.8213283E-01
        1   -1    0    0  501    0  0.00000000000E+00  0.00000000000E+00  0.83522452699E+03  0.83522452700E+03  0.50400001928E-02 0.  1.
       -1   -1    0    0    0  501  0.00000000000E+00  0.00000000000E+00 -0.28931246503E+04  0.28931246503E+04  0.50400001928E-02 0. -1.
    10030    2    1    2    0    0  0.00000000000E+00  0.00000000000E+00 -0.20579001233E+04  0.37283491773E+04  0.31089603842E+04 0.  0.
        2    1    3    3  502    0  0.19100295476E+03 -0.11986758815E+04 -0.21935610364E+04  0.25069934220E+04  0.25500000920E-02 0. -1.
       -2    1    3    3    0  502 -0.19100295476E+03  0.11986758815E+04  0.13566091312E+03  0.12213557553E+04  0.25500000920E-02 0.  1.
</event>
<event>
 5   0  0.3935852E-07  0.3072477E+04  0.7818609E-02  0.8223332E-01
       -1   -1    0    0    0  501  0.00000000000E+00  0.00000000000E+00  0.12602344001E+04  0.12602344001E+04  0.50400001928E-02 0. -1.
        1   -1    0    0  501    0  0.00000000000E+00  0.00000000000E+00 -0.18726899908E+04  0.18726899908E+04  0.50400001928E-02 0.  1.
    10030    2    1    2    0    0  0.00000000000E+00  0.00000000000E+00 -0.61245559072E+03  0.31329243909E+04  0.30724767515E+04 0.  0.
        5    1    3    3  502    0 -0.98333852775E+03  0.10302056395E+04 -0.89351742559E+03  0.16812714830E+04  0.46999998093E+01 0.  1.
       -5    1    3    3    0  502  0.98333852775E+03 -0.10302056395E+04  0.28106183487E+03  0.14516529078E+04  0.46999998093E+01 0. -1.
</event>
<event>
 5   0  0.1200286E-06  0.3111955E+04  0.7818609E-02  0.8212465E-01
        2   -1    0    0  501    0  0.00000000000E+00  0.00000000000E+00  0.19118040878E+04  0.19118040879E+04  0.25500000920E-02 0. -1.
       -2   -1    0    0    0  501  0.00000000000E+00  0.00000000000E+00 -0.12663779001E+04  0.12663779001E+04  0.25500000920E-02 0.  1.
    10030    2    1    2    0    0  0.00000000000E+00  0.00000000000E+00  0.64542618780E+03  0.31781819879E+04  0.31119552992E+04 0.  0.
        5    1    3    3  502    0 -0.97223059490E+03  0.10666647182E+04  0.91649701608E+03  0.17096768178E+04  0.46999998093E+01 0. -1.
       -5    1    3    3    0  502  0.97223059490E+03 -0.10666647182E+04 -0.27107082828E+03  0.14685051701E+04  0.46999998093E+01 0.  1.
</event>
<event>
 5   0  0.1258262E-06  0.3095360E+04  0.7818609E-02  0.8217012E-01
        2   -1    0    0  501    0  0.00000000000E+00  0.00000000000E+00  0.12818814079E+04  0.12818814079E+04  0.25500000920E-02 0. -1.
       -2   -1    0    0    0  501  0.00000000000E+00  0.00000000000E+00 -0.18685921375E+04  0.18685921375E+04  0.25500000920E-02 0.  1.
    10030    2    1    2    0    0  0.00000000000E+00  0.00000000000E+00 -0.58671072966E+03  0.31504735454E+04  0.30953600889E+04 0.  0.
        1    1    3    3  502    0 -0.10174755638E+04  0.71654559197E+03 -0.12298574950E+04  0.17496409822E+04  0.50400001928E-02 0.  1.
       -1    1    3    3    0  502  0.10174755638E+04 -0.71654559197E+03  0.64314676536E+03  0.14008325632E+04  0.50400001928E-02 0. -1.
</event>
<event>
 5   0  0.3902375E-07  0.3132437E+04  0.7818609E-02  0.8206892E-01
       -3   -1    0    0    0  501  0.00000000000E+00  0.00000000000E+00  0.12029239318E+04  0.12029239361E+04  0.10100000352E+00 0.  1.
        3   -1    0    0  501    0  0.00000000000E+00  0.00000000000E+00 -0.20392315974E+04  0.20392315999E+04  0.10100000352E+00 0. -1.
    10030    2    1    2    0    0  0.00000000000E+00  0.00000000000E+00 -0.83630766554E+03  0.32421555359E+04  0.31324370716E+04 0.  0.
        4    1    3    3  502    0 -0.14314957612E+04 -0.60471366738E+03 -0.21591230600E+03  0.15689099625E+04  0.12699999809E+01 0.  1.
       -4    1    3    3    0  502  0.14314957612E+04  0.60471366738E+03 -0.62039535954E+03  0.16732455734E+04  0.12699999809E+01 0. -1.
</event>
<event>
 5   0  0.4219337E-07  0.3094713E+04  0.7818609E-02  0.8217190E-01
        1   -1    0    0  501    0  0.00000000000E+00  0.00000000000E+00  0.15325490441E+04  0.15325490441E+04  0.50400001928E-02 0. -1.
       -1   -1    0    0    0  501  0.00000000000E+00  0.00000000000E+00 -0.15623066549E+04  0.15623066549E+04  0.50400001928E-02 0.  1.
    10030    2    1    2    0    0  0.00000000000E+00  0.00000000000E+00 -0.29757610771E+02  0.30948556990E+04  0.30947126332E+04 0.  0.
        4    1    3    3  502    0  0.18790856234E+03  0.12548691191E+04 -0.90052904155E+03  0.15559435406E+04  0.12699999809E+01 0.  1.
       -4    1    3    3    0  502 -0.18790856234E+03 -0.12548691191E+04  0.87077143078E+03  0.15389121584E+04  0.12699999809E+01 0. -1.
</event>
<event>
 5   0  0.1237580E-06  0.3100906E+04  0.7818609E-02  0.8215489E-01
        2   -1    0    0  501    0  0.00000000000E+00  0.00000000000E+00  0.23181142172E+04  0.23181142172E+04  0.25500000920E-02 0.  1.
       -2   -1    0    0    0  501  0.00000000000E+00  0.00000000000E+00 -0.10370087688E+04  0.10370087688E+04  0.25500000920E-02 0. -1.
    10030    2    1    2    0    0  0.00000000000E+00  0.00000000000E+00  0.12811054484E+04  0.33551229860E+04  0.31009061710E+04 0.  0.
        4    1    3    3  502    0  0.11327684945E+04  0.27959853760E+03 -0.46421517494E+03  0.12557217630E+04  0.12699999809E+01 0. -1.
       -4    1    3    3    0  502 -0.11327684945E+04 -0.27959853760E+03  0.17453206233E+04  0.20994012231E+04  0.12699999809E+01 0.  1.
</event>
<event>
 5   0  0.1193123E-06  0.3082310E+04  0.7818609E-02  0.8220610E-01
       -2   -1    0    0    0  501  0.00000000000E+00  0.00000000000E+00  0.13101264846E+04  0.13101264846E+04  0.25500000920E-02 0. -1.
        2   -1    0    0  501    0  0.00000000000E+00  0.00000000000E+00 -0.18129235199E+04  0.18129235199E+04  0.25500000920E-02 0.  1.
    10030    2    1    2    0    0  0.00000000000E+00  0.00000000000E+00 -0.50279703532E+03  0.31230500046E+04  0.30823102492E+04 0.  0.
        3    1    3    3  502    0 -0.10768701219E+04 -0.30823672133E+03 -0.13239262057E+04  0.17341971468E+04  0.10100000352E+00 0.  1.
       -3    1    3    3    0  502  0.10768701219E+04  0.30823672133E+03  0.82112917037E+03  0.13888528577E+04  0.10100000352E+00 0. -1.
</event>
<event>
 5   0  0.1200286E-06  0.3103662E+04  0.7818609E-02  0.8214734E-01
        2   -1    0    0  501    0  0.00000000000E+00  0.00000000000E+00  0.26903640087E+04  0.26903640087E+04  0.25500000920E-02 0.  1.
       -2   -1    0    0    0  501  0.00000000000E+00  0.00000000000E+00 -0.89511310980E+03  0.89511310980E+03  0.25500000920E-02 0. -1.
    10030    2    1    2    0    0  0.00000000000E+00  0.00000000000E+00  0.17952508989E+04  0.35854771185E+04  0.31036624135E+04 0.  0.
        5    1    3    3  502    0 -0.36287966091E+03 -0.15073988468E+04  0.82253415833E+03  0.17551402973E+04  0.46999998093E+01 0.  1.
       -5    1    3    3    0  502  0.36287966091E+03  0.15073988468E+04  0.97271674053E+03  0.18303368212E+04  0.46999998093E+01 0. -1.
</event>
<event>
 5   0  0.1200286E-06  0.3098019E+04  0.7818609E-02  0.8216282E-01
       -2   -1    0    0    0  501  0.00000000000E+00  0.00000000000E+00  0.17157921209E+04  0.17157921209E+04  0.25500000920E-02 0.  1.
        2   -1    0    0  501    0  0.00000000000E+00  0.00000000000E+00 -0.13984389387E+04  0.13984389387E+04  0.25500000920E-02 0. -1.
    10030    2    1    2    0    0  0.00000000000E+00  0.00000000000E+00  0.31735318219E+03  0.31142310597E+04  0.30980190527E+04 0.  0.
        5    1    3    3  502    0 -0.11921270352E+04  0.73666584264E+03  0.82210372530E+03  0.16247215321E+04  0.46999998093E+01 0.  1.
       -5    1    3    3    0  502  0.11921270352E+04 -0.73666584264E+03 -0.50475054311E+03  0.14895095275E+04  0.46999998093E+01 0. -1.
</event>
<event>
 5   0  0.1200286E-06  0.3111365E+04  0.7818609E-02  0.8212626E-01
       -2   -1    0    0    0  501  0.00000000000E+00  0.00000000000E+00  0.81636074739E+03  0.81636074740E+03  0.25500000920E-02 0. -1.
        2   -1    0    0  501    0  0.00000000000E+00  0.00000000000E+00 -0.29645572257E+04  0.29645572257E+04  0.25500000920E-02 0.  1.
    10030    2    1    2    0    0  0.00000000000E+00  0.00000000000E+00 -0.21481964783E+04  0.37809179731E+04  0.31113650718E+04 0.  0.
        5    1    3    3  502    0  0.83318303155E+03 -0.83642703603E+03 -0.23051833647E+04  0.25899221196E+04  0.46999998093E+01 0.  1.
       -5    1    3    3    0  502 -0.83318303155E+03  0.83642703603E+03  0.15698688636E+03  0.11909958535E+04  0.46999998093E+01 0. -1.
</event>
<event>
 5   0  0.3935852E-07  0.3080833E+04  0.7818609E-02  0.8221018E-01
       -1   -1    0    0    0  501  0.00000000000E+00  0.00000000000E+00  0.14188952702E+04  0.14188952702E+04  0.50400001928E-02 0. -1.
        1   -1    0    0  501    0  0.00000000000E+00  0.00000000000E+00 -0.16723456637E+04  0.16723456637E+04  0.50400001928E-02 0.  1.
    10030    2    1    2    0    0  0.00000000000E+00  0.00000000000E+00 -0.25345039351E+03  0.30912409339E+04  0.30808332330E+04 0.  0.
        5    1    3    3  502    0 -0.55355040038E+03 -0.91533323073E+03  0.98544534219E+03  0.14544337666E+04  0.46999998093E+01 0. -1.
       -5    1    3    3    0  502  0.55355040038E+03  0.91533323073E+03 -0.12388957357E+04  0.16368071673E+04  0.46999998093E+01 0.  1.
</event>
<event>
 5   0  0.1258262E-06  0.3064033E+04  0.7818609E-02  0.8225679E-01
        2   -1    0    0  501    0  0.00000000000E+00  0.00000000000E+00  0.13961202224E+04  0.13961202224E+04  0.25500000920E-02 0. -1.
       -2   -1    0    0    0  501  0.00000000000E+00  0.00000000000E+00 -0.16811408090E+04  0.16811408090E+04  0.25500000920E-02 0.  1.
    10030    2    1    2    0    0  0.00000000000E+00  0.00000000000E+00 -0.28502058665E+03  0.30772610314E+04  0.30640330809E+04 0.  0.
        1    1    3    3  502    0  0.81037943946E+03 -0.58618276265E+03 -0.13080157660E+04  0.16465814013E+04  0.50400001928E-02 0.  1.
       -1    1    3    3    0  502 -0.81037943946E+03  0.58618276265E+03  0.10229951793E+04  0.14306796301E+04  0.50400001928E-02 0. -1.
</event>
<event>
 5   0  0.4134019E-07  0.3108849E+04  0.7818609E-02  0.8213314E-01
       -1   -1    0    0    0  501  0.00000000000E+00  0.00000000000E+00  0.14153608754E+04  0.14153608754E+04  0.50400001928E-02 0.  1.
        1   -1    0    0  501    0  0.00000000000E+00  0.00000000000E+00 -0.17071513715E+04  0.17071513715E+04  0.50400001928E-02 0. -1.
    10030    2    1    2    0    0  0.00000000000E+00  0.00000000000E+00 -0.29179049606E+03  0.31225122469E+04  0.31088488285E+04 0.  0.
        2    1    3    3  502    0  0.11959330676E+03 -0.12476581420E+03 -0.16974713786E+04  0.17062468018E+04  0.25500000920E-02 0. -1.
       -2    1    3    3    0  502 -0.11959330676E+03  0.12476581420E+03  0.14056808826E+04  0.14162654451E+04  0.25500000920E-02 0.  1.
</event>
<event>
 5   0  0.4219337E-07  0.3098422E+04  0.7818609E-02  0.8216171E-01
       -1   -1    0    0    0  501  0.00000000000E+00  0.00000000000E+00  0.15565266188E+04  0.15565266188E+04  0.50400001928E-02 0.  1.
        1   -1    0    0  501    0  0.00000000000E+00  0.00000000000E+00 -0.15419300304E+04  0.15419300304E+04  0.50400001928E-02 0. -1.
    10030    2    1    2    0    0  0.00000000000E+00  0.00000000000E+00  0.14596588343E+02  0.30984566492E+04  0.30984222673E+04 0.  0.
        4    1    3    3  502    0 -0.81150892080E+03 -0.53808893830E+03 -0.11976910475E+04  0.15435517135E+04  0.12699999809E+01 0. -1.
       -4    1    3    3    0  502  0.81150892080E+03  0.53808893830E+03  0.12122876359E+04  0.15549049357E+04  0.12699999809E+01 0.  1.
</event>
<event>
 5   0  0.4173905E-07  0.3089031E+04  0.7818609E-02  0.8218755E-01
       -1   -1    0    0    0  501  0.00000000000E+00  0.00000000000E+00  0.10199377011E+04  0.10199377011E+04  0.50400001928E-02 0.  1.
        1   -1    0    0  501    0  0.00000000000E+00  0.00000000000E+00 -0.23388955368E+04  0.23388955368E+04  0.50400001928E-02 0. -1.
    10030    2    1    2    0    0  0.00000000000E+00  0.00000000000E+00 -0.13189578357E+04  0.33588332378E+04  0.30890307456E+04 0.  0.
        3    1    3    3  502    0  0.11381878484E+04 -0.79378868254E+03  0.77956856953E+02  0.13898378799E+04  0.10100000352E+00 0.  1.
       -3    1    3    3    0  502 -0.11381878484E+04  0.79378868254E+03 -0.13969146927E+04  0.19689953579E+04  0.10100000352E+00 0. -1.
</event>
<event>
 5   0  0.1258262E-06  0.3242687E+04  0.7818609E-02  0.8177634E-01
       -2   -1    0    0    0  501  0.00000000000E+00  0.00000000000E+00  0.14934515044E+04  0.14934515044E+04  0.25500000920E-02 0. -1.
        2   -1    0    0  501    0  0.00000000000E+00  0.00000000000E+00 -0.17601876255E+04  0.17601876255E+04  0.25500000920E-02 0.  1.
    10030    2    1    2    0    0  0.00000000000E+00  0.00000000000E+00 -0.26673612111E+03  0.32536391299E+04  0.32426870693E+04 0.  0.
        1    1    3    3  502    0  0.14300788762E+04 -0.68047048808E+03  0.21506432450E+03  0.15982547797E+04  0.50400001928E-02 0. -1.
       -1    1    3    3    0  502 -0.14300788762E+04  0.68047048808E+03 -0.48180044561E+03  0.16553843501E+04  0.50400001928E-02 0.  1.
</event>
<event>
 5   0  0.4219337E-07  0.3125943E+04  0.7818609E-02  0.8208654E-01
       -1   -1    0    0    0  501  0.00000000000E+00  0.00000000000E+00  0.15126248505E+04  0.15126248505E+04  0.50400001928E-02 0.  1.
        1   -1    0    0  501    0  0.00000000000E+00  0.00000000000E+00 -0.16149938798E+04  0.16149938798E+04  0.50400001928E-02 0. -1.
    10030    2    1    2    0    0  0.00000000000E+00  0.00000000000E+00 -0.10236902927E+03  0.31276187303E+04  0.31259429783E+04 0.  0.
        4    1    3    3  502    0 -0.73634066066E+03 -0.47937842402E+03 -0.13445015465E+04  0.16061404868E+04  0.12699999809E+01 0.  1.
       -4    1    3    3    0  502  0.73634066066E+03  0.47937842402E+03  0.12421325172E+04  0.15214782434E+04  0.12699999809E+01 0. -1.
</event>
<event>
 5   0  0.4219337E-07  0.3090033E+04  0.7818609E-02  0.8218479E-01
        1   -1    0    0  501    0  0.00000000000E+00  0.00000000000E+00  0.10767169031E+04  0.10767169031E+04  0.50400001928E-02 0.  1.
       -1   -1    0    0    0  501  0.00000000000E+00  0.00000000000E+00 -0.22169954490E+04  0.22169954490E+04  0.50400001928E-02 0. -1.
    10030    2    1    2    0    0  0.00000000000E+00  0.00000000000E+00 -0.11402785459E+04  0.32937123521E+04  0.30900333163E+04 0.  0.
        4    1    3    3  502    0  0.74646845802E+03  0.16477252585E+03 -0.20012901017E+04  0.21423185636E+04  0.12699999809E+01 0. -1.
       -4    1    3    3    0  502 -0.74646845802E+03 -0.16477252585E+03  0.86101155575E+03  0.11513937885E+04  0.12699999809E+01 0.  1.
</event>
<event>
 5   0  0.3935852E-07  0.3079136E+04  0.7818609E-02  0.8221487E-01
        1   -1    0    0  501    0  0.00000000000E+00  0.00000000000E+00  0.18072496558E+04  0.18072496558E+04  0.50400001928E-02 0. -1.
       -1   -1    0    0    0  501  0.00000000000E+00  0.00000000000E+00 -0.13115340061E+04  0.13115340061E+04  0.50400001928E-02 0.  1.
    10030    2    1    2    0    0  0.00000000000E+00  0.00000000000E+00  0.49571564963E+03  0.31187836619E+04  0.30791358406E+04 0.  0.
        5    1    3    3  502    0  0.10196215891E+04  0.46930921474E+03 -0.81945041870E+03  0.13897483235E+04  0.46999998093E+01 0.  1.
       -5    1    3    3    0  502 -0.10196215891E+04 -0.46930921474E+03  0.13151660683E+04  0.17290353384E+04  0.46999998093E+01 0. -1.
</event>
<event>
 5   0  0.1176002E-06  0.3100344E+04  0.7818609E-02  0.8215643E-01
       -2   -1    0    0    0  501  0.00000000000E+00  0.00000000000E+00  0.10586232924E+04  0.10586232924E+04  0.25500000920E-02 0. -1.
        2   -1    0    0  501    0  0.00000000000E+00  0.00000000000E+00 -0.22699612688E+04  0.22699612688E+04  0.25500000920E-02 0.  1.
    10030    2    1    2    0    0  0.00000000000E+00  0.00000000000E+00 -0.12113379764E+04  0.33285845612E+04  0.31003444145E+04 0.  0.
        2    1    3    3  502    0  0.23478741425E+03  0.64393440621E+03  0.88710642461E+03  0.11210416843E+04  0.25500000920E-02 0. -1.
       -2    1    3    3    0  502 -0.23478741425E+03 -0.64393440621E+03 -0.20984444010E+04  0.22075428769E+04  0.25500000920E-02 0.  1.
</event>
<event>
 5   0  0.1237580E-06  0.3101882E+04  0.7818609E-02  0.8215221E-01
       -2   -1    0    0    0  501  0.00000000000E+00  0.00000000000E+00  0.15403051570E+04  0.15403051570E+04  0.25500000920E-02 0. -1.
        2   -1    0    0  501    0  0.00000000000E+00  0.00000000000E+00 -0.15616506975E+04  0.15616506975E+04  0.25500000920E-02 0.  1.
    10030    2    1    2    0    0  0.00000000000E+00  0.00000000000E+00 -0.21345540453E+02  0.31019558545E+04  0.31018824110E+04 0.  0.
        4    1    3    3  502    0  0.31928259801E+03  0.14952937010E+04  0.24928026461E+03  0.15491891081E+04  0.12699999809E+01 0.  1.
       -4    1    3    3    0  502 -0.31928259801E+03 -0.14952937010E+04 -0.27062580506E+03  0.15527667464E+04  0.12699999809E+01 0. -1.
</event>
<event>
 5   0  0.1200286E-06  0.3062625E+04  0.7818609E-02  0.8226071E-01
        2   -1    0    0  501    0  0.00000000000E+00  0.00000000000E+00  0.14341291527E+04  0.14341291527E+04  0.25500000920E-02 0. -1.
       -2   -1    0    0    0  501  0.00000000000E+00  0.00000000000E+00 -0.16350816491E+04  0.16350816491E+04  0.25500000920E-02 0.  1.
    10030    2    1    2    0    0  0.00000000000E+00  0.00000000000E+00 -0.20095249645E+03  0.30692108018E+04  0.30626251876E+04 0.  0.
        5    1    3    3  502    0  0.58790173594E+03 -0.11632950727E+04  0.70500096551E+03  0.14818678513E+04  0.46999998093E+01 0. -1.
       -5    1    3    3    0  502 -0.58790173594E+03  0.11632950727E+04 -0.90595346196E+03  0.15873429505E+04  0.46999998093E+01 0.  1.
</event>
<event>
 5   0  0.1193123E-06  0.3129634E+04  0.7818609E-02  0.8207652E-01
        2   -1    0    0  501    0  0.00000000000E+00  0.00000000000E+00  0.20602490447E+04  0.20602490447E+04  0.25500000920E-02 0.  1.
       -2   -1    0    0    0  501  0.00000000000E+00  0.00000000000E+00 -0.11885222848E+04  0.11885222848E+04  0.25500000920E-02 0. -1.
    10030    2    1    2    0    0  0.00000000000E+00  0.00000000000E+00  0.87172675996E+03  0.32487713295E+04  0.31296337817E+04 0.  0.
        3    1    3    3  502    0  0.28477504363E+03 -0.29981482995E+03 -0.11307818296E+04  0.12040154958E+04  0.10100000352E+00 0. -1.
       -3    1    3    3    0  502 -0.28477504363E+03  0.29981482995E+03  0.20025085896E+04  0.20447558337E+04  0.10100000352E+00 0.  1.
</event>
<event>
 5   0  0.1200286E-06  0.3088273E+04  0.7818609E-02  0.8218964E-01
       -2   -1    0    0    0  501  0.00000000000E+00  0.00000000000E+00  0.11177088192E+04  0.11177088192E+04  0.25500000920E-02 0.  1.
        2   -1    0    0  501    0  0.00000000000E+00  0.00000000000E+00 -0.21332551704E+04  0.21332551704E+04  0.25500000920E-02 0. -1.
    10030    2    1    2    0    0  0.00000000000E+00  0.00000000000E+00 -0.10155463512E+04  0.32509639897E+04  0.30882733802E+04 0.  0.
        5    1    3    3  502    0 -0.15153994197E+03  0.75198857137E+03 -0.19184764221E+04  0.20661619098E+04  0.46999998093E+01 0. -1.
       -5    1    3    3    0  502  0.15153994197E+03 -0.75198857137E+03  0.90293007089E+03  0.11848020798E+04  0.46999998093E+01 0.  1.
</event>
<event>
 5   0  0.1176002E-06  0.3099598E+04  0.7818609E-02  0.8215848E-01
       -2   -1    0    0    0  501  0.00000000000E+00  0.00000000000E+00  0.18500281798E+04  0.18500281798E+04  0.25500000920E-02 0.  1.
        2   -1    0    0  501    0  0.00000000000E+00  0.00000000000E+00 -0.12982917452E+04  0.12982917452E+04  0.25500000920E-02 0. -1.
    10030    2    1    2    0    0  0.00000000000E+00  0.00000000000E+00  0.55173643465E+03  0.31483199250E+04  0.30995975959E+04 0.  0.
        2    1    3    3  502    0  0.32010339854E+02 -0.65728543695E+03  0.17010733466E+04  0.18239241591E+04  0.25500000920E-02 0.  1.
       -2    1    3    3    0  502 -0.32010339854E+02  0.65728543695E+03 -0.11493369120E+04  0.13243957659E+04  0.25500000920E-02 0. -1.
</event>
<event>
 5   0  0.4330395E-07  0.3104326E+04  0.7818609E-02  0.8214552E-01
        1   -1    0    0  501    0  0.00000000000E+00  0.00000000000E+00  0.14333766682E+04  0.14333766682E+04  0.50400001928E-02 0.  1.
       -1   -1    0    0    0  501  0.00000000000E+00  0.00000000000E+00 -0.16807934858E+04  0.16807934858E+04  0.50400001928E-02 0. -1.
    10030    2    1    2    0    0  0.00000000000E+00  0.00000000000E+00 -0.24741681760E+03  0.31141701541E+04  0.31043261212E+04 0.  0.
        1    1    3    3  502    0 -0.96915961265E+02 -0.94263447788E+03  0.11095221075E+04  0.14591064970E+04  0.50400001928E-02 0.  1.
       -1    1    3    3    0  502  0.96915961265E+02  0.94263447788E+03 -0.13569389251E+04  0.16550636571E+04  0.50400001928E-02 0. -1.
</event>
<event>
 5   0  0.4219337E-07  0.3105173E+04  0.7818609E-02  0.8214320E-01
       -1   -1    0    0    0  501  0.00000000000E+00  0.00000000000E+00  0.11252018042E+04  0.11252018042E+04  0.50400001928E-02 0. -1.
        1   -1    0    0  501    0  0.00000000000E+00  0.00000000000E+00 -0.21423038688E+04  0.21423038688E+04  0.50400001928E-02 0.  1.
    10030    2    1    2    0    0  0.00000000000E+00  0.00000000000E+00 -0.10171020646E+04  0.32675056731E+04  0.31051725739E+04 0.  0.
        4    1    3    3  502    0  0.14406168151E+03  0.62842220314E+03 -0.19947816459E+04  0.20963834719E+04  0.12699999809E+01 0.  1.
       -4    1    3    3    0  502 -0.14406168151E+03 -0.62842220314E+03  0.97767958130E+03  0.11711222012E+04  0.12699999809E+01 0. -1.
</event>
<event>
 5   0  0.1237580E-06  0.3102118E+04  0.7818609E-02  0.8215157E-01
        2   -1    0    0  501    0  0.00000000000E+00  0.00000000000E+00  0.22698144617E+04  0.22698144617E+04  0.25500000920E-02 0. -1.
       -2   -1    0    0    0  501  0.00000000000E+00  0.00000000000E+00 -0.10599031362E+04  0.10599031362E+04  0.25500000920E-02 0.  1.
    10030    2    1    2    0    0  0.00000000000E+00  0.00000000000E+00  0.12099113256E+04  0.33297175979E+04  0.31021176422E+04 0.  0.
        4    1    3    3  502    0 -0.90420761090E+03  0.46088504806E+03 -0.65403616523E+03  0.12073820230E+04  0.12699999809E+01 0.  1.
       -4    1    3    3    0  502  0.90420761090E+03 -0.46088504806E+03  0.18639474908E+04  0.21223355749E+04  0.12699999809E+01 0. -1.
</event>
<event>
 5   0  0.1237580E-06  0.3109397E+04  0.7818609E-02  0.8213164E-01
       -2   -1    0    0    0  501  0.00000000000E+00  0.00000000000E+00  0.23409763375E+04  0.23409763375E+04  0.25500000920E-02 0.  1.
        2   -1    0    0  501    0  0.00000000000E+00  0.00000000000E+00 -0.10325122964E+04  0.10325122964E+04  0.25500000920E-02 0. -1.
    10030    2    1    2    0    0  0.00000000000E+00  0.00000000000E+00  0.13084640411E+04  0.33734886338E+04  0.31093966321E+04 0.  0.
        4    1    3    3  502    0 -0.11412009235E+04  0.20518799401E+03 -0.46941743668E+03  0.12509180643E+04  0.12699999809E+01 0. -1.
       -4    1    3    3    0  502  0.11412009235E+04 -0.20518799401E+03  0.17778814778E+04  0.21225705696E+04  0.12699999809E+01 0.  1.
</event>
<event>
 5   0  0.4134019E-07  0.3097390E+04  0.7818609E-02  0.8216455E-01
       -1   -1    0    0    0  501  0.00000000000E+00  0.00000000000E+00  0.11274567980E+04  0.11274567980E+04  0.50400001928E-02 0.  1.
        1   -1    0    0  501    0  0.00000000000E+00  0.00000000000E+00 -0.21273155232E+04  0.21273155232E+04  0.50400001928E-02 0. -1.
    10030    2    1    2    0    0  0.00000000000E+00  0.00000000000E+00 -0.99985872512E+03  0.32547723212E+04  0.30973900937E+04 0.  0.
        2    1    3    3  502    0 -0.32152999958E+02 -0.71561291582E+03  0.94290781936E+03  0.11841498286E+04  0.25500000920E-02 0.  1.
       -2    1    3    3    0  502  0.32152999958E+02  0.71561291582E+03 -0.19427665445E+04  0.20706224926E+04  0.25500000920E-02 0. -1.
</event>
<event>
 5   0  0.4134019E-07  0.3090662E+04  0.7818609E-02  0.8218305E-01
       -1   -1    0    0    0  501  0.00000000000E+00  0.00000000000E+00  0.11108163211E+04  0.11108163211E+04  0.50400001928E-02 0. -1.
        1   -1    0    0  501    0  0.00000000000E+00  0.00000000000E+00 -0.21498140300E+04  0.21498140300E+04  0.50400001928E-02 0.  1.
    10030    2    1    2    0    0  0.00000000000E+00  0.00000000000E+00 -0.10389977090E+04  0.32606303511E+04  0.30906623962E+04 0.  0.
        2    1    3    3  502    0  0.77936350163E+03 -0.11693540386E+04 -0.11976985235E+04  0.18464230524E+04  0.25500000920E-02 0.  1.
       -2    1    3    3    0  502 -0.77936350163E+03  0.11693540386E+04  0.15870081454E+03  0.14142072987E+04  0.25500000920E-02 0. -1.
</event>
<event>
 5   0  0.1176002E-06  0.3113072E+04  0.7818609E-02  0.8212160E-01
        2   -1    0    0  501    0  0.00000000000E+00  0.00000000000E+00  0.31755108452E+04  0.31755108452E+04  0.25500000920E-02 0.  1.
       -2   -1    0    0    0  501  0.00000000000E+00  0.00000000000E+00 -0.76296518017E+03  0.76296518018E+03  0.25500000920E-02 0. -1.
    10030    2    1    2    0    0  0.00000000000E+00  0.00000000000E+00  0.24125456650E+04  0.39384760254E+04  0.31130719260E+04 0.  0.
        2    1    3    3  502    0  0.21638403015E+02 -0.90777337620E+02 -0.75942279085E+03  0.76513509969E+03  0.25500000920E-02 0. -1.
       -2    1    3    3    0  502 -0.21638403015E+02  0.90777337620E+02  0.31719684559E+04  0.31733409257E+04  0.25500000920E-02 0.  1.
</event>
<event>
 5   0  0.1193123E-06  0.3080952E+04  0.7818609E-02  0.8220985E-01
        2   -1    0    0  501    0  0.00000000000E+00  0.00000000000E+00  0.19937965416E+04  0.19937965416E+04  0.25500000920E-02 0. -1.
       -2   -1    0    0    0  501  0.00000000000E+00  0.00000000000E+00 -0.11902251047E+04  0.11902251047E+04  0.25500000920E-02 0.  1.
    10030    2    1    2    0    0  0.00000000000E+00  0.00000000000E+00  0.80357143686E+03  0.31840216463E+04  0.30809522537E+04 0.  0.
        3    1    3    3  502    0  0.12528169781E+04  0.66783299872E+03 -0.21614305146E+03  0.14360602786E+04  0.10100000352E+00 0.  1.
       -3    1    3    3    0  502 -0.12528169781E+04 -0.66783299872E+03  0.10197144883E+04  0.17479613677E+04  0.10100000352E+00 0. -1.
</event>
<event>
 5   0  0.1176002E-06  0.2996581E+04  0.7818609E-02  0.8244708E-01
       -2   -1    0    0    0  501  0.00000000000E+00  0.00000000000E+00  0.13315357350E+04  0.13315357350E+04  0.25500000920E-02 0. -1.
        2   -1    0    0  501    0  0.00000000000E+00  0.00000000000E+00 -0.16859287552E+04  0.16859287552E+04  0.25500000920E-02 0.  1.
    10030    2    1    2    0    0  0.00000000000E+00  0.00000000000E+00 -0.35439302018E+03  0.30174644901E+04  0.29965809745E+04 0.  0.
        2    1    3    3  502    0  0.65208564486E+03  0.41731134564E+03 -0.14689106235E+04  0.16604405642E+04  0.25500000920E-02 0.  1.
       -2    1    3    3    0  502 -0.65208564486E+03 -0.41731134564E+03  0.11145176033E+04  0.13570239259E+04  0.25500000920E-02 0. -1.
</event>
<event>
 5   0  0.1258262E-06  0.3097039E+04  0.7818609E-02  0.8216551E-01
        2   -1    0    0  501    0  0.00000000000E+00  0.00000000000E+00  0.22109369801E+04  0.22109369801E+04  0.25500000920E-02 0.  1.
       -2   -1    0    0    0  501  0.00000000000E+00  0.00000000000E+00 -0.10845687960E+04  0.10845687960E+04  0.25500000920E-02 0. -1.
    10030    2    1    2    0    0  0.00000000000E+00  0.00000000000E+00  0.11263681841E+04  0.32955057760E+04  0.30970393982E+04 0.  0.
        1    1    3    3  502    0  0.12113702420E+04  0.83304236399E+03  0.45668068371E+02  0.14708715158E+04  0.50400001928E-02 0. -1.
       -1    1    3    3    0  502 -0.12113702420E+04 -0.83304236399E+03  0.10807001158E+04  0.18246342603E+04  0.50400001928E-02 0.  1.
</event>
<event>
 5   0  0.3935852E-07  0.3122082E+04  0.7818609E-02  0.8209704E-01
       -1   -1    0    0    0  501  0.00000000000E+00  0.00000000000E+00  0.14693338227E+04  0.14693338227E+04  0.50400001928E-02 0.  1.
        1   -1    0    0  501    0  0.00000000000E+00  0.00000000000E+00 -0.16584718428E+04  0.16584718428E+04  0.50400001928E-02 0. -1.
    10030    2    1    2    0    0  0.00000000000E+00  0.00000000000E+00 -0.18913802015E+03  0.31278056655E+04  0.31220818520E+04 0.  0.
        5    1    3    3  502    0  0.79474745568E+02  0.28521231260E+03 -0.16300773552E+04  0.16567548317E+04  0.46999998093E+01 0. -1.
       -5    1    3    3    0  502 -0.79474745568E+02 -0.28521231260E+03  0.14409393350E+04  0.14710508338E+04  0.46999998093E+01 0.  1.
</event>
<event>
 5   0  0.1200286E-06  0.3102476E+04  0.7818609E-02  0.8215059E-01
        2   -1    0    0  501    0  0.00000000000E+00  0.00000000000E+00  0.22674100387E+04  0.22674100387E+04  0.25500000920E-02 0. -1.
       -2   -1    0    0    0  501  0.00000000000E+00  0.00000000000E+00 -0.10612724362E+04  0.10612724362E+04  0.25500000920E-02 0.  1.
    10030    2    1    2    0    0  0.00000000000E+00  0.00000000000E+00  0.12061376025E+04  0.33286824749E+04  0.31024762856E+04 0.  0.
        5    1    3    3  502    0  0.10393636239E+03 -0.75104548467E+03 -0.84891212163E+03  0.11382205268E+04  0.46999998093E+01 0.  1.
       -5    1    3    3    0  502 -0.10393636239E+03  0.75104548467E+03  0.20550497241E+04  0.21904619481E+04  0.46999998093E+01 0. -1.
</event>
<event>
 5   0  0.1237580E-06  0.3162508E+04  0.7818609E-02  0.8198789E-01
        2   -1    0    0  501    0  0.00000000000E+00  0.00000000000E+00  0.15485636239E+04  0.15485636239E+04  0.25500000920E-02 0.  1.
       -2   -1    0    0    0  501  0.00000000000E+00  0.00000000000E+00 -0.16146344908E+04  0.16146344908E+04  0.25500000920E-02 0. -1.
    10030    2    1    2    0    0  0.00000000000E+00  0.00000000000E+00 -0.66070866911E+02  0.31631981148E+04  0.31625080164E+04 0.  0.
        4    1    3    3  502    0  0.13736532740E+04 -0.78294776749E+03 -0.53827024256E+02  0.15820333389E+04  0.12699999809E+01 0. -1.
       -4    1    3    3    0  502 -0.13736532740E+04  0.78294776749E+03 -0.12243842655E+02  0.15811647759E+04  0.12699999809E+01 0.  1.
</event>
<event>
 5   0  0.1176002E-06  0.3130206E+04  0.7818609E-02  0.8207497E-01
        2   -1    0    0  501    0  0.00000000000E+00  0.00000000000E+00  0.20079683380E+04  0.20079683380E+04  0.25500000920E-02 0.  1.
       -2   -1    0    0    0  501  0.00000000000E+00  0.00000000000E+00 -0.12199137217E+04  0.12199137217E+04  0.25500000920E-02 0. -1.
    10030    2    1    2    0    0  0.00000000000E+00  0.00000000000E+00  0.78805461635E+03  0.32278820597E+04  0.31302064649E+04 0.  0.
        2    1    3    3  502    0 -0.50591044701E+03  0.14371267723E+04  0.24704451931E+02  0.15237746060E+04  0.25500000920E-02 0. -1.
       -2    1    3    3    0  502  0.50591044701E+03 -0.14371267723E+04  0.76335016442E+03  0.17041074537E+04  0.25500000920E-02 0.  1.
</event>
<event>
 5   0  0.3935852E-07  0.3101193E+04  0.7818609E-02  0.8215410E-01
       -1   -1    0    0    0  501  0.00000000000E+00  0.00000000000E+00  0.11395237428E+04  0.11395237428E+04  0.50400001928E-02 0. -1.
        1   -1    0    0  501    0  0.00000000000E+00  0.00000000000E+00 -0.21099605868E+04  0.21099605868E+04  0.50400001928E-02 0.  1.
    10030    2    1    2    0    0  0.00000000000E+00  0.00000000000E+00 -0.97043684402E+03  0.32494843296E+04  0.31011934380E+04 0.  0.
        5    1    3    3  502    0 -0.63479757927E+03 -0.13264537710E+04 -0.10005491497E+04  0.17786422530E+04  0.46999998093E+01 0.  1.
       -5    1    3    3    0  502  0.63479757927E+03  0.13264537710E+04  0.30112305633E+02  0.14708420766E+04  0.46999998093E+01 0. -1.
</event>
<event>
 5   0  0.3935852E-07  0.3083705E+04  0.7818609E-02  0.8220224E-01
       -1   -1    0    0    0  501  0.00000000000E+00  0.00000000000E+00  0.15022031455E+04  0.15022031455E+04  0.50400001928E-02 0. -1.
        1   -1    0    0  501    0  0.00000000000E+00  0.00000000000E+00 -0.15825481811E+04  0.15825481811E+04  0.50400001928E-02 0.  1.
    10030    2    1    2    0    0  0.00000000000E+00  0.00000000000E+00 -0.80345035595E+02  0.30847513265E+04  0.30837048208E+04 0.  0.
        5    1    3    3  502    0 -0.37871341935E+03 -0.13328787182E+04  0.63629453193E+03  0.15247564896E+04  0.46999998093E+01 0. -1.
       -5    1    3    3    0  502  0.37871341935E+03  0.13328787182E+04 -0.71663956752E+03  0.15599948369E+04  0.46999998093E+01 0.  1.
</event>
<event>
 5   0  0.1258262E-06  0.3126944E+04  0.7818609E-02  0.8208382E-01
        2   -1    0    0  501    0  0.00000000000E+00  0.00000000000E+00  0.15312037431E+04  0.15312037431E+04  0.25500000920E-02 0. -1.
       -2   -1    0    0    0  501  0.00000000000E+00  0.00000000000E+00 -0.15964206312E+04  0.15964206312E+04  0.25500000920E-02 0.  1.
    10030    2    1    2    0    0  0.00000000000E+00  0.00000000000E+00 -0.65216888068E+02  0.31276243743E+04  0.31269443526E+04 0.  0.
        1    1    3    3  502    0  0.67969230864E+03  0.14079759092E+04 -0.24393825293E+02  0.15636408968E+04  0.50400001928E-02 0. -1.
       -1    1    3    3    0  502 -0.67969230864E+03 -0.14079759092E+04 -0.40823062775E+02  0.15639834775E+04  0.50400001928E-02 0.  1.
</event>
<event>
 5   0  0.1200286E-06  0.3106189E+04  0.7818609E-02  0.8214041E-01
       -2   -1    0    0    0  501  0.00000000000E+00  0.00000000000E+00  0.28782044032E+04  0.28782044032E+04  0.25500000920E-02 0.  1.
        2   -1    0    0  501    0  0.00000000000E+00  0.00000000000E+00 -0.83805836710E+03  0.83805836710E+03  0.25500000920E-02 0. -1.
    10030    2    1    2    0    0  0.00000000000E+00  0.00000000000E+00  0.20401460361E+04  0.37162627703E+04  0.31061894870E+04 0.  0.
        5    1    3    3  502    0  0.14847232502E+04  0.42181124149E+03  0.81370313089E+03  0.17448388832E+04  0.46999998093E+01 0.  1.
       -5    1    3    3    0  502 -0.14847232502E+04 -0.42181124149E+03  0.12264429052E+04  0.19714238871E+04  0.46999998093E+01 0. -1.
</event>
<event>
 5   0  0.1200286E-06  0.3090051E+04  0.7818609E-02  0.8218474E-01
       -2   -1    0    0    0  501  0.00000000000E+00  0.00000000000E+00  0.18704597401E+04  0.18704597401E+04  0.25500000920E-02 0. -1.
        2   -1    0    0  501    0  0.00000000000E+00  0.00000000000E+00 -0.12762122742E+04  0.12762122742E+04  0.25500000920E-02 0.  1.
    10030    2    1    2    0    0  0.00000000000E+00  0.00000000000E+00  0.59424746588E+03  0.31466720143E+04  0.30900509243E+04 0.  0.
        5    1    3    3  502    0  0.14476719730E+04  0.44587653231E+03 -0.12623422426E+02  0.15148404089E+04  0.46999998093E+01 0.  1.
       -5    1    3    3    0  502 -0.14476719730E+04 -0.44587653231E+03  0.60687088831E+03  0.16318316055E+04  0.46999998093E+01 0. -1.
</event>
<event>
 5   0  0.4219337E-07  0.3105740E+04  0.7818609E-02  0.8214164E-01
       -1   -1    0    0    0  501  0.00000000000E+00  0.00000000000E+00  0.14435336524E+04  0.14435336524E+04  0.50400001928E-02 0.  1.
        1   -1    0    0  501    0  0.00000000000E+00  0.00000000000E+00 -0.16704876716E+04  0.16704876716E+04  0.50400001928E-02 0. -1.
    10030    2    1    2    0    0  0.00000000000E+00  0.00000000000E+00 -0.22695401922E+03  0.31140213240E+04  0.31057399568E+04 0.  0.
        4    1    3    3  502    0  0.41127594836E+03 -0.10408848796E+04  0.96587578192E+03  0.14783459938E+04  0.12699999809E+01 0.  1.
       -4    1    3    3    0  502 -0.41127594836E+03  0.10408848796E+04 -0.11928298011E+04  0.16356753302E+04  0.12699999809E+01 0. -1.
</event>
<event>
 5   0  0.4219337E-07  0.3103187E+04  0.7818609E-02  0.8214864E-01
        1   -1    0    0  501    0  0.00000000000E+00  0.00000000000E+00  0.26123422326E+04  0.26123422326E+04  0.50400001928E-02 0.  1.
       -1   -1    0    0    0  501  0.00000000000E+00  0.00000000000E+00 -0.92156494360E+03  0.92156494361E+03  0.50400001928E-02 0. -1.
    10030    2    1    2    0    0  0.00000000000E+00  0.00000000000E+00  0.16907772890E+04  0.35339071762E+04  0.31031874080E+04 0.  0.
        4    1    3    3  502    0  0.27108286286E+03  0.95781061450E+03 -0.50999970923E+03  0.11184759309E+04  0.12699999809E+01 0. -1.
       -4    1    3    3    0  502 -0.27108286286E+03 -0.95781061450E+03  0.22007769982E+04  0.24154312453E+04  0.12699999809E+01 0.  1.
</event>
<event>
 5   0  0.4134019E-07  0.3100928E+04  0.7818609E-02  0.8215483E-01
       -1   -1    0    0    0  501  0.00000000000E+00  0.00000000000E+00  0.12981202755E+04  0.12981202755E+04  0.50400001928E-02 0. -1.
        1   -1    0    0  501    0  0.00000000000E+00  0.00000000000E+00 -0.18518611098E+04  0.18518611098E+04  0.50400001928E-02 0.  1.
    10030    2    1    2    0    0  0.00000000000E+00  0.00000000000E+00 -0.55374083431E+03  0.31499813853E+04  0.31009278959E+04 0.  0.
        2    1    3    3  502    0 -0.22757182350E+02  0.13522956282E+04  0.49322294218E+03  0.14396146103E+04  0.25500000920E-02 0. -1.
       -2    1    3    3    0  502  0.22757182350E+02 -0.13522956282E+04 -0.10469637765E+04  0.17103667749E+04  0.25500000920E-02 0.  1.
</event>
<event>
 5   0  0.1258262E-06  0.3100503E+04  0.7818609E-02  0.8215600E-01
        2   -1    0    0  501    0  0.00000000000E+00  0.00000000000E+00  0.21751336738E+04  0.21751336738E+04  0.25500000920E-02 0.  1.
       -2   -1    0    0    0  501  0.00000000000E+00  0.00000000000E+00 -0.11048881859E+04  0.11048881859E+04  0.25500000920E-02 0. -1.
    10030    2    1    2    0    0  0.00000000000E+00  0.00000000000E+00  0.10702454879E+04  0.32800218597E+04  0.31005028618E+04 0.  0.
        1    1    3    3  502    0 -0.68105934640E+03 -0.10368697335E+04 -0.44840499109E+03  0.13190935197E+04  0.50400001928E-02 0. -1.
       -1    1    3    3    0  502  0.68105934640E+03  0.10368697335E+04  0.15186504790E+04  0.19609283401E+04  0.50400001928E-02 0.  1.
</event>
<event>
 5   0  0.1200286E-06  0.3071280E+04  0.7818609E-02  0.8223664E-01
        2   -1    0    0  501    0  0.00000000000E+00  0.00000000000E+00  0.67285303166E+03  0.67285303166E+03  0.25500000920E-02 0. -1.
       -2   -1    0    0    0  501  0.00000000000E+00  0.00000000000E+00 -0.35047635606E+04  0.35047635607E+04  0.25500000920E-02 0.  1.
    10030    2    1    2    0    0  0.00000000000E+00  0.00000000000E+00 -0.28319105290E+04  0.41776165923E+04  0.30712803760E+04 0.  0.
        5    1    3    3  502    0  0.97867590204E+02  0.86435552048E+03 -0.31373080900E+04  0.32556739199E+04  0.46999998093E+01 0.  1.
       -5    1    3    3    0  502 -0.97867590204E+02 -0.86435552048E+03  0.30539756101E+03  0.92194267244E+03  0.46999998093E+01 0. -1.
</event>
<event>
 5   0  0.1193123E-06  0.3106673E+04  0.7818609E-02  0.8213909E-01
       -2   -1    0    0    0  501  0.00000000000E+00  0.00000000000E+00  0.90422262980E+03  0.90422262980E+03  0.25500000920E-02 0.  1.
        2   -1    0    0  501    0  0.00000000000E+00  0.00000000000E+00 -0.26684297144E+04  0.26684297144E+04  0.25500000920E-02 0. -1.
    10030    2    1    2    0    0  0.00000000000E+00  0.00000000000E+00 -0.17642070846E+04  0.35726523442E+04  0.31066731620E+04 0.  0.
        3    1    3    3  502    0  0.88227951996E+03 -0.89050722282E+03  0.17278186920E+03  0.12654144972E+04  0.10100000352E+00 0.  1.
       -3    1    3    3    0  502 -0.88227951996E+03  0.89050722282E+03 -0.19369889538E+04  0.23072378470E+04  0.10100000352E+00 0. -1.
</event>
<event>
 5   0  0.4330395E-07  0.3102370E+04  0.7818609E-02  0.8215088E-01
        1   -1    0    0  501    0  0.00000000000E+00  0.00000000000E+00  0.13906731151E+04  0.13906731151E+04  0.50400001928E-02 0.  1.
       -1   -1    0    0    0  501  0.00000000000E+00  0.00000000000E+00 -0.17302227900E+04  0.17302227900E+04  0.50400001928E-02 0. -1.
    10030    2    1    2    0    0  0.00000000000E+00  0.00000000000E+00 -0.33954967494E+03  0.31208959051E+04  0.31023696215E+04 0.  0.
        1    1    3    3  502    0  0.42718399647E+03 -0.14850219788E+04 -0.33326091188E+02  0.15456024951E+04  0.50400001928E-02 0. -1.
       -1    1    3    3    0  502 -0.42718399647E+03  0.14850219788E+04 -0.30622358375E+03  0.15752934100E+04  0.50400001928E-02 0.  1.
</event>
<event>
 5   0  0.1258262E-06  0.3107276E+04  0.7818609E-02  0.8213744E-01
        2   -1    0    0  501    0  0.00000000000E+00  0.00000000000E+00  0.22756366543E+04  0.22756366543E+04  0.25500000920E-02 0. -1.
       -2   -1    0    0    0  501  0.00000000000E+00  0.00000000000E+00 -0.10607104340E+04  0.10607104340E+04  0.25500000920E-02 0.  1.
    10030    2    1    2    0    0  0.00000000000E+00  0.00000000000E+00  0.12149262203E+04  0.33363470884E+04  0.31072763272E+04 0.  0.
        1    1    3    3  502    0  0.23154757444E+03  0.13274438403E+04 -0.22289876217E+03  0.13657984063E+04  0.50400001928E-02 0.  1.
       -1    1    3    3    0  502 -0.23154757444E+03 -0.13274438403E+04  0.14378249825E+04  0.19705486821E+04  0.50400001928E-02 0. -1.
</event>
<event>
 5   0  0.4219337E-07  0.3050221E+04  0.7818609E-02  0.8229534E-01
       -1   -1    0    0    0  501  0.00000000000E+00  0.00000000000E+00  0.10630508063E+04  0.10630508063E+04  0.50400001928E-02 0. -1.
        1   -1    0    0  501    0  0.00000000000E+00  0.00000000000E+00 -0.21880066908E+04  0.21880066908E+04  0.50400001928E-02 0.  1.
    10030    2    1    2    0    0  0.00000000000E+00  0.00000000000E+00 -0.11249558844E+04  0.32510574971E+04  0.30502211571E+04 0.  0.
        4    1    3    3  502    0 -0.75765231679E+03 -0.11623150326E+04 -0.12373741995E+04  0.18590615349E+04  0.12699999809E+01 0.  1.
       -4    1    3    3    0  502  0.75765231679E+03  0.11623150326E+04  0.11241831506E+03  0.13919959622E+04  0.12699999809E+01 0. -1.
</event>
<event>
 5   0  0.1193123E-06  0.3109154E+04  0.7818609E-02  0.8213230E-01
       -2   -1    0    0    0  501  0.00000000000E+00  0.00000000000E+00  0.15553516891E+04  0.15553516891E+04  0.25500000920E-02 0. -1.
        2   -1    0    0  501    0  0.00000000000E+00  0.00000000000E+00 -0.15538024843E+04  0.15538024843E+04  0.25500000920E-02 0.  1.
    10030    2    1    2    0    0  0.00000000000E+00  0.00000000000E+00  0.15492048203E+01  0.31091541734E+04  0.31091537874E+04 0.  0.
        3    1    3    3  502    0 -0.11284255087E+04  0.56583203928E+03  0.90807801756E+03  0.15550291707E+04  0.10100000352E+00 0.  1.
       -3    1    3    3    0  502  0.11284255087E+04 -0.56583203928E+03 -0.90652881274E+03  0.15541250027E+04  0.10100000352E+00 0. -1.
</event>
<event>
 5   0  0.1237580E-06  0.3117781E+04  0.7818609E-02  0.8210875E-01
       -2   -1    0    0    0  501  0.00000000000E+00  0.00000000000E+00  0.99589896281E+03  0.99589896281E+03  0.25500000920E-02 0. -1.
        2   -1    0    0  501    0  0.00000000000E+00  0.00000000000E+00 -0.24401468272E+04  0.24401468272E+04  0.25500000920E-02 0.  1.
    10030    2    1    2    0    0  0.00000000000E+00  0.00000000000E+00 -0.14442478644E+04  0.34360457901E+04  0.31177810663E+04 0.  0.
        4    1    3    3  502    0  0.41589481036E+03  0.10105014308E+04 -0.19473958485E+04  0.22330324311E+04  0.12699999809E+01 0.  1.
       -4    1    3    3    0  502 -0.41589481036E+03 -0.10105014308E+04  0.50314798404E+03  0.12030133589E+04  0.12699999809E+01 0. -1.
</event>
<event>
 5   0  0.4330395E-07  0.3094356E+04  0.7818609E-02  0.8217289E-01
        1   -1    0    0  501    0  0.00000000000E+00  0.00000000000E+00  0.18544926019E+04  0.18544926019E+04  0.50400001928E-02 0. -1.
       -1   -1    0    0    0  501  0.00000000000E+00  0.00000000000E+00 -0.12907895549E+04  0.12907895549E+04  0.50400001928E-02 0.  1.
    10030    2    1    2    0    0  0.00000000000E+00  0.00000000000E+00  0.56370304700E+03  0.31452821568E+04  0.30943559460E+04 0.  0.
        1    1    3    3  502    0 -0.11464381417E+04  0.10387256063E+04  0.25938844240E+03  0.15686152052E+04  0.50400001928E-02 0. -1.
       -1    1    3    3    0  502  0.11464381417E+04 -0.10387256063E+04  0.30431460460E+03  0.15766669516E+04  0.50400001928E-02 0.  1.
</event>
<event>
 5   0  0.1258262E-06  0.3093006E+04  0.7818609E-02  0.8217660E-01
        2   -1    0    0  501    0  0.00000000000E+00  0.00000000000E+00  0.18064739572E+04  0.18064739572E+04  0.25500000920E-02 0.  1.
       -2   -1    0    0    0  501  0.00000000000E+00  0.00000000000E+00 -0.13239443714E+04  0.13239443714E+04  0.25500000920E-02 0. -1.
    10030    2    1    2    0    0  0.00000000000E+00  0.00000000000E+00  0.48252958581E+03  0.31304183286E+04  0.30930056758E+04 0.  0.
        1    1    3    3  502    0 -0.23935708214E+03  0.57853308979E+03  0.16724695423E+04  0.17858182211E+04  0.50400001928E-02 0.  1.
       -1    1    3    3    0  502  0.23935708214E+03 -0.57853308979E+03 -0.11899399565E+04  0.13446001074E+04  0.50400001928E-02 0. -1.
</event>
<event>
 5   0  0.3935852E-07  0.3123368E+04  0.7818609E-02  0.8209354E-01
       -1   -1    0    0    0  501  0.00000000000E+00  0.00000000000E+00  0.13049386265E+04  0.13049386265E+04  0.50400001928E-02 0.  1.
        1   -1    0    0  501    0  0.00000000000E+00  0.00000000000E+00 -0.18689441123E+04  0.18689441123E+04  0.50400001928E-02 0. -1.
    10030    2    1    2    0    0  0.00000000000E+00  0.00000000000E+00 -0.56400548574E+03  0.31738827388E+04  0.31233682863E+04 0.  0.
        5    1    3    3  502    0 -0.77228886858E+03 -0.13502102963E+04 -0.42331048612E+03  0.16120520458E+04  0.46999998093E+01 0.  1.
       -5    1    3    3    0  502  0.77228886858E+03  0.13502102963E+04 -0.14069499962E+03  0.15618306930E+04  0.46999998093E+01 0. -1.
</event>
<event>
 5   0  0.3935852E-07  0.3105993E+04  0.7818609E-02  0.8214095E-01
       -1   -1    0    0    0  501  0.00000000000E+00  0.00000000000E+00  0.28405708475E+04  0.28405708475E+04  0.50400001928E-02 0.  1.
        1   -1    0    0  501    0  0.00000000000E+00  0.00000000000E+00 -0.84905425717E+03  0.84905425718E+03  0.50400001928E-02 0. -1.
    10030    2    1    2    0    0  0.00000000000E+00  0.00000000000E+00  0.19915165903E+04  0.36896251047E+04  0.31059934133E+04 0.  0.
        5    1    3    3  502    0  0.11066817485E+04  0.59088416910E+03 -0.91605123112E+02  0.12578959346E+04  0.46999998093E+01 0. -1.
       -5    1    3    3    0  502 -0.11066817485E+04 -0.59088416910E+03  0.20831217134E+04  0.24317291701E+04  0.46999998093E+01 0.  1.
</event>
<event>
 5   0  0.4330395E-07  0.3102860E+04  0.7818609E-02  0.8214953E-01
       -1   -1    0    0    0  501  0.00000000000E+00  0.00000000000E+00  0.11376428482E+04  0.11376428482E+04  0.50400001928E-02 0.  1.
        1   -1    0    0  501    0  0.00000000000E+00  0.00000000000E+00 -0.21157217144E+04  0.21157217144E+04  0.50400001928E-02 0. -1.
    10030    2    1    2    0    0  0.00000000000E+00  0.00000000000E+00 -0.97807886616E+03  0.32533645626E+04  0.31028604076E+04 0.  0.
        1    1    3    3  502    0 -0.29810776810E+03 -0.93601422713E+03 -0.17480947516E+04  0.20051997744E+04  0.50400001928E-02 0. -1.
       -1    1    3    3    0  502  0.29810776810E+03  0.93601422713E+03  0.77001588540E+03  0.12481647882E+04  0.50400001928E-02 0.  1.
</event>
<event>
 5   0  0.4173905E-07  0.3079380E+04  0.7818609E-02  0.8221420E-01
        1   -1    0    0  501    0  0.00000000000E+00  0.00000000000E+00  0.22983205830E+04  0.22983205830E+04  0.50400001928E-02 0. -1.
       -1   -1    0    0    0  501  0.00000000000E+00  0.00000000000E+00 -0.10314683949E+04  0.10314683950E+04  0.50400001928E-02 0.  1.
    10030    2    1    2    0    0  0.00000000000E+00  0.00000000000E+00  0.12668521880E+04  0.33297889779E+04  0.30793798355E+04 0.  0.
        3    1    3    3  502    0 -0.33828777767E+03 -0.33073317954E+03  0.22177773263E+04  0.22676770792E+04  0.10100000352E+00 0. -1.
       -3    1    3    3    0  502  0.33828777767E+03  0.33073317954E+03 -0.95092513825E+03  0.10621118987E+04  0.10100000352E+00 0.  1.
</event>
<event>
 5   0  0.4173905E-07  0.3100312E+04  0.7818609E-02  0.8215652E-01
       -1   -1    0    0    0  501  0.00000000000E+00  0.00000000000E+00  0.10095327573E+04  0.10095327574E+04  0.50400001928E-02 0. -1.
        1   -1    0    0  501    0  0.00000000000E+00  0.00000000000E+00 -0.23802930522E+04  0.23802930522E+04  0.50400001928E-02 0.  1.
    10030    2    1    2    0    0  0.00000000000E+00  0.00000000000E+00 -0.13707602948E+04  0.33898258095E+04  0.31003121187E+04 0.  0.
        3    1    3    3  502    0  0.40512791824E+03 -0.13324400840E+03 -0.23148867995E+04  0.23538444087E+04  0.10100000352E+00 0.  1.
       -3    1    3    3    0  502 -0.40512791824E+03  0.13324400840E+03  0.94412650463E+03  0.10359814008E+04  0.10100000352E+00 0. -1.
</event>
<event>
 5   0  0.4219337E-07  0.3150023E+04  0.7818609E-02  0.8202142E-01
        1   -1    0    0  501    0  0.00000000000E+00  0.00000000000E+00  0.19768719449E+04  0.19768719449E+04  0.50400001928E-02 0. -1.
       -1   -1    0    0    0  501  0.00000000000E+00  0.00000000000E+00 -0.12548414761E+04  0.12548414761E+04  0.50400001928E-02 0.  1.
    10030    2    1    2    0    0  0.00000000000E+00  0.00000000000E+00  0.72203046883E+03  0.32317134210E+04  0.31500227995E+04 0.  0.
        4    1    3    3  502    0  0.10625438457E+04  0.50397830031E+03 -0.71385045574E+03  0.13757098667E+04  0.12699999809E+01 0.  1.
       -4    1    3    3    0  502 -0.10625438457E+04 -0.50397830031E+03  0.14358809246E+04  0.18560035543E+04  0.12699999809E+01 0. -1.
</event>
<event>
 5   0  0.4173905E-07  0.3088392E+04  0.7818609E-02  0.8218931E-01
        1   -1    0    0  501    0  0.00000000000E+00  0.00000000000E+00  0.22749757109E+04  0.22749757109E+04  0.50400001928E-02 0.  1.
       -1   -1    0    0    0  501  0.00000000000E+00  0.00000000000E+00 -0.10481615088E+04  0.10481615089E+04  0.50400001928E-02 0. -1.
    10030    2    1    2    0    0  0.00000000000E+00  0.00000000000E+00  0.12268142020E+04  0.33231372197E+04  0.30883924451E+04 0.  0.
        3    1    3    3  502    0  0.10091098405E+04  0.20587003903E+03  0.18514517341E+04  0.21186218816E+04  0.10100000352E+00 0.  1.
       -3    1    3    3    0  502 -0.10091098405E+04 -0.20587003903E+03 -0.62463753212E+03  0.12045153381E+04  0.10100000352E+00 0. -1.
</event>
<event>
 5   0  0.4330395E-07  0.3078697E+04  0.7818609E-02  0.8221609E-01
       -1   -1    0    0    0  501  0.00000000000E+00  0.00000000000E+00  0.22269226218E+04  0.22269226218E+04  0.50400001928E-02 0.  1.
        1   -1    0    0  501    0  0.00000000000E+00  0.00000000000E+00 -0.10640665529E+04  0.10640665529E+04  0.50400001928E-02 0. -1.
    10030    2    1    2    0    0  0.00000000000E+00  0.00000000000E+00  0.11628560689E+04  0.32909891747E+04  0.30786970476E+04 0.  0.
        1    1    3    3  502    0  0.83930668873E+03 -0.51392467454E+03  0.18467023790E+04  0.20925735269E+04  0.50400001928E-02 0.  1.
       -1    1    3    3    0  502 -0.83930668873E+03  0.51392467454E+03 -0.68384631014E+03  0.11984156477E+04  0.50400001928E-02 0. -1.
</event>
<event>
 5   0  0.3935852E-07  0.3108129E+04  0.7818609E-02  0.8213511E-01
       -1   -1    0    0    0  501  0.00000000000E+00  0.00000000000E+00  0.10803463512E+04  0.10803463512E+04  0.50400001928E-02 0.  1.
        1   -1    0    0  501    0  0.00000000000E+00  0.00000000000E+00 -0.22355013502E+04  0.22355013502E+04  0.50400001928E-02 0. -1.
    10030    2    1    2    0    0  0.00000000000E+00  0.00000000000E+00 -0.11551549990E+04  0.33158477015E+04  0.31081285218E+04 0.  0.
        5    1    3    3  502    0 -0.49888460726E+02  0.12751932316E+04  0.36853195128E+03  0.13283239535E+04  0.46999998093E+01 0.  1.
       -5    1    3    3    0  502  0.49888460726E+02 -0.12751932316E+04 -0.15236869503E+04  0.19875237480E+04  0.46999998093E+01 0. -1.
</event>
<event>
 5   0  0.1193123E-06  0.3091802E+04  0.7818609E-02  0.8217991E-01
       -2   -1    0    0    0  501  0.00000000000E+00  0.00000000000E+00  0.89616198304E+03  0.89616198304E+03  0.25500000920E-02 0. -1.
        2   -1    0    0  501    0  0.00000000000E+00  0.00000000000E+00 -0.26667170550E+04  0.26667170550E+04  0.25500000920E-02 0.  1.
    10030    2    1    2    0    0  0.00000000000E+00  0.00000000000E+00 -0.17705550720E+04  0.35628790381E+04  0.30918023509E+04 0.  0.
        3    1    3    3  502    0 -0.12440085010E+04  0.55393072578E+03 -0.42070483236E+02  0.13624119551E+04  0.10100000352E+00 0. -1.
       -3    1    3    3    0  502  0.12440085010E+04 -0.55393072578E+03 -0.17284845887E+04  0.22004670830E+04  0.10100000352E+00 0.  1.
</event>
<event>
 5   0  0.1176002E-06  0.3098187E+04  0.7818609E-02  0.8216236E-01
       -2   -1    0    0    0  501  0.00000000000E+00  0.00000000000E+00  0.19518946050E+04  0.19518946050E+04  0.25500000920E-02 0.  1.
        2   -1    0    0  501    0  0.00000000000E+00  0.00000000000E+00 -0.12294163792E+04  0.12294163792E+04  0.25500000920E-02 0. -1.
    10030    2    1    2    0    0  0.00000000000E+00  0.00000000000E+00  0.72247822578E+03  0.31813109842E+04  0.30981873396E+04 0.  0.
        2    1    3    3  502    0  0.99358731298E+03 -0.11439560746E+04  0.30351368142E+02  0.15155106251E+04  0.25500000920E-02 0. -1.
       -2    1    3    3    0  502 -0.99358731298E+03  0.11439560746E+04  0.69212685764E+03  0.16658003591E+04  0.25500000920E-02 0.  1.
</event>
<event>
 5   0  0.3935852E-07  0.3098042E+04  0.7818609E-02  0.8216275E-01
       -1   -1    0    0    0  501  0.00000000000E+00  0.00000000000E+00  0.15429721565E+04  0.15429721565E+04  0.50400001928E-02 0. -1.
        1   -1    0    0  501    0  0.00000000000E+00  0.00000000000E+00 -0.15550937919E+04  0.15550937919E+04  0.50400001928E-02 0.  1.
    10030    2    1    2    0    0  0.00000000000E+00  0.00000000000E+00 -0.12121635457E+02  0.30980659484E+04  0.30980422345E+04 0.  0.
        5    1    3    3  502    0  0.15425111456E+04  0.56220642086E+02 -0.13622685036E+03  0.15495422678E+04  0.46999998093E+01 0. -1.
       -5    1    3    3    0  502 -0.15425111456E+04 -0.56220642086E+02  0.12410521490E+03  0.15485236806E+04  0.46999998093E+01 0.  1.
</event>
<event>
 5   0  0.1193123E-06  0.3119269E+04  0.7818609E-02  0.8210470E-01
        2   -1    0    0  501    0  0.00000000000E+00  0.00000000000E+00  0.17885203929E+04  0.17885203929E+04  0.25500000920E-02 0.  1.
       -2   -1    0    0    0  501  0.00000000000E+00  0.00000000000E+00 -0.13600400573E+04  0.13600400573E+04  0.25500000920E-02 0. -1.
    10030    2    1    2    0    0  0.00000000000E+00  0.00000000000E+00  0.42848033568E+03  0.31485604502E+04  0.31192687461E+04 0.  0.
        3    1    3    3  502    0 -0.66175582075E+02 -0.11033434872E+04  0.13248970201E+04  0.17254269566E+04  0.10100000352E+00 0.  1.
       -3    1    3    3    0  502  0.66175582075E+02  0.11033434872E+04 -0.89641668442E+03  0.14231334936E+04  0.10100000352E+00 0. -1.
</event>
<event>
 5   0  0.1258262E-06  0.3102409E+04  0.7818609E-02  0.8215077E-01
       -2   -1    0    0    0  501  0.00000000000E+00  0.00000000000E+00  0.10374461045E+04  0.10374461045E+04  0.25500000920E-02 0.  1.
        2   -1    0    0  501    0  0.00000000000E+00  0.00000000000E+00 -0.23193842366E+04  0.23193842366E+04  0.25500000920E-02 0. -1.
    10030    2    1    2    0    0  0.00000000000E+00  0.00000000000E+00 -0.12819381321E+04  0.33568303411E+04  0.31024094772E+04 0.  0.
        1    1    3    3  502    0  0.19952203344E+03 -0.80892028200E+03 -0.20567357104E+04  0.22190815323E+04  0.50400001928E-02 0. -1.
       -1    1    3    3    0  502 -0.19952203344E+03  0.80892028200E+03  0.77479757831E+03  0.11377488088E+04  0.50400001928E-02 0.  1.
</event>
<event>
 5   0  0.1237580E-06  0.3105980E+04  0.7818609E-02  0.8214099E-01
       -2   -1    0    0    0  501  0.00000000000E+00  0.00000000000E+00  0.13574010751E+04  0.13574010751E+04  0.25500000920E-02 0.  1.
        2   -1    0    0  501    0  0.00000000000E+00  0.00000000000E+00 -0.17767611818E+04  0.17767611818E+04  0.25500000920E-02 0. -1.
    10030    2    1    2    0    0  0.00000000000E+00  0.00000000000E+00 -0.41936010665E+03  0.31341622569E+04  0.31059797413E+04 0.  0.
        4    1    3    3  502    0  0.37929166959E+03 -0.97021379308E+03  0.95255155462E+03  0.14115711289E+04  0.12699999809E+01 0.  1.
       -4    1    3    3    0  502 -0.37929166959E+03  0.97021379308E+03 -0.13719116613E+04  0.17225911280E+04  0.12699999809E+01 0. -1.
</event>
<event>
 5   0  0.1176002E-06  0.3084899E+04  0.7818609E-02  0.8219895E-01
        2   -1    0    0  501    0  0.00000000000E+00  0.00000000000E+00  0.18149479098E+04  0.18149479098E+04  0.25500000920E-02 0. -1.
       -2   -1    0    0    0  501  0.00000000000E+00  0.00000000000E+00 -0.13108639692E+04  0.13108639692E+04  0.25500000920E-02 0.  1.
    10030    2    1    2    0    0  0.00000000000E+00  0.00000000000E+00  0.50408394053E+03  0.31258118790E+04  0.30848985857E+04 0.  0.
        2    1    3    3  502    0 -0.89437389838E+03  0.37571785606E+03 -0.96306260700E+03  0.13669521434E+04  0.25500000920E-02 0.  1.
       -2    1    3    3    0  502  0.89437389838E+03 -0.37571785606E+03  0.14671465475E+04  0.17588597356E+04  0.25500000920E-02 0. -1.
</event>
<event>
 5   0  0.3935852E-07  0.3060988E+04  0.7818609E-02  0.8226527E-01
        1   -1    0    0  501    0  0.00000000000E+00  0.00000000000E+00  0.15985272270E+04  0.15985272270E+04  0.50400001928E-02 0. -1.
       -1   -1    0    0    0  501  0.00000000000E+00  0.00000000000E+00 -0.14653563399E+04  0.14653563399E+04  0.50400001928E-02 0.  1.
    10030    2    1    2    0    0  0.00000000000E+00  0.00000000000E+00  0.13317088709E+03  0.30638835670E+04  0.30609880801E+04 0.  0.
        5    1    3    3  502    0 -0.45307287028E+03 -0.13119954105E+04 -0.57883682964E+03  0.15038886755E+04  0.46999998093E+01 0.  1.
       -5    1    3    3    0  502  0.45307287028E+03  0.13119954105E+04  0.71200771673E+03  0.15599948915E+04  0.46999998093E+01 0. -1.
</event>
<event>
 5   0  0.1176002E-06  0.3104493E+04  0.7818609E-02  0.8214506E-01
        2   -1    0    0  501    0  0.00000000000E+00  0.00000000000E+00  0.15733402212E+04  0.15733402212E+04  0.25500000920E-02 0. -1.
       -2   -1    0    0    0  501  0.00000000000E+00  0.00000000000E+00 -0.15314357908E+04  0.15314357908E+04  0.25500000920E-02 0.  1.
    10030    2    1    2    0    0  0.00000000000E+00  0.00000000000E+00  0.41904430464E+02  0.31047760120E+04  0.31044932120E+04 0.  0.
        2    1    3    3  502    0 -0.95796746555E+03 -0.10214505804E+04 -0.64874045332E+03  0.15433493218E+04  0.25500000920E-02 0.  1.
       -2    1    3    3    0  502  0.95796746555E+03  0.10214505804E+04  0.69064488378E+03  0.15614266902E+04  0.25500000920E-02 0. -1.
</event>
<event>
 5   0  0.3935852E-07  0.3094065E+04  0.7818609E-02  0.8217368E-01
       -1   -1    0    0    0  501  0.00000000000E+00  0.00000000000E+00  0.18934163583E+04  0.18934163583E+04  0.50400001928E-02 0.  1.
        1   -1    0    0  501    0  0.00000000000E+00  0.00000000000E+00 -0.12640169156E+04  0.12640169156E+04  0.50400001928E-02 0. -1.
    10030    2    1    2    0    0  0.00000000000E+00  0.00000000000E+00  0.62939944273E+03  0.31574332740E+04  0.30940654843E+04 0.  0.
        5    1    3    3  502    0  0.24295564048E+03 -0.12438856311E+03  0.18686432296E+04  0.18884781088E+04  0.46999998093E+01 0.  1.
       -5    1    3    3    0  502 -0.24295564048E+03  0.12438856311E+03 -0.12392437869E+04  0.12689551652E+04  0.46999998093E+01 0. -1.
</event>
<event>
 5   0  0.4219337E-07  0.3054227E+04  0.7818609E-02  0.8228413E-01
        1   -1    0    0  501    0  0.00000000000E+00  0.00000000000E+00  0.18224445437E+04  0.18224445438E+04  0.50400001928E-02 0. -1.
       -1   -1    0    0    0  501  0.00000000000E+00  0.00000000000E+00 -0.12796418857E+04  0.12796418857E+04  0.50400001928E-02 0.  1.
    10030    2    1    2    0    0  0.00000000000E+00  0.00000000000E+00  0.54280265803E+03  0.31020864295E+04  0.30542274785E+04 0.  0.
        4    1    3    3  502    0  0.18965057015E+03 -0.13338193906E+04 -0.45891624600E+03  0.14232523456E+04  0.12699999809E+01 0.  1.
       -4    1    3    3    0  502 -0.18965057015E+03  0.13338193906E+04  0.10017189040E+04  0.16788340839E+04  0.12699999809E+01 0. -1.
</event>
<event>
 5   0  0.4134019E-07  0.3095885E+04  0.7818609E-02  0.8216868E-01
        1   -1    0    0  501    0  0.00000000000E+00  0.00000000000E+00  0.11970188759E+04  0.11970188760E+04  0.50400001928E-02 0. -1.
       -1   -1    0    0    0  501  0.00000000000E+00  0.00000000000E+00 -0.20017439221E+04  0.20017439221E+04  0.50400001928E-02 0.  1.
    10030    2    1    2    0    0  0.00000000000E+00  0.00000000000E+00 -0.80472504616E+03  0.31987627981E+04  0.30958845325E+04 0.  0.
        2    1    3    3  502    0 -0.13531674928E+04 -0.38179950196E+03 -0.10714080027E+04  0.17676957407E+04  0.25500000920E-02 0.  1.
       -2    1    3    3    0  502  0.13531674928E+04  0.38179950196E+03  0.26668295656E+03  0.14310670574E+04  0.25500000920E-02 0. -1.
</event>
<event>
 5   0  0.4219337E-07  0.3075158E+04  0.7818609E-02  0.8222589E-01
       -1   -1    0    0    0  501  0.00000000000E+00  0.00000000000E+00  0.14363452711E+04  0.14363452711E+04  0.50400001928E-02 0. -1.
        1   -1    0    0  501    0  0.00000000000E+00  0.00000000000E+00 -0.16459472880E+04  0.16459472880E+04  0.50400001928E-02 0.  1.
    10030    2    1    2    0    0  0.00000000000E+00  0.00000000000E+00 -0.20960201696E+03  0.30822925591E+04  0.30751576243E+04 0.  0.
        4    1    3    3  502    0 -0.79591353207E+03  0.40159313083E+03 -0.13604612347E+04  0.16265336693E+04  0.12699999809E+01 0.  1.
       -4    1    3    3    0  502  0.79591353207E+03 -0.40159313083E+03  0.11508592178E+04  0.14557588898E+04  0.12699999809E+01 0. -1.
</event>
<event>
 5   0  0.1258262E-06  0.3055655E+04  0.7818609E-02  0.8228014E-01
       -2   -1    0    0    0  501  0.00000000000E+00  0.00000000000E+00  0.15641729898E+04  0.15641729898E+04  0.25500000920E-02 0.  1.
        2   -1    0    0  501    0  0.00000000000E+00  0.00000000000E+00 -0.14923264628E+04  0.14923264628E+04  0.25500000920E-02 0. -1.
    10030    2    1    2    0    0  0.00000000000E+00  0.00000000000E+00  0.71846527000E+02  0.30564994526E+04  0.30556549184E+04 0.  0.
        1    1    3    3  502    0 -0.18585549307E+03  0.72643991222E+03  0.13674559048E+04  0.15595489290E+04  0.50400001928E-02 0.  1.
       -1    1    3    3    0  502  0.18585549307E+03 -0.72643991222E+03 -0.12956093778E+04  0.14969505236E+04  0.50400001928E-02 0. -1.
</event>
<event>
 5   0  0.1237580E-06  0.3070056E+04  0.7818609E-02  0.8224004E-01
        2   -1    0    0  501    0  0.00000000000E+00  0.00000000000E+00  0.16167904840E+04  0.16167904840E+04  0.25500000920E-02 0. -1.
       -2   -1    0    0    0  501  0.00000000000E+00  0.00000000000E+00 -0.14574001523E+04  0.14574001523E+04  0.25500000920E-02 0.  1.
    10030    2    1    2    0    0  0.00000000000E+00  0.00000000000E+00  0.15939033173E+03  0.30741906363E+04  0.30700558285E+04 0.  0.
        4    1    3    3  502    0 -0.14088756599E+04 -0.58464046591E+03 -0.92507332454E+02  0.15281669801E+04  0.12699999809E+01 0.  1.
       -4    1    3    3    0  502  0.14088756599E+04  0.58464046591E+03  0.25189766418E+03  0.15460236562E+04  0.12699999809E+01 0. -1.
</event>
<event>
 5   0  0.4173905E-07  0.3089646E+04  0.7818609E-02  0.8218585E-01
       -1   -1    0    0    0  501  0.00000000000E+00  0.00000000000E+00  0.13668536992E+04  0.13668536992E+04  0.50400001928E-02 0.  1.
        1   -1    0    0  501    0  0.00000000000E+00  0.00000000000E+00 -0.17459643830E+04  0.17459643830E+04  0.50400001928E-02 0. -1.
    10030    2    1    2    0    0  0.00000000000E+00  0.00000000000E+00 -0.37911068376E+03  0.31128180822E+04  0.30896458538E+04 0.  0.
        3    1    3    3  502    0 -0.24190360650E+03 -0.25268143451E+03 -0.17055373595E+04  0.17410407684E+04  0.10100000352E+00 0. -1.
       -3    1    3    3    0  502  0.24190360650E+03  0.25268143451E+03  0.13264266758E+04  0.13717773138E+04  0.10100000352E+00 0.  1.
</event>
<event>
 5   0  0.1193123E-06  0.3101501E+04  0.7818609E-02  0.8215326E-01
       -2   -1    0    0    0  501  0.00000000000E+00  0.00000000000E+00  0.10832167088E+04  0.10832167088E+04  0.25500000920E-02 0.  1.
        2   -1    0    0  501    0  0.00000000000E+00  0.00000000000E+00 -0.22200790202E+04  0.22200790202E+04  0.25500000920E-02 0. -1.
    10030    2    1    2    0    0  0.00000000000E+00  0.00000000000E+00 -0.11368623114E+04  0.33032957290E+04  0.31015007268E+04 0.  0.
        3    1    3    3  502    0 -0.67610759407E+03  0.43702584439E+03 -0.19800779681E+04  0.21374802542E+04  0.10100000352E+00 0. -1.
       -3    1    3    3    0  502  0.67610759407E+03 -0.43702584439E+03  0.84321565669E+03  0.11658154748E+04  0.10100000352E+00 0.  1.
</event>
<event>
 5   0  0.4173905E-07  0.3108564E+04  0.7818609E-02  0.8213391E-01
        1   -1    0    0  501    0  0.00000000000E+00  0.00000000000E+00  0.18897847789E+04  0.18897847789E+04  0.50400001928E-02 0. -1.
       -1   -1    0    0    0  501  0.00000000000E+00  0.00000000000E+00 -0.12783427876E+04  0.12783427876E+04  0.50400001928E-02 0.  1.
    10030    2    1    2    0    0  0.00000000000E+00  0.00000000000E+00  0.61144199133E+03  0.31681275665E+04  0.31085641329E+04 0.  0.
        3    1    3    3  502    0  0.14263372730E+04  0.37441178408E+03 -0.19478000374E+03  0.14874681376E+04  0.10100000352E+00 0. -1.
       -3    1    3    3    0  502 -0.14263372730E+04 -0.37441178408E+03  0.80622199507E+03  0.16806594289E+04  0.10100000352E+00 0.  1.
</event>
<event>
 5   0  0.4134019E-07  0.3102861E+04  0.7818609E-02  0.8214953E-01
       -1   -1    0    0    0  501  0.00000000000E+00  0.00000000000E+00  0.99018433656E+03  0.99018433657E+03  0.50400001928E-02 0. -1.
        1   -1    0    0  501    0  0.00000000000E+00  0.00000000000E+00 -0.24307964341E+04  0.24307964341E+04  0.50400001928E-02 0.  1.
    10030    2    1    2    0    0  0.00000000000E+00  0.00000000000E+00 -0.14406120976E+04  0.34209807707E+04  0.31028609730E+04 0.  0.
        2    1    3    3  502    0  0.50363671155E+03 -0.67689799965E+03 -0.21557473212E+04  0.23149702702E+04  0.25500000920E-02 0.  1.
       -2    1    3    3    0  502 -0.50363671155E+03  0.67689799965E+03  0.71513522362E+03  0.11060105005E+04  0.25500000920E-02 0. -1.
</event>
<event>
 5   0  0.1176002E-06  0.3070407E+04  0.7818609E-02  0.8223907E-01
        2   -1    0    0  501    0  0.00000000000E+00  0.00000000000E+00  0.11840564793E+04  0.11840564793E+04  0.25500000920E-02 0. -1.
       -2   -1    0    0    0  501  0.00000000000E+00  0.00000000000E+00 -0.19904880782E+04  0.19904880782E+04  0.25500000920E-02 0.  1.
    10030    2    1    2    0    0  0.00000000000E+00  0.00000000000E+00 -0.80643159888E+03  0.31745445575E+04  0.30704073384E+04 0.  0.
        2    1    3    3  502    0 -0.75960266542E+03  0.10681099087E+04 -0.12296994566E+04  0.17972244546E+04  0.25500000920E-02 0. -1.
       -2    1    3    3    0  502  0.75960266542E+03 -0.10681099087E+04  0.42326785775E+03  0.13773201029E+04  0.25500000920E-02 0.  1.
</event>
<event>
 5   0  0.3902375E-07  0.3112602E+04  0.7818609E-02  0.8212288E-01
        3   -1    0    0  501    0  0.00000000000E+00  0.00000000000E+00  0.17476162494E+04  0.17476162524E+04  0.10100000352E+00 0.  1.
       -3   -1    0    0    0  501  0.00000000000E+00  0.00000000000E+00 -0.13859291553E+04  0.13859291590E+04  0.10100000352E+00 0. -1.
    10030    2    1    2    0    0  0.00000000000E+00  0.00000000000E+00  0.36168709412E+03  0.31335454114E+04  0.31126016917E+04 0.  0.
        2    1    3    3  502    0 -0.12818692794E+04  0.21898150345E+03 -0.67985388661E+03  0.14674273595E+04  0.25500000920E-02 0. -1.
       -2    1    3    3    0  502  0.12818692794E+04 -0.21898150345E+03  0.10415409807E+04  0.16661180519E+04  0.25500000920E-02 0.  1.
</event>
<event>
 5   0  0.4330395E-07  0.3154619E+04  0.7818609E-02  0.8200906E-01
        1   -1    0    0  501    0  0.00000000000E+00  0.00000000000E+00  0.13590214617E+04  0.13590214617E+04  0.50400001928E-02 0. -1.
       -1   -1    0    0    0  501  0.00000000000E+00  0.00000000000E+00 -0.18306589565E+04  0.18306589565E+04  0.50400001928E-02 0.  1.
    10030    2    1    2    0    0  0.00000000000E+00  0.00000000000E+00 -0.47163749479E+03  0.31896804183E+04  0.31546187161E+04 0.  0.
        1    1    3    3  502    0 -0.11400265812E+03  0.15320907253E+04 -0.59700915597E+03  0.16482471080E+04  0.50400001928E-02 0.  1.
       -1    1    3    3    0  502  0.11400265812E+03 -0.15320907253E+04  0.12537166118E+03  0.15414333103E+04  0.50400001928E-02 0. -1.
</event>
<event>
 5   0  0.1237580E-06  0.3101242E+04  0.7818609E-02  0.8215397E-01
       -2   -1    0    0    0  501  0.00000000000E+00  0.00000000000E+00  0.16202966369E+04  0.16202966369E+04  0.25500000920E-02 0.  1.
        2   -1    0    0  501    0  0.00000000000E+00  0.00000000000E+00 -0.14839413717E+04  0.14839413717E+04  0.25500000920E-02 0. -1.
    10030    2    1    2    0    0  0.00000000000E+00  0.00000000000E+00  0.13635526520E+03  0.31042380085E+04  0.31012418247E+04 0.  0.
        4    1    3    3  502    0  0.13791814161E+04 -0.40424285120E+03 -0.51451013674E+03  0.15265241417E+04  0.12699999809E+01 0. -1.
       -4    1    3    3    0  502 -0.13791814161E+04  0.40424285120E+03  0.65086540194E+03  0.15777138669E+04  0.12699999809E+01 0.  1.
</event>
<event>
 5   0  0.4330395E-07  0.3136859E+04  0.7818609E-02  0.8205694E-01
       -1   -1    0    0    0  501  0.00000000000E+00  0.00000000000E+00  0.11970760598E+04  0.11970760598E+04  0.50400001928E-02 0.  1.
        1   -1    0    0  501    0  0.00000000000E+00  0.00000000000E+00 -0.20549834643E+04  0.20549834643E+04  0.50400001928E-02 0. -1.
    10030    2    1    2    0    0  0.00000000000E+00  0.00000000000E+00 -0.85790740449E+03  0.32520595241E+04  0.31368592627E+04 0.  0.
        1    1    3    3  502    0 -0.95058900781E+03 -0.19223328039E+03  0.84895340655E+03  0.12889123253E+04  0.50400001928E-02 0.  1.
       -1    1    3    3    0  502  0.95058900781E+03  0.19223328039E+03 -0.17068608110E+04  0.19631471988E+04  0.50400001928E-02 0. -1.
</event>
<event>
 5   0  0.1237580E-06  0.3078010E+04  0.7818609E-02  0.8221799E-01
        2   -1    0    0  501    0  0.00000000000E+00  0.00000000000E+00  0.11587260468E+04  0.11587260468E+04  0.25500000920E-02 0. -1.
       -2   -1    0    0    0  501  0.00000000000E+00  0.00000000000E+00 -0.20440862462E+04  0.20440862462E+04  0.25500000920E-02 0.  1.
    10030    2    1    2    0    0  0.00000000000E+00  0.00000000000E+00 -0.88536019933E+03  0.32028122930E+04  0.30780097306E+04 0.  0.
        4    1    3    3  502    0  0.10561905700E+04  0.38712950696E+03  0.65020416811E+03  0.12992978290E+04  0.12699999809E+01 0. -1.
       -4    1    3    3    0  502 -0.10561905700E+04 -0.38712950696E+03 -0.15355643674E+04  0.19035144640E+04  0.12699999809E+01 0.  1.
</event>
<event>
 5   0  0.1200286E-06  0.3064020E+04  0.7818609E-02  0.8225682E-01
        2   -1    0    0  501    0  0.00000000000E+00  0.00000000000E+00  0.18422792405E+04  0.18422792405E+04  0.25500000920E-02 0.  1.
       -2   -1    0    0    0  501  0.00000000000E+00  0.00000000000E+00 -0.12739950961E+04  0.12739950961E+04  0.25500000920E-02 0. -1.
    10030    2    1    2    0    0  0.00000000000E+00  0.00000000000E+00  0.56828414442E+03  0.31162743366E+04  0.30640200509E+04 0.  0.
        5    1    3    3  502    0 -0.57032918071E+03 -0.53647458577E+03  0.16233951398E+04  0.18023635109E+04  0.46999998093E+01 0.  1.
       -5    1    3    3    0  502  0.57032918071E+03  0.53647458577E+03 -0.10551109953E+04  0.13139108258E+04  0.46999998093E+01 0. -1.
</event>
<event>
 5   0  0.4219337E-07  0.3094773E+04  0.7818609E-02  0.8217174E-01
        1   -1    0    0  501    0  0.00000000000E+00  0.00000000000E+00  0.19271632060E+04  0.19271632060E+04  0.50400001928E-02 0. -1.
       -1   -1    0    0    0  501  0.00000000000E+00  0.00000000000E+00 -0.12424505997E+04  0.12424505997E+04  0.50400001928E-02 0.  1.
    10030    2    1    2    0    0  0.00000000000E+00  0.00000000000E+00  0.68471260629E+03  0.31696138058E+04  0.30947730651E+04 0.  0.
        4    1    3    3  502    0 -0.78557593682E+03  0.84021710212E+03 -0.71771467759E+03  0.13558061449E+04  0.12699999809E+01 0.  1.
       -4    1    3    3    0  502  0.78557593682E+03 -0.84021710212E+03  0.14024272839E+04  0.18138076609E+04  0.12699999809E+01 0. -1.
</event>
<event>
 5   0  0.1200286E-06  0.3095063E+04  0.7818609E-02  0.8217094E-01
        2   -1    0    0  501    0  0.00000000000E+00  0.00000000000E+00  0.18989182380E+04  0.18989182380E+04  0.25500000920E-02 0.  1.
       -2   -1    0    0    0  501  0.00000000000E+00  0.00000000000E+00 -0.12611674881E+04  0.12611674881E+04  0.25500000920E-02 0. -1.
    10030    2    1    2    0    0  0.00000000000E+00  0.00000000000E+00  0.63775074987E+03  0.31600857261E+04  0.30950631298E+04 0.  0.
        5    1    3    3  502    0  0.62521725269E+03  0.12143189602E+04 -0.42398440113E+03  0.14301230760E+04  0.46999998093E+01 0. -1.
       -5    1    3    3    0  502 -0.62521725269E+03 -0.12143189602E+04  0.10617351510E+04  0.17299626502E+04  0.46999998093E+01 0.  1.
</event>
<event>
 5   0  0.4134019E-07  0.3089514E+04  0.7818609E-02  0.8218621E-01
       -1   -1    0    0    0  501  0.00000000000E+00  0.00000000000E+00  0.12435780613E+04  0.12435780613E+04  0.50400001928E-02 0.  1.
        1   -1    0    0  501    0  0.00000000000E+00  0.00000000000E+00 -0.19188782476E+04  0.19188782476E+04  0.50400001928E-02 0. -1.
    10030    2    1    2    0    0  0.00000000000E+00  0.00000000000E+00 -0.67530018634E+03  0.31624563089E+04  0.30895144545E+04 0.  0.
        2    1    3    3  502    0 -0.57878760258E+03 -0.73982426434E+03  0.91765571350E+03  0.13131744132E+04  0.25500000920E-02 0.  1.
       -2    1    3    3    0  502  0.57878760258E+03  0.73982426434E+03 -0.15929558998E+04  0.18492818957E+04  0.25500000920E-02 0. -1.
</event>
<event>
 5   0  0.1176002E-06  0.3095453E+04  0.7818609E-02  0.8216987E-01
        2   -1    0    0  501    0  0.00000000000E+00  0.00000000000E+00  0.16317351012E+04  0.16317351012E+04  0.25500000920E-02 0.  1.
       -2   -1    0    0    0  501  0.00000000000E+00  0.00000000000E+00 -0.14680425491E+04  0.14680425491E+04  0.25500000920E-02 0. -1.
    10030    2    1    2    0    0  0.00000000000E+00  0.00000000000E+00  0.16369255205E+03  0.30997776503E+04  0.30954525081E+04 0.  0.
        2    1    3    3  502    0  0.50591377171E+03  0.21998346165E+03 -0.13662430935E+04  0.14734183582E+04  0.25500000920E-02 0. -1.
       -2    1    3    3    0  502 -0.50591377171E+03 -0.21998346165E+03  0.15299356455E+04  0.16263592922E+04  0.25500000920E-02 0.  1.
</event>
<event>
 5   0  0.3935852E-07  0.3019308E+04  0.7818609E-02  0.8238239E-01
        1   -1    0    0  501    0  0.00000000000E+00  0.00000000000E+00  0.10851780271E+04  0.10851780271E+04  0.50400001928E-02 0.  1.
       -1   -1    0    0    0  501  0.00000000000E+00  0.00000000000E+00 -0.21001676348E+04  0.21001676348E+04  0.50400001928E-02 0. -1.
    10030    2    1    2    0    0  0.00000000000E+00  0.00000000000E+00 -0.10149896077E+04  0.31853456619E+04  0.30193083781E+04 0.  0.
        5    1    3    3  502    0 -0.13443698602E+04 -0.88083910273E+02  0.21109681887E+03  0.13636982999E+04  0.46999998093E+01 0.  1.
       -5    1    3    3    0  502  0.13443698602E+04  0.88083910273E+02 -0.12260864265E+04  0.18216473620E+04  0.46999998093E+01 0. -1.
</event>
</LesHouchesEvents>
